 Entering Gaussian System, Link 0=g16
 Input=mols_66_7_07_c-n-c-cOC_opt_0.gjf
 Output=mols_66_7_07_c-n-c-cOC_opt_0.log
 Initial command:
 /opt/ohpc/pub/libs/gaussian/g16-A.03/sandybridge/g16/l1.exe "/mnt/gpfs2_4m/scratch/rdu230/ondemand/projects/dihedral_energies/7trial/wtuning/mols_66_7_07_c-n-c-cOC/Gau-281712.inp" -scrdir="/mnt/gpfs2_4m/scratch/rdu230/ondemand/projects/dihedral_energies/7trial/wtuning/mols_66_7_07_c-n-c-cOC/"
 Entering Link 1 = /opt/ohpc/pub/libs/gaussian/g16-A.03/sandybridge/g16/l1.exe PID=    281721.
  
 Copyright (c) 1988,1990,1992,1993,1995,1998,2003,2009,2016,
            Gaussian, Inc.  All Rights Reserved.
  
 This is part of the Gaussian(R) 16 program.  It is based on
 the Gaussian(R) 09 system (copyright 2009, Gaussian, Inc.),
 the Gaussian(R) 03 system (copyright 2003, Gaussian, Inc.),
 the Gaussian(R) 98 system (copyright 1998, Gaussian, Inc.),
 the Gaussian(R) 94 system (copyright 1995, Gaussian, Inc.),
 the Gaussian 92(TM) system (copyright 1992, Gaussian, Inc.),
 the Gaussian 90(TM) system (copyright 1990, Gaussian, Inc.),
 the Gaussian 88(TM) system (copyright 1988, Gaussian, Inc.),
 the Gaussian 86(TM) system (copyright 1986, Carnegie Mellon
 University), and the Gaussian 82(TM) system (copyright 1983,
 Carnegie Mellon University). Gaussian is a federally registered
 trademark of Gaussian, Inc.
  
 This software contains proprietary and confidential information,
 including trade secrets, belonging to Gaussian, Inc.
  
 This software is provided under written license and may be
 used, copied, transmitted, or stored only in accord with that
 written license.
  
 The following legend is applicable only to US Government
 contracts under FAR:
  
                    RESTRICTED RIGHTS LEGEND
  
 Use, reproduction and disclosure by the US Government is
 subject to restrictions as set forth in subparagraphs (a)
 and (c) of the Commercial Computer Software - Restricted
 Rights clause in FAR 52.227-19.
  
 Gaussian, Inc.
 340 Quinnipiac St., Bldg. 40, Wallingford CT 06492
  
  
 ---------------------------------------------------------------
 Warning -- This program may not be used in any manner that
 competes with the business of Gaussian, Inc. or will provide
 assistance to any competitor of Gaussian, Inc.  The licensee
 of this program is prohibited from giving any competitor of
 Gaussian, Inc. access to this program.  By using this program,
 the user acknowledges that Gaussian, Inc. is engaged in the
 business of creating and licensing software in the field of
 computational chemistry and represents and warrants to the
 licensee that it is not a competitor of Gaussian, Inc. and that
 it will not use this program in any manner prohibited above.
 ---------------------------------------------------------------
  

 Cite this work as:
 Gaussian 16, Revision A.03,
 M. J. Frisch, G. W. Trucks, H. B. Schlegel, G. E. Scuseria, 
 M. A. Robb, J. R. Cheeseman, G. Scalmani, V. Barone, 
 G. A. Petersson, H. Nakatsuji, X. Li, M. Caricato, A. V. Marenich, 
 J. Bloino, B. G. Janesko, R. Gomperts, B. Mennucci, H. P. Hratchian, 
 J. V. Ortiz, A. F. Izmaylov, J. L. Sonnenberg, D. Williams-Young, 
 F. Ding, F. Lipparini, F. Egidi, J. Goings, B. Peng, A. Petrone, 
 T. Henderson, D. Ranasinghe, V. G. Zakrzewski, J. Gao, N. Rega, 
 G. Zheng, W. Liang, M. Hada, M. Ehara, K. Toyota, R. Fukuda, 
 J. Hasegawa, M. Ishida, T. Nakajima, Y. Honda, O. Kitao, H. Nakai, 
 T. Vreven, K. Throssell, J. A. Montgomery, Jr., J. E. Peralta, 
 F. Ogliaro, M. J. Bearpark, J. J. Heyd, E. N. Brothers, K. N. Kudin, 
 V. N. Staroverov, T. A. Keith, R. Kobayashi, J. Normand, 
 K. Raghavachari, A. P. Rendell, J. C. Burant, S. S. Iyengar, 
 J. Tomasi, M. Cossi, J. M. Millam, M. Klene, C. Adamo, R. Cammi, 
 J. W. Ochterski, R. L. Martin, K. Morokuma, O. Farkas, 
 J. B. Foresman, and D. J. Fox, Gaussian, Inc., Wallingford CT, 2016.
 
 ******************************************
 Gaussian 16:  EM64L-G16RevA.03 25-Dec-2016
                24-Jul-2020 
 ******************************************
 %mem=30GB
 %nproc=8
 Will use up to    8 processors via shared memory.
 ---------------------------------------------------------------
 #P uLC-wPBE/cc-pVDZ iop(3/107=0053700000, 3/108=0053700000) opt
 ---------------------------------------------------------------
 1/18=20,19=15,26=3,38=1/1,3;
 2/9=110,12=2,17=6,18=5,40=1/2;
 3/5=16,11=2,25=1,30=1,71=1,74=-41,107=53700000,108=53700000,116=2/1,2,3;
 4//1;
 5/5=2,38=5/2;
 6/7=2,8=2,9=2,10=2,28=1/1;
 7//1,2,3,16;
 1/18=20,19=15,26=3/3(2);
 2/9=110/2;
 99//99;
 2/9=110/2;
 3/5=16,11=2,25=1,30=1,71=1,74=-41,107=53700000,108=53700000,116=2/1,2,3;
 4/5=5,16=3,69=1/1;
 5/5=2,38=5/2;
 7//1,2,3,16;
 1/18=20,19=15,26=3/3(-5);
 2/9=110/2;
 6/7=2,8=2,9=2,10=2,19=2,28=1/1;
 99/9=1/99;
 Leave Link    1 at Fri Jul 24 12:11:57 2020, MaxMem=  4026531840 cpu:               2.7 elap:               0.4
 (Enter /opt/ohpc/pub/libs/gaussian/g16-A.03/sandybridge/g16/l101.exe)
 -------------
 H65 C84 N7 O7
 -------------
 Symbolic Z-matrix:
 Charge =  0 Multiplicity = 1
 C                    -28.76703   0.33325   1.7673 
 C                    -28.46722   0.82396   0.48418 
 C                    -27.06557   0.763     0.14542 
 C                    -26.16616   0.24708   1.08548 
 N                    -26.50995  -0.18663   2.31461 
 C                    -27.81488  -0.14633   2.57755 
 C                    -24.72723   0.17003   0.71885 
 C                    -23.81495   0.89367   1.33496 
 C                    -22.39758   0.75948   1.13674 
 C                    -21.95257  -0.14391   0.12103 
 C                    -22.95891  -0.91824  -0.50454 
 C                    -24.33783  -0.78316  -0.243 
 O                    -25.23704  -1.61466  -0.93609 
 C                    -25.2931  -2.86451  -0.3554 
 C                    -20.49987  -0.35836  -0.14743 
 C                    -20.00055  -0.45363  -1.40804 
 C                    -18.65063  -0.56823  -1.67233 
 C                    -17.78194  -0.70089  -0.541 
 N                    -18.31552  -0.79212   0.74817 
 C                    -19.56417  -0.58512   0.89179 
 C                    -16.3375  -0.94546  -0.65869 
 C                    -15.61308  -1.75301   0.28513 
 C                    -14.21285  -1.89295   0.2031 
 C                    -13.42368  -1.19903  -0.73456 
 C                    -14.18745  -0.38936  -1.65998 
 C                    -15.56709  -0.22743  -1.6728 
 O                    -16.21916   0.58662  -2.53884 
 C                    -15.48788   1.26007  -3.56305 
 C                    -12.02605  -1.28598  -0.65808 
 C                    -11.3305  -2.43093  -0.44635 
 C                    -9.88164  -2.40462  -0.30233 
 C                    -9.21351  -1.24772  -0.55572 
 N                    -9.8158   -0.09013  -0.85081 
 C                    -11.22778  -0.13762  -0.83609 
 C                    -7.70273  -1.09402  -0.41355 
 C                    -6.99668  -0.2958   -1.33293 
 C                    -5.66136  -0.03884  -1.17907 
 C                    -4.888    -0.59015  -0.14949 
 C                    -5.61737  -1.43347   0.78874 
 C                    -7.0246   -1.6549    0.66796 
 O                    -7.73739  -2.41554   1.59869 
 C                    -7.08058  -2.69771   2.83858 
 C                    -3.51351  -0.22233   0.03925 
 C                    -3.02927   0.35106   1.12147 
 C                    -1.63277   0.67666   1.23467 
 C                    -0.77405   0.42613   0.18233 
 N                    -1.31654  -0.16992  -0.94197 
 C                    -2.61081  -0.5218   -1.03023 
 C                     0.61007   0.8139    0.10138 
 C                     1.5863   -0.08385  -0.3538 
 C                     2.8665    0.17876  -0.40699 
 C                     3.43439   1.44886   0.05009 
 C                     2.4611    2.35905   0.56106 
 C                     1.10201   2.00369   0.61141 
 O                     0.25737   2.98482   1.05611 
 C                     0.2393    4.20035   0.28588 
 C                     4.88663   1.64043   0.01058 
 C                     5.53479   2.23747   1.09805 
 C                     6.9779    2.45456   0.98054 
 C                     7.62102   2.11854  -0.15051 
 N                     6.9485    1.51552  -1.20682 
 C                     5.69964   1.36556  -1.11062 
 C                     9.12019   2.1778   -0.22237 
 C                     9.83759   1.03265  -0.78258 
 C                     11.1567   0.98725  -0.86723 
 C                     11.96539   2.00825  -0.40595 
 C                     11.25936   3.1678    0.10114 
 C                     9.87234   3.19287   0.14615 
 O                     9.18625   4.37839   0.62487 
 C                     9.82846   5.62692   0.4953 
 C                     13.47312   1.95353  -0.37732 
 C                     14.24106   2.54389   0.59082 
 C                     15.6415   2.27998   0.67501 
 C                     16.21275   1.4789   -0.39517 
 N                     15.52134   1.1142   -1.41655 
 C                     14.12741   1.26606  -1.40808 
 C                     17.68254   1.09556  -0.31995 
 C                     18.37898   1.01858  -1.51795 
 C                     19.64213   0.51425  -1.58857 
 C                     20.28931   0.09446  -0.50522 
 C                     19.64806   0.20002   0.79001 
 C                     18.26732   0.65514   0.80015 
 O                     17.58801   0.6679    1.99056 
 C                     18.24558   0.23878   3.15123 
 C                     21.67472  -0.5192   -0.46049 
 C                     22.67871  -0.1535    0.38701 
 C                     23.95206  -0.80903   0.38172 
 C                     24.04549  -1.89715  -0.45473 
 N                     23.14862  -2.23268  -1.35338 
 C                     21.98163  -1.64038  -1.36761 
 C                     25.32797  -2.75298  -0.50569 
 C                     25.89532  -3.12376  -1.73826 
 C                     27.04506  -3.91345  -1.79743 
 C                     27.66692  -4.25473  -0.60296 
 C                     27.12203  -3.98241   0.68508 
 C                     25.93152  -3.23155   0.68183 
 O                     25.36757  -2.88819   1.87471 
 C                     25.40405  -3.90261   2.94576 
 H                    -29.89128   0.28504   2.04826 
 H                    -29.23016   1.15536  -0.22915 
 H                    -26.7731   1.08785  -0.90421 
 H                    -28.06727  -0.54023   3.58179 
 H                    -24.0868   1.57663   2.10828 
 H                    -21.68093   1.33163   1.63182 
 H                    -22.66702  -1.66003  -1.2533 
 H                    -24.32814  -3.42693  -0.56997 
 H                    -26.14509  -3.44712  -0.73525 
 H                    -25.36743  -2.83749   0.78665 
 H                    -20.62174  -0.27222  -2.28836 
 H                    -18.29581  -0.66507  -2.65849 
 H                    -19.92165  -0.65452   1.97044 
 H                    -16.24374  -2.24114   1.05225 
 H                    -13.75383  -2.48869   1.03565 
 H                    -13.53458   0.1469   -2.4425 
 H                    -14.98465   0.54057  -4.22337 
 H                    -14.74891   1.97217  -3.10974 
 H                    -16.12822   1.78553  -4.14573 
 H                    -11.85232  -3.34652  -0.28216 
 H                    -9.34807  -3.40232  -0.13744 
 H                    -11.61739   0.85031  -1.03778 
 H                    -7.60304   0.16062  -2.16636 
 H                    -5.14347   0.5275   -1.93771 
 H                    -5.05736  -1.75965   1.64492 
 H                    -7.76928  -3.15247   3.48352 
 H                    -6.6305   -1.89379   3.38541 
 H                    -6.32449  -3.53218   2.6514 
 H                    -3.66414   0.64218   2.02316 
 H                    -1.32007   1.1728    2.14838 
 H                    -2.8844   -1.00711  -1.85895 
 H                     1.22971  -1.04468  -0.76299 
 H                     3.57002  -0.57076  -0.76808 
 H                     2.80682   3.31116   0.9375 
 H                    -0.74957   4.70175   0.48319 
 H                     1.0937    4.81566   0.54361 
 H                     0.19787   3.88348  -0.81221 
 H                     4.99974   2.59991   1.96629 
 H                     7.45171   2.83445   1.87605 
 H                     5.25847   0.89333  -1.99753 
 H                     9.23218   0.09857  -1.10292 
 H                     11.63215   0.10524  -1.21728 
 H                     11.84648   4.05318   0.44736 
 H                     9.12951   6.34122   0.60362 
 H                     10.64214   5.785     1.21477 
 H                     10.30981   5.74278  -0.56446 
 H                     13.81145   3.0737    1.46184 
 H                     16.23746   2.68786   1.40671 
 H                     13.60213   0.89141  -2.27704 
 H                     17.84766   1.34252  -2.45273 
 H                     20.1454   0.50203  -2.62831 
 H                     20.13165  -0.2068    1.68876 
 H                     18.4397  -0.86642   3.13785 
 H                     17.45599   0.36406   4.03373 
 H                     19.09226   0.84351   3.39228 
 H                     22.49494   0.71802   1.03975 
 H                     24.65131  -0.46078   1.06548 
 H                     21.21198  -1.97511  -1.99592 
 H                     25.46372  -2.73379  -2.60404 
 H                     27.51739  -4.12775  -2.72025 
 H                     28.51382  -4.88772  -0.62893 
 H                     27.56119  -4.28686   1.53299 
 H                     25.21879  -4.82113   2.49887 
 H                     26.34961  -3.85737   3.37856 
 H                     24.63411  -3.59281   3.63399 
 
 ITRead=  0  0  0  0  0  0  0  0  0  0  0  0  0  0  0  0  0  0  0  0
 ITRead=  0  0  0  0  0  0  0  0  0  0  0  0  0  0  0  0  0  0  0  0
 ITRead=  0  0  0  0  0  0  0  0  0  0  0  0  0  0  0  0  0  0  0  0
 ITRead=  0  0  0  0  0  0  0  0  0  0  0  0  0  0  0  0  0  0  0  0
 ITRead=  0  0  0  0  0  0  0  0  0  0  0  0  0  0  0  0  0  0  0  0
 ITRead=  0  0  0  0  0  0  0  0  0  0  0  0  0  0  0  0  0  0  0  0
 ITRead=  0  0  0  0  0  0  0  0  0  0  0  0  0  0  0  0  0  0  0  0
 ITRead=  0  0  0  0  0  0  0  0  0  0  0  0  0  0  0  0  0  0  0  0
 ITRead=  0  0  0
 MicOpt= -1 -1 -1 -1 -1 -1 -1 -1 -1 -1 -1 -1 -1 -1 -1 -1 -1 -1 -1 -1
 MicOpt= -1 -1 -1 -1 -1 -1 -1 -1 -1 -1 -1 -1 -1 -1 -1 -1 -1 -1 -1 -1
 MicOpt= -1 -1 -1 -1 -1 -1 -1 -1 -1 -1 -1 -1 -1 -1 -1 -1 -1 -1 -1 -1
 MicOpt= -1 -1 -1 -1 -1 -1 -1 -1 -1 -1 -1 -1 -1 -1 -1 -1 -1 -1 -1 -1
 MicOpt= -1 -1 -1 -1 -1 -1 -1 -1 -1 -1 -1 -1 -1 -1 -1 -1 -1 -1 -1 -1
 MicOpt= -1 -1 -1 -1 -1 -1 -1 -1 -1 -1 -1 -1 -1 -1 -1 -1 -1 -1 -1 -1
 MicOpt= -1 -1 -1 -1 -1 -1 -1 -1 -1 -1 -1 -1 -1 -1 -1 -1 -1 -1 -1 -1
 MicOpt= -1 -1 -1 -1 -1 -1 -1 -1 -1 -1 -1 -1 -1 -1 -1 -1 -1 -1 -1 -1
 MicOpt= -1 -1 -1
 NAtoms=    163 NQM=      163 NQMF=       0 NMMI=      0 NMMIF=      0
                NMic=       0 NMicF=      0.
                    Isotopes and Nuclear Properties:
 (Nuclear quadrupole moments (NQMom) in fm**2, nuclear magnetic moments (NMagM)
  in nuclear magnetons)

  Atom         1           2           3           4           5           6           7           8           9          10
 IAtWgt=          12          12          12          12          14          12          12          12          12          12
 AtmWgt=  12.0000000  12.0000000  12.0000000  12.0000000  14.0030740  12.0000000  12.0000000  12.0000000  12.0000000  12.0000000
 NucSpn=           0           0           0           0           2           0           0           0           0           0
 AtZEff=  -0.0000000  -0.0000000  -0.0000000  -0.0000000  -0.0000000  -0.0000000  -0.0000000  -0.0000000  -0.0000000  -0.0000000
 NQMom=    0.0000000   0.0000000   0.0000000   0.0000000   2.0440000   0.0000000   0.0000000   0.0000000   0.0000000   0.0000000
 NMagM=    0.0000000   0.0000000   0.0000000   0.0000000   0.4037610   0.0000000   0.0000000   0.0000000   0.0000000   0.0000000
 AtZNuc=   6.0000000   6.0000000   6.0000000   6.0000000   7.0000000   6.0000000   6.0000000   6.0000000   6.0000000   6.0000000

  Atom        11          12          13          14          15          16          17          18          19          20
 IAtWgt=          12          12          16          12          12          12          12          12          14          12
 AtmWgt=  12.0000000  12.0000000  15.9949146  12.0000000  12.0000000  12.0000000  12.0000000  12.0000000  14.0030740  12.0000000
 NucSpn=           0           0           0           0           0           0           0           0           2           0
 AtZEff=  -0.0000000  -0.0000000  -0.0000000  -0.0000000  -0.0000000  -0.0000000  -0.0000000  -0.0000000  -0.0000000  -0.0000000
 NQMom=    0.0000000   0.0000000   0.0000000   0.0000000   0.0000000   0.0000000   0.0000000   0.0000000   2.0440000   0.0000000
 NMagM=    0.0000000   0.0000000   0.0000000   0.0000000   0.0000000   0.0000000   0.0000000   0.0000000   0.4037610   0.0000000
 AtZNuc=   6.0000000   6.0000000   8.0000000   6.0000000   6.0000000   6.0000000   6.0000000   6.0000000   7.0000000   6.0000000

  Atom        21          22          23          24          25          26          27          28          29          30
 IAtWgt=          12          12          12          12          12          12          16          12          12          12
 AtmWgt=  12.0000000  12.0000000  12.0000000  12.0000000  12.0000000  12.0000000  15.9949146  12.0000000  12.0000000  12.0000000
 NucSpn=           0           0           0           0           0           0           0           0           0           0
 AtZEff=  -0.0000000  -0.0000000  -0.0000000  -0.0000000  -0.0000000  -0.0000000  -0.0000000  -0.0000000  -0.0000000  -0.0000000
 NQMom=    0.0000000   0.0000000   0.0000000   0.0000000   0.0000000   0.0000000   0.0000000   0.0000000   0.0000000   0.0000000
 NMagM=    0.0000000   0.0000000   0.0000000   0.0000000   0.0000000   0.0000000   0.0000000   0.0000000   0.0000000   0.0000000
 AtZNuc=   6.0000000   6.0000000   6.0000000   6.0000000   6.0000000   6.0000000   8.0000000   6.0000000   6.0000000   6.0000000

  Atom        31          32          33          34          35          36          37          38          39          40
 IAtWgt=          12          12          14          12          12          12          12          12          12          12
 AtmWgt=  12.0000000  12.0000000  14.0030740  12.0000000  12.0000000  12.0000000  12.0000000  12.0000000  12.0000000  12.0000000
 NucSpn=           0           0           2           0           0           0           0           0           0           0
 AtZEff=  -0.0000000  -0.0000000  -0.0000000  -0.0000000  -0.0000000  -0.0000000  -0.0000000  -0.0000000  -0.0000000  -0.0000000
 NQMom=    0.0000000   0.0000000   2.0440000   0.0000000   0.0000000   0.0000000   0.0000000   0.0000000   0.0000000   0.0000000
 NMagM=    0.0000000   0.0000000   0.4037610   0.0000000   0.0000000   0.0000000   0.0000000   0.0000000   0.0000000   0.0000000
 AtZNuc=   6.0000000   6.0000000   7.0000000   6.0000000   6.0000000   6.0000000   6.0000000   6.0000000   6.0000000   6.0000000

  Atom        41          42          43          44          45          46          47          48          49          50
 IAtWgt=          16          12          12          12          12          12          14          12          12          12
 AtmWgt=  15.9949146  12.0000000  12.0000000  12.0000000  12.0000000  12.0000000  14.0030740  12.0000000  12.0000000  12.0000000
 NucSpn=           0           0           0           0           0           0           2           0           0           0
 AtZEff=  -0.0000000  -0.0000000  -0.0000000  -0.0000000  -0.0000000  -0.0000000  -0.0000000  -0.0000000  -0.0000000  -0.0000000
 NQMom=    0.0000000   0.0000000   0.0000000   0.0000000   0.0000000   0.0000000   2.0440000   0.0000000   0.0000000   0.0000000
 NMagM=    0.0000000   0.0000000   0.0000000   0.0000000   0.0000000   0.0000000   0.4037610   0.0000000   0.0000000   0.0000000
 AtZNuc=   8.0000000   6.0000000   6.0000000   6.0000000   6.0000000   6.0000000   7.0000000   6.0000000   6.0000000   6.0000000

  Atom        51          52          53          54          55          56          57          58          59          60
 IAtWgt=          12          12          12          12          16          12          12          12          12          12
 AtmWgt=  12.0000000  12.0000000  12.0000000  12.0000000  15.9949146  12.0000000  12.0000000  12.0000000  12.0000000  12.0000000
 NucSpn=           0           0           0           0           0           0           0           0           0           0
 AtZEff=  -0.0000000  -0.0000000  -0.0000000  -0.0000000  -0.0000000  -0.0000000  -0.0000000  -0.0000000  -0.0000000  -0.0000000
 NQMom=    0.0000000   0.0000000   0.0000000   0.0000000   0.0000000   0.0000000   0.0000000   0.0000000   0.0000000   0.0000000
 NMagM=    0.0000000   0.0000000   0.0000000   0.0000000   0.0000000   0.0000000   0.0000000   0.0000000   0.0000000   0.0000000
 AtZNuc=   6.0000000   6.0000000   6.0000000   6.0000000   8.0000000   6.0000000   6.0000000   6.0000000   6.0000000   6.0000000

  Atom        61          62          63          64          65          66          67          68          69          70
 IAtWgt=          14          12          12          12          12          12          12          12          16          12
 AtmWgt=  14.0030740  12.0000000  12.0000000  12.0000000  12.0000000  12.0000000  12.0000000  12.0000000  15.9949146  12.0000000
 NucSpn=           2           0           0           0           0           0           0           0           0           0
 AtZEff=  -0.0000000  -0.0000000  -0.0000000  -0.0000000  -0.0000000  -0.0000000  -0.0000000  -0.0000000  -0.0000000  -0.0000000
 NQMom=    2.0440000   0.0000000   0.0000000   0.0000000   0.0000000   0.0000000   0.0000000   0.0000000   0.0000000   0.0000000
 NMagM=    0.4037610   0.0000000   0.0000000   0.0000000   0.0000000   0.0000000   0.0000000   0.0000000   0.0000000   0.0000000
 AtZNuc=   7.0000000   6.0000000   6.0000000   6.0000000   6.0000000   6.0000000   6.0000000   6.0000000   8.0000000   6.0000000

  Atom        71          72          73          74          75          76          77          78          79          80
 IAtWgt=          12          12          12          12          14          12          12          12          12          12
 AtmWgt=  12.0000000  12.0000000  12.0000000  12.0000000  14.0030740  12.0000000  12.0000000  12.0000000  12.0000000  12.0000000
 NucSpn=           0           0           0           0           2           0           0           0           0           0
 AtZEff=  -0.0000000  -0.0000000  -0.0000000  -0.0000000  -0.0000000  -0.0000000  -0.0000000  -0.0000000  -0.0000000  -0.0000000
 NQMom=    0.0000000   0.0000000   0.0000000   0.0000000   2.0440000   0.0000000   0.0000000   0.0000000   0.0000000   0.0000000
 NMagM=    0.0000000   0.0000000   0.0000000   0.0000000   0.4037610   0.0000000   0.0000000   0.0000000   0.0000000   0.0000000
 AtZNuc=   6.0000000   6.0000000   6.0000000   6.0000000   7.0000000   6.0000000   6.0000000   6.0000000   6.0000000   6.0000000

  Atom        81          82          83          84          85          86          87          88          89          90
 IAtWgt=          12          12          16          12          12          12          12          12          14          12
 AtmWgt=  12.0000000  12.0000000  15.9949146  12.0000000  12.0000000  12.0000000  12.0000000  12.0000000  14.0030740  12.0000000
 NucSpn=           0           0           0           0           0           0           0           0           2           0
 AtZEff=  -0.0000000  -0.0000000  -0.0000000  -0.0000000  -0.0000000  -0.0000000  -0.0000000  -0.0000000  -0.0000000  -0.0000000
 NQMom=    0.0000000   0.0000000   0.0000000   0.0000000   0.0000000   0.0000000   0.0000000   0.0000000   2.0440000   0.0000000
 NMagM=    0.0000000   0.0000000   0.0000000   0.0000000   0.0000000   0.0000000   0.0000000   0.0000000   0.4037610   0.0000000
 AtZNuc=   6.0000000   6.0000000   8.0000000   6.0000000   6.0000000   6.0000000   6.0000000   6.0000000   7.0000000   6.0000000

  Atom        91          92          93          94          95          96          97          98          99         100
 IAtWgt=          12          12          12          12          12          12          16          12           1           1
 AtmWgt=  12.0000000  12.0000000  12.0000000  12.0000000  12.0000000  12.0000000  15.9949146  12.0000000   1.0078250   1.0078250
 NucSpn=           0           0           0           0           0           0           0           0           1           1
 AtZEff=  -0.0000000  -0.0000000  -0.0000000  -0.0000000  -0.0000000  -0.0000000  -0.0000000  -0.0000000  -0.0000000  -0.0000000
 NQMom=    0.0000000   0.0000000   0.0000000   0.0000000   0.0000000   0.0000000   0.0000000   0.0000000   0.0000000   0.0000000
 NMagM=    0.0000000   0.0000000   0.0000000   0.0000000   0.0000000   0.0000000   0.0000000   0.0000000   2.7928460   2.7928460
 AtZNuc=   6.0000000   6.0000000   6.0000000   6.0000000   6.0000000   6.0000000   8.0000000   6.0000000   1.0000000   1.0000000

  Atom       101         102         103         104         105         106         107         108         109         110
 IAtWgt=           1           1           1           1           1           1           1           1           1           1
 AtmWgt=   1.0078250   1.0078250   1.0078250   1.0078250   1.0078250   1.0078250   1.0078250   1.0078250   1.0078250   1.0078250
 NucSpn=           1           1           1           1           1           1           1           1           1           1
 AtZEff=  -0.0000000  -0.0000000  -0.0000000  -0.0000000  -0.0000000  -0.0000000  -0.0000000  -0.0000000  -0.0000000  -0.0000000
 NQMom=    0.0000000   0.0000000   0.0000000   0.0000000   0.0000000   0.0000000   0.0000000   0.0000000   0.0000000   0.0000000
 NMagM=    2.7928460   2.7928460   2.7928460   2.7928460   2.7928460   2.7928460   2.7928460   2.7928460   2.7928460   2.7928460
 AtZNuc=   1.0000000   1.0000000   1.0000000   1.0000000   1.0000000   1.0000000   1.0000000   1.0000000   1.0000000   1.0000000

  Atom       111         112         113         114         115         116         117         118         119         120
 IAtWgt=           1           1           1           1           1           1           1           1           1           1
 AtmWgt=   1.0078250   1.0078250   1.0078250   1.0078250   1.0078250   1.0078250   1.0078250   1.0078250   1.0078250   1.0078250
 NucSpn=           1           1           1           1           1           1           1           1           1           1
 AtZEff=  -0.0000000  -0.0000000  -0.0000000  -0.0000000  -0.0000000  -0.0000000  -0.0000000  -0.0000000  -0.0000000  -0.0000000
 NQMom=    0.0000000   0.0000000   0.0000000   0.0000000   0.0000000   0.0000000   0.0000000   0.0000000   0.0000000   0.0000000
 NMagM=    2.7928460   2.7928460   2.7928460   2.7928460   2.7928460   2.7928460   2.7928460   2.7928460   2.7928460   2.7928460
 AtZNuc=   1.0000000   1.0000000   1.0000000   1.0000000   1.0000000   1.0000000   1.0000000   1.0000000   1.0000000   1.0000000

  Atom       121         122         123         124         125         126         127         128         129         130
 IAtWgt=           1           1           1           1           1           1           1           1           1           1
 AtmWgt=   1.0078250   1.0078250   1.0078250   1.0078250   1.0078250   1.0078250   1.0078250   1.0078250   1.0078250   1.0078250
 NucSpn=           1           1           1           1           1           1           1           1           1           1
 AtZEff=  -0.0000000  -0.0000000  -0.0000000  -0.0000000  -0.0000000  -0.0000000  -0.0000000  -0.0000000  -0.0000000  -0.0000000
 NQMom=    0.0000000   0.0000000   0.0000000   0.0000000   0.0000000   0.0000000   0.0000000   0.0000000   0.0000000   0.0000000
 NMagM=    2.7928460   2.7928460   2.7928460   2.7928460   2.7928460   2.7928460   2.7928460   2.7928460   2.7928460   2.7928460
 AtZNuc=   1.0000000   1.0000000   1.0000000   1.0000000   1.0000000   1.0000000   1.0000000   1.0000000   1.0000000   1.0000000

  Atom       131         132         133         134         135         136         137         138         139         140
 IAtWgt=           1           1           1           1           1           1           1           1           1           1
 AtmWgt=   1.0078250   1.0078250   1.0078250   1.0078250   1.0078250   1.0078250   1.0078250   1.0078250   1.0078250   1.0078250
 NucSpn=           1           1           1           1           1           1           1           1           1           1
 AtZEff=  -0.0000000  -0.0000000  -0.0000000  -0.0000000  -0.0000000  -0.0000000  -0.0000000  -0.0000000  -0.0000000  -0.0000000
 NQMom=    0.0000000   0.0000000   0.0000000   0.0000000   0.0000000   0.0000000   0.0000000   0.0000000   0.0000000   0.0000000
 NMagM=    2.7928460   2.7928460   2.7928460   2.7928460   2.7928460   2.7928460   2.7928460   2.7928460   2.7928460   2.7928460
 AtZNuc=   1.0000000   1.0000000   1.0000000   1.0000000   1.0000000   1.0000000   1.0000000   1.0000000   1.0000000   1.0000000

  Atom       141         142         143         144         145         146         147         148         149         150
 IAtWgt=           1           1           1           1           1           1           1           1           1           1
 AtmWgt=   1.0078250   1.0078250   1.0078250   1.0078250   1.0078250   1.0078250   1.0078250   1.0078250   1.0078250   1.0078250
 NucSpn=           1           1           1           1           1           1           1           1           1           1
 AtZEff=  -0.0000000  -0.0000000  -0.0000000  -0.0000000  -0.0000000  -0.0000000  -0.0000000  -0.0000000  -0.0000000  -0.0000000
 NQMom=    0.0000000   0.0000000   0.0000000   0.0000000   0.0000000   0.0000000   0.0000000   0.0000000   0.0000000   0.0000000
 NMagM=    2.7928460   2.7928460   2.7928460   2.7928460   2.7928460   2.7928460   2.7928460   2.7928460   2.7928460   2.7928460
 AtZNuc=   1.0000000   1.0000000   1.0000000   1.0000000   1.0000000   1.0000000   1.0000000   1.0000000   1.0000000   1.0000000

  Atom       151         152         153         154         155         156         157         158         159         160
 IAtWgt=           1           1           1           1           1           1           1           1           1           1
 AtmWgt=   1.0078250   1.0078250   1.0078250   1.0078250   1.0078250   1.0078250   1.0078250   1.0078250   1.0078250   1.0078250
 NucSpn=           1           1           1           1           1           1           1           1           1           1
 AtZEff=  -0.0000000  -0.0000000  -0.0000000  -0.0000000  -0.0000000  -0.0000000  -0.0000000  -0.0000000  -0.0000000  -0.0000000
 NQMom=    0.0000000   0.0000000   0.0000000   0.0000000   0.0000000   0.0000000   0.0000000   0.0000000   0.0000000   0.0000000
 NMagM=    2.7928460   2.7928460   2.7928460   2.7928460   2.7928460   2.7928460   2.7928460   2.7928460   2.7928460   2.7928460
 AtZNuc=   1.0000000   1.0000000   1.0000000   1.0000000   1.0000000   1.0000000   1.0000000   1.0000000   1.0000000   1.0000000

  Atom       161         162         163
 IAtWgt=           1           1           1
 AtmWgt=   1.0078250   1.0078250   1.0078250
 NucSpn=           1           1           1
 AtZEff=  -0.0000000  -0.0000000  -0.0000000
 NQMom=    0.0000000   0.0000000   0.0000000
 NMagM=    2.7928460   2.7928460   2.7928460
 AtZNuc=   1.0000000   1.0000000   1.0000000
 Leave Link  101 at Fri Jul 24 12:11:58 2020, MaxMem=  4026531840 cpu:               3.9 elap:               0.5
 (Enter /opt/ohpc/pub/libs/gaussian/g16-A.03/sandybridge/g16/l103.exe)

 GradGradGradGradGradGradGradGradGradGradGradGradGradGradGradGradGradGrad
 Berny optimization.
 Initialization pass.
                           ----------------------------
                           !    Initial Parameters    !
                           ! (Angstroms and Degrees)  !
 --------------------------                            --------------------------
 ! Name  Definition              Value          Derivative Info.                !
 --------------------------------------------------------------------------------
 ! R1    R(1,2)                  1.4061         estimate D2E/DX2                !
 ! R2    R(1,6)                  1.3391         estimate D2E/DX2                !
 ! R3    R(1,99)                 1.1598         estimate D2E/DX2                !
 ! R4    R(2,3)                  1.4433         estimate D2E/DX2                !
 ! R5    R(2,100)                1.0958         estimate D2E/DX2                !
 ! R6    R(3,4)                  1.3996         estimate D2E/DX2                !
 ! R7    R(3,101)                1.137          estimate D2E/DX2                !
 ! R8    R(4,5)                  1.348          estimate D2E/DX2                !
 ! R9    R(4,7)                  1.4869         estimate D2E/DX2                !
 ! R10   R(5,6)                  1.3318         estimate D2E/DX2                !
 ! R11   R(6,102)                1.1079         estimate D2E/DX2                !
 ! R12   R(7,8)                  1.3174         estimate D2E/DX2                !
 ! R13   R(7,12)                 1.409          estimate D2E/DX2                !
 ! R14   R(8,9)                  1.4374         estimate D2E/DX2                !
 ! R15   R(8,103)                1.0669         estimate D2E/DX2                !
 ! R16   R(9,10)                 1.4303         estimate D2E/DX2                !
 ! R17   R(9,104)                1.0421         estimate D2E/DX2                !
 ! R18   R(10,11)                1.4155         estimate D2E/DX2                !
 ! R19   R(10,15)                1.4928         estimate D2E/DX2                !
 ! R20   R(11,12)                1.41           estimate D2E/DX2                !
 ! R21   R(11,105)               1.0937         estimate D2E/DX2                !
 ! R22   R(12,13)                1.4072         estimate D2E/DX2                !
 ! R23   R(13,14)                1.3793         estimate D2E/DX2                !
 ! R24   R(14,106)               1.1373         estimate D2E/DX2                !
 ! R25   R(14,107)               1.0998         estimate D2E/DX2                !
 ! R26   R(14,108)               1.1448         estimate D2E/DX2                !
 ! R27   R(15,16)                1.3592         estimate D2E/DX2                !
 ! R28   R(15,20)                1.4167         estimate D2E/DX2                !
 ! R29   R(16,17)                1.3803         estimate D2E/DX2                !
 ! R30   R(16,109)               1.0926         estimate D2E/DX2                !
 ! R31   R(17,18)                1.4325         estimate D2E/DX2                !
 ! R32   R(17,110)               1.0525         estimate D2E/DX2                !
 ! R33   R(18,19)                1.3982         estimate D2E/DX2                !
 ! R34   R(18,21)                1.4697         estimate D2E/DX2                !
 ! R35   R(19,20)                1.2738         estimate D2E/DX2                !
 ! R36   R(20,111)               1.1385         estimate D2E/DX2                !
 ! R37   R(21,22)                1.438          estimate D2E/DX2                !
 ! R38   R(21,26)                1.462          estimate D2E/DX2                !
 ! R39   R(22,23)                1.4096         estimate D2E/DX2                !
 ! R40   R(22,112)               1.1066         estimate D2E/DX2                !
 ! R41   R(23,24)                1.4084         estimate D2E/DX2                !
 ! R42   R(23,113)               1.1219         estimate D2E/DX2                !
 ! R43   R(24,25)                1.4475         estimate D2E/DX2                !
 ! R44   R(24,29)                1.4024         estimate D2E/DX2                !
 ! R45   R(25,26)                1.3892         estimate D2E/DX2                !
 ! R46   R(25,114)               1.1516         estimate D2E/DX2                !
 ! R47   R(26,27)                1.3557         estimate D2E/DX2                !
 ! R48   R(27,28)                1.4273         estimate D2E/DX2                !
 ! R49   R(28,115)               1.0986         estimate D2E/DX2                !
 ! R50   R(28,116)               1.1219         estimate D2E/DX2                !
 ! R51   R(28,117)               1.0127         estimate D2E/DX2                !
 ! R52   R(29,30)                1.3563         estimate D2E/DX2                !
 ! R53   R(29,34)                1.4098         estimate D2E/DX2                !
 ! R54   R(30,31)                1.4562         estimate D2E/DX2                !
 ! R55   R(30,118)               1.0666         estimate D2E/DX2                !
 ! R56   R(31,32)                1.3598         estimate D2E/DX2                !
 ! R57   R(31,119)               1.1434         estimate D2E/DX2                !
 ! R58   R(32,33)                1.3378         estimate D2E/DX2                !
 ! R59   R(32,35)                1.5252         estimate D2E/DX2                !
 ! R60   R(33,34)                1.4129         estimate D2E/DX2                !
 ! R61   R(34,120)               1.081          estimate D2E/DX2                !
 ! R62   R(35,36)                1.4075         estimate D2E/DX2                !
 ! R63   R(35,40)                1.3943         estimate D2E/DX2                !
 ! R64   R(36,37)                1.3685         estimate D2E/DX2                !
 ! R65   R(36,121)               1.1272         estimate D2E/DX2                !
 ! R66   R(37,38)                1.4007         estimate D2E/DX2                !
 ! R67   R(37,122)               1.0791         estimate D2E/DX2                !
 ! R68   R(38,39)                1.4572         estimate D2E/DX2                !
 ! R69   R(38,43)                1.4353         estimate D2E/DX2                !
 ! R70   R(39,40)                1.4297         estimate D2E/DX2                !
 ! R71   R(39,123)               1.0738         estimate D2E/DX2                !
 ! R72   R(40,41)                1.3975         estimate D2E/DX2                !
 ! R73   R(41,42)                1.4312         estimate D2E/DX2                !
 ! R74   R(42,124)               1.0474         estimate D2E/DX2                !
 ! R75   R(42,125)               1.0714         estimate D2E/DX2                !
 ! R76   R(42,126)               1.1415         estimate D2E/DX2                !
 ! R77   R(43,44)                1.317          estimate D2E/DX2                !
 ! R78   R(43,48)                1.4312         estimate D2E/DX2                !
 ! R79   R(44,45)                1.4384         estimate D2E/DX2                !
 ! R80   R(44,127)               1.1405         estimate D2E/DX2                !
 ! R81   R(45,46)                1.3812         estimate D2E/DX2                !
 ! R82   R(45,128)               1.0857         estimate D2E/DX2                !
 ! R83   R(46,47)                1.3833         estimate D2E/DX2                !
 ! R84   R(46,49)                1.4397         estimate D2E/DX2                !
 ! R85   R(47,48)                1.3442         estimate D2E/DX2                !
 ! R86   R(48,129)               0.9986         estimate D2E/DX2                !
 ! R87   R(49,50)                1.4022         estimate D2E/DX2                !
 ! R88   R(49,54)                1.3848         estimate D2E/DX2                !
 ! R89   R(50,51)                1.3079         estimate D2E/DX2                !
 ! R90   R(50,130)               1.1035         estimate D2E/DX2                !
 ! R91   R(51,52)                1.4644         estimate D2E/DX2                !
 ! R92   R(51,131)               1.0895         estimate D2E/DX2                !
 ! R93   R(52,53)                1.4272         estimate D2E/DX2                !
 ! R94   R(52,57)                1.4654         estimate D2E/DX2                !
 ! R95   R(53,54)                1.4057         estimate D2E/DX2                !
 ! R96   R(53,132)               1.0806         estimate D2E/DX2                !
 ! R97   R(54,55)                1.3689         estimate D2E/DX2                !
 ! R98   R(55,56)                1.4391         estimate D2E/DX2                !
 ! R99   R(56,133)               1.1261         estimate D2E/DX2                !
 ! R100  R(56,134)               1.084          estimate D2E/DX2                !
 ! R101  R(56,135)               1.1436         estimate D2E/DX2                !
 ! R102  R(57,58)                1.3997         estimate D2E/DX2                !
 ! R103  R(57,62)                1.412          estimate D2E/DX2                !
 ! R104  R(58,59)                1.4641         estimate D2E/DX2                !
 ! R105  R(58,136)               1.0824         estimate D2E/DX2                !
 ! R106  R(59,60)                1.3438         estimate D2E/DX2                !
 ! R107  R(59,137)               1.082          estimate D2E/DX2                !
 ! R108  R(60,61)                1.3899         estimate D2E/DX2                !
 ! R109  R(60,63)                1.5021         estimate D2E/DX2                !
 ! R110  R(61,62)                1.2615         estimate D2E/DX2                !
 ! R111  R(62,138)               1.0974         estimate D2E/DX2                !
 ! R112  R(63,64)                1.4628         estimate D2E/DX2                !
 ! R113  R(63,68)                1.316          estimate D2E/DX2                !
 ! R114  R(64,65)                1.3226         estimate D2E/DX2                !
 ! R115  R(64,139)               1.1583         estimate D2E/DX2                !
 ! R116  R(65,66)                1.3817         estimate D2E/DX2                !
 ! R117  R(65,140)               1.0614         estimate D2E/DX2                !
 ! R118  R(66,67)                1.4492         estimate D2E/DX2                !
 ! R119  R(66,71)                1.509          estimate D2E/DX2                !
 ! R120  R(67,68)                1.388          estimate D2E/DX2                !
 ! R121  R(67,141)               1.1174         estimate D2E/DX2                !
 ! R122  R(68,69)                1.451          estimate D2E/DX2                !
 ! R123  R(69,70)                1.41           estimate D2E/DX2                !
 ! R124  R(70,142)               1.0052         estimate D2E/DX2                !
 ! R125  R(70,143)               1.0976         estimate D2E/DX2                !
 ! R126  R(70,144)               1.1697         estimate D2E/DX2                !
 ! R127  R(71,72)                1.3695         estimate D2E/DX2                !
 ! R128  R(71,76)                1.4011         estimate D2E/DX2                !
 ! R129  R(72,73)                1.4276         estimate D2E/DX2                !
 ! R130  R(72,145)               1.1063         estimate D2E/DX2                !
 ! R131  R(73,74)                1.4537         estimate D2E/DX2                !
 ! R132  R(73,146)               1.0281         estimate D2E/DX2                !
 ! R133  R(74,75)                1.2862         estimate D2E/DX2                !
 ! R134  R(74,77)                1.5208         estimate D2E/DX2                !
 ! R135  R(75,76)                1.4022         estimate D2E/DX2                !
 ! R136  R(76,147)               1.0823         estimate D2E/DX2                !
 ! R137  R(77,78)                1.3879         estimate D2E/DX2                !
 ! R138  R(77,82)                1.3381         estimate D2E/DX2                !
 ! R139  R(78,79)                1.3619         estimate D2E/DX2                !
 ! R140  R(78,148)               1.123          estimate D2E/DX2                !
 ! R141  R(79,80)                1.3299         estimate D2E/DX2                !
 ! R142  R(79,149)               1.1552         estimate D2E/DX2                !
 ! R143  R(80,81)                1.4491         estimate D2E/DX2                !
 ! R144  R(80,85)                1.5159         estimate D2E/DX2                !
 ! R145  R(81,82)                1.4538         estimate D2E/DX2                !
 ! R146  R(81,150)               1.0987         estimate D2E/DX2                !
 ! R147  R(82,83)                1.3707         estimate D2E/DX2                !
 ! R148  R(83,84)                1.4013         estimate D2E/DX2                !
 ! R149  R(84,151)               1.1222         estimate D2E/DX2                !
 ! R150  R(84,152)               1.1908         estimate D2E/DX2                !
 ! R151  R(84,153)               1.068          estimate D2E/DX2                !
 ! R152  R(85,86)                1.3638         estimate D2E/DX2                !
 ! R153  R(85,90)                1.4745         estimate D2E/DX2                !
 ! R154  R(86,87)                1.4322         estimate D2E/DX2                !
 ! R155  R(86,154)               1.1042         estimate D2E/DX2                !
 ! R156  R(87,88)                1.3756         estimate D2E/DX2                !
 ! R157  R(87,155)               1.0382         estimate D2E/DX2                !
 ! R158  R(88,89)                1.3132         estimate D2E/DX2                !
 ! R159  R(88,91)                1.5427         estimate D2E/DX2                !
 ! R160  R(89,90)                1.3088         estimate D2E/DX2                !
 ! R161  R(90,156)               1.0484         estimate D2E/DX2                !
 ! R162  R(91,92)                1.4066         estimate D2E/DX2                !
 ! R163  R(91,96)                1.4154         estimate D2E/DX2                !
 ! R164  R(92,93)                1.3961         estimate D2E/DX2                !
 ! R165  R(92,157)               1.043          estimate D2E/DX2                !
 ! R166  R(93,94)                1.3892         estimate D2E/DX2                !
 ! R167  R(93,158)               1.0586         estimate D2E/DX2                !
 ! R168  R(94,95)                1.4248         estimate D2E/DX2                !
 ! R169  R(94,159)               1.0576         estimate D2E/DX2                !
 ! R170  R(95,96)                1.4075         estimate D2E/DX2                !
 ! R171  R(95,160)               1.0023         estimate D2E/DX2                !
 ! R172  R(96,97)                1.3634         estimate D2E/DX2                !
 ! R173  R(97,98)                1.4756         estimate D2E/DX2                !
 ! R174  R(98,161)               1.0381         estimate D2E/DX2                !
 ! R175  R(98,162)               1.0409         estimate D2E/DX2                !
 ! R176  R(98,163)               1.0782         estimate D2E/DX2                !
 ! A1    A(2,1,6)              121.705          estimate D2E/DX2                !
 ! A2    A(2,1,99)             116.2471         estimate D2E/DX2                !
 ! A3    A(6,1,99)             121.8558         estimate D2E/DX2                !
 ! A4    A(1,2,3)              113.9862         estimate D2E/DX2                !
 ! A5    A(1,2,100)            123.4446         estimate D2E/DX2                !
 ! A6    A(3,2,100)            122.4219         estimate D2E/DX2                !
 ! A7    A(2,3,4)              118.8164         estimate D2E/DX2                !
 ! A8    A(2,3,101)            117.0272         estimate D2E/DX2                !
 ! A9    A(4,3,101)            124.0608         estimate D2E/DX2                !
 ! A10   A(3,4,5)              124.5524         estimate D2E/DX2                !
 ! A11   A(3,4,7)              118.384          estimate D2E/DX2                !
 ! A12   A(5,4,7)              117.0632         estimate D2E/DX2                !
 ! A13   A(4,5,6)              114.847          estimate D2E/DX2                !
 ! A14   A(1,6,5)              126.0221         estimate D2E/DX2                !
 ! A15   A(1,6,102)            120.9199         estimate D2E/DX2                !
 ! A16   A(5,6,102)            113.0441         estimate D2E/DX2                !
 ! A17   A(4,7,8)              121.7605         estimate D2E/DX2                !
 ! A18   A(4,7,12)             118.0872         estimate D2E/DX2                !
 ! A19   A(8,7,12)             119.9653         estimate D2E/DX2                !
 ! A20   A(7,8,9)              124.545          estimate D2E/DX2                !
 ! A21   A(7,8,103)            120.9402         estimate D2E/DX2                !
 ! A22   A(9,8,103)            114.2641         estimate D2E/DX2                !
 ! A23   A(8,9,10)             117.6242         estimate D2E/DX2                !
 ! A24   A(8,9,104)            124.1463         estimate D2E/DX2                !
 ! A25   A(10,9,104)           118.0448         estimate D2E/DX2                !
 ! A26   A(9,10,11)            115.9858         estimate D2E/DX2                !
 ! A27   A(9,10,15)            121.4142         estimate D2E/DX2                !
 ! A28   A(11,10,15)           122.2616         estimate D2E/DX2                !
 ! A29   A(10,11,12)           124.118          estimate D2E/DX2                !
 ! A30   A(10,11,105)          118.938          estimate D2E/DX2                !
 ! A31   A(12,11,105)          116.9346         estimate D2E/DX2                !
 ! A32   A(7,12,11)            117.4963         estimate D2E/DX2                !
 ! A33   A(7,12,13)            124.0099         estimate D2E/DX2                !
 ! A34   A(11,12,13)           118.4863         estimate D2E/DX2                !
 ! A35   A(12,13,14)           110.7345         estimate D2E/DX2                !
 ! A36   A(13,14,106)          109.5232         estimate D2E/DX2                !
 ! A37   A(13,14,107)          111.4753         estimate D2E/DX2                !
 ! A38   A(13,14,108)          113.6556         estimate D2E/DX2                !
 ! A39   A(106,14,107)         109.2776         estimate D2E/DX2                !
 ! A40   A(106,14,108)         104.7721         estimate D2E/DX2                !
 ! A41   A(107,14,108)         107.8639         estimate D2E/DX2                !
 ! A42   A(10,15,16)           122.3            estimate D2E/DX2                !
 ! A43   A(10,15,20)           122.2646         estimate D2E/DX2                !
 ! A44   A(16,15,20)           115.2446         estimate D2E/DX2                !
 ! A45   A(15,16,17)           122.865          estimate D2E/DX2                !
 ! A46   A(15,16,109)          121.7868         estimate D2E/DX2                !
 ! A47   A(17,16,109)          114.5535         estimate D2E/DX2                !
 ! A48   A(16,17,18)           116.7137         estimate D2E/DX2                !
 ! A49   A(16,17,110)          121.1132         estimate D2E/DX2                !
 ! A50   A(18,17,110)          121.8033         estimate D2E/DX2                !
 ! A51   A(17,18,19)           120.184          estimate D2E/DX2                !
 ! A52   A(17,18,21)           123.24           estimate D2E/DX2                !
 ! A53   A(19,18,21)           115.9782         estimate D2E/DX2                !
 ! A54   A(18,19,20)           117.868          estimate D2E/DX2                !
 ! A55   A(15,20,19)           126.21           estimate D2E/DX2                !
 ! A56   A(15,20,111)          119.8272         estimate D2E/DX2                !
 ! A57   A(19,20,111)          113.874          estimate D2E/DX2                !
 ! A58   A(18,21,22)           122.4126         estimate D2E/DX2                !
 ! A59   A(18,21,26)           119.4526         estimate D2E/DX2                !
 ! A60   A(22,21,26)           117.7502         estimate D2E/DX2                !
 ! A61   A(21,22,23)           121.1976         estimate D2E/DX2                !
 ! A62   A(21,22,112)          114.5595         estimate D2E/DX2                !
 ! A63   A(23,22,112)          124.2421         estimate D2E/DX2                !
 ! A64   A(22,23,24)           123.1235         estimate D2E/DX2                !
 ! A65   A(22,23,113)          114.5786         estimate D2E/DX2                !
 ! A66   A(24,23,113)          121.7643         estimate D2E/DX2                !
 ! A67   A(23,24,25)           113.9279         estimate D2E/DX2                !
 ! A68   A(23,24,29)           119.4437         estimate D2E/DX2                !
 ! A69   A(25,24,29)           126.5396         estimate D2E/DX2                !
 ! A70   A(24,25,26)           126.5207         estimate D2E/DX2                !
 ! A71   A(24,25,114)          113.3135         estimate D2E/DX2                !
 ! A72   A(26,25,114)          120.1654         estimate D2E/DX2                !
 ! A73   A(21,26,25)           117.3671         estimate D2E/DX2                !
 ! A74   A(21,26,27)           118.9832         estimate D2E/DX2                !
 ! A75   A(25,26,27)           123.6123         estimate D2E/DX2                !
 ! A76   A(26,27,28)           119.6887         estimate D2E/DX2                !
 ! A77   A(27,28,115)          110.9139         estimate D2E/DX2                !
 ! A78   A(27,28,116)          110.3046         estimate D2E/DX2                !
 ! A79   A(27,28,117)          109.4945         estimate D2E/DX2                !
 ! A80   A(115,28,116)         110.9056         estimate D2E/DX2                !
 ! A81   A(115,28,117)         106.4755         estimate D2E/DX2                !
 ! A82   A(116,28,117)         108.6403         estimate D2E/DX2                !
 ! A83   A(24,29,30)           124.8846         estimate D2E/DX2                !
 ! A84   A(24,29,34)           120.4572         estimate D2E/DX2                !
 ! A85   A(30,29,34)           114.6424         estimate D2E/DX2                !
 ! A86   A(29,30,31)           120.6916         estimate D2E/DX2                !
 ! A87   A(29,30,118)          119.8554         estimate D2E/DX2                !
 ! A88   A(31,30,118)          119.1473         estimate D2E/DX2                !
 ! A89   A(30,31,32)           119.0646         estimate D2E/DX2                !
 ! A90   A(30,31,119)          117.5679         estimate D2E/DX2                !
 ! A91   A(32,31,119)          122.6826         estimate D2E/DX2                !
 ! A92   A(31,32,33)           123.7841         estimate D2E/DX2                !
 ! A93   A(31,32,35)           123.7147         estimate D2E/DX2                !
 ! A94   A(33,32,35)           112.2903         estimate D2E/DX2                !
 ! A95   A(32,33,34)           114.7418         estimate D2E/DX2                !
 ! A96   A(29,34,33)           126.4809         estimate D2E/DX2                !
 ! A97   A(29,34,120)          124.3267         estimate D2E/DX2                !
 ! A98   A(33,34,120)          109.1195         estimate D2E/DX2                !
 ! A99   A(32,35,36)           119.5487         estimate D2E/DX2                !
 ! A100  A(32,35,40)           120.8984         estimate D2E/DX2                !
 ! A101  A(36,35,40)           119.3954         estimate D2E/DX2                !
 ! A102  A(35,36,37)           121.5024         estimate D2E/DX2                !
 ! A103  A(35,36,121)          116.2802         estimate D2E/DX2                !
 ! A104  A(37,36,121)          122.1404         estimate D2E/DX2                !
 ! A105  A(36,37,38)           123.1933         estimate D2E/DX2                !
 ! A106  A(36,37,122)          119.1952         estimate D2E/DX2                !
 ! A107  A(38,37,122)          117.2796         estimate D2E/DX2                !
 ! A108  A(37,38,39)           115.1307         estimate D2E/DX2                !
 ! A109  A(37,38,43)           121.635          estimate D2E/DX2                !
 ! A110  A(39,38,43)           122.8849         estimate D2E/DX2                !
 ! A111  A(38,39,40)           121.8646         estimate D2E/DX2                !
 ! A112  A(38,39,123)          115.3487         estimate D2E/DX2                !
 ! A113  A(40,39,123)          122.2529         estimate D2E/DX2                !
 ! A114  A(35,40,39)           118.8131         estimate D2E/DX2                !
 ! A115  A(35,40,41)           119.1749         estimate D2E/DX2                !
 ! A116  A(39,40,41)           122.012          estimate D2E/DX2                !
 ! A117  A(40,41,42)           116.7577         estimate D2E/DX2                !
 ! A118  A(41,42,124)          108.4989         estimate D2E/DX2                !
 ! A119  A(41,42,125)          119.1447         estimate D2E/DX2                !
 ! A120  A(41,42,126)          107.8206         estimate D2E/DX2                !
 ! A121  A(124,42,125)         106.7223         estimate D2E/DX2                !
 ! A122  A(124,42,126)         102.6563         estimate D2E/DX2                !
 ! A123  A(125,42,126)         110.7298         estimate D2E/DX2                !
 ! A124  A(38,43,44)           124.8707         estimate D2E/DX2                !
 ! A125  A(38,43,48)           116.8798         estimate D2E/DX2                !
 ! A126  A(44,43,48)           118.2449         estimate D2E/DX2                !
 ! A127  A(43,44,45)           121.3449         estimate D2E/DX2                !
 ! A128  A(43,44,127)          123.7872         estimate D2E/DX2                !
 ! A129  A(45,44,127)          114.8611         estimate D2E/DX2                !
 ! A130  A(44,45,46)           120.1723         estimate D2E/DX2                !
 ! A131  A(44,45,128)          116.6978         estimate D2E/DX2                !
 ! A132  A(46,45,128)          123.0269         estimate D2E/DX2                !
 ! A133  A(45,46,47)           116.9742         estimate D2E/DX2                !
 ! A134  A(45,46,49)           126.2799         estimate D2E/DX2                !
 ! A135  A(47,46,49)           116.5754         estimate D2E/DX2                !
 ! A136  A(46,47,48)           122.9407         estimate D2E/DX2                !
 ! A137  A(43,48,47)           120.2306         estimate D2E/DX2                !
 ! A138  A(43,48,129)          123.3007         estimate D2E/DX2                !
 ! A139  A(47,48,129)          116.4577         estimate D2E/DX2                !
 ! A140  A(46,49,50)           121.0069         estimate D2E/DX2                !
 ! A141  A(46,49,54)           123.5198         estimate D2E/DX2                !
 ! A142  A(50,49,54)           114.9809         estimate D2E/DX2                !
 ! A143  A(49,50,51)           124.4783         estimate D2E/DX2                !
 ! A144  A(49,50,130)          116.9269         estimate D2E/DX2                !
 ! A145  A(51,50,130)          118.4258         estimate D2E/DX2                !
 ! A146  A(50,51,52)           122.7522         estimate D2E/DX2                !
 ! A147  A(50,51,131)          120.4884         estimate D2E/DX2                !
 ! A148  A(52,51,131)          116.7229         estimate D2E/DX2                !
 ! A149  A(51,52,53)           113.604          estimate D2E/DX2                !
 ! A150  A(51,52,57)           119.2933         estimate D2E/DX2                !
 ! A151  A(53,52,57)           127.0238         estimate D2E/DX2                !
 ! A152  A(52,53,54)           120.7283         estimate D2E/DX2                !
 ! A153  A(52,53,132)          117.9344         estimate D2E/DX2                !
 ! A154  A(54,53,132)          121.3035         estimate D2E/DX2                !
 ! A155  A(49,54,53)           123.1932         estimate D2E/DX2                !
 ! A156  A(49,54,55)           121.0817         estimate D2E/DX2                !
 ! A157  A(53,54,55)           115.2793         estimate D2E/DX2                !
 ! A158  A(54,55,56)           116.0566         estimate D2E/DX2                !
 ! A159  A(55,56,133)          107.0563         estimate D2E/DX2                !
 ! A160  A(55,56,134)          110.0163         estimate D2E/DX2                !
 ! A161  A(55,56,135)          106.2791         estimate D2E/DX2                !
 ! A162  A(133,56,134)         113.4368         estimate D2E/DX2                !
 ! A163  A(133,56,135)         105.0572         estimate D2E/DX2                !
 ! A164  A(134,56,135)         114.464          estimate D2E/DX2                !
 ! A165  A(52,57,58)           119.587          estimate D2E/DX2                !
 ! A166  A(52,57,62)           124.5141         estimate D2E/DX2                !
 ! A167  A(58,57,62)           115.6796         estimate D2E/DX2                !
 ! A168  A(57,58,59)           117.2153         estimate D2E/DX2                !
 ! A169  A(57,58,136)          122.4906         estimate D2E/DX2                !
 ! A170  A(59,58,136)          120.1318         estimate D2E/DX2                !
 ! A171  A(58,59,60)           120.1464         estimate D2E/DX2                !
 ! A172  A(58,59,137)          114.6618         estimate D2E/DX2                !
 ! A173  A(60,59,137)          125.0874         estimate D2E/DX2                !
 ! A174  A(59,60,61)           121.1048         estimate D2E/DX2                !
 ! A175  A(59,60,63)           120.5353         estimate D2E/DX2                !
 ! A176  A(61,60,63)           117.6261         estimate D2E/DX2                !
 ! A177  A(60,61,62)           118.2062         estimate D2E/DX2                !
 ! A178  A(57,62,61)           127.4047         estimate D2E/DX2                !
 ! A179  A(57,62,138)          119.6079         estimate D2E/DX2                !
 ! A180  A(61,62,138)          112.8003         estimate D2E/DX2                !
 ! A181  A(60,63,64)           118.4841         estimate D2E/DX2                !
 ! A182  A(60,63,68)           125.9773         estimate D2E/DX2                !
 ! A183  A(64,63,68)           115.516          estimate D2E/DX2                !
 ! A184  A(63,64,65)           122.7183         estimate D2E/DX2                !
 ! A185  A(63,64,139)          118.743          estimate D2E/DX2                !
 ! A186  A(65,64,139)          118.4186         estimate D2E/DX2                !
 ! A187  A(64,65,66)           122.4791         estimate D2E/DX2                !
 ! A188  A(64,65,140)          119.7626         estimate D2E/DX2                !
 ! A189  A(66,65,140)          117.5147         estimate D2E/DX2                !
 ! A190  A(65,66,67)           115.0187         estimate D2E/DX2                !
 ! A191  A(65,66,71)           124.355          estimate D2E/DX2                !
 ! A192  A(67,66,71)           120.6077         estimate D2E/DX2                !
 ! A193  A(66,67,68)           120.8409         estimate D2E/DX2                !
 ! A194  A(66,67,141)          119.1068         estimate D2E/DX2                !
 ! A195  A(68,67,141)          120.0486         estimate D2E/DX2                !
 ! A196  A(63,68,67)           123.2384         estimate D2E/DX2                !
 ! A197  A(63,68,69)           116.8943         estimate D2E/DX2                !
 ! A198  A(67,68,69)           119.8663         estimate D2E/DX2                !
 ! A199  A(68,69,70)           118.5418         estimate D2E/DX2                !
 ! A200  A(69,70,142)          107.6155         estimate D2E/DX2                !
 ! A201  A(69,70,143)          113.888          estimate D2E/DX2                !
 ! A202  A(69,70,144)          111.0025         estimate D2E/DX2                !
 ! A203  A(142,70,143)         110.0279         estimate D2E/DX2                !
 ! A204  A(142,70,144)         108.2621         estimate D2E/DX2                !
 ! A205  A(143,70,144)         105.9352         estimate D2E/DX2                !
 ! A206  A(66,71,72)           123.9215         estimate D2E/DX2                !
 ! A207  A(66,71,76)           118.061          estimate D2E/DX2                !
 ! A208  A(72,71,76)           118.0157         estimate D2E/DX2                !
 ! A209  A(71,72,73)           120.803          estimate D2E/DX2                !
 ! A210  A(71,72,145)          123.0426         estimate D2E/DX2                !
 ! A211  A(73,72,145)          115.0266         estimate D2E/DX2                !
 ! A212  A(72,73,74)           116.3554         estimate D2E/DX2                !
 ! A213  A(72,73,146)          122.5003         estimate D2E/DX2                !
 ! A214  A(74,73,146)          120.9827         estimate D2E/DX2                !
 ! A215  A(73,74,75)           121.979          estimate D2E/DX2                !
 ! A216  A(73,74,77)           118.833          estimate D2E/DX2                !
 ! A217  A(75,74,77)           119.1654         estimate D2E/DX2                !
 ! A218  A(74,75,76)           119.9264         estimate D2E/DX2                !
 ! A219  A(71,76,75)           121.453          estimate D2E/DX2                !
 ! A220  A(71,76,147)          122.2661         estimate D2E/DX2                !
 ! A221  A(75,76,147)          116.1128         estimate D2E/DX2                !
 ! A222  A(74,77,78)           117.1459         estimate D2E/DX2                !
 ! A223  A(74,77,82)           123.1423         estimate D2E/DX2                !
 ! A224  A(78,77,82)           119.0125         estimate D2E/DX2                !
 ! A225  A(77,78,79)           122.0535         estimate D2E/DX2                !
 ! A226  A(77,78,148)          117.7179         estimate D2E/DX2                !
 ! A227  A(79,78,148)          120.1638         estimate D2E/DX2                !
 ! A228  A(78,79,80)           121.7334         estimate D2E/DX2                !
 ! A229  A(78,79,149)          117.0421         estimate D2E/DX2                !
 ! A230  A(80,79,149)          121.1873         estimate D2E/DX2                !
 ! A231  A(79,80,81)           119.3246         estimate D2E/DX2                !
 ! A232  A(79,80,85)           126.623          estimate D2E/DX2                !
 ! A233  A(81,80,85)           114.0503         estimate D2E/DX2                !
 ! A234  A(80,81,82)           116.6985         estimate D2E/DX2                !
 ! A235  A(80,81,150)          120.6243         estimate D2E/DX2                !
 ! A236  A(82,81,150)          121.8855         estimate D2E/DX2                !
 ! A237  A(77,82,81)           120.8131         estimate D2E/DX2                !
 ! A238  A(77,82,83)           120.4866         estimate D2E/DX2                !
 ! A239  A(81,82,83)           118.663          estimate D2E/DX2                !
 ! A240  A(82,83,84)           118.9425         estimate D2E/DX2                !
 ! A241  A(83,84,151)          111.8941         estimate D2E/DX2                !
 ! A242  A(83,84,152)          105.692          estimate D2E/DX2                !
 ! A243  A(83,84,153)          112.6779         estimate D2E/DX2                !
 ! A244  A(151,84,152)         103.1293         estimate D2E/DX2                !
 ! A245  A(151,84,153)         115.0362         estimate D2E/DX2                !
 ! A246  A(152,84,153)         107.3874         estimate D2E/DX2                !
 ! A247  A(80,85,86)           125.6319         estimate D2E/DX2                !
 ! A248  A(80,85,90)           118.6784         estimate D2E/DX2                !
 ! A249  A(86,85,90)           115.6567         estimate D2E/DX2                !
 ! A250  A(85,86,87)           121.9704         estimate D2E/DX2                !
 ! A251  A(85,86,154)          117.1581         estimate D2E/DX2                !
 ! A252  A(87,86,154)          120.7567         estimate D2E/DX2                !
 ! A253  A(86,87,88)           115.1302         estimate D2E/DX2                !
 ! A254  A(86,87,155)          116.2872         estimate D2E/DX2                !
 ! A255  A(88,87,155)          128.3219         estimate D2E/DX2                !
 ! A256  A(87,88,89)           124.8768         estimate D2E/DX2                !
 ! A257  A(87,88,91)           121.0224         estimate D2E/DX2                !
 ! A258  A(89,88,91)           113.7919         estimate D2E/DX2                !
 ! A259  A(88,89,90)           120.0515         estimate D2E/DX2                !
 ! A260  A(85,90,89)           121.5356         estimate D2E/DX2                !
 ! A261  A(85,90,156)          117.3011         estimate D2E/DX2                !
 ! A262  A(89,90,156)          121.1046         estimate D2E/DX2                !
 ! A263  A(88,91,92)           120.6972         estimate D2E/DX2                !
 ! A264  A(88,91,96)           120.9532         estimate D2E/DX2                !
 ! A265  A(92,91,96)           118.2976         estimate D2E/DX2                !
 ! A266  A(91,92,93)           121.2256         estimate D2E/DX2                !
 ! A267  A(91,92,157)          117.509          estimate D2E/DX2                !
 ! A268  A(93,92,157)          121.1376         estimate D2E/DX2                !
 ! A269  A(92,93,94)           118.1109         estimate D2E/DX2                !
 ! A270  A(92,93,158)          121.2593         estimate D2E/DX2                !
 ! A271  A(94,93,158)          120.0045         estimate D2E/DX2                !
 ! A272  A(93,94,95)           123.9953         estimate D2E/DX2                !
 ! A273  A(93,94,159)          118.971          estimate D2E/DX2                !
 ! A274  A(95,94,159)          116.2834         estimate D2E/DX2                !
 ! A275  A(94,95,96)           115.0451         estimate D2E/DX2                !
 ! A276  A(94,95,160)          122.6266         estimate D2E/DX2                !
 ! A277  A(96,95,160)          122.3185         estimate D2E/DX2                !
 ! A278  A(91,96,95)           122.8856         estimate D2E/DX2                !
 ! A279  A(91,96,97)           118.1976         estimate D2E/DX2                !
 ! A280  A(95,96,97)           118.8278         estimate D2E/DX2                !
 ! A281  A(96,97,98)           116.8515         estimate D2E/DX2                !
 ! A282  A(97,98,161)          106.9407         estimate D2E/DX2                !
 ! A283  A(97,98,162)          107.1202         estimate D2E/DX2                !
 ! A284  A(97,98,163)          104.3667         estimate D2E/DX2                !
 ! A285  A(161,98,162)         112.3066         estimate D2E/DX2                !
 ! A286  A(161,98,163)         113.6769         estimate D2E/DX2                !
 ! A287  A(162,98,163)         111.7656         estimate D2E/DX2                !
 ! D1    D(6,1,2,3)             -0.243          estimate D2E/DX2                !
 ! D2    D(6,1,2,100)          175.4338         estimate D2E/DX2                !
 ! D3    D(99,1,2,3)          -175.2939         estimate D2E/DX2                !
 ! D4    D(99,1,2,100)           0.3829         estimate D2E/DX2                !
 ! D5    D(2,1,6,5)              2.142          estimate D2E/DX2                !
 ! D6    D(2,1,6,102)         -179.3125         estimate D2E/DX2                !
 ! D7    D(99,1,6,5)           176.9152         estimate D2E/DX2                !
 ! D8    D(99,1,6,102)          -4.5393         estimate D2E/DX2                !
 ! D9    D(1,2,3,4)             -0.205          estimate D2E/DX2                !
 ! D10   D(1,2,3,101)          176.3856         estimate D2E/DX2                !
 ! D11   D(100,2,3,4)         -175.9316         estimate D2E/DX2                !
 ! D12   D(100,2,3,101)          0.659          estimate D2E/DX2                !
 ! D13   D(2,3,4,5)             -1.1097         estimate D2E/DX2                !
 ! D14   D(2,3,4,7)            179.1069         estimate D2E/DX2                !
 ! D15   D(101,3,4,5)         -177.4434         estimate D2E/DX2                !
 ! D16   D(101,3,4,7)            2.7732         estimate D2E/DX2                !
 ! D17   D(3,4,5,6)              2.7074         estimate D2E/DX2                !
 ! D18   D(7,4,5,6)           -177.5066         estimate D2E/DX2                !
 ! D19   D(3,4,7,8)            114.1826         estimate D2E/DX2                !
 ! D20   D(3,4,7,12)           -70.792          estimate D2E/DX2                !
 ! D21   D(5,4,7,8)            -65.6171         estimate D2E/DX2                !
 ! D22   D(5,4,7,12)           109.4083         estimate D2E/DX2                !
 ! D23   D(4,5,6,1)             -3.2602         estimate D2E/DX2                !
 ! D24   D(4,5,6,102)          178.0958         estimate D2E/DX2                !
 ! D25   D(4,7,8,9)            172.6503         estimate D2E/DX2                !
 ! D26   D(4,7,8,103)           -1.2613         estimate D2E/DX2                !
 ! D27   D(12,7,8,9)            -2.2836         estimate D2E/DX2                !
 ! D28   D(12,7,8,103)        -176.1952         estimate D2E/DX2                !
 ! D29   D(4,7,12,11)         -175.124          estimate D2E/DX2                !
 ! D30   D(4,7,12,13)            3.8644         estimate D2E/DX2                !
 ! D31   D(8,7,12,11)           -0.006          estimate D2E/DX2                !
 ! D32   D(8,7,12,13)          178.9824         estimate D2E/DX2                !
 ! D33   D(7,8,9,10)             5.423          estimate D2E/DX2                !
 ! D34   D(7,8,9,104)         -179.6233         estimate D2E/DX2                !
 ! D35   D(103,8,9,10)         179.6962         estimate D2E/DX2                !
 ! D36   D(103,8,9,104)         -5.3501         estimate D2E/DX2                !
 ! D37   D(8,9,10,11)           -5.9372         estimate D2E/DX2                !
 ! D38   D(8,9,10,15)         -179.4014         estimate D2E/DX2                !
 ! D39   D(104,9,10,11)        178.7941         estimate D2E/DX2                !
 ! D40   D(104,9,10,15)          5.3299         estimate D2E/DX2                !
 ! D41   D(9,10,11,12)           4.1308         estimate D2E/DX2                !
 ! D42   D(9,10,11,105)       -177.0183         estimate D2E/DX2                !
 ! D43   D(15,10,11,12)        177.5345         estimate D2E/DX2                !
 ! D44   D(15,10,11,105)        -3.6147         estimate D2E/DX2                !
 ! D45   D(9,10,15,16)        -138.3051         estimate D2E/DX2                !
 ! D46   D(9,10,15,20)          46.9552         estimate D2E/DX2                !
 ! D47   D(11,10,15,16)         48.6444         estimate D2E/DX2                !
 ! D48   D(11,10,15,20)       -126.0953         estimate D2E/DX2                !
 ! D49   D(10,11,12,7)          -1.0738         estimate D2E/DX2                !
 ! D50   D(10,11,12,13)        179.8802         estimate D2E/DX2                !
 ! D51   D(105,11,12,7)       -179.9458         estimate D2E/DX2                !
 ! D52   D(105,11,12,13)         1.0082         estimate D2E/DX2                !
 ! D53   D(7,12,13,14)         -98.6317         estimate D2E/DX2                !
 ! D54   D(11,12,13,14)         80.3474         estimate D2E/DX2                !
 ! D55   D(12,13,14,106)       -71.7971         estimate D2E/DX2                !
 ! D56   D(12,13,14,107)       167.1445         estimate D2E/DX2                !
 ! D57   D(12,13,14,108)        44.9893         estimate D2E/DX2                !
 ! D58   D(10,15,16,17)        175.8419         estimate D2E/DX2                !
 ! D59   D(10,15,16,109)         6.6117         estimate D2E/DX2                !
 ! D60   D(20,15,16,17)         -9.075          estimate D2E/DX2                !
 ! D61   D(20,15,16,109)      -178.3052         estimate D2E/DX2                !
 ! D62   D(10,15,20,19)        179.1057         estimate D2E/DX2                !
 ! D63   D(10,15,20,111)         2.7506         estimate D2E/DX2                !
 ! D64   D(16,15,20,19)          4.0207         estimate D2E/DX2                !
 ! D65   D(16,15,20,111)      -172.3344         estimate D2E/DX2                !
 ! D66   D(15,16,17,18)          5.2737         estimate D2E/DX2                !
 ! D67   D(15,16,17,110)       178.4138         estimate D2E/DX2                !
 ! D68   D(109,16,17,18)       175.2167         estimate D2E/DX2                !
 ! D69   D(109,16,17,110)      -11.6432         estimate D2E/DX2                !
 ! D70   D(16,17,18,19)          3.9121         estimate D2E/DX2                !
 ! D71   D(16,17,18,21)        174.6856         estimate D2E/DX2                !
 ! D72   D(110,17,18,19)      -169.177          estimate D2E/DX2                !
 ! D73   D(110,17,18,21)         1.5964         estimate D2E/DX2                !
 ! D74   D(17,18,19,20)         -8.6624         estimate D2E/DX2                !
 ! D75   D(21,18,19,20)        179.9169         estimate D2E/DX2                !
 ! D76   D(17,18,21,22)       -145.5212         estimate D2E/DX2                !
 ! D77   D(17,18,21,26)         41.7612         estimate D2E/DX2                !
 ! D78   D(19,18,21,22)         25.6097         estimate D2E/DX2                !
 ! D79   D(19,18,21,26)       -147.1079         estimate D2E/DX2                !
 ! D80   D(18,19,20,15)          4.7003         estimate D2E/DX2                !
 ! D81   D(18,19,20,111)      -178.7574         estimate D2E/DX2                !
 ! D82   D(18,21,22,23)       -175.4021         estimate D2E/DX2                !
 ! D83   D(18,21,22,112)         4.9105         estimate D2E/DX2                !
 ! D84   D(26,21,22,23)         -2.5669         estimate D2E/DX2                !
 ! D85   D(26,21,22,112)       177.7458         estimate D2E/DX2                !
 ! D86   D(18,21,26,25)        173.7332         estimate D2E/DX2                !
 ! D87   D(18,21,26,27)         -4.1246         estimate D2E/DX2                !
 ! D88   D(22,21,26,25)          0.6784         estimate D2E/DX2                !
 ! D89   D(22,21,26,27)       -177.1794         estimate D2E/DX2                !
 ! D90   D(21,22,23,24)          4.1945         estimate D2E/DX2                !
 ! D91   D(21,22,23,113)       175.9377         estimate D2E/DX2                !
 ! D92   D(112,22,23,24)      -176.1495         estimate D2E/DX2                !
 ! D93   D(112,22,23,113)       -4.4063         estimate D2E/DX2                !
 ! D94   D(22,23,24,25)         -3.5032         estimate D2E/DX2                !
 ! D95   D(22,23,24,29)        173.2924         estimate D2E/DX2                !
 ! D96   D(113,23,24,25)      -174.6672         estimate D2E/DX2                !
 ! D97   D(113,23,24,29)         2.1283         estimate D2E/DX2                !
 ! D98   D(23,24,25,26)          1.591          estimate D2E/DX2                !
 ! D99   D(23,24,25,114)      -178.1783         estimate D2E/DX2                !
 ! D100  D(29,24,25,26)       -174.9354         estimate D2E/DX2                !
 ! D101  D(29,24,25,114)         5.2953         estimate D2E/DX2                !
 ! D102  D(23,24,29,30)         44.0244         estimate D2E/DX2                !
 ! D103  D(23,24,29,34)       -137.5036         estimate D2E/DX2                !
 ! D104  D(25,24,29,30)       -139.6218         estimate D2E/DX2                !
 ! D105  D(25,24,29,34)         38.8502         estimate D2E/DX2                !
 ! D106  D(24,25,26,21)         -0.2664         estimate D2E/DX2                !
 ! D107  D(24,25,26,27)        177.4834         estimate D2E/DX2                !
 ! D108  D(114,25,26,21)       179.4886         estimate D2E/DX2                !
 ! D109  D(114,25,26,27)        -2.7616         estimate D2E/DX2                !
 ! D110  D(21,26,27,28)       -177.9142         estimate D2E/DX2                !
 ! D111  D(25,26,27,28)          4.3703         estimate D2E/DX2                !
 ! D112  D(26,27,28,115)        59.9455         estimate D2E/DX2                !
 ! D113  D(26,27,28,116)       -63.3322         estimate D2E/DX2                !
 ! D114  D(26,27,28,117)       177.1619         estimate D2E/DX2                !
 ! D115  D(24,29,30,31)       -176.2454         estimate D2E/DX2                !
[...]
  Beta virt. eigenvalues --    2.72928   2.73107   2.74080   2.75314   2.76266
  Beta virt. eigenvalues --    2.76401   2.76805   2.76922   2.77062   2.77180
  Beta virt. eigenvalues --    2.79049   2.79607   2.79646   2.79713   2.79732
  Beta virt. eigenvalues --    2.79768   2.80005   2.82367   2.82495   2.82561
  Beta virt. eigenvalues --    2.82635   2.82677   2.82685   2.82901   2.84590
  Beta virt. eigenvalues --    2.84693   2.84963   2.85532   2.86179   2.86531
  Beta virt. eigenvalues --    2.87563   2.88840   2.91906   2.92326   2.92689
  Beta virt. eigenvalues --    2.92836   2.92892   2.93407   2.93809   2.93993
  Beta virt. eigenvalues --    2.94142   2.94444   2.94786   2.95216   2.96110
  Beta virt. eigenvalues --    3.00372   3.00449   3.00523   3.00612   3.00684
  Beta virt. eigenvalues --    3.00758   3.11093   3.15022   3.15630   3.16574
  Beta virt. eigenvalues --    3.17490   3.18084   3.18585   3.21129   3.21286
  Beta virt. eigenvalues --    3.30265   3.30326   3.30435   3.30545   3.30620
  Beta virt. eigenvalues --    3.30885   3.33198   3.33396   3.33760   3.34227
  Beta virt. eigenvalues --    3.34844   3.35281   3.39464   3.48040   3.49076
  Beta virt. eigenvalues --    3.50383   3.51621   3.52697   3.53349   3.54755
          Condensed to atoms (all electrons):
          Atomic-Atomic Spin Densities.
 Mulliken charges and spin densities:
               1          2
     1  C   -0.022456   0.000000
     2  C    0.075161   0.000000
     3  C    0.008525  -0.000000
     4  C    0.045126   0.000000
     5  N   -0.193983  -0.000000
     6  C    0.088936  -0.000000
     7  C    0.063124   0.000000
     8  C    0.050550  -0.000000
     9  C    0.012440   0.000000
    10  C    0.051331   0.000000
    11  C    0.055163   0.000000
    12  C   -0.024047  -0.000000
    13  O   -0.265890  -0.000000
    14  C    0.072214  -0.000000
    15  C   -0.028262   0.000000
    16  C    0.063507  -0.000000
    17  C    0.026632  -0.000000
    18  C    0.092779   0.000000
    19  N   -0.197736   0.000000
    20  C    0.084470  -0.000000
    21  C    0.011769   0.000000
    22  C    0.066277  -0.000000
    23  C    0.009200   0.000000
    24  C    0.039362  -0.000000
    25  C   -0.031155   0.000000
    26  C    0.066631   0.000000
    27  O   -0.250890   0.000000
    28  C    0.070170  -0.000000
    29  C   -0.027031   0.000000
    30  C    0.065155   0.000000
    31  C    0.025599  -0.000000
    32  C    0.092421   0.000000
    33  N   -0.198228  -0.000000
    34  C    0.081046  -0.000000
    35  C    0.012505   0.000000
    36  C    0.065579  -0.000000
    37  C    0.009469   0.000000
    38  C    0.037922   0.000000
    39  C   -0.029730   0.000000
    40  C    0.066705   0.000000
    41  O   -0.250613  -0.000000
    42  C    0.071230   0.000000
    43  C   -0.029240  -0.000000
    44  C    0.061458  -0.000000
    45  C    0.026713   0.000000
    46  C    0.091695   0.000000
    47  N   -0.196967  -0.000000
    48  C    0.086192  -0.000000
    49  C    0.013860   0.000000
    50  C    0.064725  -0.000000
    51  C    0.009457   0.000000
    52  C    0.039399  -0.000000
    53  C   -0.030706   0.000000
    54  C    0.065201  -0.000000
    55  O   -0.250709  -0.000000
    56  C    0.071403   0.000000
    57  C   -0.027566   0.000000
    58  C    0.060320  -0.000000
    59  C    0.025404   0.000000
    60  C    0.093024  -0.000000
    61  N   -0.197898  -0.000000
    62  C    0.086208  -0.000000
    63  C    0.013738   0.000000
    64  C    0.065216   0.000000
    65  C    0.010061  -0.000000
    66  C    0.039487   0.000000
    67  C   -0.030361  -0.000000
    68  C    0.063749   0.000000
    69  O   -0.251331  -0.000000
    70  C    0.071790  -0.000000
    71  C   -0.029991   0.000000
    72  C    0.060885  -0.000000
    73  C    0.026563  -0.000000
    74  C    0.091848   0.000000
    75  N   -0.196946  -0.000000
    76  C    0.086174   0.000000
    77  C    0.013699  -0.000000
    78  C    0.064718  -0.000000
    79  C    0.009749  -0.000000
    80  C    0.039224   0.000000
    81  C   -0.030536  -0.000000
    82  C    0.064738   0.000000
    83  O   -0.250910  -0.000000
    84  C    0.071536  -0.000000
    85  C   -0.028495   0.000000
    86  C    0.060285   0.000000
    87  C    0.026634  -0.000000
    88  C    0.093235   0.000000
    89  N   -0.197287  -0.000000
    90  C    0.085262  -0.000000
    91  C   -0.000375   0.000000
    92  C    0.056281  -0.000000
    93  C    0.040786  -0.000000
    94  C    0.031442   0.000000
    95  C   -0.014881  -0.000000
    96  C    0.059913  -0.000000
    97  O   -0.249574  -0.000000
    98  C    0.068586  -0.000000
    99  H   -0.017304   0.000000
   100  H   -0.013263  -0.000000
   101  H   -0.011443  -0.000000
   102  H   -0.003901  -0.000000
   103  H   -0.029004  -0.000000
   104  H   -0.028313   0.000000
   105  H   -0.038628  -0.000000
   106  H    0.036272  -0.000000
   107  H    0.045773  -0.000000
   108  H    0.039118   0.000000
   109  H   -0.025121   0.000000
   110  H   -0.025437  -0.000000
   111  H   -0.008406  -0.000000
   112  H   -0.033600   0.000000
   113  H   -0.035377  -0.000000
   114  H   -0.031142   0.000000
   115  H    0.050216   0.000000
   116  H    0.048074   0.000000
   117  H    0.047750   0.000000
   118  H   -0.025764  -0.000000
   119  H   -0.025965   0.000000
   120  H   -0.012205  -0.000000
   121  H   -0.033997   0.000000
   122  H   -0.031767  -0.000000
   123  H   -0.034462  -0.000000
   124  H    0.047814   0.000000
   125  H    0.045138  -0.000000
   126  H    0.049716  -0.000000
   127  H   -0.030519  -0.000000
   128  H   -0.027304  -0.000000
   129  H   -0.007703   0.000000
   130  H   -0.032261  -0.000000
   131  H   -0.031879  -0.000000
   132  H   -0.034290   0.000000
   133  H    0.046988   0.000000
   134  H    0.044100  -0.000000
   135  H    0.050632  -0.000000
   136  H   -0.031034  -0.000000
   137  H   -0.027509   0.000000
   138  H   -0.006822   0.000000
   139  H   -0.032027  -0.000000
   140  H   -0.031319  -0.000000
   141  H   -0.034500  -0.000000
   142  H    0.046134   0.000000
   143  H    0.044620   0.000000
   144  H    0.050370   0.000000
   145  H   -0.031031  -0.000000
   146  H   -0.027540  -0.000000
   147  H   -0.006916  -0.000000
   148  H   -0.032228  -0.000000
   149  H   -0.032051   0.000000
   150  H   -0.034422   0.000000
   151  H    0.050476   0.000000
   152  H    0.046579  -0.000000
   153  H    0.044140  -0.000000
   154  H   -0.031320  -0.000000
   155  H   -0.027444  -0.000000
   156  H   -0.007242  -0.000000
   157  H   -0.032567   0.000000
   158  H   -0.026158   0.000000
   159  H   -0.025142   0.000000
   160  H   -0.024740  -0.000000
   161  H    0.046798  -0.000000
   162  H    0.046316   0.000000
   163  H    0.046183   0.000000
 Sum of Mulliken charges =  -0.00000  -0.00000
 Mulliken charges and spin densities with hydrogens summed into heavy atoms:
               1          2
     1  C   -0.039761   0.000000
     2  C    0.061898   0.000000
     3  C   -0.002918  -0.000000
     4  C    0.045126   0.000000
     5  N   -0.193983  -0.000000
     6  C    0.085036  -0.000000
     7  C    0.063124   0.000000
     8  C    0.021546  -0.000000
     9  C   -0.015873   0.000000
    10  C    0.051331   0.000000
    11  C    0.016535   0.000000
    12  C   -0.024047  -0.000000
    13  O   -0.265890  -0.000000
    14  C    0.193377  -0.000000
    15  C   -0.028262   0.000000
    16  C    0.038385  -0.000000
    17  C    0.001195  -0.000000
    18  C    0.092779   0.000000
    19  N   -0.197736   0.000000
    20  C    0.076064  -0.000000
    21  C    0.011769   0.000000
    22  C    0.032677  -0.000000
    23  C   -0.026177   0.000000
    24  C    0.039362  -0.000000
    25  C   -0.062297   0.000000
    26  C    0.066631   0.000000
    27  O   -0.250890   0.000000
    28  C    0.216210   0.000000
    29  C   -0.027031   0.000000
    30  C    0.039390   0.000000
    31  C   -0.000366  -0.000000
    32  C    0.092421   0.000000
    33  N   -0.198228  -0.000000
    34  C    0.068840  -0.000000
    35  C    0.012505   0.000000
    36  C    0.031582  -0.000000
    37  C   -0.022297   0.000000
    38  C    0.037922   0.000000
    39  C   -0.064192   0.000000
    40  C    0.066705   0.000000
    41  O   -0.250613  -0.000000
    42  C    0.213897   0.000000
    43  C   -0.029240  -0.000000
    44  C    0.030939  -0.000000
    45  C   -0.000590   0.000000
    46  C    0.091695   0.000000
    47  N   -0.196967  -0.000000
    48  C    0.078489  -0.000000
    49  C    0.013860   0.000000
    50  C    0.032464  -0.000000
    51  C   -0.022423   0.000000
    52  C    0.039399  -0.000000
    53  C   -0.064996   0.000000
    54  C    0.065201  -0.000000
    55  O   -0.250709  -0.000000
    56  C    0.213122   0.000000
    57  C   -0.027566   0.000000
    58  C    0.029285  -0.000000
    59  C   -0.002105   0.000000
    60  C    0.093024  -0.000000
    61  N   -0.197898  -0.000000
    62  C    0.079386  -0.000000
    63  C    0.013738   0.000000
    64  C    0.033189   0.000000
    65  C   -0.021258  -0.000000
    66  C    0.039487   0.000000
    67  C   -0.064861  -0.000000
    68  C    0.063749   0.000000
    69  O   -0.251331  -0.000000
    70  C    0.212914  -0.000000
    71  C   -0.029991   0.000000
    72  C    0.029854  -0.000000
    73  C   -0.000976  -0.000000
    74  C    0.091848   0.000000
    75  N   -0.196946  -0.000000
    76  C    0.079259   0.000000
    77  C    0.013699  -0.000000
    78  C    0.032491  -0.000000
    79  C   -0.022302   0.000000
    80  C    0.039224   0.000000
    81  C   -0.064957  -0.000000
    82  C    0.064738   0.000000
    83  O   -0.250910  -0.000000
    84  C    0.212732  -0.000000
    85  C   -0.028495   0.000000
    86  C    0.028965  -0.000000
    87  C   -0.000810  -0.000000
    88  C    0.093235   0.000000
    89  N   -0.197287  -0.000000
    90  C    0.078020  -0.000000
    91  C   -0.000375   0.000000
    92  C    0.023714  -0.000000
    93  C    0.014628  -0.000000
    94  C    0.006300   0.000000
    95  C   -0.039621  -0.000000
    96  C    0.059913  -0.000000
    97  O   -0.249574  -0.000000
    98  C    0.207883   0.000000
 Electronic spatial extent (au):  <R**2>=         724031.9184
 Charge=              0.0000 electrons
 Dipole moment (field-independent basis, Debye):
    X=              2.4163    Y=              7.8080    Z=              3.4261  Tot=              8.8624
 Quadrupole moment (field-independent basis, Debye-Ang):
   XX=           -328.6365   YY=           -485.6599   ZZ=           -561.0973
   XY=            143.2766   XZ=             -2.1763   YZ=             -3.6844
 Traceless Quadrupole moment (field-independent basis, Debye-Ang):
   XX=            129.8281   YY=            -27.1953   ZZ=           -102.6328
   XY=            143.2766   XZ=             -2.1763   YZ=             -3.6844
 Octapole moment (field-independent basis, Debye-Ang**2):
  XXX=           2810.3298  YYY=            346.0929  ZZZ=             42.8224  XYY=           -303.5732
  XXY=            563.2650  XXZ=           1927.0921  XZZ=            -42.0488  YZZ=             34.9107
  YYZ=            -28.3879  XYZ=            167.5287
 Hexadecapole moment (field-independent basis, Debye-Ang**3):
 XXXX=        -658550.7467 YYYY=         -22996.8509 ZZZZ=          -2616.0546 XXXY=          60246.9152
 XXXZ=           7412.2871 YYYX=           2625.7981 YYYZ=           -146.0532 ZZZX=            -29.6478
 ZZZY=           -148.5930 XXYY=        -159211.5543 XXZZ=        -162533.2154 YYZZ=          -4546.0346
 XXYZ=          -1066.1232 YYXZ=          -1469.7600 ZZXY=            756.4867
 N-N= 1.233776789270D+04 E-N=-3.432053271000D+04  KE= 4.118085600444D+03
 Leave Link  601 at Sat Jul 25 05:38:17 2020, MaxMem=  4026531840 cpu:              36.2 elap:               5.6
 (Enter /opt/ohpc/pub/libs/gaussian/g16-A.03/sandybridge/g16/l9999.exe)

 Test job not archived.
 1\1\GINC-SKYLAKE052\FOpt\ULC-wPBE\CC-pVDZ\C84H65N7O7\RDU230\25-Jul-202
 0\0\\#P uLC-wPBE/cc-pVDZ iop(3/107=0053700000, 3/108=0053700000) opt\\
 H65 C84 N7 O7\\0,1\C,-29.1307156238,-0.6731417665,-2.6762746612\C,-28.
 481488877,-1.8033759942,-3.1904246991\C,-27.1042625383,-1.9515595108,-
 2.9887239484\C,-26.4026859981,-0.9551206542,-2.2690994959\N,-27.030045
 257,0.1482460632,-1.785328313\C,-28.3504562052,0.269798305,-1.98891078
 02\C,-24.9311845804,-1.0039510484,-2.032773025\C,-24.2525411298,0.2076
 553982,-1.7617475947\C,-22.8734306564,0.2598713392,-1.5588882942\C,-22
 .087505974,-0.9153514876,-1.6136502394\C,-22.7556235809,-2.1320263531,
 -1.8638744877\C,-24.1411754188,-2.1829713284,-2.0687996558\O,-24.70026
 60721,-3.4332292673,-2.3157619707\C,-25.1370618745,-4.1011954368,-1.12
 24936677\C,-20.6225488307,-0.8759925453,-1.4130388884\C,-19.7379647355
 ,-1.7524275084,-2.0736755194\C,-18.3615387195,-1.6651588552,-1.8534397
 106\C,-17.8570793653,-0.6877669667,-0.9620478905\N,-18.705638058,0.144
 7836591,-0.3003984946\C,-20.0186212141,0.0451514664,-0.5236406239\C,-1
 6.414583189,-0.502698426,-0.6386516219\C,-16.0854532705,0.2603969358,0
 .5041979857\C,-14.7700047519,0.4973934131,0.9024662331\C,-13.694340637
 2,-0.0224110409,0.1511035997\C,-13.9957337655,-0.7777160005,-1.0028009
 095\C,-15.3226845921,-1.0184886751,-1.4013781037\O,-15.623583795,-1.74
 44048643,-2.5267781323\C,-14.5487224643,-2.2031349988,-3.3447004114\C,
 -12.2903540585,0.2162011474,0.5512929421\C,-11.8928198166,0.3112654747
 ,1.9006849379\C,-10.5561834493,0.5486709067,2.2285493381\C,-9.59686751
 13,0.6878383904,1.1966818892\N,-9.9703849256,0.5938378616,-0.108219680
 2\C,-11.2547587906,0.3737438112,-0.4010047408\C,-8.1393475536,0.901570
 6936,1.4205403734\C,-7.2635255036,0.6811216513,0.3341320804\C,-5.88155
 66995,0.8458819634,0.4295668872\C,-5.2978375038,1.2611424843,1.6456284
 542\C,-6.1525508642,1.5028836547,2.74282941\C,-7.5447077402,1.33178555
 31,2.6458640346\O,-8.3836432595,1.5730404672,3.7057476913\C,-7.8184989
 118,2.0656775509,4.918428372\C,-3.8354157582,1.441606674,1.7762916487\
 C,-3.2553961854,2.4338626543,2.5925615319\C,-1.866828605,2.5635427994,
 2.6696340408\C,-1.0415455096,1.6920158711,1.9192577904\N,-1.5914411811
 ,0.7158640773,1.1478152946\C,-2.9213309361,0.6070690143,1.0884090752\C
 ,0.4477853281,1.7234803224,1.9279006366\C,1.1369425374,0.5944677273,1.
 4316440242\C,2.5292099128,0.5147494907,1.3916544799\C,3.3163154421,1.5
 919962881,1.8519181738\C,2.651539221,2.7378882723,2.3403472542\C,1.248
 5012123,2.8154796635,2.3819481206\O,0.5930699984,3.9368897778,2.828270
 3595\C,1.3715186389,5.067647868,3.2126912474\C,4.7942705736,1.53495897
 37,1.8265968987\C,5.6006240823,2.1474012197,2.8075037421\C,6.992963145
 2,2.0695014698,2.7286859061\C,7.5934590446,1.3645510603,1.6579334982\N
 ,6.8233640562,0.7651963025,0.7099290718\C,5.4939354047,0.8559553199,0.
 7996700788\C,9.0616032877,1.1774117415,1.4868277939\C,9.5010476098,0.1
 853251899,0.5819819175\C,10.8500537734,-0.0794727313,0.3448946822\C,11
 .8479666283,0.6598315089,1.0152624693\C,11.4352950813,1.6666509781,1.9
 14967442\C,10.0753501869,1.9313367078,2.1531243445\O,9.6653613367,2.92
 89380889,3.0038127773\C,10.6600099344,3.7371298843,3.6280723013\C,13.2
 859303409,0.3988240419,0.7865555933\C,14.2589389873,0.5313118549,1.797
 9912202\C,15.6027135835,0.2641007562,1.5262107828\C,15.9840608718,-0.1
 445879239,0.2256726985\N,15.055660805,-0.2523859437,-0.762769469\C,13.
 7759936934,0.0089277407,-0.4834898551\C,17.3829275767,-0.4449925203,-0
 .1892241995\C,17.6677707397,-0.4917767393,-1.572237426\C,18.9407527049
 ,-0.7636379892,-2.0741480289\C,20.0138153592,-1.0146157335,-1.19249835
 23\C,19.7524360473,-0.9872485597,0.1946883287\C,18.4694784593,-0.71090
 13661,0.6986838042\O,18.1997534473,-0.7106099857,2.0455505711\C,19.251
 1480903,-1.0508495856,2.9460957923\C,21.3756044329,-1.3007692004,-1.69
 48648892\C,22.5424777133,-0.8870303527,-1.0205632977\C,23.8037549038,-
 1.1931141498,-1.5368281868\C,23.9054242463,-1.9178365636,-2.7483088261
 \N,22.7854394394,-2.315925058,-3.4092134335\C,21.5881786542,-2.0189235
 266,-2.8962250457\C,25.191748151,-2.2638119078,-3.4199397036\C,25.1425
 249811,-2.6366434487,-4.7818720949\C,26.2865795005,-2.9759659677,-5.51
 06341518\C,27.5346879528,-2.9586479989,-4.8745344855\C,27.6260661863,-
 2.6085715567,-3.5203085167\C,26.4723774325,-2.2636245465,-2.7885103321
 \O,26.5216746764,-1.9346158805,-1.4552614097\C,27.7820388007,-1.996967
 3129,-0.7925899138\H,-30.2109043438,-0.517989941,-2.8078677705\H,-29.0
 409755267,-2.5660211822,-3.7522577252\H,-26.5616461909,-2.818446744,-3
 .3840521315\H,-28.8158046474,1.1811826223,-1.5755213137\H,-24.86156188
 18,1.1207578024,-1.7237015657\H,-22.3896127744,1.232819317,-1.39264784
 12\H,-22.2058580283,-3.0839040089,-1.8873190807\H,-24.2921717493,-4.24
 68627568,-0.4134511354\H,-25.525329652,-5.0878774205,-1.4381752084\H,-
 25.94505525,-3.5337771855,-0.6092234825\H,-20.1280015379,-2.4954491934
 ,-2.7853999217\H,-17.6744294418,-2.3420400518,-2.3699194002\H,-20.6537
 833504,0.7319481092,0.0622089321\H,-16.928771413,0.6790203418,1.068827
 1729\H,-14.573511349,1.1184457195,1.7876711692\H,-13.1700075296,-1.210
 6711418,-1.580028104\H,-13.8967351735,-2.9245055833,-2.8050633441\H,-1
 3.927834938,-1.3592518751,-3.7164289004\H,-15.0235005304,-2.7132847982
 ,-4.202117209\H,-12.6328291815,0.1701590669,2.7024394463\H,-10.2459669
 003,0.6076771382,3.2761195467\H,-11.4972388589,0.3446782791,-1.4777466
 902\H,-7.7298651766,0.3824509797,-0.6137989414\H,-5.2520428757,0.68328
 26951,-0.4562423619\H,-5.7085549709,1.8018595253,3.7001784785\H,-8.671
 2562757,2.2199840577,5.6039365356\H,-7.2927612334,3.0329358994,4.76247
 56169\H,-7.1117064083,1.3366163373,5.3720673467\H,-3.8972665722,3.1293
 9622,3.1540947643\H,-1.4169635615,3.3374766046,3.2989055037\H,-3.30433
 48685,-0.2194094901,0.4652662156\H,0.5158926838,-0.2368824089,1.073430
 6931\H,3.0103406511,-0.405080582,1.0315229633\H,3.2524795137,3.5980291
 135,2.6598560014\H,0.6434852406,5.844877517,3.5074355567\H,2.033952457
 6,4.8399300735,4.0767020748\H,1.9906657743,5.4454275553,2.3700413851\H
 ,5.1332985779,2.6648259266,3.6589804803\H,7.6178205157,2.5321228507,3.
 4986140021\H,4.9280472715,0.3756029383,-0.0170485557\H,8.7173978491,-0
 .382671406,0.0638548485\H,11.1322978964,-0.8899736705,-0.3412104894\H,
 12.2014692216,2.2767634591,2.4086741847\H,10.1065791986,4.471523179,4.
 2407932133\H,11.3261984765,3.1384087452,4.2874905675\H,11.2799790381,4
 .2768731116,2.8793955296\H,13.9585201596,0.8221166213,2.8159855615\H,1
 6.3569314403,0.3617839239,2.31294231\H,13.0767384599,-0.0725568968,-1.
 3334642385\H,16.826087275,-0.2978719722,-2.2498257842\H,19.1114720041,
 -0.7478224772,-3.1594581563\H,20.5688895275,-1.2236041186,0.8879531234
 \H,19.6379398658,-2.0759292676,2.7570516007\H,18.8041361145,-1.0101107
 227,3.9558269314\H,20.0948662905,-0.328227248,2.8897983556\H,22.462949
 8826,-0.2922189625,-0.0980070811\H,24.7091615358,-0.8585314275,-1.0212
 311127\H,20.7203278849,-2.3975755885,-3.4632956465\H,24.1476765213,-2.
 6543244725,-5.2460651483\H,26.2024392364,-3.2525563996,-6.5708916827\H
 ,28.4496739815,-3.2198142866,-5.4260940418\H,28.6080413244,-2.60758973
 93,-3.0315976655\H,28.2160874468,-3.0199889333,-0.8309207911\H,28.5125
 011766,-1.2766711952,-1.2224417599\H,27.5803814222,-1.7255318343,0.259
 5417264\\Version=EM64L-G16RevA.03\State=1-A\HF=-4145.7326939\S2=0.\S2-
 1=0.\S2A=0.\RMSD=3.618e-09\RMSF=8.728e-07\Dipole=0.9395917,0.7814838,3
 .2655375\Quadrupole=96.2295481,-53.5501926,-42.6793555,65.1419816,84.5
 129093,27.7618484\PG=C01 [X(C84H65N7O7)]\\@


 OF ALL THE WONDERS OF THE UNIVERSE, THE GREATEST IS MAN.

                                    -- ARISTOTLE
 Job cpu time:       5 days 17 hours  7 minutes 34.8 seconds.
 Elapsed time:       0 days 17 hours 26 minutes 15.7 seconds.
 File lengths (MBytes):  RWF=   3184 Int=      0 D2E=      0 Chk=    288 Scr=      8
 Normal termination of Gaussian 16 at Sat Jul 25 05:38:17 2020.
