 Entering Gaussian System, Link 0=g16
 Input=mols_66_5_14_n-n-cF-cOC_opt_0.gjf
 Output=mols_66_5_14_n-n-cF-cOC_opt_0.log
 Initial command:
 /opt/ohpc/pub/libs/gaussian/g16-A.03/sandybridge/g16/l1.exe "/mnt/gpfs2_4m/scratch/rdu230/ondemand/projects/dihedral_energies/7trial/wtuning/redos_512cycles/mols_66_5_14_n-n-cF-cOC/Gau-348803.inp" -scrdir="/mnt/gpfs2_4m/scratch/rdu230/ondemand/projects/dihedral_energies/7trial/wtuning/redos_512cycles/mols_66_5_14_n-n-cF-cOC/"
 Entering Link 1 = /opt/ohpc/pub/libs/gaussian/g16-A.03/sandybridge/g16/l1.exe PID=    348805.
  
 Copyright (c) 1988,1990,1992,1993,1995,1998,2003,2009,2016,
            Gaussian, Inc.  All Rights Reserved.
  
 This is part of the Gaussian(R) 16 program.  It is based on
 the Gaussian(R) 09 system (copyright 2009, Gaussian, Inc.),
 the Gaussian(R) 03 system (copyright 2003, Gaussian, Inc.),
 the Gaussian(R) 98 system (copyright 1998, Gaussian, Inc.),
 the Gaussian(R) 94 system (copyright 1995, Gaussian, Inc.),
 the Gaussian 92(TM) system (copyright 1992, Gaussian, Inc.),
 the Gaussian 90(TM) system (copyright 1990, Gaussian, Inc.),
 the Gaussian 88(TM) system (copyright 1988, Gaussian, Inc.),
 the Gaussian 86(TM) system (copyright 1986, Carnegie Mellon
 University), and the Gaussian 82(TM) system (copyright 1983,
 Carnegie Mellon University). Gaussian is a federally registered
 trademark of Gaussian, Inc.
  
 This software contains proprietary and confidential information,
 including trade secrets, belonging to Gaussian, Inc.
  
 This software is provided under written license and may be
 used, copied, transmitted, or stored only in accord with that
 written license.
  
 The following legend is applicable only to US Government
 contracts under FAR:
  
                    RESTRICTED RIGHTS LEGEND
  
 Use, reproduction and disclosure by the US Government is
 subject to restrictions as set forth in subparagraphs (a)
 and (c) of the Commercial Computer Software - Restricted
 Rights clause in FAR 52.227-19.
  
 Gaussian, Inc.
 340 Quinnipiac St., Bldg. 40, Wallingford CT 06492
  
  
 ---------------------------------------------------------------
 Warning -- This program may not be used in any manner that
 competes with the business of Gaussian, Inc. or will provide
 assistance to any competitor of Gaussian, Inc.  The licensee
 of this program is prohibited from giving any competitor of
 Gaussian, Inc. access to this program.  By using this program,
 the user acknowledges that Gaussian, Inc. is engaged in the
 business of creating and licensing software in the field of
 computational chemistry and represents and warrants to the
 licensee that it is not a competitor of Gaussian, Inc. and that
 it will not use this program in any manner prohibited above.
 ---------------------------------------------------------------
  

 Cite this work as:
 Gaussian 16, Revision A.03,
 M. J. Frisch, G. W. Trucks, H. B. Schlegel, G. E. Scuseria, 
 M. A. Robb, J. R. Cheeseman, G. Scalmani, V. Barone, 
 G. A. Petersson, H. Nakatsuji, X. Li, M. Caricato, A. V. Marenich, 
 J. Bloino, B. G. Janesko, R. Gomperts, B. Mennucci, H. P. Hratchian, 
 J. V. Ortiz, A. F. Izmaylov, J. L. Sonnenberg, D. Williams-Young, 
 F. Ding, F. Lipparini, F. Egidi, J. Goings, B. Peng, A. Petrone, 
 T. Henderson, D. Ranasinghe, V. G. Zakrzewski, J. Gao, N. Rega, 
 G. Zheng, W. Liang, M. Hada, M. Ehara, K. Toyota, R. Fukuda, 
 J. Hasegawa, M. Ishida, T. Nakajima, Y. Honda, O. Kitao, H. Nakai, 
 T. Vreven, K. Throssell, J. A. Montgomery, Jr., J. E. Peralta, 
 F. Ogliaro, M. J. Bearpark, J. J. Heyd, E. N. Brothers, K. N. Kudin, 
 V. N. Staroverov, T. A. Keith, R. Kobayashi, J. Normand, 
 K. Raghavachari, A. P. Rendell, J. C. Burant, S. S. Iyengar, 
 J. Tomasi, M. Cossi, J. M. Millam, M. Klene, C. Adamo, R. Cammi, 
 J. W. Ochterski, R. L. Martin, K. Morokuma, O. Farkas, 
 J. B. Foresman, and D. J. Fox, Gaussian, Inc., Wallingford CT, 2016.
 
 ******************************************
 Gaussian 16:  EM64L-G16RevA.03 25-Dec-2016
                26-Jul-2020 
 ******************************************
 %mem=30GB
 %nproc=8
 Will use up to    8 processors via shared memory.
 ---------------------------------------------------------------
 #P uLC-wPBE/cc-pVDZ iop(3/107=0107000000, 3/108=0107000000) opt
 ---------------------------------------------------------------
 1/18=20,19=15,26=3,38=1/1,3;
 2/9=110,12=2,17=6,18=5,40=1/2;
 3/5=16,11=2,25=1,30=1,71=1,74=-41,107=107000000,108=107000000,116=2/1,2,3;
 4//1;
 5/5=2,38=5/2;
 6/7=2,8=2,9=2,10=2,28=1/1;
 7//1,2,3,16;
 1/18=20,19=15,26=3/3(2);
 2/9=110/2;
 99//99;
 2/9=110/2;
 3/5=16,11=2,25=1,30=1,71=1,74=-41,107=107000000,108=107000000,116=2/1,2,3;
 4/5=5,16=3,69=1/1;
 5/5=2,38=5/2;
 7//1,2,3,16;
 1/18=20,19=15,26=3/3(-5);
 2/9=110/2;
 6/7=2,8=2,9=2,10=2,19=2,28=1/1;
 99/9=1/99;
 Leave Link    1 at Sun Jul 26 12:21:37 2020, MaxMem=  4026531840 cpu:               1.4 elap:               0.2
 (Enter /opt/ohpc/pub/libs/gaussian/g16-A.03/sandybridge/g16/l101.exe)
 -----------------
 H37 C55 N10 O5 F5
 -----------------
 Symbolic Z-matrix:
 Charge =  0 Multiplicity = 1
 C                    -19.78904   2.8085    0.09647 
 C                    -19.61536   1.41343  -0.0856 
 C                    -18.30557   1.00721  -0.12146 
 F                    -18.0615  -0.36262  -0.19549 
 C                    -17.29481   1.87064  -0.13874 
 N                    -17.45384   3.1728    0.02006 
 C                    -18.7726   3.61218   0.09481 
 C                    -15.85343   1.38148  -0.20573 
 N                    -15.33742   1.16478  -1.4416 
 C                    -14.05296   0.82408  -1.60609 
 C                    -13.20616   0.66573  -0.54081 
 C                    -13.73622   0.82977   0.75083 
 C                    -15.00852   1.29867   0.90214 
 O                    -15.54622   1.47135   2.14996 
 C                    -15.23998   2.76393   2.65145 
 C                    -11.81042   0.27214  -0.62238 
 C                    -11.3073  -1.02459  -0.43857 
 C                    -9.96941  -1.33613  -0.47418 
 F                    -9.58634  -2.52514  -0.2752 
 C                    -9.09996  -0.25493  -0.82105 
 N                    -9.54251   1.02138  -1.07936 
 C                    -10.85835   1.1932   -0.95034 
 C                    -7.66941  -0.44117  -0.73852 
 N                    -7.14294  -1.48949  -1.5642 
 C                    -5.7607   -1.71248  -1.47499 
 C                    -4.91707  -1.02381  -0.68418 
 C                    -5.45984  -0.08821   0.16092 
 C                    -6.75367   0.24814   0.11185 
 O                    -7.28882   1.13209   1.00125 
 C                    -7.11972   2.52143   0.52017 
 C                    -3.47158  -1.36581  -0.54507 
 C                    -3.01823  -2.6688   -0.35718 
 C                    -1.67861  -2.92693  -0.24359 
 F                    -1.26754  -4.21251  -0.09646 
 C                    -0.73539  -1.9689   -0.3499 
 N                    -1.16884  -0.59739  -0.58571 
 C                    -2.52178  -0.38254  -0.66241 
 C                     0.66228  -2.08357  -0.15965 
 N                     1.4572   -1.8848   -1.3187 
 C                     2.76754  -1.90645  -1.11766 
 C                     3.47806  -2.12227   0.01728 
 C                     2.6424   -2.40725   1.11831 
 C                     1.27125  -2.47042   1.0897 
 O                     0.39986  -2.66555   2.15665 
 C                     0.90025  -3.21738   3.29722 
 C                     4.90776  -1.93731   0.11813 
 C                     5.77112  -2.54133  -0.83161 
 C                     7.11233  -2.23463  -0.70083 
 F                     7.96681  -2.79139  -1.7183 
 C                     7.64236  -1.34049   0.22713 
 N                     6.78392  -0.86909   1.12988 
 C                     5.41981  -1.16229   1.11433 
 C                     8.9649   -0.87306   0.25757 
 N                     9.07462   0.43263  -0.0629 
 C                     10.30474   1.03137  -0.15324 
 C                     11.51319   0.31885   0.07641 
 C                     11.35219  -1.0284    0.41831 
 C                     10.07036  -1.69051   0.50629 
 O                     9.91751  -3.01566   0.74727 
 C                     10.97847  -3.85738   0.76453 
 C                     12.81377   0.98565   0.11176 
 C                     13.22089   1.62926  -1.11332 
 C                     14.46025   2.24882  -1.02727 
 F                     14.8327   2.92055  -2.16852 
 C                     15.25738   2.21529   0.10517 
 N                     14.83078   1.55901   1.24041 
 C                     13.60742   1.00954   1.18202 
 C                     16.58523   2.97246   0.15925 
 N                     16.53235   4.27646   0.51691 
 C                     17.66831   4.97876   0.60723 
 C                     18.87042   4.41889   0.32478 
 C                     18.95983   3.03643  -0.10061 
 C                     17.7575   2.3385   -0.12207 
 O                     17.68135   0.94045  -0.47696 
 C                     18.93244   0.24095  -0.53453 
 H                    -20.847    3.23163   0.12219 
 H                    -20.4347   0.77413  -0.05864 
 H                    -18.89177   4.68021   0.14945 
 H                    -13.72134   0.62551  -2.56354 
 H                    -13.11135   0.71738   1.61018 
 H                    -14.07152   2.9235    2.78727 
 H                    -15.6237   2.92156   3.61387 
 H                    -15.57462   3.52578   1.99719 
 H                    -12.03171  -1.88707  -0.24076 
 H                    -11.10832   2.2924   -1.19239 
 H                    -5.4835   -2.4937   -2.21323 
 H                    -4.85986   0.4834    0.88717 
 H                    -7.62621   3.20319   1.15637 
 H                    -7.63803   2.5665   -0.51718 
 H                    -6.09101   2.78296   0.39626 
 H                    -3.76813  -3.5068   -0.30467 
 H                    -2.71528   0.59585  -0.84718 
 H                     3.29411  -1.73382  -2.09888 
 H                     3.11304  -2.62818   2.15391 
 H                     1.4286   -4.19137   3.03235 
 H                     1.63575  -2.56948   3.79424 
 H                     0.15803  -3.44147   3.93688 
 H                     5.37235  -3.22476  -1.58319 
 H                     4.87436  -0.66625   1.88626 
 H                     10.30885   2.03567  -0.35069 
 H                     12.28258  -1.62043   0.60123 
 H                     11.68105  -3.65617   1.49801 
 H                     10.62072  -4.93722   0.86399 
 H                     11.45837  -3.84182  -0.26902 
 H                     12.63005   1.61199  -1.98733 
 H                     13.32353   0.51203   2.0893 
 H                     17.52373   5.97085   0.88691 
 H                     19.79948   5.02392   0.33591 
 H                     19.92811   2.59489  -0.26111 
 H                     19.5377   0.64825  -1.3693 
 H                     18.63234  -0.79873  -0.80867 
 H                     19.39818   0.28162   0.44925 
 
 ITRead=  0  0  0  0  0  0  0  0  0  0  0  0  0  0  0  0  0  0  0  0
 ITRead=  0  0  0  0  0  0  0  0  0  0  0  0  0  0  0  0  0  0  0  0
 ITRead=  0  0  0  0  0  0  0  0  0  0  0  0  0  0  0  0  0  0  0  0
 ITRead=  0  0  0  0  0  0  0  0  0  0  0  0  0  0  0  0  0  0  0  0
 ITRead=  0  0  0  0  0  0  0  0  0  0  0  0  0  0  0  0  0  0  0  0
 ITRead=  0  0  0  0  0  0  0  0  0  0  0  0
 MicOpt= -1 -1 -1 -1 -1 -1 -1 -1 -1 -1 -1 -1 -1 -1 -1 -1 -1 -1 -1 -1
 MicOpt= -1 -1 -1 -1 -1 -1 -1 -1 -1 -1 -1 -1 -1 -1 -1 -1 -1 -1 -1 -1
 MicOpt= -1 -1 -1 -1 -1 -1 -1 -1 -1 -1 -1 -1 -1 -1 -1 -1 -1 -1 -1 -1
 MicOpt= -1 -1 -1 -1 -1 -1 -1 -1 -1 -1 -1 -1 -1 -1 -1 -1 -1 -1 -1 -1
 MicOpt= -1 -1 -1 -1 -1 -1 -1 -1 -1 -1 -1 -1 -1 -1 -1 -1 -1 -1 -1 -1
 MicOpt= -1 -1 -1 -1 -1 -1 -1 -1 -1 -1 -1 -1
 NAtoms=    112 NQM=      112 NQMF=       0 NMMI=      0 NMMIF=      0
                NMic=       0 NMicF=      0.
                    Isotopes and Nuclear Properties:
 (Nuclear quadrupole moments (NQMom) in fm**2, nuclear magnetic moments (NMagM)
  in nuclear magnetons)

  Atom         1           2           3           4           5           6           7           8           9          10
 IAtWgt=          12          12          12          19          12          14          12          12          14          12
 AtmWgt=  12.0000000  12.0000000  12.0000000  18.9984033  12.0000000  14.0030740  12.0000000  12.0000000  14.0030740  12.0000000
 NucSpn=           0           0           0           1           0           2           0           0           2           0
 AtZEff=  -0.0000000  -0.0000000  -0.0000000  -0.0000000  -0.0000000  -0.0000000  -0.0000000  -0.0000000  -0.0000000  -0.0000000
 NQMom=    0.0000000   0.0000000   0.0000000   0.0000000   0.0000000   2.0440000   0.0000000   0.0000000   2.0440000   0.0000000
 NMagM=    0.0000000   0.0000000   0.0000000   2.6288670   0.0000000   0.4037610   0.0000000   0.0000000   0.4037610   0.0000000
 AtZNuc=   6.0000000   6.0000000   6.0000000   9.0000000   6.0000000   7.0000000   6.0000000   6.0000000   7.0000000   6.0000000

  Atom        11          12          13          14          15          16          17          18          19          20
 IAtWgt=          12          12          12          16          12          12          12          12          19          12
 AtmWgt=  12.0000000  12.0000000  12.0000000  15.9949146  12.0000000  12.0000000  12.0000000  12.0000000  18.9984033  12.0000000
 NucSpn=           0           0           0           0           0           0           0           0           1           0
 AtZEff=  -0.0000000  -0.0000000  -0.0000000  -0.0000000  -0.0000000  -0.0000000  -0.0000000  -0.0000000  -0.0000000  -0.0000000
 NQMom=    0.0000000   0.0000000   0.0000000   0.0000000   0.0000000   0.0000000   0.0000000   0.0000000   0.0000000   0.0000000
 NMagM=    0.0000000   0.0000000   0.0000000   0.0000000   0.0000000   0.0000000   0.0000000   0.0000000   2.6288670   0.0000000
 AtZNuc=   6.0000000   6.0000000   6.0000000   8.0000000   6.0000000   6.0000000   6.0000000   6.0000000   9.0000000   6.0000000

  Atom        21          22          23          24          25          26          27          28          29          30
 IAtWgt=          14          12          12          14          12          12          12          12          16          12
 AtmWgt=  14.0030740  12.0000000  12.0000000  14.0030740  12.0000000  12.0000000  12.0000000  12.0000000  15.9949146  12.0000000
 NucSpn=           2           0           0           2           0           0           0           0           0           0
 AtZEff=  -0.0000000  -0.0000000  -0.0000000  -0.0000000  -0.0000000  -0.0000000  -0.0000000  -0.0000000  -0.0000000  -0.0000000
 NQMom=    2.0440000   0.0000000   0.0000000   2.0440000   0.0000000   0.0000000   0.0000000   0.0000000   0.0000000   0.0000000
 NMagM=    0.4037610   0.0000000   0.0000000   0.4037610   0.0000000   0.0000000   0.0000000   0.0000000   0.0000000   0.0000000
 AtZNuc=   7.0000000   6.0000000   6.0000000   7.0000000   6.0000000   6.0000000   6.0000000   6.0000000   8.0000000   6.0000000

  Atom        31          32          33          34          35          36          37          38          39          40
 IAtWgt=          12          12          12          19          12          14          12          12          14          12
 AtmWgt=  12.0000000  12.0000000  12.0000000  18.9984033  12.0000000  14.0030740  12.0000000  12.0000000  14.0030740  12.0000000
 NucSpn=           0           0           0           1           0           2           0           0           2           0
 AtZEff=  -0.0000000  -0.0000000  -0.0000000  -0.0000000  -0.0000000  -0.0000000  -0.0000000  -0.0000000  -0.0000000  -0.0000000
 NQMom=    0.0000000   0.0000000   0.0000000   0.0000000   0.0000000   2.0440000   0.0000000   0.0000000   2.0440000   0.0000000
 NMagM=    0.0000000   0.0000000   0.0000000   2.6288670   0.0000000   0.4037610   0.0000000   0.0000000   0.4037610   0.0000000
 AtZNuc=   6.0000000   6.0000000   6.0000000   9.0000000   6.0000000   7.0000000   6.0000000   6.0000000   7.0000000   6.0000000

  Atom        41          42          43          44          45          46          47          48          49          50
 IAtWgt=          12          12          12          16          12          12          12          12          19          12
 AtmWgt=  12.0000000  12.0000000  12.0000000  15.9949146  12.0000000  12.0000000  12.0000000  12.0000000  18.9984033  12.0000000
 NucSpn=           0           0           0           0           0           0           0           0           1           0
 AtZEff=  -0.0000000  -0.0000000  -0.0000000  -0.0000000  -0.0000000  -0.0000000  -0.0000000  -0.0000000  -0.0000000  -0.0000000
 NQMom=    0.0000000   0.0000000   0.0000000   0.0000000   0.0000000   0.0000000   0.0000000   0.0000000   0.0000000   0.0000000
 NMagM=    0.0000000   0.0000000   0.0000000   0.0000000   0.0000000   0.0000000   0.0000000   0.0000000   2.6288670   0.0000000
 AtZNuc=   6.0000000   6.0000000   6.0000000   8.0000000   6.0000000   6.0000000   6.0000000   6.0000000   9.0000000   6.0000000

  Atom        51          52          53          54          55          56          57          58          59          60
 IAtWgt=          14          12          12          14          12          12          12          12          16          12
 AtmWgt=  14.0030740  12.0000000  12.0000000  14.0030740  12.0000000  12.0000000  12.0000000  12.0000000  15.9949146  12.0000000
 NucSpn=           2           0           0           2           0           0           0           0           0           0
 AtZEff=  -0.0000000  -0.0000000  -0.0000000  -0.0000000  -0.0000000  -0.0000000  -0.0000000  -0.0000000  -0.0000000  -0.0000000
 NQMom=    2.0440000   0.0000000   0.0000000   2.0440000   0.0000000   0.0000000   0.0000000   0.0000000   0.0000000   0.0000000
 NMagM=    0.4037610   0.0000000   0.0000000   0.4037610   0.0000000   0.0000000   0.0000000   0.0000000   0.0000000   0.0000000
 AtZNuc=   7.0000000   6.0000000   6.0000000   7.0000000   6.0000000   6.0000000   6.0000000   6.0000000   8.0000000   6.0000000

  Atom        61          62          63          64          65          66          67          68          69          70
 IAtWgt=          12          12          12          19          12          14          12          12          14          12
 AtmWgt=  12.0000000  12.0000000  12.0000000  18.9984033  12.0000000  14.0030740  12.0000000  12.0000000  14.0030740  12.0000000
 NucSpn=           0           0           0           1           0           2           0           0           2           0
 AtZEff=  -0.0000000  -0.0000000  -0.0000000  -0.0000000  -0.0000000  -0.0000000  -0.0000000  -0.0000000  -0.0000000  -0.0000000
 NQMom=    0.0000000   0.0000000   0.0000000   0.0000000   0.0000000   2.0440000   0.0000000   0.0000000   2.0440000   0.0000000
 NMagM=    0.0000000   0.0000000   0.0000000   2.6288670   0.0000000   0.4037610   0.0000000   0.0000000   0.4037610   0.0000000
 AtZNuc=   6.0000000   6.0000000   6.0000000   9.0000000   6.0000000   7.0000000   6.0000000   6.0000000   7.0000000   6.0000000

  Atom        71          72          73          74          75          76          77          78          79          80
 IAtWgt=          12          12          12          16          12           1           1           1           1           1
 AtmWgt=  12.0000000  12.0000000  12.0000000  15.9949146  12.0000000   1.0078250   1.0078250   1.0078250   1.0078250   1.0078250
 NucSpn=           0           0           0           0           0           1           1           1           1           1
 AtZEff=  -0.0000000  -0.0000000  -0.0000000  -0.0000000  -0.0000000  -0.0000000  -0.0000000  -0.0000000  -0.0000000  -0.0000000
 NQMom=    0.0000000   0.0000000   0.0000000   0.0000000   0.0000000   0.0000000   0.0000000   0.0000000   0.0000000   0.0000000
 NMagM=    0.0000000   0.0000000   0.0000000   0.0000000   0.0000000   2.7928460   2.7928460   2.7928460   2.7928460   2.7928460
 AtZNuc=   6.0000000   6.0000000   6.0000000   8.0000000   6.0000000   1.0000000   1.0000000   1.0000000   1.0000000   1.0000000

  Atom        81          82          83          84          85          86          87          88          89          90
 IAtWgt=           1           1           1           1           1           1           1           1           1           1
 AtmWgt=   1.0078250   1.0078250   1.0078250   1.0078250   1.0078250   1.0078250   1.0078250   1.0078250   1.0078250   1.0078250
 NucSpn=           1           1           1           1           1           1           1           1           1           1
 AtZEff=  -0.0000000  -0.0000000  -0.0000000  -0.0000000  -0.0000000  -0.0000000  -0.0000000  -0.0000000  -0.0000000  -0.0000000
 NQMom=    0.0000000   0.0000000   0.0000000   0.0000000   0.0000000   0.0000000   0.0000000   0.0000000   0.0000000   0.0000000
 NMagM=    2.7928460   2.7928460   2.7928460   2.7928460   2.7928460   2.7928460   2.7928460   2.7928460   2.7928460   2.7928460
 AtZNuc=   1.0000000   1.0000000   1.0000000   1.0000000   1.0000000   1.0000000   1.0000000   1.0000000   1.0000000   1.0000000

  Atom        91          92          93          94          95          96          97          98          99         100
 IAtWgt=           1           1           1           1           1           1           1           1           1           1
 AtmWgt=   1.0078250   1.0078250   1.0078250   1.0078250   1.0078250   1.0078250   1.0078250   1.0078250   1.0078250   1.0078250
 NucSpn=           1           1           1           1           1           1           1           1           1           1
 AtZEff=  -0.0000000  -0.0000000  -0.0000000  -0.0000000  -0.0000000  -0.0000000  -0.0000000  -0.0000000  -0.0000000  -0.0000000
 NQMom=    0.0000000   0.0000000   0.0000000   0.0000000   0.0000000   0.0000000   0.0000000   0.0000000   0.0000000   0.0000000
 NMagM=    2.7928460   2.7928460   2.7928460   2.7928460   2.7928460   2.7928460   2.7928460   2.7928460   2.7928460   2.7928460
 AtZNuc=   1.0000000   1.0000000   1.0000000   1.0000000   1.0000000   1.0000000   1.0000000   1.0000000   1.0000000   1.0000000

  Atom       101         102         103         104         105         106         107         108         109         110
 IAtWgt=           1           1           1           1           1           1           1           1           1           1
 AtmWgt=   1.0078250   1.0078250   1.0078250   1.0078250   1.0078250   1.0078250   1.0078250   1.0078250   1.0078250   1.0078250
 NucSpn=           1           1           1           1           1           1           1           1           1           1
 AtZEff=  -0.0000000  -0.0000000  -0.0000000  -0.0000000  -0.0000000  -0.0000000  -0.0000000  -0.0000000  -0.0000000  -0.0000000
 NQMom=    0.0000000   0.0000000   0.0000000   0.0000000   0.0000000   0.0000000   0.0000000   0.0000000   0.0000000   0.0000000
 NMagM=    2.7928460   2.7928460   2.7928460   2.7928460   2.7928460   2.7928460   2.7928460   2.7928460   2.7928460   2.7928460
 AtZNuc=   1.0000000   1.0000000   1.0000000   1.0000000   1.0000000   1.0000000   1.0000000   1.0000000   1.0000000   1.0000000

  Atom       111         112
 IAtWgt=           1           1
 AtmWgt=   1.0078250   1.0078250
 NucSpn=           1           1
 AtZEff=  -0.0000000  -0.0000000
 NQMom=    0.0000000   0.0000000
 NMagM=    2.7928460   2.7928460
 AtZNuc=   1.0000000   1.0000000
 Leave Link  101 at Sun Jul 26 12:21:37 2020, MaxMem=  4026531840 cpu:               3.3 elap:               0.5
 (Enter /opt/ohpc/pub/libs/gaussian/g16-A.03/sandybridge/g16/l103.exe)

 GradGradGradGradGradGradGradGradGradGradGradGradGradGradGradGradGradGrad
 Berny optimization.
 Initialization pass.
                           ----------------------------
                           !    Initial Parameters    !
                           ! (Angstroms and Degrees)  !
 --------------------------                            --------------------------
 ! Name  Definition              Value          Derivative Info.                !
 --------------------------------------------------------------------------------
 ! R1    R(1,2)                  1.4176         estimate D2E/DX2                !
 ! R2    R(1,7)                  1.2958         estimate D2E/DX2                !
 ! R3    R(1,76)                 1.1397         estimate D2E/DX2                !
 ! R4    R(2,3)                  1.3718         estimate D2E/DX2                !
 ! R5    R(2,77)                 1.0396         estimate D2E/DX2                !
 ! R6    R(3,4)                  1.3934         estimate D2E/DX2                !
 ! R7    R(3,5)                  1.3295         estimate D2E/DX2                !
 ! R8    R(5,6)                  1.3214         estimate D2E/DX2                !
 ! R9    R(5,8)                  1.5236         estimate D2E/DX2                !
 ! R10   R(6,7)                  1.392          estimate D2E/DX2                !
 ! R11   R(7,78)                 1.0761         estimate D2E/DX2                !
 ! R12   R(8,9)                  1.3567         estimate D2E/DX2                !
 ! R13   R(8,13)                 1.3957         estimate D2E/DX2                !
 ! R14   R(9,10)                 1.339          estimate D2E/DX2                !
 ! R15   R(10,11)                1.37           estimate D2E/DX2                !
 ! R16   R(10,79)                1.0325         estimate D2E/DX2                !
 ! R17   R(11,12)                1.4058         estimate D2E/DX2                !
 ! R18   R(11,16)                1.4525         estimate D2E/DX2                !
 ! R19   R(12,13)                1.3644         estimate D2E/DX2                !
 ! R20   R(12,80)                1.0684         estimate D2E/DX2                !
 ! R21   R(13,14)                1.3697         estimate D2E/DX2                !
 ! R22   R(14,15)                1.4199         estimate D2E/DX2                !
 ! R23   R(15,81)                1.1871         estimate D2E/DX2                !
 ! R24   R(15,82)                1.048          estimate D2E/DX2                !
 ! R25   R(15,83)                1.0585         estimate D2E/DX2                !
 ! R26   R(16,17)                1.403          estimate D2E/DX2                !
 ! R27   R(16,22)                1.3647         estimate D2E/DX2                !
 ! R28   R(17,18)                1.3741         estimate D2E/DX2                !
 ! R29   R(17,84)                1.1436         estimate D2E/DX2                !
 ! R30   R(18,19)                1.2649         estimate D2E/DX2                !
 ! R31   R(18,20)                1.4301         estimate D2E/DX2                !
 ! R32   R(20,21)                1.3753         estimate D2E/DX2                !
 ! R33   R(20,23)                1.445          estimate D2E/DX2                !
 ! R34   R(21,22)                1.3333         estimate D2E/DX2                !
 ! R35   R(22,85)                1.153          estimate D2E/DX2                !
 ! R36   R(23,24)                1.4345         estimate D2E/DX2                !
 ! R37   R(23,28)                1.4272         estimate D2E/DX2                !
 ! R38   R(24,25)                1.4029         estimate D2E/DX2                !
 ! R39   R(25,26)                1.3459         estimate D2E/DX2                !
 ! R40   R(25,86)                1.11           estimate D2E/DX2                !
 ! R41   R(26,27)                1.3726         estimate D2E/DX2                !
 ! R42   R(26,31)                1.4919         estimate D2E/DX2                !
 ! R43   R(27,28)                1.3377         estimate D2E/DX2                !
 ! R44   R(27,87)                1.1019         estimate D2E/DX2                !
 ! R45   R(28,29)                1.3634         estimate D2E/DX2                !
 ! R46   R(29,30)                1.48           estimate D2E/DX2                !
 ! R47   R(30,88)                1.0612         estimate D2E/DX2                !
 ! R48   R(30,89)                1.1605         estimate D2E/DX2                !
 ! R49   R(30,90)                1.0686         estimate D2E/DX2                !
 ! R50   R(31,32)                1.3923         estimate D2E/DX2                !
 ! R51   R(31,37)                1.3721         estimate D2E/DX2                !
 ! R52   R(32,33)                1.369          estimate D2E/DX2                !
 ! R53   R(32,91)                1.1258         estimate D2E/DX2                !
 ! R54   R(33,34)                1.3577         estimate D2E/DX2                !
 ! R55   R(33,35)                1.3486         estimate D2E/DX2                !
 ! R56   R(35,36)                1.4576         estimate D2E/DX2                !
 ! R57   R(35,38)                1.4152         estimate D2E/DX2                !
 ! R58   R(36,37)                1.372          estimate D2E/DX2                !
 ! R59   R(37,92)                1.0143         estimate D2E/DX2                !
 ! R60   R(38,39)                1.4194         estimate D2E/DX2                !
 ! R61   R(38,43)                1.4427         estimate D2E/DX2                !
 ! R62   R(39,40)                1.3258         estimate D2E/DX2                !
 ! R63   R(40,41)                1.3563         estimate D2E/DX2                !
 ! R64   R(40,93)                1.1269         estimate D2E/DX2                !
 ! R65   R(41,42)                1.4113         estimate D2E/DX2                !
 ! R66   R(41,46)                1.4451         estimate D2E/DX2                !
 ! R67   R(42,43)                1.3729         estimate D2E/DX2                !
 ! R68   R(42,94)                1.1588         estimate D2E/DX2                !
 ! R69   R(43,44)                1.3913         estimate D2E/DX2                !
 ! R70   R(44,45)                1.3623         estimate D2E/DX2                !
 ! R71   R(45,95)                1.1393         estimate D2E/DX2                !
 ! R72   R(45,96)                1.099          estimate D2E/DX2                !
 ! R73   R(45,97)                1.0051         estimate D2E/DX2                !
 ! R74   R(46,47)                1.4185         estimate D2E/DX2                !
 ! R75   R(46,52)                1.3621         estimate D2E/DX2                !
 ! R76   R(47,48)                1.382          estimate D2E/DX2                !
 ! R77   R(47,98)                1.0913         estimate D2E/DX2                !
 ! R78   R(48,49)                1.4406         estimate D2E/DX2                !
 ! R79   R(48,50)                1.3934         estimate D2E/DX2                !
 ! R80   R(50,51)                1.332          estimate D2E/DX2                !
 ! R81   R(50,53)                1.4031         estimate D2E/DX2                !
 ! R82   R(51,52)                1.3953         estimate D2E/DX2                !
 ! R83   R(52,99)                1.0675         estimate D2E/DX2                !
 ! R84   R(53,54)                1.3489         estimate D2E/DX2                !
 ! R85   R(53,58)                1.3972         estimate D2E/DX2                !
 ! R86   R(54,55)                1.3711         estimate D2E/DX2                !
 ! R87   R(55,56)                1.4215         estimate D2E/DX2                !
 ! R88   R(55,100)               1.0235         estimate D2E/DX2                !
 ! R89   R(56,57)                1.3992         estimate D2E/DX2                !
 ! R90   R(56,61)                1.462          estimate D2E/DX2                !
 ! R91   R(57,58)                1.4454         estimate D2E/DX2                !
 ! R92   R(57,101)               1.1178         estimate D2E/DX2                !
 ! R93   R(58,59)                1.3555         estimate D2E/DX2                !
 ! R94   R(59,60)                1.3544         estimate D2E/DX2                !
 ! R95   R(60,102)               1.0354         estimate D2E/DX2                !
 ! R96   R(60,103)               1.1419         estimate D2E/DX2                !
 ! R97   R(60,104)               1.1396         estimate D2E/DX2                !
 ! R98   R(61,62)                1.4425         estimate D2E/DX2                !
 ! R99   R(61,67)                1.3326         estimate D2E/DX2                !
 ! R100  R(62,63)                1.3883         estimate D2E/DX2                !
 ! R101  R(62,105)               1.0551         estimate D2E/DX2                !
 ! R102  R(63,64)                1.3756         estimate D2E/DX2                !
 ! R103  R(63,65)                1.3853         estimate D2E/DX2                !
 ! R104  R(65,66)                1.3789         estimate D2E/DX2                !
 ! R105  R(65,68)                1.5295         estimate D2E/DX2                !
 ! R106  R(66,67)                1.3424         estimate D2E/DX2                !
 ! R107  R(67,106)               1.073          estimate D2E/DX2                !
 ! R108  R(68,69)                1.3532         estimate D2E/DX2                !
 ! R109  R(68,73)                1.3621         estimate D2E/DX2                !
 ! R110  R(69,70)                1.3386         estimate D2E/DX2                !
 ! R111  R(70,71)                1.3558         estimate D2E/DX2                !
 ! R112  R(70,107)               1.0408         estimate D2E/DX2                !
 ! R113  R(71,72)                1.4492         estimate D2E/DX2                !
 ! R114  R(71,108)               1.1088         estimate D2E/DX2                !
 ! R115  R(72,73)                1.3904         estimate D2E/DX2                !
 ! R116  R(72,109)               1.0762         estimate D2E/DX2                !
 ! R117  R(73,74)                1.4444         estimate D2E/DX2                !
 ! R118  R(74,75)                1.4345         estimate D2E/DX2                !
 ! R119  R(75,110)               1.1086         estimate D2E/DX2                !
 ! R120  R(75,111)               1.1163         estimate D2E/DX2                !
 ! R121  R(75,112)               1.0892         estimate D2E/DX2                !
 ! A1    A(2,1,7)              120.9376         estimate D2E/DX2                !
 ! A2    A(2,1,76)             118.8157         estimate D2E/DX2                !
 ! A3    A(7,1,76)             119.8618         estimate D2E/DX2                !
 ! A4    A(1,2,3)              114.3153         estimate D2E/DX2                !
 ! A5    A(1,2,77)             120.3506         estimate D2E/DX2                !
 ! A6    A(3,2,77)             124.8262         estimate D2E/DX2                !
 ! A7    A(2,3,4)              117.3711         estimate D2E/DX2                !
 ! A8    A(2,3,5)              122.2718         estimate D2E/DX2                !
 ! A9    A(4,3,5)              120.3062         estimate D2E/DX2                !
 ! A10   A(3,5,6)              123.1569         estimate D2E/DX2                !
 ! A11   A(3,5,8)              120.7516         estimate D2E/DX2                !
 ! A12   A(6,5,8)              115.8184         estimate D2E/DX2                !
 ! A13   A(5,6,7)              115.5632         estimate D2E/DX2                !
 ! A14   A(1,7,6)              123.1911         estimate D2E/DX2                !
 ! A15   A(1,7,78)             121.9154         estimate D2E/DX2                !
 ! A16   A(6,7,78)             114.8933         estimate D2E/DX2                !
 ! A17   A(5,8,9)              116.8176         estimate D2E/DX2                !
 ! A18   A(5,8,13)             123.8369         estimate D2E/DX2                !
 ! A19   A(9,8,13)             118.9043         estimate D2E/DX2                !
 ! A20   A(8,9,10)             121.1577         estimate D2E/DX2                !
 ! A21   A(9,10,11)            121.7891         estimate D2E/DX2                !
 ! A22   A(9,10,79)            118.0947         estimate D2E/DX2                !
 ! A23   A(11,10,79)           120.0189         estimate D2E/DX2                !
 ! A24   A(10,11,12)           117.8971         estimate D2E/DX2                !
 ! A25   A(10,11,16)           125.5635         estimate D2E/DX2                !
 ! A26   A(12,11,16)           116.4589         estimate D2E/DX2                !
 ! A27   A(11,12,13)           119.5786         estimate D2E/DX2                !
 ! A28   A(11,12,80)           120.4108         estimate D2E/DX2                !
 ! A29   A(13,12,80)           119.494          estimate D2E/DX2                !
 ! A30   A(8,13,12)            119.7923         estimate D2E/DX2                !
 ! A31   A(8,13,14)            118.5554         estimate D2E/DX2                !
 ! A32   A(12,13,14)           120.6938         estimate D2E/DX2                !
 ! A33   A(13,14,15)           110.6018         estimate D2E/DX2                !
 ! A34   A(14,15,81)           112.0292         estimate D2E/DX2                !
 ! A35   A(14,15,82)           112.4768         estimate D2E/DX2                !
 ! A36   A(14,15,83)           111.6366         estimate D2E/DX2                !
 ! A37   A(81,15,82)           103.5973         estimate D2E/DX2                !
 ! A38   A(81,15,83)           106.5674         estimate D2E/DX2                !
 ! A39   A(82,15,83)           110.0964         estimate D2E/DX2                !
 ! A40   A(11,16,17)           125.9935         estimate D2E/DX2                !
 ! A41   A(11,16,22)           120.0665         estimate D2E/DX2                !
 ! A42   A(17,16,22)           113.8983         estimate D2E/DX2                !
 ! A43   A(16,17,18)           123.73           estimate D2E/DX2                !
 ! A44   A(16,17,84)           119.5099         estimate D2E/DX2                !
 ! A45   A(18,17,84)           116.7592         estimate D2E/DX2                !
 ! A46   A(17,18,19)           120.2562         estimate D2E/DX2                !
 ! A47   A(17,18,20)           115.2648         estimate D2E/DX2                !
 ! A48   A(19,18,20)           124.3802         estimate D2E/DX2                !
 ! A49   A(18,20,21)           123.4705         estimate D2E/DX2                !
 ! A50   A(18,20,23)           119.379          estimate D2E/DX2                !
 ! A51   A(21,20,23)           116.6736         estimate D2E/DX2                !
 ! A52   A(20,21,22)           114.7711         estimate D2E/DX2                !
 ! A53   A(16,22,21)           128.6681         estimate D2E/DX2                !
 ! A54   A(16,22,85)           122.8646         estimate D2E/DX2                !
 ! A55   A(21,22,85)           108.4527         estimate D2E/DX2                !
 ! A56   A(20,23,24)           115.1282         estimate D2E/DX2                !
 ! A57   A(20,23,28)           127.3737         estimate D2E/DX2                !
 ! A58   A(24,23,28)           117.4144         estimate D2E/DX2                !
 ! A59   A(23,24,25)           116.1758         estimate D2E/DX2                !
 ! A60   A(24,25,26)           125.0027         estimate D2E/DX2                !
 ! A61   A(24,25,86)           108.3973         estimate D2E/DX2                !
 ! A62   A(26,25,86)           126.4679         estimate D2E/DX2                !
 ! A63   A(25,26,27)           117.5595         estimate D2E/DX2                !
 ! A64   A(25,26,31)           123.0128         estimate D2E/DX2                !
 ! A65   A(27,26,31)           118.8135         estimate D2E/DX2                !
 ! A66   A(26,27,28)           122.0888         estimate D2E/DX2                !
 ! A67   A(26,27,87)           122.9606         estimate D2E/DX2                !
 ! A68   A(28,27,87)           114.8591         estimate D2E/DX2                !
 ! A69   A(23,28,27)           121.3995         estimate D2E/DX2                !
 ! A70   A(23,28,29)           116.7429         estimate D2E/DX2                !
 ! A71   A(27,28,29)           121.2465         estimate D2E/DX2                !
 ! A72   A(28,29,30)           110.5941         estimate D2E/DX2                !
 ! A73   A(29,30,88)           110.7138         estimate D2E/DX2                !
 ! A74   A(29,30,89)           106.0216         estimate D2E/DX2                !
 ! A75   A(29,30,90)           112.1747         estimate D2E/DX2                !
 ! A76   A(88,30,89)           107.3244         estimate D2E/DX2                !
 ! A77   A(88,30,90)           111.8231         estimate D2E/DX2                !
 ! A78   A(89,30,90)           108.4681         estimate D2E/DX2                !
 ! A79   A(26,31,32)           122.8595         estimate D2E/DX2                !
 ! A80   A(26,31,37)           119.8966         estimate D2E/DX2                !
 ! A81   A(32,31,37)           117.1793         estimate D2E/DX2                !
 ! A82   A(31,32,33)           120.4157         estimate D2E/DX2                !
 ! A83   A(31,32,91)           119.0789         estimate D2E/DX2                !
 ! A84   A(33,32,91)           120.5049         estimate D2E/DX2                !
 ! A85   A(32,33,34)           118.9343         estimate D2E/DX2                !
 ! A86   A(32,33,35)           122.9499         estimate D2E/DX2                !
 ! A87   A(34,33,35)           117.9974         estimate D2E/DX2                !
 ! A88   A(33,35,36)           118.2423         estimate D2E/DX2                !
 ! A89   A(33,35,38)           128.5037         estimate D2E/DX2                !
 ! A90   A(36,35,38)           113.0593         estimate D2E/DX2                !
 ! A91   A(35,36,37)           116.7198         estimate D2E/DX2                !
 ! A92   A(31,37,36)           124.4428         estimate D2E/DX2                !
 ! A93   A(31,37,92)           125.0824         estimate D2E/DX2                !
 ! A94   A(36,37,92)           110.4471         estimate D2E/DX2                !
 ! A95   A(35,38,39)           115.5921         estimate D2E/DX2                !
 ! A96   A(35,38,43)           123.712          estimate D2E/DX2                !
 ! A97   A(39,38,43)           120.5495         estimate D2E/DX2                !
 ! A98   A(38,39,40)           115.3009         estimate D2E/DX2                !
 ! A99   A(39,40,41)           130.3334         estimate D2E/DX2                !
 ! A100  A(39,40,93)           109.1039         estimate D2E/DX2                !
 ! A101  A(41,40,93)           120.5445         estimate D2E/DX2                !
 ! A102  A(40,41,42)           112.0092         estimate D2E/DX2                !
 ! A103  A(40,41,46)           123.8012         estimate D2E/DX2                !
 ! A104  A(42,41,46)           123.8618         estimate D2E/DX2                !
 ! A105  A(41,42,43)           125.7605         estimate D2E/DX2                !
 ! A106  A(41,42,94)           119.6845         estimate D2E/DX2                !
 ! A107  A(43,42,94)           114.5492         estimate D2E/DX2                !
 ! A108  A(38,43,42)           115.2944         estimate D2E/DX2                !
 ! A109  A(38,43,44)           115.9332         estimate D2E/DX2                !
 ! A110  A(42,43,44)           128.0236         estimate D2E/DX2                !
 ! A111  A(43,44,45)           117.9569         estimate D2E/DX2                !
 ! A112  A(44,45,95)           108.7845         estimate D2E/DX2                !
 ! A113  A(44,45,96)           112.6854         estimate D2E/DX2                !
 ! A114  A(44,45,97)           110.6031         estimate D2E/DX2                !
 ! A115  A(95,45,96)           107.3846         estimate D2E/DX2                !
 ! A116  A(95,45,97)           107.4456         estimate D2E/DX2                !
 ! A117  A(96,45,97)           109.7446         estimate D2E/DX2                !
 ! A118  A(41,46,47)           120.0597         estimate D2E/DX2                !
 ! A119  A(41,46,52)           119.7214         estimate D2E/DX2                !
 ! A120  A(47,46,52)           120.209          estimate D2E/DX2                !
 ! A121  A(46,47,48)           115.6453         estimate D2E/DX2                !
 ! A122  A(46,47,98)           120.3555         estimate D2E/DX2                !
 ! A123  A(48,47,98)           123.9696         estimate D2E/DX2                !
 ! A124  A(47,48,49)           115.0254         estimate D2E/DX2                !
 ! A125  A(47,48,50)           125.0704         estimate D2E/DX2                !
 ! A126  A(49,48,50)           119.5204         estimate D2E/DX2                !
 ! A127  A(48,50,51)           115.6787         estimate D2E/DX2                !
 ! A128  A(48,50,53)           125.9306         estimate D2E/DX2                !
 ! A129  A(51,50,53)           118.3527         estimate D2E/DX2                !
 ! A130  A(50,51,52)           123.2398         estimate D2E/DX2                !
 ! A131  A(46,52,51)           119.6847         estimate D2E/DX2                !
 ! A132  A(46,52,99)           126.9572         estimate D2E/DX2                !
 ! A133  A(51,52,99)           113.1936         estimate D2E/DX2                !
 ! A134  A(50,53,54)           113.2038         estimate D2E/DX2                !
 ! A135  A(50,53,58)           123.6933         estimate D2E/DX2                !
 ! A136  A(54,53,58)           122.9739         estimate D2E/DX2                !
 ! A137  A(53,54,55)           120.7528         estimate D2E/DX2                !
 ! A138  A(54,55,56)           122.2201         estimate D2E/DX2                !
 ! A139  A(54,55,100)          116.4101         estimate D2E/DX2                !
 ! A140  A(56,55,100)          121.3036         estimate D2E/DX2                !
 ! A141  A(55,56,57)           115.1045         estimate D2E/DX2                !
 ! A142  A(55,56,61)           122.1097         estimate D2E/DX2                !
 ! A143  A(57,56,61)           122.3843         estimate D2E/DX2                !
 ! A144  A(56,57,58)           123.915          estimate D2E/DX2                !
 ! A145  A(56,57,101)          117.0107         estimate D2E/DX2                !
 ! A146  A(58,57,101)          119.048          estimate D2E/DX2                !
 ! A147  A(53,58,57)           115.0125         estimate D2E/DX2                !
 ! A148  A(53,58,59)           120.9568         estimate D2E/DX2                !
 ! A149  A(57,58,59)           123.9611         estimate D2E/DX2                !
 ! A150  A(58,59,60)           121.4311         estimate D2E/DX2                !
 ! A151  A(59,60,102)          114.8214         estimate D2E/DX2                !
 ! A152  A(59,60,103)          110.0829         estimate D2E/DX2                !
 ! A153  A(59,60,104)          108.0483         estimate D2E/DX2                !
 ! A154  A(102,60,103)         109.5516         estimate D2E/DX2                !
 ! A155  A(102,60,104)         110.7357         estimate D2E/DX2                !
 ! A156  A(103,60,104)         102.9341         estimate D2E/DX2                !
 ! A157  A(56,61,62)           115.7241         estimate D2E/DX2                !
 ! A158  A(56,61,67)           123.8762         estimate D2E/DX2                !
 ! A159  A(62,61,67)           120.3968         estimate D2E/DX2                !
 ! A160  A(61,62,63)           113.4806         estimate D2E/DX2                !
 ! A161  A(61,62,105)          122.5579         estimate D2E/DX2                !
 ! A162  A(63,62,105)          123.9565         estimate D2E/DX2                !
 ! A163  A(62,63,64)           114.0921         estimate D2E/DX2                !
 ! A164  A(62,63,65)           123.6133         estimate D2E/DX2                !
 ! A165  A(64,63,65)           122.2912         estimate D2E/DX2                !
 ! A166  A(63,65,66)           120.4323         estimate D2E/DX2                !
 ! A167  A(63,65,68)           121.097          estimate D2E/DX2                !
 ! A168  A(66,65,68)           118.3639         estimate D2E/DX2                !
 ! A169  A(65,66,67)           116.1644         estimate D2E/DX2                !
 ! A170  A(61,67,66)           125.8046         estimate D2E/DX2                !
 ! A171  A(61,67,106)          120.8781         estimate D2E/DX2                !
 ! A172  A(66,67,106)          113.2128         estimate D2E/DX2                !
 ! A173  A(65,68,69)           116.902          estimate D2E/DX2                !
 ! A174  A(65,68,73)           120.6279         estimate D2E/DX2                !
 ! A175  A(69,68,73)           122.4615         estimate D2E/DX2                !
 ! A176  A(68,69,70)           119.3579         estimate D2E/DX2                !
 ! A177  A(69,70,71)           121.4462         estimate D2E/DX2                !
 ! A178  A(69,70,107)          113.5993         estimate D2E/DX2                !
 ! A179  A(71,70,107)          124.9405         estimate D2E/DX2                !
 ! A180  A(70,71,72)           120.6491         estimate D2E/DX2                !
 ! A181  A(70,71,108)          121.0303         estimate D2E/DX2                !
 ! A182  A(72,71,108)          118.1518         estimate D2E/DX2                !
 ! A183  A(71,72,73)           115.4696         estimate D2E/DX2                !
 ! A184  A(71,72,109)          119.3841         estimate D2E/DX2                !
 ! A185  A(73,72,109)          124.7338         estimate D2E/DX2                !
 ! A186  A(68,73,72)           120.4922         estimate D2E/DX2                !
 ! A187  A(68,73,74)           117.1211         estimate D2E/DX2                !
 ! A188  A(72,73,74)           122.3604         estimate D2E/DX2                !
 ! A189  A(73,74,75)           115.8396         estimate D2E/DX2                !
 ! A190  A(74,75,110)          109.0995         estimate D2E/DX2                !
 ! A191  A(74,75,111)          103.2703         estimate D2E/DX2                !
 ! A192  A(74,75,112)          108.5706         estimate D2E/DX2                !
 ! A193  A(110,75,111)         107.6992         estimate D2E/DX2                !
 ! A194  A(110,75,112)         115.6526         estimate D2E/DX2                !
 ! A195  A(111,75,112)         111.8105         estimate D2E/DX2                !
 ! D1    D(7,1,2,3)              6.234          estimate D2E/DX2                !
 ! D2    D(7,1,2,77)           178.4458         estimate D2E/DX2                !
 ! D3    D(76,1,2,3)           179.1013         estimate D2E/DX2                !
 ! D4    D(76,1,2,77)           -8.6869         estimate D2E/DX2                !
 ! D5    D(2,1,7,6)             -5.0248         estimate D2E/DX2                !
 ! D6    D(2,1,7,78)           174.8191         estimate D2E/DX2                !
 ! D7    D(76,1,7,6)          -177.8182         estimate D2E/DX2                !
 ! D8    D(76,1,7,78)            2.0257         estimate D2E/DX2                !
 ! D9    D(1,2,3,4)            175.233          estimate D2E/DX2                !
 ! D10   D(1,2,3,5)             -7.3569         estimate D2E/DX2                !
 ! D11   D(77,2,3,4)             3.4229         estimate D2E/DX2                !
 ! D12   D(77,2,3,5)          -179.167          estimate D2E/DX2                !
 ! D13   D(2,3,5,6)              7.4453         estimate D2E/DX2                !
 ! D14   D(2,3,5,8)           -178.8122         estimate D2E/DX2                !
 ! D15   D(4,3,5,6)           -175.2188         estimate D2E/DX2                !
 ! D16   D(4,3,5,8)             -1.4763         estimate D2E/DX2                !
 ! D17   D(3,5,6,7)             -5.3181         estimate D2E/DX2                !
 ! D18   D(8,5,6,7)           -179.3452         estimate D2E/DX2                !
 ! D19   D(3,5,8,9)             87.5039         estimate D2E/DX2                !
 ! D20   D(3,5,8,13)          -100.2207         estimate D2E/DX2                !
 ! D21   D(6,5,8,9)            -98.3141         estimate D2E/DX2                !
 ! D22   D(6,5,8,13)            73.9613         estimate D2E/DX2                !
 ! D23   D(5,6,7,1)              4.2537         estimate D2E/DX2                !
 ! D24   D(5,6,7,78)          -175.6003         estimate D2E/DX2                !
 ! D25   D(5,8,9,10)           175.3168         estimate D2E/DX2                !
 ! D26   D(13,8,9,10)            2.6439         estimate D2E/DX2                !
 ! D27   D(5,8,13,12)          179.0607         estimate D2E/DX2                !
 ! D28   D(5,8,13,14)           10.1817         estimate D2E/DX2                !
 ! D29   D(9,8,13,12)           -8.815          estimate D2E/DX2                !
 ! D30   D(9,8,13,14)         -177.694          estimate D2E/DX2                !
 ! D31   D(8,9,10,11)            0.6578         estimate D2E/DX2                !
 ! D32   D(8,9,10,79)          177.0703         estimate D2E/DX2                !
 ! D33   D(9,10,11,12)           2.0358         estimate D2E/DX2                !
 ! D34   D(9,10,11,16)         178.6467         estimate D2E/DX2                !
 ! D35   D(79,10,11,12)       -174.309          estimate D2E/DX2                !
 ! D36   D(79,10,11,16)          2.3019         estimate D2E/DX2                !
 ! D37   D(10,11,12,13)         -8.1628         estimate D2E/DX2                !
 ! D38   D(10,11,12,80)       -179.8774         estimate D2E/DX2                !
 ! D39   D(16,11,12,13)        174.9164         estimate D2E/DX2                !
 ! D40   D(16,11,12,80)          3.2019         estimate D2E/DX2                !
 ! D41   D(10,11,16,17)        -97.731          estimate D2E/DX2                !
 ! D42   D(10,11,16,22)         79.7686         estimate D2E/DX2                !
 ! D43   D(12,11,16,17)         78.9233         estimate D2E/DX2                !
 ! D44   D(12,11,16,22)       -103.5771         estimate D2E/DX2                !
 ! D45   D(11,12,13,8)          11.5761         estimate D2E/DX2                !
 ! D46   D(11,12,13,14)       -179.7866         estimate D2E/DX2                !
 ! D47   D(80,12,13,8)        -176.6327         estimate D2E/DX2                !
 ! D48   D(80,12,13,14)         -7.9955         estimate D2E/DX2                !
 ! D49   D(8,13,14,15)        -103.2685         estimate D2E/DX2                !
 ! D50   D(12,13,14,15)         87.9563         estimate D2E/DX2                !
 ! D51   D(13,14,15,81)        -62.7568         estimate D2E/DX2                !
 ! D52   D(13,14,15,82)       -178.9799         estimate D2E/DX2                !
 ! D53   D(13,14,15,83)         56.6767         estimate D2E/DX2                !
 ! D54   D(11,16,17,18)       -177.3176         estimate D2E/DX2                !
 ! D55   D(11,16,17,84)          2.3353         estimate D2E/DX2                !
 ! D56   D(22,16,17,18)          5.0493         estimate D2E/DX2                !
 ! D57   D(22,16,17,84)       -175.2979         estimate D2E/DX2                !
 ! D58   D(11,16,22,21)       -179.6536         estimate D2E/DX2                !
 ! D59   D(11,16,22,85)         -1.2114         estimate D2E/DX2                !
 ! D60   D(17,16,22,21)         -1.8662         estimate D2E/DX2                !
 ! D61   D(17,16,22,85)        176.576          estimate D2E/DX2                !
 ! D62   D(16,17,18,19)        178.6935         estimate D2E/DX2                !
 ! D63   D(16,17,18,20)         -4.7633         estimate D2E/DX2                !
 ! D64   D(84,17,18,19)         -0.9682         estimate D2E/DX2                !
 ! D65   D(84,17,18,20)        175.5751         estimate D2E/DX2                !
 ! D66   D(17,18,20,21)          1.2448         estimate D2E/DX2                !
 ! D67   D(17,18,20,23)        173.0506         estimate D2E/DX2                !
 ! D68   D(19,18,20,21)        177.6268         estimate D2E/DX2                !
 ! D69   D(19,18,20,23)        -10.5675         estimate D2E/DX2                !
 ! D70   D(18,20,21,22)          1.5814         estimate D2E/DX2                !
 ! D71   D(23,20,21,22)       -170.4291         estimate D2E/DX2                !
 ! D72   D(18,20,23,24)         59.6959         estimate D2E/DX2                !
 ! D73   D(18,20,23,28)       -116.8648         estimate D2E/DX2                !
 ! D74   D(21,20,23,24)       -127.9502         estimate D2E/DX2                !
 ! D75   D(21,20,23,28)         55.4891         estimate D2E/DX2                !
 ! D76   D(20,21,22,16)         -1.2539         estimate D2E/DX2                !
 ! D77   D(20,21,22,85)       -179.8746         estimate D2E/DX2                !
 ! D78   D(20,23,24,25)       -178.4            estimate D2E/DX2                !
 ! D79   D(28,23,24,25)         -1.4786         estimate D2E/DX2                !
 ! D80   D(20,23,28,27)        175.0342         estimate D2E/DX2                !
 ! D81   D(20,23,28,29)          3.8911         estimate D2E/DX2                !
 ! D82   D(24,23,28,27)         -1.458          estimate D2E/DX2                !
 ! D83   D(24,23,28,29)       -172.601          estimate D2E/DX2                !
 ! D84   D(23,24,25,26)          0.0146         estimate D2E/DX2                !
 ! D85   D(23,24,25,86)       -176.0292         estimate D2E/DX2                !
 ! D86   D(24,25,26,27)          4.273          estimate D2E/DX2                !
 ! D87   D(24,25,26,31)        175.1687         estimate D2E/DX2                !
 ! D88   D(86,25,26,27)        179.6033         estimate D2E/DX2                !
 ! D89   D(86,25,26,31)         -9.5009         estimate D2E/DX2                !
 ! D90   D(25,26,27,28)         -7.3347         estimate D2E/DX2                !
 ! D91   D(25,26,27,87)        176.3232         estimate D2E/DX2                !
 ! D92   D(31,26,27,28)       -178.6246         estimate D2E/DX2                !
 ! D93   D(31,26,27,87)          5.0333         estimate D2E/DX2                !
 ! D94   D(25,26,31,32)        -45.7992         estimate D2E/DX2                !
 ! D95   D(25,26,31,37)        131.1935         estimate D2E/DX2                !
 ! D96   D(27,26,31,32)        124.9882         estimate D2E/DX2                !
 ! D97   D(27,26,31,37)        -58.0192         estimate D2E/DX2                !
 ! D98   D(26,27,28,23)          6.0659         estimate D2E/DX2                !
 ! D99   D(26,27,28,29)        176.811          estimate D2E/DX2                !
 ! D100  D(87,27,28,23)       -177.3163         estimate D2E/DX2                !
 ! D101  D(87,27,28,29)         -6.5712         estimate D2E/DX2                !
 ! D102  D(23,28,29,30)       -102.0665         estimate D2E/DX2                !
 ! D103  D(27,28,29,30)         86.7759         estimate D2E/DX2                !
 ! D104  D(28,29,30,88)        173.8716         estimate D2E/DX2                !
 ! D105  D(28,29,30,89)         57.7797         estimate D2E/DX2                !
 ! D106  D(28,29,30,90)        -60.4456         estimate D2E/DX2                !
 ! D107  D(26,31,32,33)        179.6042         estimate D2E/DX2                !
 ! D108  D(26,31,32,91)         -0.1254         estimate D2E/DX2                !
 ! D109  D(37,31,32,33)          2.5349         estimate D2E/DX2                !
 ! D110  D(37,31,32,91)       -177.1947         estimate D2E/DX2                !
 ! D111  D(26,31,37,36)       -178.2402         estimate D2E/DX2                !
 ! D112  D(26,31,37,92)         -0.3394         estimate D2E/DX2                !
 ! D113  D(32,31,37,36)         -1.0798         estimate D2E/DX2                !
 ! D114  D(32,31,37,92)        176.821          estimate D2E/DX2                !
 ! D115  D(31,32,33,34)       -178.2782         estimate D2E/DX2                !
 ! D116  D(31,32,33,35)         -2.3165         estimate D2E/DX2                !
 ! D117  D(91,32,33,34)          1.4476         estimate D2E/DX2                !
 ! D118  D(91,32,33,35)        177.4093         estimate D2E/DX2                !
 ! D119  D(32,33,35,36)          0.5044         estimate D2E/DX2                !
 ! D120  D(32,33,35,38)        175.0474         estimate D2E/DX2                !
 ! D121  D(34,33,35,36)        176.5018         estimate D2E/DX2                !
 ! D122  D(34,33,35,38)         -8.9552         estimate D2E/DX2                !
 ! D123  D(33,35,36,37)          0.9444         estimate D2E/DX2                !
 ! D124  D(38,35,36,37)       -174.4162         estimate D2E/DX2                !
 ! D125  D(33,35,38,39)        113.9579         estimate D2E/DX2                !
 ! D126  D(33,35,38,43)        -61.655          estimate D2E/DX2                !
 ! D127  D(36,35,38,39)        -71.2663         estimate D2E/DX2                !
 ! D128  D(36,35,38,43)        113.1208         estimate D2E/DX2                !
 ! D129  D(35,36,37,31)         -0.6352         estimate D2E/DX2                !
 ! D130  D(35,36,37,92)       -178.802          estimate D2E/DX2                !
 ! D131  D(35,38,39,40)        175.7635         estimate D2E/DX2                !
 ! D132  D(43,38,39,40)         -8.4738         estimate D2E/DX2                !
 ! D133  D(35,38,43,42)       -174.2292         estimate D2E/DX2                !
 ! D134  D(35,38,43,44)         -3.3329         estimate D2E/DX2                !
 ! D135  D(39,38,43,42)         10.3657         estimate D2E/DX2                !
 ! D136  D(39,38,43,44)       -178.738          estimate D2E/DX2                !
 ! D137  D(38,39,40,41)          1.8797         estimate D2E/DX2                !
 ! D138  D(38,39,40,93)       -179.6994         estimate D2E/DX2                !
 ! D139  D(39,40,41,42)          2.3305         estimate D2E/DX2                !
 ! D140  D(39,40,41,46)       -171.3095         estimate D2E/DX2                !
 ! D141  D(93,40,41,42)       -175.9369         estimate D2E/DX2                !
 ! D142  D(93,40,41,46)         10.423          estimate D2E/DX2                !
 ! D143  D(40,41,42,43)          0.0765         estimate D2E/DX2                !
 ! D144  D(40,41,42,94)        179.1564         estimate D2E/DX2                !
 ! D145  D(46,41,42,43)        173.712          estimate D2E/DX2                !
 ! D146  D(46,41,42,94)         -7.2081         estimate D2E/DX2                !
 ! D147  D(40,41,46,47)        -51.0314         estimate D2E/DX2                !
 ! D148  D(40,41,46,52)        127.8301         estimate D2E/DX2                !
 ! D149  D(42,41,46,47)        136.073          estimate D2E/DX2                !
 ! D150  D(42,41,46,52)        -45.0655         estimate D2E/DX2                !
 ! D151  D(41,42,43,38)         -6.1121         estimate D2E/DX2                !
 ! D152  D(41,42,43,44)       -175.7059         estimate D2E/DX2                !
 ! D153  D(94,42,43,38)        174.7666         estimate D2E/DX2                !
 ! D154  D(94,42,43,44)          5.1729         estimate D2E/DX2                !
 ! D155  D(38,43,44,45)        170.6004         estimate D2E/DX2                !
 ! D156  D(42,43,44,45)        -19.8623         estimate D2E/DX2                !
 ! D157  D(43,44,45,95)        -53.2979         estimate D2E/DX2                !
 ! D158  D(43,44,45,96)         65.6644         estimate D2E/DX2                !
 ! D159  D(43,44,45,97)       -171.0838         estimate D2E/DX2                !
 ! D160  D(41,46,47,48)        175.9684         estimate D2E/DX2                !
 ! D161  D(41,46,47,98)         -5.9319         estimate D2E/DX2                !
 ! D162  D(52,46,47,48)         -2.8875         estimate D2E/DX2                !
 ! D163  D(52,46,47,98)        175.2122         estimate D2E/DX2                !
 ! D164  D(41,46,52,51)       -173.2951         estimate D2E/DX2                !
 ! D165  D(41,46,52,99)          1.7085         estimate D2E/DX2                !
 ! D166  D(47,46,52,51)          5.5647         estimate D2E/DX2                !
 ! D167  D(47,46,52,99)       -179.4317         estimate D2E/DX2                !
 ! D168  D(46,47,48,49)       -176.5152         estimate D2E/DX2                !
 ! D169  D(46,47,48,50)         -3.6961         estimate D2E/DX2                !
 ! D170  D(98,47,48,49)          5.4621         estimate D2E/DX2                !
 ! D171  D(98,47,48,50)        178.2812         estimate D2E/DX2                !
 ! D172  D(47,48,50,51)          7.2241         estimate D2E/DX2                !
 ! D173  D(47,48,50,53)       -170.4828         estimate D2E/DX2                !
 ! D174  D(49,48,50,51)        179.745          estimate D2E/DX2                !
 ! D175  D(49,48,50,53)          2.038          estimate D2E/DX2                !
 ! D176  D(48,50,51,52)         -4.3001         estimate D2E/DX2                !
 ! D177  D(53,50,51,52)        173.5902         estimate D2E/DX2                !
 ! D178  D(48,50,53,54)        110.6666         estimate D2E/DX2                !
 ! D179  D(48,50,53,58)        -65.3065         estimate D2E/DX2                !
 ! D180  D(51,50,53,54)        -66.9851         estimate D2E/DX2                !
 ! D181  D(51,50,53,58)        117.0418         estimate D2E/DX2                !
 ! D182  D(50,51,52,46)         -1.8179         estimate D2E/DX2                !
 ! D183  D(50,51,52,99)       -177.4757         estimate D2E/DX2                !
 ! D184  D(50,53,54,55)       -176.3978         estimate D2E/DX2                !
 ! D185  D(58,53,54,55)         -0.3915         estimate D2E/DX2                !
 ! D186  D(50,53,58,57)        176.6193         estimate D2E/DX2                !
 ! D187  D(50,53,58,59)         -0.4633         estimate D2E/DX2                !
 ! D188  D(54,53,58,57)          1.0318         estimate D2E/DX2                !
 ! D189  D(54,53,58,59)       -176.0508         estimate D2E/DX2                !
 ! D190  D(53,54,55,56)          0.2815         estimate D2E/DX2                !
 ! D191  D(53,54,55,100)      -176.7935         estimate D2E/DX2                !
 ! D192  D(54,55,56,57)         -0.8546         estimate D2E/DX2                !
 ! D193  D(54,55,56,61)       -173.7407         estimate D2E/DX2                !
 ! D194  D(100,55,56,57)       176.0792         estimate D2E/DX2                !
 ! D195  D(100,55,56,61)         3.1931         estimate D2E/DX2                !
 ! D196  D(55,56,57,58)          1.6024         estimate D2E/DX2                !
 ! D197  D(55,56,57,101)       179.7154         estimate D2E/DX2                !
 ! D198  D(61,56,57,58)        174.4668         estimate D2E/DX2                !
 ! D199  D(61,56,57,101)        -7.4202         estimate D2E/DX2                !
 ! D200  D(55,56,61,62)        -62.5621         estimate D2E/DX2                !
 ! D201  D(55,56,61,67)        118.0555         estimate D2E/DX2                !
 ! D202  D(57,56,61,62)        125.0691         estimate D2E/DX2                !
 ! D203  D(57,56,61,67)        -54.3132         estimate D2E/DX2                !
 ! D204  D(56,57,58,53)         -1.6964         estimate D2E/DX2                !
 ! D205  D(56,57,58,59)        175.2871         estimate D2E/DX2                !
 ! D206  D(101,57,58,53)      -179.7734         estimate D2E/DX2                !
 ! D207  D(101,57,58,59)        -2.7899         estimate D2E/DX2                !
 ! D208  D(53,58,59,60)        168.6477         estimate D2E/DX2                !
 ! D209  D(57,58,59,60)         -8.1645         estimate D2E/DX2                !
 ! D210  D(58,59,60,102)        62.3446         estimate D2E/DX2                !
 ! D211  D(58,59,60,103)      -173.4827         estimate D2E/DX2                !
 ! D212  D(58,59,60,104)       -61.7801         estimate D2E/DX2                !
 ! D213  D(56,61,62,63)        179.9025         estimate D2E/DX2                !
 ! D214  D(56,61,62,105)        -0.8809         estimate D2E/DX2                !
 ! D215  D(67,61,62,63)         -0.692          estimate D2E/DX2                !
 ! D216  D(67,61,62,105)       178.5246         estimate D2E/DX2                !
 ! D217  D(56,61,67,66)        176.956          estimate D2E/DX2                !
 ! D218  D(56,61,67,106)         0.9328         estimate D2E/DX2                !
 ! D219  D(62,61,67,66)         -2.3989         estimate D2E/DX2                !
 ! D220  D(62,61,67,106)      -178.4221         estimate D2E/DX2                !
 ! D221  D(61,62,63,64)       -177.0762         estimate D2E/DX2                !
 ! D222  D(61,62,63,65)          2.2611         estimate D2E/DX2                !
 ! D223  D(105,62,63,64)         3.7199         estimate D2E/DX2                !
 ! D224  D(105,62,63,65)      -176.9429         estimate D2E/DX2                !
 ! D225  D(62,63,65,66)         -0.9719         estimate D2E/DX2                !
 ! D226  D(62,63,65,68)       -177.1515         estimate D2E/DX2                !
 ! D227  D(64,63,65,66)        178.3124         estimate D2E/DX2                !
 ! D228  D(64,63,65,68)          2.1328         estimate D2E/DX2                !
 ! D229  D(63,65,66,67)         -1.9803         estimate D2E/DX2                !
 ! D230  D(68,65,66,67)        174.3022         estimate D2E/DX2                !
 ! D231  D(63,65,68,69)         85.2348         estimate D2E/DX2                !
 ! D232  D(63,65,68,73)        -95.8055         estimate D2E/DX2                !
 ! D233  D(66,65,68,69)        -91.0219         estimate D2E/DX2                !
 ! D234  D(66,65,68,73)         87.9379         estimate D2E/DX2                !
 ! D235  D(65,66,67,61)          3.7261         estimate D2E/DX2                !
 ! D236  D(65,66,67,106)      -179.9873         estimate D2E/DX2                !
 ! D237  D(65,68,69,70)        178.6166         estimate D2E/DX2                !
 ! D238  D(73,68,69,70)         -0.3226         estimate D2E/DX2                !
 ! D239  D(65,68,73,72)        178.5873         estimate D2E/DX2                !
 ! D240  D(65,68,73,74)          0.4093         estimate D2E/DX2                !
 ! D241  D(69,68,73,72)         -2.5122         estimate D2E/DX2                !
 ! D242  D(69,68,73,74)        179.3098         estimate D2E/DX2                !
 ! D243  D(68,69,70,71)          1.2048         estimate D2E/DX2                !
 ! D244  D(68,69,70,107)       179.9078         estimate D2E/DX2                !
 ! D245  D(69,70,71,72)          0.6758         estimate D2E/DX2                !
 ! D246  D(69,70,71,108)       175.8664         estimate D2E/DX2                !
 ! D247  D(107,70,71,72)      -177.8743         estimate D2E/DX2                !
 ! D248  D(107,70,71,108)       -2.6837         estimate D2E/DX2                !
 ! D249  D(70,71,72,73)         -3.2831         estimate D2E/DX2                !
 ! D250  D(70,71,72,109)      -176.2596         estimate D2E/DX2                !
 ! D251  D(108,71,72,73)      -178.6093         estimate D2E/DX2                !
 ! D252  D(108,71,72,109)        8.4142         estimate D2E/DX2                !
 ! D253  D(71,72,73,68)          4.1234         estimate D2E/DX2                !
 ! D254  D(71,72,73,74)       -177.7965         estimate D2E/DX2                !
 ! D255  D(109,72,73,68)       176.6741         estimate D2E/DX2                !
 ! D256  D(109,72,73,74)        -5.2458         estimate D2E/DX2                !
 ! D257  D(68,73,74,75)       -169.3074         estimate D2E/DX2                !
 ! D258  D(72,73,74,75)         12.5514         estimate D2E/DX2                !
 ! D259  D(73,74,75,110)       -66.2892         estimate D2E/DX2                !
 ! D260  D(73,74,75,111)       179.3662         estimate D2E/DX2                !
 ! D261  D(73,74,75,112)        60.5543         estimate D2E/DX2                !
 --------------------------------------------------------------------------------
 Trust Radius=3.00D-01 FncErr=1.00D-07 GrdErr=1.00D-06 EigMax=2.50D+02 EigMin=1.00D-04
 Number of steps in this run=    587 maximum allowed number of steps=    672.
 GradGradGradGradGradGradGradGradGradGradGradGradGradGradGradGradGradGrad

 Leave Link  103 at Sun Jul 26 12:21:37 2020, MaxMem=  4026531840 cpu:               0.2 elap:               0.0
 (Enter /opt/ohpc/pub/libs/gaussian/g16-A.03/sandybridge/g16/l202.exe)
 Stoichiometry    C55H37F5N10O5
 Framework group  C1[X(C55H37F5N10O5)]
 Deg. of freedom   330
 Full point group                 C1      NOp   1
 Largest Abelian subgroup         C1      NOp   1
 Largest concise Abelian subgroup C1      NOp   1
                         Standard orientation:                         
 ---------------------------------------------------------------------
 Center     Atomic      Atomic             Coordinates (Angstroms)
 Number     Number       Type             X           Y           Z
 ---------------------------------------------------------------------
      1          6           0      -19.790002    2.814699    0.103185
      2          6           0      -19.616932    1.419478   -0.078282
      3          6           0      -18.307322    1.012726   -0.114390
      4          9           0      -18.063819   -0.357239   -0.187862
      5          6           0      -17.296222    1.875746   -0.132424
      6          7           0      -17.454687    3.178041    0.025822
      7          6           0      -18.773241    3.617974    0.100810
      8          6           0      -15.855054    1.385982   -0.199664
      9          7           0      -15.339547    1.168497   -1.435607
     10          6           0      -14.055282    0.827210   -1.600373
     11          6           0      -13.208182    0.669026   -0.535299
     12          6           0      -13.737749    0.833883    0.756445
     13          6           0      -15.009808    1.303359    0.907962
     14          8           0      -15.547023    1.476835    2.155878
     15          6           0      -15.240102    2.769524    2.656658
     16          6           0      -11.812624    0.274838   -0.617153
     17          6           0      -11.309963   -1.021999   -0.432901
     18          6           0       -9.972203   -1.334082   -0.468823
     19          9           0       -9.589541   -2.523156   -0.269408
     20          6           0       -9.102441   -0.253389   -0.816492
     21          7           0       -9.544580    1.022969   -1.075247
     22          6           0      -10.860301    1.195368   -0.945870
     23          6           0       -7.671938   -0.440162   -0.734353
     24          7           0       -7.146162   -1.489078   -1.559721
     25          6           0       -5.763984   -1.712573   -1.470863
     26          6           0       -4.919815   -1.023869   -0.680669
     27          6           0       -5.461933   -0.087651    0.164178
     28          6           0       -6.755644    0.249183    0.115382
     29          8           0       -7.290146    1.133767    1.004553
     30          6           0       -7.120658    2.522808    0.522761
     31          6           0       -3.474411   -1.366371   -0.541884
     32          6           0       -3.021513   -2.669461   -0.353534
     33          6           0       -1.681960   -2.928065   -0.240270
     34          9           0       -1.271350   -4.213740   -0.092676
     35          6           0       -0.738395   -1.970453   -0.347351
     36          7           0       -1.171379   -0.598886   -0.583652
     37          6           0       -2.524267   -0.383536   -0.659999
     38          6           0        0.659290   -2.085589   -0.157513
     39          7           0        1.453896   -1.887683   -1.316920
     40          6           0        2.764294   -1.909761   -1.116313
     41          6           0        3.475121   -2.125330    0.018481
     42          6           0        2.639714   -2.409453    1.119928
     43          6           0        1.268528   -2.472093    1.091817
     44          8           0        0.397417   -2.666378    2.159142
     45          6           0        0.897977   -3.217874    3.299805
     46          6           0        4.904923   -1.940884    0.118764
     47          6           0        5.767722   -2.545693   -0.830980
     48          6           0        7.109094   -2.239467   -0.700791
     49          9           0        7.963020   -2.797042   -1.718286
     50          6           0        7.639790   -1.345103    0.226564
     51          7           0        6.781846   -0.872939    1.129385
     52          6           0        5.417615   -1.165598    1.114427
     53          6           0        8.962532   -0.878176    0.256344
     54          7           0        9.072665    0.427316   -0.064777
     55          6           0       10.302991    1.025524   -0.155814
     56          6           0       11.511228    0.312632    0.073763
     57          6           0       11.349814   -1.034386    0.416357
     58          6           0       10.067748   -1.695950    0.505074
     59          8           0        9.914456   -3.020929    0.746730
     60          6           0       10.975089   -3.863056    0.764029
     61          6           0       12.812083    0.978939    0.108366
     62          6           0       13.219049    1.621806   -1.117156
     63          6           0       14.458689    2.240915   -1.031809
     64          9           0       14.831021    2.911961   -2.173495
     65          6           0       15.256179    2.207603    0.100376
     66          7           0       14.829705    1.552031    1.236066
     67          6           0       13.606107    1.003015    1.178352
     68          6           0       16.584347    2.964271    0.153659
     69          7           0       16.532107    4.268465    0.510717
     70          6           0       17.668376    4.970358    0.600333
     71          6           0       18.870165    4.409870    0.317736
     72          6           0       18.958889    3.027177   -0.107028
     73          6           0       17.756272    2.329716   -0.127765
     74          8           0       17.679450    0.931528   -0.481973
     75          6           0       18.930239    0.231508   -0.539627
     76          1           0      -20.847788    3.238265    0.129067
     77          1           0      -20.436518    0.780519   -0.050746
     78          1           0      -18.891971    4.686086    0.154987
     79          1           0      -13.724067    0.628060   -2.557841
     80          1           0      -13.112631    0.721643    1.615637
     81          1           0      -14.071527    2.928700    2.792014
     82          1           0      -15.623432    2.927766    3.619131
     83          1           0      -15.574656    3.531200    2.002152
     84          1           0      -12.034641   -1.884098   -0.234447
     85          1           0      -11.109920    2.294558   -1.188353
     86          1           0       -5.487344   -2.494250   -2.208836
     87          1           0       -4.861478    0.484052    0.889957
     88          1           0       -7.626661    3.205067    1.158809
     89          1           0       -7.639295    2.567600   -0.514436
     90          1           0       -6.091885    2.783878    0.398378
     91          1           0       -3.771732   -3.507138   -0.300376
     92          1           0       -2.717439    0.594839   -0.845166
     93          1           0        3.290602   -1.737795   -2.097789
     94          1           0        3.110614   -2.630093    2.155476
     95          1           0        1.425847   -4.192203    3.035220
     96          1           0        1.633904   -2.570033    3.796277
     97          1           0        0.155883   -3.441372    3.939817
     98          1           0        5.368435   -3.229318   -1.582102
     99          1           0        4.872621   -0.668978    1.886313
    100          1           0       10.307424    2.029735   -0.353735
    101          1           0       12.280027   -1.626700    0.599242
    102          1           0       11.677996   -3.661779    1.497176
[...]
  Beta virt. eigenvalues --    1.58828   1.58977   1.59238   1.59564   1.59722
  Beta virt. eigenvalues --    1.59814   1.59994   1.60129   1.60404   1.60575
  Beta virt. eigenvalues --    1.60715   1.60888   1.60959   1.61254   1.61415
  Beta virt. eigenvalues --    1.61454   1.61717   1.61903   1.62002   1.62124
  Beta virt. eigenvalues --    1.62468   1.62592   1.62716   1.62768   1.63154
  Beta virt. eigenvalues --    1.63251   1.63371   1.63460   1.63674   1.63714
  Beta virt. eigenvalues --    1.63813   1.64456   1.64746   1.64914   1.65038
  Beta virt. eigenvalues --    1.65213   1.65428   1.65615   1.65818   1.66032
  Beta virt. eigenvalues --    1.66211   1.66261   1.66462   1.66580   1.67193
  Beta virt. eigenvalues --    1.67612   1.67930   1.68308   1.68452   1.68753
  Beta virt. eigenvalues --    1.68917   1.69131   1.69254   1.69657   1.69672
  Beta virt. eigenvalues --    1.70021   1.70807   1.71001   1.71605   1.71713
  Beta virt. eigenvalues --    1.72192   1.72564   1.72817   1.73025   1.73332
  Beta virt. eigenvalues --    1.73500   1.74203   1.74316   1.74454   1.74721
  Beta virt. eigenvalues --    1.74798   1.75080   1.75642   1.75885   1.76115
  Beta virt. eigenvalues --    1.76543   1.76914   1.77090   1.77345   1.77525
  Beta virt. eigenvalues --    1.77656   1.78381   1.78653   1.78740   1.78805
  Beta virt. eigenvalues --    1.79219   1.79575   1.79727   1.80153   1.80272
  Beta virt. eigenvalues --    1.80622   1.80927   1.81231   1.81315   1.81695
  Beta virt. eigenvalues --    1.82057   1.82339   1.82521   1.83304   1.83640
  Beta virt. eigenvalues --    1.83881   1.84262   1.84464   1.84554   1.85080
  Beta virt. eigenvalues --    1.85232   1.85498   1.86220   1.86452   1.86563
  Beta virt. eigenvalues --    1.86713   1.87144   1.87343   1.87597   1.88004
  Beta virt. eigenvalues --    1.88064   1.88247   1.88334   1.88591   1.88971
  Beta virt. eigenvalues --    1.88991   1.89188   1.90201   1.90346   1.90639
  Beta virt. eigenvalues --    1.91312   1.91807   1.92249   1.92743   1.92783
  Beta virt. eigenvalues --    1.93208   1.93478   1.93901   1.94118   1.94299
  Beta virt. eigenvalues --    1.94587   1.94794   1.94855   1.95419   1.96083
  Beta virt. eigenvalues --    1.96319   1.96794   1.97259   1.97397   1.98240
  Beta virt. eigenvalues --    1.98438   1.98645   1.98930   1.99531   1.99956
  Beta virt. eigenvalues --    2.00167   2.00711   2.01057   2.01437   2.01491
  Beta virt. eigenvalues --    2.01847   2.02011   2.02464   2.02997   2.03226
  Beta virt. eigenvalues --    2.03633   2.03753   2.03974   2.04079   2.04529
  Beta virt. eigenvalues --    2.04835   2.05060   2.05234   2.05333   2.05572
  Beta virt. eigenvalues --    2.06141   2.06525   2.06723   2.07051   2.07257
  Beta virt. eigenvalues --    2.07655   2.07786   2.08105   2.08545   2.09295
  Beta virt. eigenvalues --    2.09624   2.10278   2.11356   2.12280   2.12957
  Beta virt. eigenvalues --    2.13029   2.13532   2.13928   2.14377   2.14720
  Beta virt. eigenvalues --    2.14974   2.15407   2.16698   2.17243   2.17965
  Beta virt. eigenvalues --    2.18489   2.19218   2.19657   2.20058   2.20809
  Beta virt. eigenvalues --    2.21068   2.21363   2.21493   2.21821   2.22858
  Beta virt. eigenvalues --    2.22973   2.23929   2.24132   2.25011   2.25268
  Beta virt. eigenvalues --    2.25793   2.26542   2.27439   2.27618   2.28112
  Beta virt. eigenvalues --    2.28718   2.29146   2.29361   2.29873   2.30107
  Beta virt. eigenvalues --    2.30772   2.31128   2.31686   2.31748   2.32216
  Beta virt. eigenvalues --    2.32467   2.33171   2.34364   2.34855   2.35149
  Beta virt. eigenvalues --    2.35511   2.36028   2.37005   2.37462   2.37829
  Beta virt. eigenvalues --    2.38122   2.38507   2.38897   2.39326   2.39554
  Beta virt. eigenvalues --    2.39726   2.40167   2.40489   2.40708   2.40987
  Beta virt. eigenvalues --    2.41277   2.41504   2.41535   2.42261   2.42549
  Beta virt. eigenvalues --    2.42776   2.42976   2.43049   2.43608   2.43683
  Beta virt. eigenvalues --    2.43849   2.43985   2.44132   2.44340   2.44599
  Beta virt. eigenvalues --    2.45860   2.46372   2.46494   2.47198   2.48517
  Beta virt. eigenvalues --    2.48619   2.48842   2.49067   2.49339   2.49876
  Beta virt. eigenvalues --    2.50143   2.50624   2.50796   2.50993   2.51154
  Beta virt. eigenvalues --    2.51643   2.51871   2.52506   2.52920   2.54552
  Beta virt. eigenvalues --    2.54981   2.55267   2.55673   2.56479   2.58392
  Beta virt. eigenvalues --    2.59397   2.60488   2.61582   2.63787   2.65474
  Beta virt. eigenvalues --    2.65748   2.66321   2.66796   2.66905   2.67777
  Beta virt. eigenvalues --    2.68703   2.69501   2.70413   2.71257   2.71597
  Beta virt. eigenvalues --    2.75418   2.76299   2.76876   2.78090   2.78542
  Beta virt. eigenvalues --    2.78966   2.79087   2.79964   2.80305   2.81469
  Beta virt. eigenvalues --    2.82315   2.82530   2.83548   2.83679   2.83932
  Beta virt. eigenvalues --    2.84216   2.84271   2.85730   2.86022   2.87086
  Beta virt. eigenvalues --    2.88184   2.88941   2.91236   2.91354   2.91768
  Beta virt. eigenvalues --    2.92386   2.93016   2.94623   2.95162   2.95843
  Beta virt. eigenvalues --    2.96657   2.97163   2.97412   2.97505   2.99790
  Beta virt. eigenvalues --    3.00029   3.00870   3.13803   3.14531   3.14714
  Beta virt. eigenvalues --    3.15180   3.16026   3.17478   3.21656   3.22731
  Beta virt. eigenvalues --    3.23724   3.25161   3.25419   3.26644   3.27161
  Beta virt. eigenvalues --    3.31749   3.33478   3.33504   3.33878   3.46949
  Beta virt. eigenvalues --    3.47125   3.47396   3.47937   3.50685   3.52767
  Beta virt. eigenvalues --    3.52868   3.53295   3.53334   3.53398   3.56280
  Beta virt. eigenvalues --    3.56435   3.56495   3.56596   3.57244   3.71295
  Beta virt. eigenvalues --    3.71388   3.71705   3.71805   3.72259   3.92413
  Beta virt. eigenvalues --    3.92519   3.92853   3.92992   3.93471   4.12389
  Beta virt. eigenvalues --    4.12545   4.12578   4.12710   4.13086
          Condensed to atoms (all electrons):
          Atomic-Atomic Spin Densities.
 Mulliken charges and spin densities:
               1          2
     1  C   -0.011935   0.000000
     2  C    0.061793  -0.000000
     3  C    0.124163   0.000000
     4  F   -0.106339   0.000000
     5  C    0.048786  -0.000000
     6  N   -0.183785  -0.000000
     7  C    0.085671   0.000000
     8  C    0.059526   0.000000
     9  N   -0.180518  -0.000000
    10  C    0.073527   0.000000
    11  C   -0.032579  -0.000000
    12  C    0.110428  -0.000000
    13  C    0.053073  -0.000000
    14  O   -0.246450   0.000000
    15  C    0.070735  -0.000000
    16  C   -0.034985   0.000000
    17  C    0.062339  -0.000000
    18  C    0.129188   0.000000
    19  F   -0.105837  -0.000000
    20  C    0.052546  -0.000000
    21  N   -0.182073   0.000000
    22  C    0.085488   0.000000
    23  C    0.056929  -0.000000
    24  N   -0.181387   0.000000
    25  C    0.071778  -0.000000
    26  C   -0.027216   0.000000
    27  C    0.105964  -0.000000
    28  C    0.054029  -0.000000
    29  O   -0.246402   0.000000
    30  C    0.071414   0.000000
    31  C   -0.034056  -0.000000
    32  C    0.061171  -0.000000
    33  C    0.132319   0.000000
    34  F   -0.119448  -0.000000
    35  C    0.034344  -0.000000
    36  N   -0.163712   0.000000
    37  C    0.079103  -0.000000
    38  C    0.042771   0.000000
    39  N   -0.162688  -0.000000
    40  C    0.073103   0.000000
    41  C   -0.036259   0.000000
    42  C    0.023614  -0.000000
    43  C    0.126199   0.000000
    44  O   -0.229267   0.000000
    45  C    0.061451   0.000000
    46  C   -0.034953   0.000000
    47  C    0.062370  -0.000000
    48  C    0.132380   0.000000
    49  F   -0.119607  -0.000000
    50  C    0.033403  -0.000000
    51  N   -0.164235   0.000000
    52  C    0.075068  -0.000000
    53  C    0.043066  -0.000000
    54  N   -0.162565   0.000000
    55  C    0.073720  -0.000000
    56  C   -0.037609   0.000000
    57  C    0.023339   0.000000
    58  C    0.125331   0.000000
    59  O   -0.229533  -0.000000
    60  C    0.061992  -0.000000
    61  C   -0.031139   0.000000
    62  C    0.057561   0.000000
    63  C    0.134071   0.000000
    64  F   -0.108348   0.000000
    65  C    0.041200  -0.000000
    66  N   -0.169685   0.000000
    67  C    0.069811  -0.000000
    68  C    0.035244   0.000000
    69  N   -0.175654   0.000000
    70  C    0.077333  -0.000000
    71  C   -0.015209  -0.000000
    72  C    0.016365  -0.000000
    73  C    0.120603   0.000000
    74  O   -0.214518   0.000000
    75  C    0.059594   0.000000
    76  H   -0.006961   0.000000
    77  H    0.003457   0.000000
    78  H    0.000893   0.000000
    79  H   -0.000658   0.000000
    80  H   -0.021599   0.000000
    81  H    0.025241  -0.000000
    82  H    0.044678   0.000000
    83  H    0.040092   0.000000
    84  H   -0.006421  -0.000000
    85  H   -0.001384  -0.000000
    86  H   -0.003426  -0.000000
    87  H   -0.016497  -0.000000
    88  H    0.045141  -0.000000
    89  H    0.040543  -0.000000
    90  H    0.025100   0.000000
    91  H   -0.007499   0.000000
    92  H   -0.003671   0.000000
    93  H   -0.005845  -0.000000
    94  H   -0.018262  -0.000000
    95  H    0.050210   0.000000
    96  H    0.048541  -0.000000
    97  H    0.054437   0.000000
    98  H   -0.007529  -0.000000
    99  H   -0.004597  -0.000000
   100  H   -0.004873  -0.000000
   101  H   -0.019885  -0.000000
   102  H    0.046847   0.000000
   103  H    0.053770   0.000000
   104  H    0.049970  -0.000000
   105  H   -0.007101  -0.000000
   106  H   -0.008700  -0.000000
   107  H   -0.004033  -0.000000
   108  H   -0.015812   0.000000
   109  H   -0.012967  -0.000000
   110  H    0.043965  -0.000000
   111  H    0.052015  -0.000000
   112  H    0.046907  -0.000000
 Sum of Mulliken charges =  -0.00000   0.00000
 Mulliken charges and spin densities with hydrogens summed into heavy atoms:
               1          2
     1  C   -0.018897   0.000000
     2  C    0.065250  -0.000000
     3  C    0.124163   0.000000
     4  F   -0.106339   0.000000
     5  C    0.048786  -0.000000
     6  N   -0.183785  -0.000000
     7  C    0.086564   0.000000
     8  C    0.059526   0.000000
     9  N   -0.180518  -0.000000
    10  C    0.072868   0.000000
    11  C   -0.032579  -0.000000
    12  C    0.088829   0.000000
    13  C    0.053073  -0.000000
    14  O   -0.246450   0.000000
    15  C    0.180745  -0.000000
    16  C   -0.034985   0.000000
    17  C    0.055918  -0.000000
    18  C    0.129188   0.000000
    19  F   -0.105837  -0.000000
    20  C    0.052546  -0.000000
    21  N   -0.182073   0.000000
    22  C    0.084104   0.000000
    23  C    0.056929  -0.000000
    24  N   -0.181387   0.000000
    25  C    0.068352  -0.000000
    26  C   -0.027216   0.000000
    27  C    0.089466  -0.000000
    28  C    0.054029  -0.000000
    29  O   -0.246402   0.000000
    30  C    0.182198   0.000000
    31  C   -0.034056  -0.000000
    32  C    0.053673  -0.000000
    33  C    0.132319   0.000000
    34  F   -0.119448  -0.000000
    35  C    0.034344  -0.000000
    36  N   -0.163712   0.000000
    37  C    0.075432  -0.000000
    38  C    0.042771   0.000000
    39  N   -0.162688  -0.000000
    40  C    0.067258   0.000000
    41  C   -0.036259   0.000000
    42  C    0.005352  -0.000000
    43  C    0.126199   0.000000
    44  O   -0.229267   0.000000
    45  C    0.214639   0.000000
    46  C   -0.034953   0.000000
    47  C    0.054841  -0.000000
    48  C    0.132380   0.000000
    49  F   -0.119607  -0.000000
    50  C    0.033403  -0.000000
    51  N   -0.164235   0.000000
    52  C    0.070471  -0.000000
    53  C    0.043066  -0.000000
    54  N   -0.162565   0.000000
    55  C    0.068847  -0.000000
    56  C   -0.037609   0.000000
    57  C    0.003454   0.000000
    58  C    0.125331   0.000000
    59  O   -0.229533  -0.000000
    60  C    0.212579  -0.000000
    61  C   -0.031139   0.000000
    62  C    0.050460   0.000000
    63  C    0.134071   0.000000
    64  F   -0.108348   0.000000
    65  C    0.041200  -0.000000
    66  N   -0.169685   0.000000
    67  C    0.061111  -0.000000
    68  C    0.035244   0.000000
    69  N   -0.175654   0.000000
    70  C    0.073300  -0.000000
    71  C   -0.031021   0.000000
    72  C    0.003398  -0.000000
    73  C    0.120603   0.000000
    74  O   -0.214518   0.000000
    75  C    0.202482   0.000000
 Electronic spatial extent (au):  <R**2>=         289779.2423
 Charge=              0.0000 electrons
 Dipole moment (field-independent basis, Debye):
    X=              0.2580    Y=              3.8325    Z=              2.4424  Tot=              4.5519
 Quadrupole moment (field-independent basis, Debye-Ang):
   XX=           -244.6764   YY=           -408.2900   ZZ=           -404.2870
   XY=             27.8391   XZ=             90.1364   YZ=             -1.0421
 Traceless Quadrupole moment (field-independent basis, Debye-Ang):
   XX=            107.7414   YY=            -55.8722   ZZ=            -51.8692
   XY=             27.8391   XZ=             90.1364   YZ=             -1.0421
 Octapole moment (field-independent basis, Debye-Ang**2):
  XXX=            -54.1110  YYY=             58.1630  ZZZ=             71.6688  XYY=            -60.9319
  XXY=            149.5315  XXZ=            938.6639  XZZ=            134.2248  YZZ=             36.3495
  YYZ=            -17.0787  XYZ=             96.7410
 Hexadecapole moment (field-independent basis, Debye-Ang**3):
 XXXX=        -258718.4259 YYYY=          -4287.8424 ZZZZ=          -3981.5549 XXXY=           6540.3787
 XXXZ=          19779.0430 YYYX=           -100.8885 YYYZ=            -66.9310 ZZZX=            745.3310
 ZZZY=             43.0574 XXYY=         -64478.9125 XXZZ=         -60614.4077 YYZZ=          -1298.0694
 XXYZ=           -264.0541 YYXZ=            225.0560 ZZXY=            189.7915
 N-N= 9.246832963631D+03 E-N=-2.675910745306D+04  KE= 3.515659354057D+03
 Leave Link  601 at Sun Jul 26 17:17:12 2020, MaxMem=  4026531840 cpu:              10.4 elap:               1.4
 (Enter /opt/ohpc/pub/libs/gaussian/g16-A.03/sandybridge/g16/l9999.exe)

 Test job not archived.
 1\1\GINC-SKYLAKE038\FOpt\ULC-wPBE\CC-pVDZ\C55H37F5N10O5\RDU230\26-Jul-
 2020\0\\#P uLC-wPBE/cc-pVDZ iop(3/107=0107000000, 3/108=0107000000) op
 t\\H37 C55 N10 O5 F5\\0,1\C,-20.4022721902,0.6860891472,-1.7362752003\
 C,-19.5824847016,0.079650281,-2.6942550541\C,-18.2337144651,-0.0963384
 839,-2.3824923753\F,-17.4338076436,-0.7099479703,-3.2787126197\C,-17.7
 215300376,0.3315389097,-1.1394320855\N,-18.5285286669,0.9026211108,-0.
 2192888227\C,-19.8270625267,1.0722847473,-0.5172000447\C,-16.271956217
 9,0.2013529774,-0.8085236426\N,-15.3997803341,0.571390609,-1.770196424
 6\C,-14.0899472678,0.5182058622,-1.5006670948\C,-13.5470852408,0.09146
 29577,-0.2674164891\C,-14.4634826718,-0.3244734252,0.7147161747\C,-15.
 8392114784,-0.2825375498,0.4514154601\O,-16.7364617008,-0.7798300018,1
 .3641472262\C,-17.0066480693,0.0896797576,2.4758184154\C,-12.083771359
 4,0.0640245535,-0.0381934188\C,-11.4661191536,-0.9565902699,0.70802171
 64\C,-10.084158922,-0.9207830291,0.8787091336\F,-9.500002869,-1.886086
 6823,1.6182505451\C,-9.3112774283,0.1115812486,0.3072483637\N,-9.90886
 74141,1.1015954935,-0.3902013797\C,-11.2383401494,1.0734365367,-0.5510
 416538\C,-7.8246089071,0.1323181607,0.4174502078\N,-7.1887230858,-1.04
 0401633,0.2064606947\C,-5.8519114696,-1.058797175,0.2564639189\C,-5.04
 70626557,0.0691216553,0.5357527935\C,-5.7208137834,1.2804529977,0.7750
 755679\C,-7.1209019396,1.3240607789,0.7222809112\O,-7.7942644279,2.469
 7855234,1.0668898882\C,-7.8004793284,3.4895892364,0.0552473858\C,-3.56
 94943661,-0.0248436952,0.5784487913\C,-2.9108735313,-1.1642343234,1.07
 77127995\C,-1.5185504603,-1.1774560803,1.0800448518\F,-0.8790812793,-2
 .284622995,1.5267899738\C,-0.7789193065,-0.0748127384,0.6123837552\N,-
 1.4096971778,1.0077512555,0.1116867804\C,-2.7483556223,1.021209763,0.0
 98530258\C,0.7157807425,-0.0657488817,0.5893788487\N,1.2919235407,0.24
 90592889,-0.5818725009\C,2.6307311531,0.2673675273,-0.6545412977\C,3.4
 835064689,-0.0335504286,0.4269967159\C,2.8774887736,-0.3358943529,1.66
 31091163\C,1.4779848027,-0.3379855743,1.7587876622\O,0.7775277024,-0.5
 688505557,2.9035764578\C,1.5169004488,-0.8889565703,4.0806784668\C,4.9
 571145127,-0.0128997462,0.2769560704\C,5.5871247825,-0.4466281929,-0.9
 047700265\C,6.9768541029,-0.3951637217,-0.9732979267\F,7.5863262217,-0
 .7781286965,-2.120624511\C,7.7436826547,0.0605748749,0.1157192442\N,7.
 1394424647,0.4999515507,1.2393209183\C,5.8027464781,0.4627224171,1.305
 4864632\C,9.2357741121,0.1381110252,0.067237792\N,9.7829252824,1.31722
 44695,0.4038149428\C,11.1180588545,1.4382579863,0.3718565302\C,11.9954
 62182,0.4006416864,-0.003767502\C,11.4211816969,-0.8446173048,-0.32968
 35672\C,10.0270877748,-0.9913343286,-0.2799549161\O,9.3583952424,-2.15
 23337006,-0.5268288735\C,10.124202694,-3.2855767811,-0.9300583292\C,13
 .4623044839,0.6051015672,-0.0342302368\C,14.0309764575,1.8224463994,-0
 .45461636\C,15.4180767611,1.9502922193,-0.4473367208\F,15.9627594178,3
 .1046673797,-0.8867793803\C,16.2417032396,0.882588213,-0.0335735076\N,
 15.6963880693,-0.286009381,0.3645948746\C,14.3628702254,-0.407423088,0
 .3667122408\C,17.7279837754,1.0225693659,0.0171464508\N,18.1963215239,
 2.1254528908,0.625874508\C,19.5272439554,2.2820938757,0.7387380777\C,2
 0.4491842435,1.3505628401,0.2503501033\C,19.9748971902,0.2065196491,-0
 .4054160107\C,18.5865482383,0.0312318703,-0.5404262107\O,17.9959224395
 ,-1.0065039142,-1.1928437735\C,18.8474773967,-2.0045779866,-1.74846777
 \H,-21.4709509641,0.8520599663,-1.9311716938\H,-19.96093454,-0.2633355
 53,-3.6667192474\H,-20.4416519423,1.546895155,0.2646412904\H,-13.41831
 12949,0.8102426744,-2.3247430974\H,-14.122768059,-0.6907065494,1.69431
 23285\H,-16.0723029977,0.3762844839,3.0073398236\H,-17.6535509735,-0.4
 847618022,3.1641374828\H,-17.5407578752,0.9955440381,2.1215097637\H,-1
 2.0363909826,-1.787837416,1.1452057783\H,-11.6717968832,1.9188803982,-
 1.1091818049\H,-5.3784873381,-2.0309105,0.0395756365\H,-5.1725202707,2
 .190829983,1.0571939591\H,-8.2736887901,4.3762509686,0.5157173958\H,-8
 .3998641838,3.1510706662,-0.8152707064\H,-6.7689591574,3.752826319,-0.
 2674255881\H,-3.4576281227,-2.0308296192,1.4736074217\H,-3.2117284239,
 1.9193707976,-0.3424579354\H,3.0554097436,0.5566916543,-1.6296794647\H
 ,3.5025838679,-0.5816764157,2.5308310856\H,2.11037314,-1.8196828541,3.
 9497006773\H,2.1960958115,-0.0599671991,4.3763687312\H,0.7647091558,-1
 .0444092554,4.8737904804\H,5.019286181,-0.8321471124,-1.7623716754\H,5
 .3611993355,0.8586392651,2.2351960271\H,11.5201622098,2.4170275481,0.6
 804338174\H,12.0658624746,-1.6788910475,-0.6338753641\H,10.8497999438,
 -3.5911465148,-0.1449326018\H,9.394838914,-4.0992195678,-1.0886188321\
 H,10.6710735081,-3.0927051337,-1.8784698284\H,13.4175445887,2.65896046
 59,-0.8160666536\H,13.9721669857,-1.3695783038,0.7379866466\H,19.86544
 21247,3.1984822207,1.2484852232\H,21.5295671657,1.5142354446,0.3715006
 328\H,20.6802658586,-0.5302423512,-0.8101312579\H,19.5273331836,-1.584
 217742,-2.5220939471\H,18.1750945896,-2.7441623761,-2.2180010548\H,19.
 4551617599,-2.5085011375,-0.9653748187\\Version=EM64L-G16RevA.03\State
 =1-A\HF=-3537.7037552\S2=0.\S2-1=0.\S2A=0.\RMSD=9.557e-09\RMSF=1.168e-
 06\Dipole=0.1067016,-1.7570361,0.3296418\Quadrupole=80.852576,-41.3777
 326,-39.4748434,-60.4619608,-34.2634315,1.0459944\PG=C01 [X(C55H37F5N1
 0O5)]\\@


 NOTHING MAKES A PERSON MORE PRODUCTIVE THAN THE LAST MINUTE.
 Job cpu time:       1 days 14 hours 47 minutes 42.1 seconds.
 Elapsed time:       0 days  4 hours 55 minutes 32.5 seconds.
 File lengths (MBytes):  RWF=   1716 Int=      0 D2E=      0 Chk=    156 Scr=      8
 Normal termination of Gaussian 16 at Sun Jul 26 17:17:12 2020.
