 Entering Gaussian System, Link 0=g16
 Input=mols_55_7_07_N-N_opt_0.gjf
 Output=mols_55_7_07_N-N_opt_0.log
 Initial command:
 /opt/ohpc/pub/libs/gaussian/g16-A.03/sandybridge/g16/l1.exe "/mnt/gpfs2_4m/scratch/rdu230/ondemand/projects/dihedral_energies/7trial/wtuning/mols_55_7_07_N-N/Gau-71583.inp" -scrdir="/mnt/gpfs2_4m/scratch/rdu230/ondemand/projects/dihedral_energies/7trial/wtuning/mols_55_7_07_N-N/"
 Entering Link 1 = /opt/ohpc/pub/libs/gaussian/g16-A.03/sandybridge/g16/l1.exe PID=     71584.
  
 Copyright (c) 1988,1990,1992,1993,1995,1998,2003,2009,2016,
            Gaussian, Inc.  All Rights Reserved.
  
 This is part of the Gaussian(R) 16 program.  It is based on
 the Gaussian(R) 09 system (copyright 2009, Gaussian, Inc.),
 the Gaussian(R) 03 system (copyright 2003, Gaussian, Inc.),
 the Gaussian(R) 98 system (copyright 1998, Gaussian, Inc.),
 the Gaussian(R) 94 system (copyright 1995, Gaussian, Inc.),
 the Gaussian 92(TM) system (copyright 1992, Gaussian, Inc.),
 the Gaussian 90(TM) system (copyright 1990, Gaussian, Inc.),
 the Gaussian 88(TM) system (copyright 1988, Gaussian, Inc.),
 the Gaussian 86(TM) system (copyright 1986, Carnegie Mellon
 University), and the Gaussian 82(TM) system (copyright 1983,
 Carnegie Mellon University). Gaussian is a federally registered
 trademark of Gaussian, Inc.
  
 This software contains proprietary and confidential information,
 including trade secrets, belonging to Gaussian, Inc.
  
 This software is provided under written license and may be
 used, copied, transmitted, or stored only in accord with that
 written license.
  
 The following legend is applicable only to US Government
 contracts under FAR:
  
                    RESTRICTED RIGHTS LEGEND
  
 Use, reproduction and disclosure by the US Government is
 subject to restrictions as set forth in subparagraphs (a)
 and (c) of the Commercial Computer Software - Restricted
 Rights clause in FAR 52.227-19.
  
 Gaussian, Inc.
 340 Quinnipiac St., Bldg. 40, Wallingford CT 06492
  
  
 ---------------------------------------------------------------
 Warning -- This program may not be used in any manner that
 competes with the business of Gaussian, Inc. or will provide
 assistance to any competitor of Gaussian, Inc.  The licensee
 of this program is prohibited from giving any competitor of
 Gaussian, Inc. access to this program.  By using this program,
 the user acknowledges that Gaussian, Inc. is engaged in the
 business of creating and licensing software in the field of
 computational chemistry and represents and warrants to the
 licensee that it is not a competitor of Gaussian, Inc. and that
 it will not use this program in any manner prohibited above.
 ---------------------------------------------------------------
  

 Cite this work as:
 Gaussian 16, Revision A.03,
 M. J. Frisch, G. W. Trucks, H. B. Schlegel, G. E. Scuseria, 
 M. A. Robb, J. R. Cheeseman, G. Scalmani, V. Barone, 
 G. A. Petersson, H. Nakatsuji, X. Li, M. Caricato, A. V. Marenich, 
 J. Bloino, B. G. Janesko, R. Gomperts, B. Mennucci, H. P. Hratchian, 
 J. V. Ortiz, A. F. Izmaylov, J. L. Sonnenberg, D. Williams-Young, 
 F. Ding, F. Lipparini, F. Egidi, J. Goings, B. Peng, A. Petrone, 
 T. Henderson, D. Ranasinghe, V. G. Zakrzewski, J. Gao, N. Rega, 
 G. Zheng, W. Liang, M. Hada, M. Ehara, K. Toyota, R. Fukuda, 
 J. Hasegawa, M. Ishida, T. Nakajima, Y. Honda, O. Kitao, H. Nakai, 
 T. Vreven, K. Throssell, J. A. Montgomery, Jr., J. E. Peralta, 
 F. Ogliaro, M. J. Bearpark, J. J. Heyd, E. N. Brothers, K. N. Kudin, 
 V. N. Staroverov, T. A. Keith, R. Kobayashi, J. Normand, 
 K. Raghavachari, A. P. Rendell, J. C. Burant, S. S. Iyengar, 
 J. Tomasi, M. Cossi, J. M. Millam, M. Klene, C. Adamo, R. Cammi, 
 J. W. Ochterski, R. L. Martin, K. Morokuma, O. Farkas, 
 J. B. Foresman, and D. J. Fox, Gaussian, Inc., Wallingford CT, 2016.
 
 ******************************************
 Gaussian 16:  EM64L-G16RevA.03 25-Dec-2016
                25-Jul-2020 
 ******************************************
 %mem=30GB
 %nproc=8
 Will use up to    8 processors via shared memory.
 ---------------------------------------------------------------
 #P uLC-wPBE/cc-pVDZ iop(3/107=0414500000, 3/108=0414500000) opt
 ---------------------------------------------------------------
 1/18=20,19=15,26=3,38=1/1,3;
 2/9=110,12=2,17=6,18=5,40=1/2;
 3/5=16,11=2,25=1,30=1,71=1,74=-41,107=414500000,108=414500000,116=2/1,2,3;
 4//1;
 5/5=2,38=5/2;
 6/7=2,8=2,9=2,10=2,28=1/1;
 7//1,2,3,16;
 1/18=20,19=15,26=3/3(2);
 2/9=110/2;
 99//99;
 2/9=110/2;
 3/5=16,11=2,25=1,30=1,71=1,74=-41,107=414500000,108=414500000,116=2/1,2,3;
 4/5=5,16=3,69=1/1;
 5/5=2,38=5/2;
 7//1,2,3,16;
 1/18=20,19=15,26=3/3(-5);
 2/9=110/2;
 6/7=2,8=2,9=2,10=2,19=2,28=1/1;
 99/9=1/99;
 Leave Link    1 at Sat Jul 25 12:49:09 2020, MaxMem=  4026531840 cpu:               1.7 elap:               0.2
 (Enter /opt/ohpc/pub/libs/gaussian/g16-A.03/sandybridge/g16/l101.exe)
 ---------------
 H16 C42 S14 N14
 ---------------
 Symbolic Z-matrix:
 Charge =  0 Multiplicity = 1
 C                     25.83324   0.06503  -0.13758 
 C                     25.12828   1.28568   0.07001 
 N                     23.77005   1.231     0.0939 
 C                     23.35786  -0.01007  -0.22218 
 S                     24.6388  -1.17505  -0.45835 
 C                     22.01859  -0.46832  -0.27222 
 N                     21.6365  -1.65174  -0.64185 
 C                     20.25469  -1.71742  -0.57571 
 C                     19.57439  -0.59428  -0.38259 
 S                     20.70393   0.66104  -0.01871 
 C                     18.15922  -0.28321  -0.2591 
 C                     17.47273   0.81819  -0.09522 
 N                     16.1331   0.78263  -0.06235 
 C                     15.6628  -0.42803  -0.23613 
 S                     16.95824  -1.62604  -0.45598 
 C                     14.35588  -0.90218  -0.2889 
 N                     13.92749  -2.17595  -0.40989 
 C                     12.53318  -2.24832  -0.41666 
 C                     11.89319  -1.02648  -0.1915 
 S                     13.03772   0.28216  -0.07781 
 C                     10.42024  -0.87422  -0.1804 
 C                     9.48352  -1.80979  -0.00026 
 N                     8.20104  -1.36555   0.02925 
 C                     8.15335  -0.02363  -0.07582 
 S                     9.71297   0.70544  -0.21672 
 C                     6.9182    0.69801  -0.03237 
 N                     6.84225   2.0531   -0.20823 
 C                     5.54368   2.46838  -0.1575 
 C                     4.56894   1.44968   0.07041 
 S                     5.40072  -0.09367   0.08731 
 C                     3.1448    1.6035    0.15251 
 C                     2.41059   2.70923  -0.14504 
 N                     0.97593   2.56275  -0.02284 
 C                     0.67584   1.40501   0.38746 
 S                     2.0896    0.30321   0.63712 
 C                    -0.6713    0.88379   0.6294 
 N                    -0.8951   -0.28069   1.07845 
 C                    -2.25931  -0.46831   1.16824 
 C                    -3.06653   0.56023   0.75208 
 S                    -1.99079   1.9186    0.24462 
 C                    -4.5284    0.71966   0.7267 
 C                    -5.24761   1.72879   0.30111 
 N                    -6.6526    1.49446   0.31005 
 C                    -6.86749   0.31426   0.72665 
 S                    -5.55624  -0.60148   1.13252 
 C                    -8.22445  -0.17904   0.89967 
 N                    -8.50368  -1.39571   1.36686 
 C                    -9.79477  -1.71414   1.32036 
 C                    -10.60756  -0.71772   0.87406 
 S                    -9.64971   0.63338   0.46239 
 C                    -12.04968  -0.749     0.73433 
 C                    -12.88651  -1.78251   1.04471 
 N                    -14.31851  -1.54325   0.82674 
 C                    -14.42988  -0.30257   0.37051 
 S                    -12.9753   0.60669   0.15965 
 C                    -15.7665   0.2362    0.0287 
 N                    -15.98773   1.40825  -0.49451 
 C                    -17.28648   1.59471  -0.7249 
 C                    -18.16489   0.54695  -0.47857 
 S                    -17.1465  -0.72698   0.15679 
 C                    -19.60436   0.51023  -0.60222 
 C                    -20.40762   1.52231  -0.90411 
 N                    -21.76523   1.11679  -1.01271 
 C                    -21.98362  -0.11981  -0.75609 
 S                    -20.4735  -0.93762  -0.44376 
 C                    -23.21877  -0.84423  -0.81411 
 N                    -23.37451  -2.11624  -0.62626 
 C                    -24.71837  -2.43598  -0.65172 
 C                    -25.54316  -1.36292  -1.03404 
 S                    -24.63724   0.06883  -1.20495 
 H                     26.88367  -0.07004  -0.18415 
 H                     25.66264   2.19508   0.36553 
 H                     19.76421  -2.7096   -0.88397 
 H                     17.90107   1.81668   0.08173 
 H                     12.0936  -3.19206  -0.55573 
 H                     9.6817   -2.9079   -0.02297 
 H                     5.27355   3.49765  -0.28689 
 H                     2.79186   3.67616  -0.48244 
 H                    -2.60786  -1.38869   1.5796 
 H                    -4.96904   2.74175  -0.06416 
 H                    -10.12678  -2.67973   1.72117 
 H                    -12.64011  -2.67457   1.42702 
 H                    -17.66923   2.58885  -1.1048 
 H                    -20.17076   2.47904  -1.07939 
 H                    -25.055   -3.44278  -0.54897 
 H                    -26.68105  -1.46602  -1.17106 
 
 ITRead=  0  0  0  0  0  0  0  0  0  0  0  0  0  0  0  0  0  0  0  0
 ITRead=  0  0  0  0  0  0  0  0  0  0  0  0  0  0  0  0  0  0  0  0
 ITRead=  0  0  0  0  0  0  0  0  0  0  0  0  0  0  0  0  0  0  0  0
 ITRead=  0  0  0  0  0  0  0  0  0  0  0  0  0  0  0  0  0  0  0  0
 ITRead=  0  0  0  0  0  0
 MicOpt= -1 -1 -1 -1 -1 -1 -1 -1 -1 -1 -1 -1 -1 -1 -1 -1 -1 -1 -1 -1
 MicOpt= -1 -1 -1 -1 -1 -1 -1 -1 -1 -1 -1 -1 -1 -1 -1 -1 -1 -1 -1 -1
 MicOpt= -1 -1 -1 -1 -1 -1 -1 -1 -1 -1 -1 -1 -1 -1 -1 -1 -1 -1 -1 -1
 MicOpt= -1 -1 -1 -1 -1 -1 -1 -1 -1 -1 -1 -1 -1 -1 -1 -1 -1 -1 -1 -1
 MicOpt= -1 -1 -1 -1 -1 -1
 NAtoms=     86 NQM=       86 NQMF=       0 NMMI=      0 NMMIF=      0
                NMic=       0 NMicF=      0.
                    Isotopes and Nuclear Properties:
 (Nuclear quadrupole moments (NQMom) in fm**2, nuclear magnetic moments (NMagM)
  in nuclear magnetons)

  Atom         1           2           3           4           5           6           7           8           9          10
 IAtWgt=          12          12          14          12          32          12          14          12          12          32
 AtmWgt=  12.0000000  12.0000000  14.0030740  12.0000000  31.9720718  12.0000000  14.0030740  12.0000000  12.0000000  31.9720718
 NucSpn=           0           0           2           0           0           0           2           0           0           0
 AtZEff=  -0.0000000  -0.0000000  -0.0000000  -0.0000000  -0.0000000  -0.0000000  -0.0000000  -0.0000000  -0.0000000  -0.0000000
 NQMom=    0.0000000   0.0000000   2.0440000   0.0000000   0.0000000   0.0000000   2.0440000   0.0000000   0.0000000   0.0000000
 NMagM=    0.0000000   0.0000000   0.4037610   0.0000000   0.0000000   0.0000000   0.4037610   0.0000000   0.0000000   0.0000000
 AtZNuc=   6.0000000   6.0000000   7.0000000   6.0000000  16.0000000   6.0000000   7.0000000   6.0000000   6.0000000  16.0000000

  Atom        11          12          13          14          15          16          17          18          19          20
 IAtWgt=          12          12          14          12          32          12          14          12          12          32
 AtmWgt=  12.0000000  12.0000000  14.0030740  12.0000000  31.9720718  12.0000000  14.0030740  12.0000000  12.0000000  31.9720718
 NucSpn=           0           0           2           0           0           0           2           0           0           0
 AtZEff=  -0.0000000  -0.0000000  -0.0000000  -0.0000000  -0.0000000  -0.0000000  -0.0000000  -0.0000000  -0.0000000  -0.0000000
 NQMom=    0.0000000   0.0000000   2.0440000   0.0000000   0.0000000   0.0000000   2.0440000   0.0000000   0.0000000   0.0000000
 NMagM=    0.0000000   0.0000000   0.4037610   0.0000000   0.0000000   0.0000000   0.4037610   0.0000000   0.0000000   0.0000000
 AtZNuc=   6.0000000   6.0000000   7.0000000   6.0000000  16.0000000   6.0000000   7.0000000   6.0000000   6.0000000  16.0000000

  Atom        21          22          23          24          25          26          27          28          29          30
 IAtWgt=          12          12          14          12          32          12          14          12          12          32
 AtmWgt=  12.0000000  12.0000000  14.0030740  12.0000000  31.9720718  12.0000000  14.0030740  12.0000000  12.0000000  31.9720718
 NucSpn=           0           0           2           0           0           0           2           0           0           0
 AtZEff=  -0.0000000  -0.0000000  -0.0000000  -0.0000000  -0.0000000  -0.0000000  -0.0000000  -0.0000000  -0.0000000  -0.0000000
 NQMom=    0.0000000   0.0000000   2.0440000   0.0000000   0.0000000   0.0000000   2.0440000   0.0000000   0.0000000   0.0000000
 NMagM=    0.0000000   0.0000000   0.4037610   0.0000000   0.0000000   0.0000000   0.4037610   0.0000000   0.0000000   0.0000000
 AtZNuc=   6.0000000   6.0000000   7.0000000   6.0000000  16.0000000   6.0000000   7.0000000   6.0000000   6.0000000  16.0000000

  Atom        31          32          33          34          35          36          37          38          39          40
 IAtWgt=          12          12          14          12          32          12          14          12          12          32
 AtmWgt=  12.0000000  12.0000000  14.0030740  12.0000000  31.9720718  12.0000000  14.0030740  12.0000000  12.0000000  31.9720718
 NucSpn=           0           0           2           0           0           0           2           0           0           0
 AtZEff=  -0.0000000  -0.0000000  -0.0000000  -0.0000000  -0.0000000  -0.0000000  -0.0000000  -0.0000000  -0.0000000  -0.0000000
 NQMom=    0.0000000   0.0000000   2.0440000   0.0000000   0.0000000   0.0000000   2.0440000   0.0000000   0.0000000   0.0000000
 NMagM=    0.0000000   0.0000000   0.4037610   0.0000000   0.0000000   0.0000000   0.4037610   0.0000000   0.0000000   0.0000000
 AtZNuc=   6.0000000   6.0000000   7.0000000   6.0000000  16.0000000   6.0000000   7.0000000   6.0000000   6.0000000  16.0000000

  Atom        41          42          43          44          45          46          47          48          49          50
 IAtWgt=          12          12          14          12          32          12          14          12          12          32
 AtmWgt=  12.0000000  12.0000000  14.0030740  12.0000000  31.9720718  12.0000000  14.0030740  12.0000000  12.0000000  31.9720718
 NucSpn=           0           0           2           0           0           0           2           0           0           0
 AtZEff=  -0.0000000  -0.0000000  -0.0000000  -0.0000000  -0.0000000  -0.0000000  -0.0000000  -0.0000000  -0.0000000  -0.0000000
 NQMom=    0.0000000   0.0000000   2.0440000   0.0000000   0.0000000   0.0000000   2.0440000   0.0000000   0.0000000   0.0000000
 NMagM=    0.0000000   0.0000000   0.4037610   0.0000000   0.0000000   0.0000000   0.4037610   0.0000000   0.0000000   0.0000000
 AtZNuc=   6.0000000   6.0000000   7.0000000   6.0000000  16.0000000   6.0000000   7.0000000   6.0000000   6.0000000  16.0000000

  Atom        51          52          53          54          55          56          57          58          59          60
 IAtWgt=          12          12          14          12          32          12          14          12          12          32
 AtmWgt=  12.0000000  12.0000000  14.0030740  12.0000000  31.9720718  12.0000000  14.0030740  12.0000000  12.0000000  31.9720718
 NucSpn=           0           0           2           0           0           0           2           0           0           0
 AtZEff=  -0.0000000  -0.0000000  -0.0000000  -0.0000000  -0.0000000  -0.0000000  -0.0000000  -0.0000000  -0.0000000  -0.0000000
 NQMom=    0.0000000   0.0000000   2.0440000   0.0000000   0.0000000   0.0000000   2.0440000   0.0000000   0.0000000   0.0000000
 NMagM=    0.0000000   0.0000000   0.4037610   0.0000000   0.0000000   0.0000000   0.4037610   0.0000000   0.0000000   0.0000000
 AtZNuc=   6.0000000   6.0000000   7.0000000   6.0000000  16.0000000   6.0000000   7.0000000   6.0000000   6.0000000  16.0000000

  Atom        61          62          63          64          65          66          67          68          69          70
 IAtWgt=          12          12          14          12          32          12          14          12          12          32
 AtmWgt=  12.0000000  12.0000000  14.0030740  12.0000000  31.9720718  12.0000000  14.0030740  12.0000000  12.0000000  31.9720718
 NucSpn=           0           0           2           0           0           0           2           0           0           0
 AtZEff=  -0.0000000  -0.0000000  -0.0000000  -0.0000000  -0.0000000  -0.0000000  -0.0000000  -0.0000000  -0.0000000  -0.0000000
 NQMom=    0.0000000   0.0000000   2.0440000   0.0000000   0.0000000   0.0000000   2.0440000   0.0000000   0.0000000   0.0000000
 NMagM=    0.0000000   0.0000000   0.4037610   0.0000000   0.0000000   0.0000000   0.4037610   0.0000000   0.0000000   0.0000000
 AtZNuc=   6.0000000   6.0000000   7.0000000   6.0000000  16.0000000   6.0000000   7.0000000   6.0000000   6.0000000  16.0000000

  Atom        71          72          73          74          75          76          77          78          79          80
 IAtWgt=           1           1           1           1           1           1           1           1           1           1
 AtmWgt=   1.0078250   1.0078250   1.0078250   1.0078250   1.0078250   1.0078250   1.0078250   1.0078250   1.0078250   1.0078250
 NucSpn=           1           1           1           1           1           1           1           1           1           1
 AtZEff=  -0.0000000  -0.0000000  -0.0000000  -0.0000000  -0.0000000  -0.0000000  -0.0000000  -0.0000000  -0.0000000  -0.0000000
 NQMom=    0.0000000   0.0000000   0.0000000   0.0000000   0.0000000   0.0000000   0.0000000   0.0000000   0.0000000   0.0000000
 NMagM=    2.7928460   2.7928460   2.7928460   2.7928460   2.7928460   2.7928460   2.7928460   2.7928460   2.7928460   2.7928460
 AtZNuc=   1.0000000   1.0000000   1.0000000   1.0000000   1.0000000   1.0000000   1.0000000   1.0000000   1.0000000   1.0000000

  Atom        81          82          83          84          85          86
 IAtWgt=           1           1           1           1           1           1
 AtmWgt=   1.0078250   1.0078250   1.0078250   1.0078250   1.0078250   1.0078250
 NucSpn=           1           1           1           1           1           1
 AtZEff=  -0.0000000  -0.0000000  -0.0000000  -0.0000000  -0.0000000  -0.0000000
 NQMom=    0.0000000   0.0000000   0.0000000   0.0000000   0.0000000   0.0000000
 NMagM=    2.7928460   2.7928460   2.7928460   2.7928460   2.7928460   2.7928460
 AtZNuc=   1.0000000   1.0000000   1.0000000   1.0000000   1.0000000   1.0000000
 Leave Link  101 at Sat Jul 25 12:49:09 2020, MaxMem=  4026531840 cpu:               3.1 elap:               0.4
 (Enter /opt/ohpc/pub/libs/gaussian/g16-A.03/sandybridge/g16/l103.exe)

 GradGradGradGradGradGradGradGradGradGradGradGradGradGradGradGradGradGrad
 Berny optimization.
 Initialization pass.
                           ----------------------------
                           !    Initial Parameters    !
                           ! (Angstroms and Degrees)  !
 --------------------------                            --------------------------
 ! Name  Definition              Value          Derivative Info.                !
 --------------------------------------------------------------------------------
 ! R1    R(1,2)                  1.4248         estimate D2E/DX2                !
 ! R2    R(1,5)                  1.7514         estimate D2E/DX2                !
 ! R3    R(1,71)                 1.0601         estimate D2E/DX2                !
 ! R4    R(2,3)                  1.3595         estimate D2E/DX2                !
 ! R5    R(2,72)                 1.0954         estimate D2E/DX2                !
 ! R6    R(3,4)                  1.3454         estimate D2E/DX2                !
 ! R7    R(4,5)                  1.7475         estimate D2E/DX2                !
 ! R8    R(4,6)                  1.4164         estimate D2E/DX2                !
 ! R9    R(6,7)                  1.2973         estimate D2E/DX2                !
 ! R10   R(6,10)                 1.7516         estimate D2E/DX2                !
 ! R11   R(7,8)                  1.385          estimate D2E/DX2                !
 ! R12   R(8,9)                  1.3272         estimate D2E/DX2                !
 ! R13   R(8,73)                 1.1489         estimate D2E/DX2                !
 ! R14   R(9,10)                 1.7275         estimate D2E/DX2                !
 ! R15   R(9,11)                 1.4542         estimate D2E/DX2                !
 ! R16   R(11,12)                1.3081         estimate D2E/DX2                !
 ! R17   R(11,15)                1.8123         estimate D2E/DX2                !
 ! R18   R(12,13)                1.3405         estimate D2E/DX2                !
 ! R19   R(12,74)                1.1008         estimate D2E/DX2                !
 ! R20   R(13,14)                1.3104         estimate D2E/DX2                !
 ! R21   R(14,15)                1.7781         estimate D2E/DX2                !
 ! R22   R(14,16)                1.3913         estimate D2E/DX2                !
 ! R23   R(16,17)                1.3493         estimate D2E/DX2                !
 ! R24   R(16,20)                1.7846         estimate D2E/DX2                !
 ! R25   R(17,18)                1.3962         estimate D2E/DX2                !
 ! R26   R(18,19)                1.3976         estimate D2E/DX2                !
 ! R27   R(18,75)                1.0503         estimate D2E/DX2                !
 ! R28   R(19,20)                1.7422         estimate D2E/DX2                !
 ! R29   R(19,21)                1.4808         estimate D2E/DX2                !
 ! R30   R(21,22)                1.3361         estimate D2E/DX2                !
 ! R31   R(21,25)                1.7311         estimate D2E/DX2                !
 ! R32   R(22,23)                1.3576         estimate D2E/DX2                !
 ! R33   R(22,76)                1.1161         estimate D2E/DX2                !
 ! R34   R(23,24)                1.3469         estimate D2E/DX2                !
 ! R35   R(24,25)                1.7274         estimate D2E/DX2                !
 ! R36   R(24,26)                1.4312         estimate D2E/DX2                !
 ! R37   R(26,27)                1.3686         estimate D2E/DX2                !
 ! R38   R(26,30)                1.7158         estimate D2E/DX2                !
 ! R39   R(27,28)                1.3643         estimate D2E/DX2                !
 ! R40   R(28,29)                1.4282         estimate D2E/DX2                !
 ! R41   R(28,77)                1.072          estimate D2E/DX2                !
 ! R42   R(29,30)                1.7533         estimate D2E/DX2                !
 ! R43   R(29,31)                1.4348         estimate D2E/DX2                !
 ! R44   R(31,32)                1.3602         estimate D2E/DX2                !
 ! R45   R(31,35)                1.7433         estimate D2E/DX2                !
 ! R46   R(32,33)                1.4473         estimate D2E/DX2                !
 ! R47   R(32,78)                1.0928         estimate D2E/DX2                !
 ! R48   R(33,34)                1.2644         estimate D2E/DX2                !
 ! R49   R(34,35)                1.8097         estimate D2E/DX2                !
 ! R50   R(34,36)                1.4646         estimate D2E/DX2                !
 ! R51   R(36,37)                1.268          estimate D2E/DX2                !
 ! R52   R(36,40)                1.7204         estimate D2E/DX2                !
 ! R53   R(37,38)                1.38           estimate D2E/DX2                !
 ! R54   R(38,39)                1.3721         estimate D2E/DX2                !
 ! R55   R(38,79)                1.0667         estimate D2E/DX2                !
 ! R56   R(39,40)                1.8055         estimate D2E/DX2                !
 ! R57   R(39,41)                1.4708         estimate D2E/DX2                !
 ! R58   R(41,42)                1.3102         estimate D2E/DX2                !
 ! R59   R(41,45)                1.7224         estimate D2E/DX2                !
 ! R60   R(42,43)                1.4244         estimate D2E/DX2                !
 ! R61   R(42,80)                1.1123         estimate D2E/DX2                !
 ! R62   R(43,44)                1.2699         estimate D2E/DX2                !
 ! R63   R(44,45)                1.6501         estimate D2E/DX2                !
 ! R64   R(44,46)                1.4542         estimate D2E/DX2                !
 ! R65   R(46,47)                1.3329         estimate D2E/DX2                !
 ! R66   R(46,50)                1.6978         estimate D2E/DX2                !
 ! R67   R(47,48)                1.3306         estimate D2E/DX2                !
 ! R68   R(48,49)                1.3611         estimate D2E/DX2                !
 ! R69   R(48,81)                1.0969         estimate D2E/DX2                !
 ! R70   R(49,50)                1.7066         estimate D2E/DX2                !
 ! R71   R(49,51)                1.4492         estimate D2E/DX2                !
 ! R72   R(51,52)                1.3656         estimate D2E/DX2                !
 ! R73   R(51,55)                1.7392         estimate D2E/DX2                !
 ! R74   R(52,53)                1.4681         estimate D2E/DX2                !
 ! R75   R(52,82)                1.0013         estimate D2E/DX2                !
 ! R76   R(53,54)                1.3266         estimate D2E/DX2                !
 ! R77   R(54,55)                1.7283         estimate D2E/DX2                !
 ! R78   R(54,56)                1.4811         estimate D2E/DX2                !
 ! R79   R(56,57)                1.3025         estimate D2E/DX2                !
 ! R80   R(56,60)                1.6878         estimate D2E/DX2                !
 ! R81   R(57,58)                1.3321         estimate D2E/DX2                !
 ! R82   R(58,59)                1.3893         estimate D2E/DX2                !
 ! R83   R(58,83)                1.131          estimate D2E/DX2                !
 ! R84   R(59,60)                1.7503         estimate D2E/DX2                !
 ! R85   R(59,61)                1.4452         estimate D2E/DX2                !
 ! R86   R(61,62)                1.3269         estimate D2E/DX2                !
 ! R87   R(61,65)                1.6961         estimate D2E/DX2                !
 ! R88   R(62,63)                1.421          estimate D2E/DX2                !
 ! R89   R(62,84)                1.0011         estimate D2E/DX2                !
 ! R90   R(63,64)                1.2817         estimate D2E/DX2                !
 ! R91   R(64,65)                1.7455         estimate D2E/DX2                !
 ! R92   R(64,66)                1.4331         estimate D2E/DX2                !
 ! R93   R(66,67)                1.2952         estimate D2E/DX2                !
 ! R94   R(66,70)                1.7316         estimate D2E/DX2                !
 ! R95   R(67,68)                1.3816         estimate D2E/DX2                !
 ! R96   R(68,69)                1.4064         estimate D2E/DX2                !
 ! R97   R(68,85)                1.0665         estimate D2E/DX2                !
 ! R98   R(69,70)                1.7029         estimate D2E/DX2                !
 ! R99   R(69,86)                1.1507         estimate D2E/DX2                !
 ! A1    A(2,1,5)              107.2083         estimate D2E/DX2                !
 ! A2    A(2,1,71)             127.2887         estimate D2E/DX2                !
 ! A3    A(5,1,71)             125.2753         estimate D2E/DX2                !
 ! A4    A(1,2,3)              117.5427         estimate D2E/DX2                !
 ! A5    A(1,2,72)             120.6098         estimate D2E/DX2                !
 ! A6    A(3,2,72)             121.0647         estimate D2E/DX2                !
 ! A7    A(2,3,4)              109.8191         estimate D2E/DX2                !
 ! A8    A(3,4,5)              114.9695         estimate D2E/DX2                !
 ! A9    A(3,4,6)              126.6159         estimate D2E/DX2                !
 ! A10   A(5,4,6)              118.206          estimate D2E/DX2                !
 ! A11   A(1,5,4)               90.1796         estimate D2E/DX2                !
 ! A12   A(4,6,7)              125.7095         estimate D2E/DX2                !
 ! A13   A(4,6,10)             119.734          estimate D2E/DX2                !
 ! A14   A(7,6,10)             114.0999         estimate D2E/DX2                !
 ! A15   A(6,7,8)              108.8747         estimate D2E/DX2                !
 ! A16   A(7,8,9)              118.5696         estimate D2E/DX2                !
 ! A17   A(7,8,73)             117.0056         estimate D2E/DX2                !
 ! A18   A(9,8,73)             123.4359         estimate D2E/DX2                !
 ! A19   A(8,9,10)             108.0857         estimate D2E/DX2                !
 ! A20   A(8,9,11)             133.8032         estimate D2E/DX2                !
 ! A21   A(10,9,11)            117.5799         estimate D2E/DX2                !
 ! A22   A(6,10,9)              89.5268         estimate D2E/DX2                !
 ! A23   A(9,11,12)            134.5428         estimate D2E/DX2                !
 ! A24   A(9,11,15)            118.5014         estimate D2E/DX2                !
 ! A25   A(12,11,15)           106.8403         estimate D2E/DX2                !
 ! A26   A(11,12,13)           120.3433         estimate D2E/DX2                !
 ! A27   A(11,12,74)           125.4256         estimate D2E/DX2                !
 ! A28   A(13,12,74)           114.1408         estimate D2E/DX2                !
 ! A29   A(12,13,14)           112.3291         estimate D2E/DX2                !
 ! A30   A(13,14,15)           112.1725         estimate D2E/DX2                !
 ! A31   A(13,14,16)           131.0748         estimate D2E/DX2                !
 ! A32   A(15,14,16)           116.748          estimate D2E/DX2                !
 ! A33   A(11,15,14)            88.2894         estimate D2E/DX2                !
 ! A34   A(14,16,17)           128.5621         estimate D2E/DX2                !
 ! A35   A(14,16,20)           117.5929         estimate D2E/DX2                !
 ! A36   A(17,16,20)           113.7405         estimate D2E/DX2                !
 ! A37   A(16,17,18)           111.4951         estimate D2E/DX2                !
 ! A38   A(17,18,19)           114.2813         estimate D2E/DX2                !
 ! A39   A(17,18,75)           117.7204         estimate D2E/DX2                !
 ! A40   A(19,18,75)           127.9676         estimate D2E/DX2                !
 ! A41   A(18,19,20)           111.4913         estimate D2E/DX2                !
 ! A42   A(18,19,21)           123.1338         estimate D2E/DX2                !
 ! A43   A(20,19,21)           125.1493         estimate D2E/DX2                !
 ! A44   A(16,20,19)            88.7984         estimate D2E/DX2                !
 ! A45   A(19,21,22)           128.7818         estimate D2E/DX2                !
 ! A46   A(19,21,25)           120.0029         estimate D2E/DX2                !
 ! A47   A(22,21,25)           110.8147         estimate D2E/DX2                !
 ! A48   A(21,22,23)           115.8554         estimate D2E/DX2                !
 ! A49   A(21,22,76)           124.1744         estimate D2E/DX2                !
 ! A50   A(23,22,76)           119.3507         estimate D2E/DX2                !
 ! A51   A(22,23,24)           110.964          estimate D2E/DX2                !
 ! A52   A(23,24,25)           113.2607         estimate D2E/DX2                !
 ! A53   A(23,24,26)           122.0437         estimate D2E/DX2                !
 ! A54   A(25,24,26)           124.672          estimate D2E/DX2                !
 ! A55   A(21,25,24)            88.9703         estimate D2E/DX2                !
 ! A56   A(24,26,27)           122.9056         estimate D2E/DX2                !
 ! A57   A(24,26,30)           122.1919         estimate D2E/DX2                !
 ! A58   A(27,26,30)           114.6303         estimate D2E/DX2                !
 ! A59   A(26,27,28)           110.4526         estimate D2E/DX2                !
 ! A60   A(27,28,29)           116.0034         estimate D2E/DX2                !
 ! A61   A(27,28,77)           121.8457         estimate D2E/DX2                !
 ! A62   A(29,28,77)           122.15           estimate D2E/DX2                !
 ! A63   A(28,29,30)           107.7954         estimate D2E/DX2                !
 ! A64   A(28,29,31)           127.5956         estimate D2E/DX2                !
 ! A65   A(30,29,31)           124.3825         estimate D2E/DX2                !
 ! A66   A(26,30,29)            90.7304         estimate D2E/DX2                !
 ! A67   A(29,31,32)           127.6184         estimate D2E/DX2                !
 ! A68   A(29,31,35)           122.4623         estimate D2E/DX2                !
 ! A69   A(32,31,35)           109.9027         estimate D2E/DX2                !
 ! A70   A(31,32,33)           115.7417         estimate D2E/DX2                !
 ! A71   A(31,32,78)           126.7627         estimate D2E/DX2                !
 ! A72   A(33,32,78)           117.4823         estimate D2E/DX2                !
 ! A73   A(32,33,34)           110.8137         estimate D2E/DX2                !
 ! A74   A(33,34,35)           114.6342         estimate D2E/DX2                !
 ! A75   A(33,34,36)           126.7101         estimate D2E/DX2                !
 ! A76   A(35,34,36)           118.6269         estimate D2E/DX2                !
 ! A77   A(31,35,34)            88.8763         estimate D2E/DX2                !
 ! A78   A(34,36,37)           123.2087         estimate D2E/DX2                !
 ! A79   A(34,36,40)           117.0288         estimate D2E/DX2                !
 ! A80   A(37,36,40)           119.7509         estimate D2E/DX2                !
 ! A81   A(36,37,38)           108.8078         estimate D2E/DX2                !
 ! A82   A(37,38,39)           117.3824         estimate D2E/DX2                !
 ! A83   A(37,38,79)           117.7384         estimate D2E/DX2                !
 ! A84   A(39,38,79)           124.8569         estimate D2E/DX2                !
 ! A85   A(38,39,40)           107.3792         estimate D2E/DX2                !
 ! A86   A(38,39,41)           132.1628         estimate D2E/DX2                !
 ! A87   A(40,39,41)           120.3845         estimate D2E/DX2                !
 ! A88   A(36,40,39)            86.6501         estimate D2E/DX2                !
 ! A89   A(39,41,42)           129.3972         estimate D2E/DX2                !
 ! A90   A(39,41,45)           120.3938         estimate D2E/DX2                !
 ! A91   A(42,41,45)           109.8605         estimate D2E/DX2                !
 ! A92   A(41,42,43)           114.3734         estimate D2E/DX2                !
 ! A93   A(41,42,80)           132.1152         estimate D2E/DX2                !
 ! A94   A(43,42,80)           113.5108         estimate D2E/DX2                !
 ! A95   A(42,43,44)           108.7754         estimate D2E/DX2                !
 ! A96   A(43,44,45)           117.5165         estimate D2E/DX2                !
 ! A97   A(43,44,46)           120.8111         estimate D2E/DX2                !
 ! A98   A(45,44,46)           121.602          estimate D2E/DX2                !
 ! A99   A(41,45,44)            89.4603         estimate D2E/DX2                !
 ! A100  A(44,46,47)           123.1516         estimate D2E/DX2                !
 ! A101  A(44,46,50)           126.1838         estimate D2E/DX2                !
 ! A102  A(47,46,50)           110.5607         estimate D2E/DX2                !
 ! A103  A(46,47,48)           114.1727         estimate D2E/DX2                !
 ! A104  A(47,48,49)           114.5622         estimate D2E/DX2                !
 ! A105  A(47,48,81)           119.4452         estimate D2E/DX2                !
 ! A106  A(49,48,81)           125.6949         estimate D2E/DX2                !
 ! A107  A(48,49,50)           108.8749         estimate D2E/DX2                !
 ! A108  A(48,49,51)           127.5925         estimate D2E/DX2                !
 ! A109  A(50,49,51)           123.5283         estimate D2E/DX2                !
 ! A110  A(46,50,49)            91.7308         estimate D2E/DX2                !
 ! A111  A(49,51,52)           127.1733         estimate D2E/DX2                !
 ! A112  A(49,51,55)           122.9996         estimate D2E/DX2                !
 ! A113  A(52,51,55)           109.8101         estimate D2E/DX2                !
 ! A114  A(51,52,53)           116.1447         estimate D2E/DX2                !
 ! A115  A(51,52,82)           127.6065         estimate D2E/DX2                !
 ! A116  A(53,52,82)           116.2253         estimate D2E/DX2                !
 ! A117  A(52,53,54)           106.5808         estimate D2E/DX2                !
 ! A118  A(53,54,55)           117.6022         estimate D2E/DX2                !
 ! A119  A(53,54,56)           119.6917         estimate D2E/DX2                !
 ! A120  A(55,54,56)           122.6836         estimate D2E/DX2                !
 ! A121  A(51,55,54)            89.858          estimate D2E/DX2                !
 ! A122  A(54,56,57)           124.9825         estimate D2E/DX2                !
 ! A123  A(54,56,60)           120.8498         estimate D2E/DX2                !
 ! A124  A(57,56,60)           113.9009         estimate D2E/DX2                !
 ! A125  A(56,57,58)           111.1628         estimate D2E/DX2                !
 ! A126  A(57,58,59)           118.6988         estimate D2E/DX2                !
 ! A127  A(57,58,83)           120.7349         estimate D2E/DX2                !
 ! A128  A(59,58,83)           120.5641         estimate D2E/DX2                !
 ! A129  A(58,59,60)           104.205          estimate D2E/DX2                !
 ! A130  A(58,59,61)           129.3272         estimate D2E/DX2                !
 ! A131  A(60,59,61)           126.3036         estimate D2E/DX2                !
 ! A132  A(56,60,59)            91.8812         estimate D2E/DX2                !
 ! A133  A(59,61,62)           127.0875         estimate D2E/DX2                !
 ! A134  A(59,61,65)           121.6065         estimate D2E/DX2                !
 ! A135  A(62,61,65)           111.2321         estimate D2E/DX2                !
 ! A136  A(61,62,63)           112.2139         estimate D2E/DX2                !
 ! A137  A(61,62,84)           128.7231         estimate D2E/DX2                !
 ! A138  A(63,62,84)           119.038          estimate D2E/DX2                !
 ! A139  A(62,63,64)           115.013          estimate D2E/DX2                !
 ! A140  A(63,64,65)           109.9039         estimate D2E/DX2                !
 ! A141  A(63,64,66)           128.7901         estimate D2E/DX2                !
 ! A142  A(65,64,66)           121.0682         estimate D2E/DX2                !
 ! A143  A(61,65,64)            91.5282         estimate D2E/DX2                !
 ! A144  A(64,66,67)           126.4565         estimate D2E/DX2                !
 ! A145  A(64,66,70)           116.6549         estimate D2E/DX2                !
 ! A146  A(67,66,70)           116.8769         estimate D2E/DX2                !
 ! A147  A(66,67,68)           109.9725         estimate D2E/DX2                !
 ! A148  A(67,68,69)           113.508          estimate D2E/DX2                !
 ! A149  A(67,68,85)           121.5796         estimate D2E/DX2                !
 ! A150  A(69,68,85)           124.1487         estimate D2E/DX2                !
 ! A151  A(68,69,70)           110.9042         estimate D2E/DX2                !
 ! A152  A(68,69,86)           122.9513         estimate D2E/DX2                !
 ! A153  A(70,69,86)           126.1162         estimate D2E/DX2                !
 ! A154  A(66,70,69)            88.2693         estimate D2E/DX2                !
 ! D1    D(5,1,2,3)              5.268          estimate D2E/DX2                !
 ! D2    D(5,1,2,72)           175.2417         estimate D2E/DX2                !
 ! D3    D(71,1,2,3)           179.9744         estimate D2E/DX2                !
 ! D4    D(71,1,2,72)          -10.0519         estimate D2E/DX2                !
 ! D5    D(2,1,5,4)             -2.3433         estimate D2E/DX2                !
 ! D6    D(71,1,5,4)          -177.1849         estimate D2E/DX2                !
 ! D7    D(1,2,3,4)             -5.9118         estimate D2E/DX2                !
 ! D8    D(72,2,3,4)          -175.8374         estimate D2E/DX2                !
 ! D9    D(2,3,4,5)              3.764          estimate D2E/DX2                !
 ! D10   D(2,3,4,6)            178.3841         estimate D2E/DX2                !
 ! D11   D(3,4,5,1)             -0.7453         estimate D2E/DX2                !
 ! D12   D(6,4,5,1)           -175.8465         estimate D2E/DX2                !
 ! D13   D(3,4,6,7)            176.4557         estimate D2E/DX2                !
 ! D14   D(3,4,6,10)             4.6864         estimate D2E/DX2                !
 ! D15   D(5,4,6,7)             -9.079          estimate D2E/DX2                !
 ! D16   D(5,4,6,10)           179.1518         estimate D2E/DX2                !
 ! D17   D(4,6,7,8)           -179.1875         estimate D2E/DX2                !
 ! D18   D(10,6,7,8)            -7.0144         estimate D2E/DX2                !
 ! D19   D(4,6,10,9)           174.9403         estimate D2E/DX2                !
 ! D20   D(7,6,10,9)             2.2565         estimate D2E/DX2                !
 ! D21   D(6,7,8,9)             10.4908         estimate D2E/DX2                !
 ! D22   D(6,7,8,73)           179.5124         estimate D2E/DX2                !
 ! D23   D(7,8,9,10)            -8.6941         estimate D2E/DX2                !
 ! D24   D(7,8,9,11)          -179.8282         estimate D2E/DX2                !
 ! D25   D(73,8,9,10)         -176.9627         estimate D2E/DX2                !
 ! D26   D(73,8,9,11)           11.9031         estimate D2E/DX2                !
 ! D27   D(8,9,10,6)             3.4657         estimate D2E/DX2                !
 ! D28   D(11,9,10,6)          176.2565         estimate D2E/DX2                !
 ! D29   D(8,9,11,12)         -178.3827         estimate D2E/DX2                !
 ! D30   D(8,9,11,15)           -2.8804         estimate D2E/DX2                !
 ! D31   D(10,9,11,12)          11.1313         estimate D2E/DX2                !
 ! D32   D(10,9,11,15)        -173.3664         estimate D2E/DX2                !
 ! D33   D(9,11,12,13)         177.6447         estimate D2E/DX2                !
 ! D34   D(9,11,12,74)          -6.018          estimate D2E/DX2                !
 ! D35   D(15,11,12,13)          1.7737         estimate D2E/DX2                !
 ! D36   D(15,11,12,74)        178.111          estimate D2E/DX2                !
 ! D37   D(9,11,15,14)        -177.9534         estimate D2E/DX2                !
 ! D38   D(12,11,15,14)         -1.3011         estimate D2E/DX2                !
 ! D39   D(11,12,13,14)         -1.31           estimate D2E/DX2                !
 ! D40   D(74,12,13,14)       -178.0398         estimate D2E/DX2                !
 ! D41   D(12,13,14,15)          0.0876         estimate D2E/DX2                !
 ! D42   D(12,13,14,16)       -179.0897         estimate D2E/DX2                !
 ! D43   D(13,14,15,11)          0.7061         estimate D2E/DX2                !
 ! D44   D(16,14,15,11)       -179.9884         estimate D2E/DX2                !
 ! D45   D(13,14,16,17)       -176.6277         estimate D2E/DX2                !
 ! D46   D(13,14,16,20)         -0.6043         estimate D2E/DX2                !
 ! D47   D(15,14,16,17)          4.2255         estimate D2E/DX2                !
 ! D48   D(15,14,16,20)       -179.7512         estimate D2E/DX2                !
 ! D49   D(14,16,17,18)        179.5899         estimate D2E/DX2                !
 ! D50   D(20,16,17,18)          3.4399         estimate D2E/DX2                !
 ! D51   D(14,16,20,19)       -177.5775         estimate D2E/DX2                !
 ! D52   D(17,16,20,19)         -0.9737         estimate D2E/DX2                !
 ! D53   D(16,17,18,19)         -4.8874         estimate D2E/DX2                !
 ! D54   D(16,17,18,75)        176.9656         estimate D2E/DX2                !
 ! D55   D(17,18,19,20)          4.1445         estimate D2E/DX2                !
 ! D56   D(17,18,19,21)        178.9384         estimate D2E/DX2                !
 ! D57   D(75,18,19,20)       -177.9362         estimate D2E/DX2                !
 ! D58   D(75,18,19,21)         -3.1423         estimate D2E/DX2                !
 ! D59   D(18,19,20,16)         -1.7679         estimate D2E/DX2                !
 ! D60   D(21,19,20,16)       -176.4358         estimate D2E/DX2                !
 ! D61   D(18,19,21,22)         20.417          estimate D2E/DX2                !
 ! D62   D(18,19,21,25)       -167.5565         estimate D2E/DX2                !
 ! D63   D(20,19,21,22)       -165.5097         estimate D2E/DX2                !
 ! D64   D(20,19,21,25)          6.5167         estimate D2E/DX2                !
 ! D65   D(19,21,22,23)        176.6643         estimate D2E/DX2                !
 ! D66   D(19,21,22,76)        -12.4477         estimate D2E/DX2                !
 ! D67   D(25,21,22,23)          4.0481         estimate D2E/DX2                !
 ! D68   D(25,21,22,76)        174.9361         estimate D2E/DX2                !
 ! D69   D(19,21,25,24)       -176.5314         estimate D2E/DX2                !
 ! D70   D(22,21,25,24)         -3.1745         estimate D2E/DX2                !
 ! D71   D(21,22,23,24)         -2.7361         estimate D2E/DX2                !
 ! D72   D(76,22,23,24)       -174.0909         estimate D2E/DX2                !
 ! D73   D(22,23,24,25)          0.1199         estimate D2E/DX2                !
 ! D74   D(22,23,24,26)       -178.1866         estimate D2E/DX2                !
 ! D75   D(23,24,25,21)          1.7449         estimate D2E/DX2                !
 ! D76   D(26,24,25,21)        179.9995         estimate D2E/DX2                !
 ! D77   D(23,24,26,27)       -176.4287         estimate D2E/DX2                !
 ! D78   D(23,24,26,30)         -2.746          estimate D2E/DX2                !
 ! D79   D(25,24,26,27)          5.4632         estimate D2E/DX2                !
 ! D80   D(25,24,26,30)        179.1459         estimate D2E/DX2                !
 ! D81   D(24,26,27,28)        178.1585         estimate D2E/DX2                !
 ! D82   D(30,26,27,28)          4.0381         estimate D2E/DX2                !
 ! D83   D(24,26,30,29)       -179.8568         estimate D2E/DX2                !
 ! D84   D(27,26,30,29)         -5.6897         estimate D2E/DX2                !
 ! D85   D(26,27,28,29)          0.4875         estimate D2E/DX2                !
 ! D86   D(26,27,28,77)       -179.1764         estimate D2E/DX2                !
 ! D87   D(27,28,29,30)         -4.5027         estimate D2E/DX2                !
 ! D88   D(27,28,29,31)       -179.1766         estimate D2E/DX2                !
 ! D89   D(77,28,29,30)        175.16           estimate D2E/DX2                !
 ! D90   D(77,28,29,31)          0.4862         estimate D2E/DX2                !
 ! D91   D(28,29,30,26)          5.4608         estimate D2E/DX2                !
 ! D92   D(31,29,30,26)       -179.6521         estimate D2E/DX2                !
 ! D93   D(28,29,31,32)          9.644          estimate D2E/DX2                !
 ! D94   D(28,29,31,35)       -171.9968         estimate D2E/DX2                !
 ! D95   D(30,29,31,32)       -164.2082         estimate D2E/DX2                !
 ! D96   D(30,29,31,35)         14.151          estimate D2E/DX2                !
 ! D97   D(29,31,32,33)        177.4917         estimate D2E/DX2                !
 ! D98   D(29,31,32,78)         -1.1384         estimate D2E/DX2                !
 ! D99   D(35,31,32,33)         -1.0361         estimate D2E/DX2                !
 ! D100  D(35,31,32,78)       -179.6661         estimate D2E/DX2                !
 ! D101  D(29,31,35,34)       -178.5861         estimate D2E/DX2                !
 ! D102  D(32,31,35,34)          0.0317         estimate D2E/DX2                !
 ! D103  D(31,32,33,34)          1.8993         estimate D2E/DX2                !
 ! D104  D(78,32,33,34)       -179.3378         estimate D2E/DX2                !
 ! D105  D(32,33,34,35)         -1.8217         estimate D2E/DX2                !
 ! D106  D(32,33,34,36)       -179.8259         estimate D2E/DX2                !
 ! D107  D(33,34,35,31)          1.1113         estimate D2E/DX2                !
 ! D108  D(36,34,35,31)        179.2886         estimate D2E/DX2                !
 ! D109  D(33,34,36,37)       -177.9558         estimate D2E/DX2                !
 ! D110  D(33,34,36,40)          3.2878         estimate D2E/DX2                !
 ! D111  D(35,34,36,37)          4.111          estimate D2E/DX2                !
 ! D112  D(35,34,36,40)       -174.6453         estimate D2E/DX2                !
 ! D113  D(34,36,37,38)       -178.9272         estimate D2E/DX2                !
 ! D114  D(40,36,37,38)         -0.2033         estimate D2E/DX2                !
 ! D115  D(34,36,40,39)        178.089          estimate D2E/DX2                !
 ! D116  D(37,36,40,39)         -0.7124         estimate D2E/DX2                !
 ! D117  D(36,37,38,39)          1.4372         estimate D2E/DX2                !
 ! D118  D(36,37,38,79)       -176.9282         estimate D2E/DX2                !
 ! D119  D(37,38,39,40)         -1.9008         estimate D2E/DX2                !
 ! D120  D(37,38,39,41)       -178.6954         estimate D2E/DX2                !
 ! D121  D(79,38,39,40)        176.336          estimate D2E/DX2                !
 ! D122  D(79,38,39,41)         -0.4585         estimate D2E/DX2                !
 ! D123  D(38,39,40,36)          1.3646         estimate D2E/DX2                !
 ! D124  D(41,39,40,36)        178.6107         estimate D2E/DX2                !
 ! D125  D(38,39,41,42)       -179.2118         estimate D2E/DX2                !
 ! D126  D(38,39,41,45)         -6.72           estimate D2E/DX2                !
 ! D127  D(40,39,41,42)          4.3348         estimate D2E/DX2                !
 ! D128  D(40,39,41,45)        176.8266         estimate D2E/DX2                !
 ! D129  D(39,41,42,43)        174.396          estimate D2E/DX2                !
 ! D130  D(39,41,42,80)         -5.9109         estimate D2E/DX2                !
 ! D131  D(45,41,42,43)          1.2787         estimate D2E/DX2                !
 ! D132  D(45,41,42,80)       -179.0282         estimate D2E/DX2                !
 ! D133  D(39,41,45,44)       -174.8429         estimate D2E/DX2                !
 ! D134  D(42,41,45,44)         -1.0061         estimate D2E/DX2                !
 ! D135  D(41,42,43,44)         -0.923          estimate D2E/DX2                !
 ! D136  D(80,42,43,44)        179.3253         estimate D2E/DX2                !
 ! D137  D(42,43,44,45)          0.0952         estimate D2E/DX2                !
 ! D138  D(42,43,44,46)        177.0912         estimate D2E/DX2                !
 ! D139  D(43,44,45,41)          0.5155         estimate D2E/DX2                !
 ! D140  D(46,44,45,41)       -176.4552         estimate D2E/DX2                !
 ! D141  D(43,44,46,47)       -178.1712         estimate D2E/DX2                !
 ! D142  D(43,44,46,50)          5.8896         estimate D2E/DX2                !
 ! D143  D(45,44,46,47)         -1.2993         estimate D2E/DX2                !
 ! D144  D(45,44,46,50)       -177.2386         estimate D2E/DX2                !
 ! D145  D(44,46,47,48)       -173.263          estimate D2E/DX2                !
 ! D146  D(50,46,47,48)          3.2372         estimate D2E/DX2                !
 ! D147  D(44,46,50,49)        174.6043         estimate D2E/DX2                !
 ! D148  D(47,46,50,49)         -1.7652         estimate D2E/DX2                !
 ! D149  D(46,47,48,49)         -3.4198         estimate D2E/DX2                !
 ! D150  D(46,47,48,81)       -177.5094         estimate D2E/DX2                !
 ! D151  D(47,48,49,50)          1.9214         estimate D2E/DX2                !
 ! D152  D(47,48,49,51)       -178.8184         estimate D2E/DX2                !
 ! D153  D(81,48,49,50)        175.5822         estimate D2E/DX2                !
 ! D154  D(81,48,49,51)         -5.1577         estimate D2E/DX2                !
 ! D155  D(48,49,50,46)         -0.0555         estimate D2E/DX2                !
 ! D156  D(51,49,50,46)       -179.3522         estimate D2E/DX2                !
 ! D157  D(48,49,51,52)          1.1545         estimate D2E/DX2                !
 ! D158  D(48,49,51,55)        179.4978         estimate D2E/DX2                !
 ! D159  D(50,49,51,52)       -179.6853         estimate D2E/DX2                !
 ! D160  D(50,49,51,55)         -1.3421         estimate D2E/DX2                !
 ! D161  D(49,51,52,53)        178.9907         estimate D2E/DX2                !
 ! D162  D(49,51,52,82)          0.8351         estimate D2E/DX2                !
 ! D163  D(55,51,52,53)          0.4675         estimate D2E/DX2                !
 ! D164  D(55,51,52,82)       -177.6881         estimate D2E/DX2                !
 ! D165  D(49,51,55,54)       -178.6812         estimate D2E/DX2                !
 ! D166  D(52,51,55,54)         -0.0843         estimate D2E/DX2                !
 ! D167  D(51,52,53,54)         -0.7011         estimate D2E/DX2                !
 ! D168  D(82,52,53,54)        177.6702         estimate D2E/DX2                !
 ! D169  D(52,53,54,55)          0.6339         estimate D2E/DX2                !
 ! D170  D(52,53,54,56)        178.9573         estimate D2E/DX2                !
 ! D171  D(53,54,55,51)         -0.3564         estimate D2E/DX2                !
 ! D172  D(56,54,55,51)       -178.626          estimate D2E/DX2                !
 ! D173  D(53,54,56,57)       -176.0109         estimate D2E/DX2                !
 ! D174  D(53,54,56,60)         -2.3159         estimate D2E/DX2                !
 ! D175  D(55,54,56,57)          2.2238         estimate D2E/DX2                !
 ! D176  D(55,54,56,60)        175.9188         estimate D2E/DX2                !
 ! D177  D(54,56,57,58)        178.1622         estimate D2E/DX2                !
 ! D178  D(60,56,57,58)          4.0814         estimate D2E/DX2                !
 ! D179  D(54,56,60,59)       -176.8493         estimate D2E/DX2                !
 ! D180  D(57,56,60,59)         -2.4974         estimate D2E/DX2                !
 ! D181  D(56,57,58,59)         -4.1376         estimate D2E/DX2                !
 ! D182  D(56,57,58,83)        175.3225         estimate D2E/DX2                !
 ! D183  D(57,58,59,60)          2.1684         estimate D2E/DX2                !
 ! D184  D(57,58,59,61)        177.6736         estimate D2E/DX2                !
 ! D185  D(83,58,59,60)       -177.2926         estimate D2E/DX2                !
 ! D186  D(83,58,59,61)         -1.7875         estimate D2E/DX2                !
 ! D187  D(58,59,60,56)          0.1951         estimate D2E/DX2                !
 ! D188  D(61,59,60,56)       -175.4908         estimate D2E/DX2                !
 ! D189  D(58,59,61,62)         -4.6949         estimate D2E/DX2                !
 ! D190  D(58,59,61,65)        171.8956         estimate D2E/DX2                !
 ! D191  D(60,59,61,62)        169.8957         estimate D2E/DX2                !
 ! D192  D(60,59,61,65)        -13.5139         estimate D2E/DX2                !
 ! D193  D(59,61,62,63)        176.7978         estimate D2E/DX2                !
 ! D194  D(59,61,62,84)         -1.3392         estimate D2E/DX2                !
 ! D195  D(65,61,62,63)         -0.0872         estimate D2E/DX2                !
 ! D196  D(65,61,62,84)       -178.2242         estimate D2E/DX2                !
 ! D197  D(59,61,65,64)       -178.6254         estimate D2E/DX2                !
 ! D198  D(62,61,65,64)         -1.5428         estimate D2E/DX2                !
 ! D199  D(61,62,63,64)          2.4878         estimate D2E/DX2                !
 ! D200  D(84,62,63,64)       -179.1746         estimate D2E/DX2                !
 ! D201  D(62,63,64,65)         -3.5471         estimate D2E/DX2                !
 ! D202  D(62,63,64,66)       -177.9043         estimate D2E/DX2                !
 ! D203  D(63,64,65,61)          2.9306         estimate D2E/DX2                !
 ! D204  D(66,64,65,61)        177.7972         estimate D2E/DX2                !
 ! D205  D(63,64,66,67)        175.3091         estimate D2E/DX2                !
 ! D206  D(63,64,66,70)         -3.3985         estimate D2E/DX2                !
 ! D207  D(65,64,66,67)          1.5055         estimate D2E/DX2                !
 ! D208  D(65,64,66,70)       -177.2021         estimate D2E/DX2                !
 ! D209  D(64,66,67,68)        175.0329         estimate D2E/DX2                !
 ! D210  D(70,66,67,68)         -6.2621         estimate D2E/DX2                !
 ! D211  D(64,66,70,69)       -178.4891         estimate D2E/DX2                !
 ! D212  D(67,66,70,69)          2.6762         estimate D2E/DX2                !
 ! D213  D(66,67,68,69)          7.499          estimate D2E/DX2                !
 ! D214  D(66,67,68,85)        177.8807         estimate D2E/DX2                !
 ! D215  D(67,68,69,70)         -5.6386         estimate D2E/DX2                !
 ! D216  D(67,68,69,86)        176.1898         estimate D2E/DX2                !
 ! D217  D(85,68,69,70)       -175.7347         estimate D2E/DX2                !
 ! D218  D(85,68,69,86)          6.0937         estimate D2E/DX2                !
 ! D219  D(68,69,70,66)          1.7725         estimate D2E/DX2                !
 ! D220  D(86,69,70,66)        179.8732         estimate D2E/DX2                !
 --------------------------------------------------------------------------------
 Trust Radius=3.00D-01 FncErr=1.00D-07 GrdErr=1.00D-06 EigMax=2.50D+02 EigMin=1.00D-04
 Number of steps in this run=    483 maximum allowed number of steps=    516.
 GradGradGradGradGradGradGradGradGradGradGradGradGradGradGradGradGradGrad

 Leave Link  103 at Sat Jul 25 12:49:09 2020, MaxMem=  4026531840 cpu:               0.1 elap:               0.0
 (Enter /opt/ohpc/pub/libs/gaussian/g16-A.03/sandybridge/g16/l202.exe)
 Stoichiometry    C42H16N14S14
 Framework group  C1[X(C42H16N14S14)]
 Deg. of freedom   252
 Full point group                 C1      NOp   1
 Largest Abelian subgroup         C1      NOp   1
 Largest concise Abelian subgroup C1      NOp   1
                         Standard orientation:                         
 ---------------------------------------------------------------------
 Center     Atomic      Atomic             Coordinates (Angstroms)
 Number     Number       Type             X           Y           Z
 ---------------------------------------------------------------------
      1          6           0       25.827632    0.068726   -0.153708
      2          6           0       25.122548    1.289861    0.050570
      3          7           0       23.764333    1.235041    0.075087
      4          6           0       23.352227   -0.007003   -0.237244
      5         16           0       24.633276   -1.172465   -0.470466
      6          6           0       22.013018   -0.465609   -0.285493
      7          7           0       21.630987   -1.650162   -0.651548
      8          6           0       20.249206   -1.715862   -0.584747
      9          6           0       19.568799   -0.592273   -0.394655
     10         16           0       20.698261    0.664274   -0.034809
     11          6           0       18.153622   -0.281064   -0.271588
     12          6           0       17.467017    0.820703   -0.110667
     13          7           0       16.127399    0.785032   -0.077235
     14          6           0       15.657230   -0.426205   -0.247335
     15         16           0       16.952787   -1.624643   -0.464145
     16          6           0       14.350368   -0.900713   -0.298280
     17          7           0       13.922139   -2.174892   -0.415420
     18          6           0       12.527836   -2.247497   -0.421500
     19          6           0       11.887730   -1.025110   -0.199670
     20         16           0       13.032099    0.284033   -0.090184
     21          6           0       10.414760   -0.873045   -0.188511
     22          6           0        9.478249   -1.808235   -0.005336
     23          7           0        8.195714   -1.364115    0.023324
     24          6           0        8.147779   -0.022509   -0.085627
     25         16           0        9.707233    0.706394   -0.229174
     26          6           0        6.912522    0.699066   -0.043851
     27          7           0        6.836307    2.053627   -0.223615
     28          6           0        5.537685    2.468850   -0.173647
     29          6           0        4.563187    1.450658    0.057549
     30         16           0        5.395213   -0.092499    0.078654
     31          6           0        3.139043    1.604502    0.139699
     32          6           0        2.404566    2.709240   -0.160810
     33          7           0        0.969970    2.562893   -0.037699
     34          6           0        0.670203    1.406309    0.376073
     35         16           0        2.084216    0.305454    0.628445
     36          6           0       -0.676778    0.885579    0.619989
     37          7           0       -0.900238   -0.277620    1.072495
     38          6           0       -2.264391   -0.465197    1.163301
     39          6           0       -3.071908    0.562006    0.744431
     40         16           0       -1.996554    1.919067    0.232652
     41          6           0       -4.533813    0.721133    0.719081
     42          6           0       -5.253329    1.728913    0.290808
     43          7           0       -6.658282    1.494389    0.300914
     44          6           0       -6.872840    0.315369    0.721016
     45         16           0       -5.561312   -0.598980    1.129098
     46          6           0       -8.229665   -0.177635    0.895934
     47          7           0       -8.508548   -1.392981    1.366753
     48          6           0       -9.799597   -1.711751    1.321626
     49          6           0      -10.612700   -0.716760    0.872708
     50         16           0       -9.655203    0.633287    0.456786
     51          6           0      -12.054865   -0.748665    0.733565
     52          6           0      -12.891428   -1.781405    1.047233
     53          7           0      -14.323536   -1.542997    0.829062
     54          6           0      -14.435255   -0.303664    0.369269
     55         16           0      -12.980888    0.605198    0.155270
     56          6           0      -15.772083    0.233898    0.026355
     57          7           0      -15.993667    1.404392   -0.500182
     58          6           0      -17.292529    1.589977   -0.730668
     59          6           0      -18.170687    0.542801   -0.480995
     60         16           0      -17.151886   -0.729114    0.157714
     61          6           0      -19.610197    0.505496   -0.604047
     62          6           0      -20.413720    1.516573   -0.908597
     63          7           0      -21.771302    1.110521   -1.015556
     64          6           0      -21.989417   -0.125354   -0.755266
     65         16           0      -20.479053   -0.942017   -0.441078
     66          6           0      -23.224463   -0.850130   -0.810760
     67          7           0      -23.379947   -2.121622   -0.619153
     68          6           0      -24.723763   -2.441640   -0.643231
     69          6           0      -25.548849   -1.369826   -1.028376
     70         16           0      -24.643219    0.061568   -1.203758
     71          1           0       26.878062   -0.066322   -0.200251
     72          1           0       25.656867    2.200195    0.343263
     73          1           0       19.758779   -2.709006   -0.889950
     74          1           0       17.895259    1.819767    0.063232
     75          1           0       12.088358   -3.191704   -0.557679
     76          1           0        9.676596   -2.906380   -0.024915
     77          1           0        5.267347    3.497698   -0.305938
     78          1           0        2.785564    3.675244   -0.501154
     79          1           0       -2.612652   -1.384433    1.577448
     80          1           0       -4.975045    2.740852   -0.077492
     81          1           0      -10.131323   -2.676222    1.725346
     82          1           0      -12.644753   -2.672310    1.432046
     83          1           0      -17.675569    2.582948   -1.113322
     84          1           0      -20.177074    2.472826   -1.086740
     85          1           0      -25.060197   -3.448192   -0.537438
     86          1           0      -26.686772   -1.473498   -1.164706
 ---------------------------------------------------------------------
 Rotational constants (GHZ):           0.2340844           0.0018677           0.0018584
 Leave Link  202 at Sat Jul 25 12:49:09 2020, MaxMem=  4026531840 cpu:               0.2 elap:               0.1
 (Enter /opt/ohpc/pub/libs/gaussian/g16-A.03/sandybridge/g16/l301.exe)
 Standard basis: CC-pVDZ (5D, 7F)
 Ernie: Thresh=  0.10000D-02 Tol=  0.10000D-05 Strict=F.
 Ernie:  252 primitive shells out of 2012 were deleted.
 There are  1186 symmetry adapted cartesian basis functions of A   symmetry.
 There are  1116 symmetry adapted basis functions of A   symmetry.
  1116 basis functions,  2954 primitive gaussians,  1186 cartesian basis functions
   295 alpha electrons      295 beta electrons
       nuclear repulsion energy     10378.2511182535 Hartrees.
 IExCor=32609 DFT=T Ex+Corr=LC-wPBE ExCW=0 ScaHFX=  1.000000
 ScaDFX=  1.000000  0.000000  1.000000  1.000000 ScalE2=  1.000000  1.000000
 IRadAn=      5 IRanWt=     -1 IRanGd=            0 ICorTp=0 IEmpDi=  4
 HFx  wShort=  0.000000 wLong=  0.414500 cFull=  0.000000 cShort=  0.000000 cLong=  1.000000
 DFx  wShort=  0.000000 wLong=  0.414500 cFull=  0.000000 cShort=  0.000000 cLong=  1.000000
 NAtoms=   86 NActive=   86 NUniq=   86 SFac= 1.00D+00 NAtFMM=   60 NAOKFM=T Big=T
 Integral buffers will be    131072 words long.
 Raffenetti 2 integral format.
 Two-electron integral symmetry is turned on.
 Leave Link  301 at Sat Jul 25 12:49:09 2020, MaxMem=  4026531840 cpu:               0.6 elap:               0.1
 (Enter /opt/ohpc/pub/libs/gaussian/g16-A.03/sandybridge/g16/l302.exe)
 NPDir=0 NMtPBC=     1 NCelOv=     1 NCel=       1 NClECP=     1 NCelD=      1
         NCelK=      1 NCelE2=     1 NClLst=     1 CellRange=     0.0.
 One-electron integrals computed using PRISM.
 One-electron integral symmetry used in STVInt
 NBasis=  1116 RedAO= T EigKep=  3.61D-04  NBF=  1116
 NBsUse=  1116 1.00D-06 EigRej= -1.00D+00 NBFU=  1116
 Precomputing XC quadrature grid using
 IXCGrd= 4 IRadAn=           5 IRanWt=          -1 IRanGd=           0 AccXCQ= 0.00D+00.
 Generated NRdTot=       0 NPtTot=           0 NUsed=           0 NTot=          32
 NSgBfM=   515   515   515   515   515 MxSgAt=    86 MxSgA2=    59.
 Leave Link  302 at Sat Jul 25 12:49:14 2020, MaxMem=  4026531840 cpu:              32.9 elap:               4.2
 (Enter /opt/ohpc/pub/libs/gaussian/g16-A.03/sandybridge/g16/l303.exe)
 DipDrv:  MaxL=1.
 Leave Link  303 at Sat Jul 25 12:49:14 2020, MaxMem=  4026531840 cpu:               2.0 elap:               0.3
 (Enter /opt/ohpc/pub/libs/gaussian/g16-A.03/sandybridge/g16/l401.exe)
 ExpMin= 1.22D-01 ExpMax= 1.11D+05 ExpMxC= 1.07D+03 IAcc=3 IRadAn=         5 AccDes= 0.00D+00
 Harris functional with IExCor=32609 and IRadAn=       5 diagonalized for initial guess.
 HarFok:  IExCor=32609 AccDes= 0.00D+00 IRadAn=         5 IDoV= 1 UseB2=F ITyADJ=14
 ICtDFT=  3500011 ScaDFX=  1.000000  1.000000  1.000000  1.000000
 FoFCou: FMM=F IPFlag=           0 FMFlag=      100000 FMFlg1=        2001
         NFxFlg=           0 DoJE=T BraDBF=F KetDBF=T FulRan=T
         wScrn=  0.000000 ICntrl=       500 IOpCl=  0 I1Cent=   200000004 NGrid=           0
         NMat0=    1 NMatS0=      1 NMatT0=    0 NMatD0=    1 NMtDS0=    0 NMtDT0=    0
 Petite list used in FoFCou.
 Harris En= -7946.70610618898    
 JPrj=0 DoOrth=F DoCkMO=F.
 Initial guess <Sx>= 0.0000 <Sy>= 0.0000 <Sz>= 0.0000 <S**2>=-0.0000 S=-0.0000
 Leave Link  401 at Sat Jul 25 12:49:24 2020, MaxMem=  4026531840 cpu:              80.3 elap:              10.2
 (Enter /opt/ohpc/pub/libs/gaussian/g16-A.03/sandybridge/g16/l502.exe)
 Integral symmetry usage will be decided dynamically.
 UHF open shell SCF:
 Using DIIS extrapolation, IDIIS=  1040.
 NGot=  4026531840 LenX=  4023697766 LenY=  4022289984
 Requested convergence on RMS density matrix=1.00D-08 within 128 cycles.
 Requested convergence on MAX density matrix=1.00D-06.
 Requested convergence on             energy=1.00D-06.
 No special actions if energy rises.
 Fock matrices will be formed incrementally for  20 cycles.
 Integral accuracy reduced to 1.0D-05 until final iterations.

 Cycle   1  Pass 0  IDiag  1:
 FoFJK:  IHMeth= 1 ICntrl=       0 DoSepK=T KAlg= 0 I1Cent=           0 FoldK=F
 IRaf=         1 NMat=       1 IRICut=       1 DoRegI=T DoRafI=F ISym2E= 0 IDoP0=0 IntGTp=1.
 FoFCou: FMM=T IPFlag=           0 FMFlag=      100000 FMFlg1=        2001
         NFxFlg=           0 DoJE=T BraDBF=F KetDBF=F FulRan=T
         wScrn=  0.000000 ICntrl=       500 IOpCl=  0 I1Cent=           0 NGrid=           0
         NMat0=    1 NMatS0=      1 NMatT0=    0 NMatD0=    1 NMtDS0=    0 NMtDT0=    0
 Symmetry not used in FoFCou.
 FMM levels:  10  Number of levels for PrismC:   9
 E= -7946.30999019276    
 DIIS: error= 1.99D-02 at cycle   1 NSaved=   1.
 NSaved= 1 IEnMin= 1 EnMin= -7946.30999019276     IErMin= 1 ErrMin= 1.99D-02
 ErrMax= 1.99D-02  0.00D+00 EMaxC= 1.00D-01 BMatC= 5.57D+00 BMatP= 5.57D+00
 IDIUse=3 WtCom= 8.01D-01 WtEn= 1.99D-01
 Coeff-Com:  0.100D+01
 Coeff-En:   0.100D+01
 Coeff:      0.100D+01
 Gap=     0.185 Goal=   None    Shift=    0.000
 Gap=     0.185 Goal=   None    Shift=    0.000
 GapD=    0.185 DampG=1.000 DampE=0.500 DampFc=0.5000 IDamp=-1.
 Damping current iteration by 5.00D-01
 RMSDP=2.30D-03 MaxDP=1.37D-01              OVMax= 2.59D-01

 Cycle   2  Pass 0  IDiag  1:
 RMSU=  1.15D-03    CP:  9.93D-01
 E= -7947.11280323048     Delta-E=       -0.802813037721 Rises=F Damp=T
 DIIS: error= 3.56D-03 at cycle   2 NSaved=   2.
 NSaved= 2 IEnMin= 2 EnMin= -7947.11280323048     IErMin= 2 ErrMin= 3.56D-03
 ErrMax= 3.56D-03  0.00D+00 EMaxC= 1.00D-01 BMatC= 2.24D-01 BMatP= 5.57D+00
 IDIUse=3 WtCom= 9.64D-01 WtEn= 3.56D-02
 Coeff-Com: -0.178D-01 0.102D+01
 Coeff-En:   0.000D+00 0.100D+01
 Coeff:     -0.171D-01 0.102D+01
 Gap=     0.234 Goal=   None    Shift=    0.000
 Gap=     0.234 Goal=   None    Shift=    0.000
 RMSDP=5.62D-04 MaxDP=2.19D-02 DE=-8.03D-01 OVMax= 1.09D-01

 Cycle   3  Pass 0  IDiag  1:
 RMSU=  5.47D-04    CP:  9.87D-01  1.09D+00
 E= -7947.92015160308     Delta-E=       -0.807348372600 Rises=F Damp=F
 DIIS: error= 2.63D-03 at cycle   3 NSaved=   3.
 NSaved= 3 IEnMin= 3 EnMin= -7947.92015160308     IErMin= 3 ErrMin= 2.63D-03
 ErrMax= 2.63D-03  0.00D+00 EMaxC= 1.00D-01 BMatC= 7.44D-02 BMatP= 2.24D-01
 IDIUse=3 WtCom= 9.74D-01 WtEn= 2.63D-02
 Coeff-Com: -0.194D-01 0.313D+00 0.706D+00
 Coeff-En:   0.000D+00 0.000D+00 0.100D+01
 Coeff:     -0.189D-01 0.305D+00 0.714D+00
 Gap=     0.244 Goal=   None    Shift=    0.000
 Gap=     0.244 Goal=   None    Shift=    0.000
 RMSDP=1.46D-04 MaxDP=1.20D-02 DE=-8.07D-01 OVMax= 2.06D-02

 Cycle   4  Pass 0  IDiag  1:
 RMSU=  1.46D-04    CP:  9.87D-01  1.10D+00  1.01D+00
 E= -7947.93824393331     Delta-E=       -0.018092330229 Rises=F Damp=F
 DIIS: error= 1.49D-03 at cycle   4 NSaved=   4.
 NSaved= 4 IEnMin= 4 EnMin= -7947.93824393331     IErMin= 4 ErrMin= 1.49D-03
 ErrMax= 1.49D-03  0.00D+00 EMaxC= 1.00D-01 BMatC= 1.76D-02 BMatP= 7.44D-02
 IDIUse=3 WtCom= 9.85D-01 WtEn= 1.49D-02
 Coeff-Com:  0.416D-02-0.605D-01 0.289D+00 0.767D+00
 Coeff-En:   0.000D+00 0.000D+00 0.000D+00 0.100D+01
 Coeff:      0.409D-02-0.596D-01 0.285D+00 0.771D+00
 Gap=     0.250 Goal=   None    Shift=    0.000
 Gap=     0.250 Goal=   None    Shift=    0.000
 RMSDP=8.48D-05 MaxDP=5.23D-03 DE=-1.81D-02 OVMax= 1.28D-02

 Cycle   5  Pass 0  IDiag  1:
 RMSU=  6.59D-05    CP:  9.86D-01  1.10D+00  1.10D+00  9.51D-01
 E= -7947.94464673123     Delta-E=       -0.006402797921 Rises=F Damp=F
 DIIS: error= 4.15D-04 at cycle   5 NSaved=   5.
 NSaved= 5 IEnMin= 5 EnMin= -7947.94464673123     IErMin= 5 ErrMin= 4.15D-04
 ErrMax= 4.15D-04  0.00D+00 EMaxC= 1.00D-01 BMatC= 1.28D-03 BMatP= 1.76D-02
 IDIUse=3 WtCom= 9.96D-01 WtEn= 4.15D-03
 Coeff-Com:  0.602D-02-0.448D-01-0.255D-01 0.130D+00 0.934D+00
 Coeff-En:   0.000D+00 0.000D+00 0.000D+00 0.000D+00 0.100D+01
 Coeff:      0.600D-02-0.446D-01-0.254D-01 0.129D+00 0.935D+00
 Gap=     0.252 Goal=   None    Shift=    0.000
 Gap=     0.252 Goal=   None    Shift=    0.000
 RMSDP=3.89D-05 MaxDP=2.26D-03 DE=-6.40D-03 OVMax= 6.80D-03

 Cycle   6  Pass 0  IDiag  1:
 RMSU=  2.33D-05    CP:  9.86D-01  1.10D+00  1.13D+00  1.09D+00  1.23D+00
 E= -7947.94560916298     Delta-E=       -0.000962431754 Rises=F Damp=F
 DIIS: error= 3.40D-04 at cycle   6 NSaved=   6.
 NSaved= 6 IEnMin= 6 EnMin= -7947.94560916298     IErMin= 6 ErrMin= 3.40D-04
 ErrMax= 3.40D-04  0.00D+00 EMaxC= 1.00D-01 BMatC= 4.01D-04 BMatP= 1.28D-03
 IDIUse=3 WtCom= 9.97D-01 WtEn= 3.40D-03
 Coeff-Com:  0.298D-02-0.123D-01-0.548D-01-0.633D-01 0.379D+00 0.748D+00
 Coeff-En:   0.000D+00 0.000D+00 0.000D+00 0.000D+00 0.000D+00 0.100D+01
 Coeff:      0.297D-02-0.122D-01-0.546D-01-0.631D-01 0.378D+00 0.749D+00
 Gap=     0.253 Goal=   None    Shift=    0.000
 Gap=     0.253 Goal=   None    Shift=    0.000
 RMSDP=1.88D-05 MaxDP=1.07D-03 DE=-9.62D-04 OVMax= 4.03D-03

 Cycle   7  Pass 0  IDiag  1:
 RMSU=  1.34D-05    CP:  9.86D-01  1.09D+00  1.14D+00  1.13D+00  1.38D+00
                    CP:  1.15D+00
 E= -7947.94586138766     Delta-E=       -0.000252224676 Rises=F Damp=F
 DIIS: error= 1.01D-04 at cycle   7 NSaved=   7.
 NSaved= 7 IEnMin= 7 EnMin= -7947.94586138766     IErMin= 7 ErrMin= 1.01D-04
 ErrMax= 1.01D-04  0.00D+00 EMaxC= 1.00D-01 BMatC= 8.24D-05 BMatP= 4.01D-04
 IDIUse=3 WtCom= 9.99D-01 WtEn= 1.01D-03
 Coeff-Com: -0.118D-03 0.656D-02-0.731D-02-0.510D-01-0.156D+00 0.246D+00
 Coeff-Com:  0.962D+00
 Coeff-En:   0.000D+00 0.000D+00 0.000D+00 0.000D+00 0.000D+00 0.000D+00
 Coeff-En:   0.100D+01
 Coeff:     -0.118D-03 0.656D-02-0.730D-02-0.510D-01-0.156D+00 0.246D+00
 Coeff:      0.962D+00
 Gap=     0.254 Goal=   None    Shift=    0.000
 Gap=     0.254 Goal=   None    Shift=    0.000
 RMSDP=1.37D-05 MaxDP=6.75D-04 DE=-2.52D-04 OVMax= 2.39D-03

 Cycle   8  Pass 0  IDiag  1:
 RMSU=  7.08D-06    CP:  9.86D-01  1.09D+00  1.15D+00  1.15D+00  1.47D+00
                    CP:  1.50D+00  1.27D+00
 E= -7947.94592808108     Delta-E=       -0.000066693421 Rises=F Damp=F
 DIIS: error= 5.29D-05 at cycle   8 NSaved=   8.
 NSaved= 8 IEnMin= 8 EnMin= -7947.94592808108     IErMin= 8 ErrMin= 5.29D-05
 ErrMax= 5.29D-05  0.00D+00 EMaxC= 1.00D-01 BMatC= 1.08D-05 BMatP= 8.24D-05
 IDIUse=1 WtCom= 1.00D+00 WtEn= 0.00D+00
 Coeff-Com: -0.267D-03 0.326D-02 0.498D-02-0.671D-02-0.945D-01-0.195D-01
 Coeff-Com:  0.288D+00 0.825D+00
 Coeff:     -0.267D-03 0.326D-02 0.498D-02-0.671D-02-0.945D-01-0.195D-01
 Coeff:      0.288D+00 0.825D+00
 Gap=     0.254 Goal=   None    Shift=    0.000
 Gap=     0.254 Goal=   None    Shift=    0.000
 RMSDP=6.78D-06 MaxDP=2.11D-04 DE=-6.67D-05 OVMax= 7.48D-04

 Initial convergence to 1.0D-05 achieved.  Increase integral accuracy.
 Cycle   9  Pass 1  IDiag  1:
 E= -7947.94516054128     Delta-E=        0.000767539801 Rises=F Damp=F
 DIIS: error= 2.07D-04 at cycle   1 NSaved=   1.
 NSaved= 1 IEnMin= 1 EnMin= -7947.94516054128     IErMin= 1 ErrMin= 2.07D-04
 ErrMax= 2.07D-04  0.00D+00 EMaxC= 1.00D-01 BMatC= 8.77D-05 BMatP= 8.77D-05
 IDIUse=3 WtCom= 9.98D-01 WtEn= 2.07D-03
 Coeff-Com:  0.100D+01
 Coeff-En:   0.100D+01
 Coeff:      0.100D+01
 Gap=     0.254 Goal=   None    Shift=    0.000
 Gap=     0.254 Goal=   None    Shift=    0.000
 RMSDP=6.78D-06 MaxDP=2.11D-04 DE= 7.68D-04 OVMax= 3.13D-04

 Cycle  10  Pass 1  IDiag  1:
 RMSU=  5.86D-05    CP:  1.00D+00
 E= -7947.94517712440     Delta-E=       -0.000016583122 Rises=F Damp=F
 DIIS: error= 1.83D-05 at cycle   2 NSaved=   2.
 NSaved= 2 IEnMin= 2 EnMin= -7947.94517712440     IErMin= 2 ErrMin= 1.83D-05
 ErrMax= 1.83D-05  0.00D+00 EMaxC= 1.00D-01 BMatC= 2.20D-06 BMatP= 8.77D-05
 IDIUse=1 WtCom= 1.00D+00 WtEn= 0.00D+00
 Coeff-Com:  0.768D-02 0.992D+00
 Coeff:      0.768D-02 0.992D+00
 Gap=     0.254 Goal=   None    Shift=    0.000
 Gap=     0.254 Goal=   None    Shift=    0.000
 RMSDP=3.05D-06 MaxDP=1.70D-04 DE=-1.66D-05 OVMax= 2.04D-04

 Cycle  11  Pass 1  IDiag  1:
 RMSU=  1.75D-06    CP:  1.00D+00  1.04D+00
 E= -7947.94517720865     Delta-E=       -0.000000084245 Rises=F Damp=F
 DIIS: error= 1.56D-05 at cycle   3 NSaved=   3.
 NSaved= 3 IEnMin= 3 EnMin= -7947.94517720865     IErMin= 3 ErrMin= 1.56D-05
 ErrMax= 1.56D-05  0.00D+00 EMaxC= 1.00D-01 BMatC= 3.08D-06 BMatP= 2.20D-06
 IDIUse=1 WtCom= 1.00D+00 WtEn= 0.00D+00
 Coeff-Com: -0.205D-01 0.554D+00 0.466D+00
 Coeff:     -0.205D-01 0.554D+00 0.466D+00
 Gap=     0.254 Goal=   None    Shift=    0.000
 Gap=     0.254 Goal=   None    Shift=    0.000
 RMSDP=7.78D-07 MaxDP=6.85D-05 DE=-8.42D-08 OVMax= 1.12D-04

 Cycle  12  Pass 1  IDiag  1:
 RMSU=  6.07D-07    CP:  1.00D+00  1.05D+00  7.32D-01
 E= -7947.94517789677     Delta-E=       -0.000000688127 Rises=F Damp=F
 DIIS: error= 4.30D-06 at cycle   4 NSaved=   4.
 NSaved= 4 IEnMin= 4 EnMin= -7947.94517789677     IErMin= 4 ErrMin= 4.30D-06
 ErrMax= 4.30D-06  0.00D+00 EMaxC= 1.00D-01 BMatC= 4.30D-08 BMatP= 2.20D-06
 IDIUse=1 WtCom= 1.00D+00 WtEn= 0.00D+00
 Coeff-Com: -0.402D-02 0.618D-01 0.755D-01 0.867D+00
 Coeff:     -0.402D-02 0.618D-01 0.755D-01 0.867D+00
 Gap=     0.254 Goal=   None    Shift=    0.000
 Gap=     0.254 Goal=   None    Shift=    0.000
 RMSDP=2.16D-07 MaxDP=1.65D-05 DE=-6.88D-07 OVMax= 4.43D-05

 Cycle  13  Pass 1  IDiag  1:
 RMSU=  1.66D-07    CP:  1.00D+00  1.05D+00  7.91D-01  1.13D+00
 E= -7947.94517789333     Delta-E=        0.000000003442 Rises=F Damp=F
 DIIS: error= 1.74D-06 at cycle   5 NSaved=   5.
 NSaved= 5 IEnMin= 4 EnMin= -7947.94517789677     IErMin= 5 ErrMin= 1.74D-06
 ErrMax= 1.74D-06  0.00D+00 EMaxC= 1.00D-01 BMatC= 1.89D-08 BMatP= 4.30D-08
 IDIUse=1 WtCom= 1.00D+00 WtEn= 0.00D+00
 Coeff-Com:  0.674D-02-0.200D+00-0.167D+00 0.339D+00 0.102D+01
 Coeff:      0.674D-02-0.200D+00-0.167D+00 0.339D+00 0.102D+01
 Gap=     0.254 Goal=   None    Shift=    0.000
 Gap=     0.254 Goal=   None    Shift=    0.000
 RMSDP=2.00D-07 MaxDP=1.40D-05 DE= 3.44D-09 OVMax= 4.05D-05

 Cycle  14  Pass 1  IDiag  1:
 RMSU=  1.10D-07    CP:  1.00D+00  1.05D+00  8.24D-01  1.32D+00  1.63D+00
[...]
              Bcc     0.0000     0.000     0.000     0.000 -0.0555  0.4360  0.8982
 
              Baa    -0.0000    -0.000    -0.000    -0.000  0.0092  0.1766  0.9842
    28 C(13)  Bbb    -0.0000    -0.000    -0.000    -0.000  0.9903  0.1349 -0.0334
              Bcc     0.0000     0.000     0.000     0.000 -0.1387  0.9750 -0.1737
 
              Baa    -0.0000    -0.000    -0.000    -0.000  0.3729  0.8569 -0.3559
    29 C(13)  Bbb    -0.0000    -0.000    -0.000    -0.000 -0.1435  0.4322  0.8903
              Bcc     0.0000     0.000     0.000     0.000  0.9167 -0.2809  0.2841
 
              Baa    -0.0000    -0.000    -0.000    -0.000  0.4696  0.8825  0.0274
    30 S(33)  Bbb    -0.0000    -0.000    -0.000    -0.000 -0.3099  0.1357  0.9410
              Bcc     0.0000     0.000     0.000     0.000  0.8267 -0.4504  0.3372
 
              Baa    -0.0000    -0.000    -0.000    -0.000  0.1561 -0.1993  0.9674
    31 C(13)  Bbb    -0.0000    -0.000    -0.000    -0.000 -0.0157  0.9788  0.2041
              Bcc     0.0000     0.000     0.000     0.000  0.9876  0.0471 -0.1497
 
              Baa    -0.0000    -0.000    -0.000    -0.000 -0.0262  0.7114  0.7023
    32 C(13)  Bbb     0.0000     0.000     0.000     0.000  0.0830 -0.6985  0.7108
              Bcc     0.0000     0.000     0.000     0.000  0.9962  0.0769 -0.0407
 
              Baa    -0.0000    -0.000    -0.000    -0.000 -0.1434 -0.6143  0.7760
    33 N(14)  Bbb     0.0000     0.000     0.000     0.000  0.9884 -0.1279  0.0814
              Bcc     0.0000     0.000     0.000     0.000  0.0493  0.7787  0.6255
 
              Baa    -0.0000    -0.000    -0.000    -0.000 -0.1451  0.9201  0.3637
    34 C(13)  Bbb    -0.0000    -0.000    -0.000    -0.000  0.9691  0.0581  0.2398
              Bcc     0.0000     0.000     0.000     0.000 -0.1995 -0.3873  0.9001
 
              Baa    -0.0000    -0.000    -0.000    -0.000  0.1272  0.9917 -0.0208
    35 S(33)  Bbb    -0.0000    -0.000    -0.000    -0.000  0.9417 -0.1141  0.3166
              Bcc     0.0000     0.000     0.000     0.000 -0.3116  0.0599  0.9483
 
              Baa    -0.0000    -0.000    -0.000    -0.000  0.9617 -0.1721 -0.2134
    36 C(13)  Bbb     0.0000     0.000     0.000     0.000  0.2571  0.8364  0.4840
              Bcc     0.0000     0.000     0.000     0.000  0.0952 -0.5203  0.8486
 
              Baa    -0.0000    -0.000    -0.000    -0.000  0.8671  0.0097  0.4981
    37 N(14)  Bbb     0.0000     0.000     0.000     0.000 -0.1825  0.9364  0.2996
              Bcc     0.0000     0.000     0.000     0.000 -0.4636 -0.3507  0.8137
 
              Baa    -0.0000    -0.000    -0.000    -0.000  0.0233  0.9037  0.4274
    38 C(13)  Bbb     0.0000     0.000     0.000     0.000 -0.4021 -0.3830  0.8317
              Bcc     0.0000     0.000     0.000     0.000  0.9153 -0.1912  0.3544
 
              Baa    -0.0000    -0.000    -0.000    -0.000  0.4970 -0.0931  0.8627
    39 C(13)  Bbb     0.0000     0.000     0.000     0.000 -0.2745  0.9263  0.2581
              Bcc     0.0000     0.000     0.000     0.000  0.8232  0.3651 -0.4348
 
              Baa    -0.0000    -0.000    -0.000    -0.000 -0.3909  0.9162 -0.0878
    40 S(33)  Bbb    -0.0000    -0.000    -0.000    -0.000  0.1367  0.1521  0.9789
              Bcc     0.0000     0.000     0.000     0.000  0.9102  0.3707 -0.1847
 
              Baa    -0.0000    -0.000    -0.000    -0.000  0.7188 -0.0959  0.6886
    41 C(13)  Bbb     0.0000     0.000     0.000     0.000 -0.6935 -0.1673  0.7007
              Bcc     0.0000     0.000     0.000     0.000 -0.0480  0.9812  0.1868
 
              Baa    -0.0000    -0.000    -0.000    -0.000 -0.4887  0.7467  0.4511
    42 C(13)  Bbb     0.0000     0.000     0.000     0.000  0.8556  0.5114  0.0804
              Bcc     0.0000     0.000     0.000     0.000  0.1707 -0.4253  0.8888
 
              Baa    -0.0000    -0.000    -0.000    -0.000  0.8903 -0.3359  0.3076
    43 N(14)  Bbb     0.0000     0.000     0.000     0.000  0.0100  0.6897  0.7240
              Bcc     0.0000     0.000     0.000     0.000  0.4554  0.6414 -0.6174
 
              Baa    -0.0000    -0.000    -0.000    -0.000  0.9585  0.1260 -0.2556
    44 C(13)  Bbb    -0.0000    -0.000    -0.000    -0.000 -0.1723  0.9707 -0.1677
              Bcc     0.0000     0.000     0.000     0.000  0.2270  0.2048  0.9521
 
              Baa    -0.0000    -0.000    -0.000    -0.000  0.6695 -0.5988 -0.4396
    45 S(33)  Bbb    -0.0000    -0.000    -0.000    -0.000  0.3439  0.7744 -0.5310
              Bcc     0.0000     0.000     0.000     0.000  0.6584  0.2043  0.7244
 
              Baa    -0.0000    -0.000    -0.000    -0.000  0.2948  0.5059  0.8107
    46 C(13)  Bbb    -0.0000    -0.000    -0.000    -0.000  0.9421 -0.2959 -0.1580
              Bcc     0.0000     0.000     0.000     0.000  0.1599  0.8103 -0.5638
 
              Baa    -0.0000    -0.000    -0.000    -0.000  0.9995 -0.0182  0.0259
    47 N(14)  Bbb    -0.0000    -0.000    -0.000    -0.000  0.0292  0.8453 -0.5335
              Bcc     0.0000     0.000     0.000     0.000 -0.0122  0.5340  0.8454
 
              Baa    -0.0000    -0.000    -0.000    -0.000 -0.1672  0.8200  0.5474
    48 C(13)  Bbb    -0.0000    -0.000    -0.000    -0.000  0.8515 -0.1597  0.4994
              Bcc     0.0000     0.000     0.000     0.000 -0.4970 -0.5496  0.6715
 
              Baa    -0.0000    -0.000    -0.000    -0.000  0.7322 -0.4596  0.5026
    49 C(13)  Bbb    -0.0000    -0.000    -0.000    -0.000  0.6795  0.5428 -0.4936
              Bcc     0.0000     0.000     0.000     0.000 -0.0460  0.7030  0.7097
 
              Baa    -0.0000    -0.000    -0.000    -0.000  0.8829  0.0768  0.4632
    50 S(33)  Bbb     0.0000     0.000     0.000     0.000 -0.3589 -0.5256  0.7713
              Bcc     0.0000     0.000     0.000     0.000 -0.3027  0.8472  0.4365
 
              Baa    -0.0000    -0.000    -0.000    -0.000 -0.0114  0.1213  0.9925
    51 C(13)  Bbb    -0.0000    -0.000    -0.000    -0.000 -0.5351  0.8378 -0.1086
              Bcc     0.0000     0.000     0.000     0.000  0.8447  0.5324 -0.0554
 
              Baa    -0.0000    -0.000    -0.000    -0.000  0.0002  0.1242  0.9923
    52 C(13)  Bbb     0.0000     0.000     0.000     0.000  0.7285 -0.6797  0.0849
              Bcc     0.0000     0.000     0.000     0.000  0.6850  0.7229 -0.0906
 
              Baa    -0.0000    -0.000    -0.000    -0.000  0.0379  0.9951 -0.0916
    53 N(14)  Bbb     0.0000     0.000     0.000     0.000  0.1213  0.0864  0.9889
              Bcc     0.0000     0.000     0.000     0.000  0.9919 -0.0486 -0.1174
 
              Baa    -0.0000    -0.000    -0.000    -0.000 -0.0602  0.9976  0.0327
    54 C(13)  Bbb    -0.0000    -0.000    -0.000    -0.000 -0.0557 -0.0361  0.9978
              Bcc     0.0000     0.000     0.000     0.000  0.9966  0.0583  0.0577
 
              Baa    -0.0000    -0.000    -0.000    -0.000  0.8842 -0.1604  0.4387
    55 S(33)  Bbb    -0.0000    -0.000    -0.000    -0.000 -0.4196  0.1399  0.8969
              Bcc     0.0000     0.000     0.000     0.000  0.2053  0.9771 -0.0564
 
              Baa    -0.0000    -0.000    -0.000    -0.000  0.1979  0.9735 -0.1143
    56 C(13)  Bbb     0.0000     0.000     0.000     0.000 -0.1529  0.1459  0.9774
              Bcc     0.0000     0.000     0.000     0.000  0.9682 -0.1760  0.1777
 
              Baa    -0.0000    -0.000    -0.000    -0.000 -0.0394  0.9975 -0.0578
    57 N(14)  Bbb     0.0000     0.000     0.000     0.000  0.9927  0.0457  0.1118
              Bcc     0.0000     0.000     0.000     0.000 -0.1141  0.0530  0.9921
 
              Baa    -0.0000    -0.000    -0.000    -0.000  0.7383  0.6666 -0.1023
    58 C(13)  Bbb    -0.0000    -0.000    -0.000    -0.000 -0.6715  0.7407 -0.0198
              Bcc     0.0000     0.000     0.000     0.000  0.0626  0.0833  0.9946
 
              Baa    -0.0000    -0.000    -0.000    -0.000  0.0386  0.2609  0.9646
    59 C(13)  Bbb    -0.0000    -0.000    -0.000    -0.000  0.4299  0.8671 -0.2517
              Bcc     0.0000     0.000     0.000     0.000  0.9021 -0.4244  0.0786
 
              Baa    -0.0000    -0.000    -0.000    -0.000 -0.0661  0.1345  0.9887
    60 S(33)  Bbb    -0.0000    -0.000    -0.000    -0.000 -0.5817  0.7999 -0.1477
              Bcc     0.0000     0.000     0.000     0.000  0.8107  0.5848 -0.0254
 
              Baa    -0.0000    -0.000    -0.000    -0.000 -0.0792 -0.5027  0.8608
    61 C(13)  Bbb     0.0000     0.000     0.000     0.000  0.0435  0.8610  0.5068
              Bcc     0.0000     0.000     0.000     0.000  0.9959 -0.0776  0.0463
 
              Baa    -0.0000    -0.000    -0.000    -0.000  0.4757  0.3660  0.7999
    62 C(13)  Bbb    -0.0000    -0.000    -0.000    -0.000  0.8654 -0.3574 -0.3511
              Bcc     0.0000     0.000     0.000     0.000  0.1573  0.8593 -0.4868
 
              Baa    -0.0000    -0.000    -0.000    -0.000 -0.1749 -0.1503  0.9731
    63 N(14)  Bbb    -0.0000    -0.000    -0.000    -0.000  0.7369 -0.6754  0.0281
              Bcc     0.0000     0.000     0.000     0.000  0.6530  0.7220  0.2288
 
              Baa    -0.0000    -0.000    -0.000    -0.000  0.9975 -0.0447  0.0554
    64 C(13)  Bbb    -0.0000    -0.000    -0.000    -0.000 -0.0712 -0.6182  0.7828
              Bcc     0.0000     0.000     0.000     0.000  0.0007  0.7848  0.6198
 
              Baa    -0.0000    -0.000    -0.000    -0.000  0.3978 -0.2270  0.8890
    65 S(33)  Bbb    -0.0000    -0.000    -0.000    -0.000  0.8650  0.4157 -0.2809
              Bcc     0.0000     0.000     0.000     0.000 -0.3058  0.8807  0.3617
 
              Baa    -0.0000    -0.000    -0.000    -0.000  0.9909  0.0214 -0.1331
    66 C(13)  Bbb     0.0000     0.000     0.000     0.000  0.1136 -0.6638  0.7392
              Bcc     0.0000     0.000     0.000     0.000  0.0725  0.7476  0.6602
 
              Baa    -0.0000    -0.000    -0.000    -0.000 -0.2292  0.9727  0.0358
    67 N(14)  Bbb    -0.0000    -0.000    -0.000    -0.000 -0.0962 -0.0592  0.9936
              Bcc     0.0000     0.000     0.000     0.000  0.9686  0.2243  0.1071
 
              Baa    -0.0000    -0.000    -0.000    -0.000 -0.0348  0.8124 -0.5821
    68 C(13)  Bbb    -0.0000    -0.000    -0.000    -0.000 -0.1148  0.5753  0.8098
              Bcc     0.0000     0.000     0.000     0.000  0.9928  0.0950  0.0732
 
              Baa    -0.0000    -0.000    -0.000    -0.000  0.9697  0.2059  0.1315
    69 C(13)  Bbb     0.0000     0.000     0.000     0.000 -0.2390  0.9109  0.3363
              Bcc     0.0000     0.000     0.000     0.000 -0.0505 -0.3575  0.9325
 
              Baa    -0.0000    -0.000    -0.000    -0.000  0.9447  0.2365  0.2270
    70 S(33)  Bbb    -0.0000    -0.000    -0.000    -0.000 -0.1068 -0.4325  0.8953
              Bcc     0.0000     0.000     0.000     0.000 -0.3099  0.8701  0.3833
 
              Baa    -0.0000    -0.000    -0.000    -0.000  0.1491  0.7681 -0.6228
    71 H(1)   Bbb    -0.0000    -0.000    -0.000    -0.000  0.2048  0.5922  0.7794
              Bcc     0.0000     0.000     0.000     0.000  0.9674 -0.2437 -0.0690
 
              Baa    -0.0000    -0.000    -0.000    -0.000  0.8685  0.4746 -0.1428
    72 H(1)   Bbb    -0.0000    -0.000    -0.000    -0.000  0.3515 -0.3869  0.8525
              Bcc     0.0000     0.000     0.000     0.000 -0.3494  0.7906  0.5029
 
              Baa    -0.0000    -0.000    -0.000    -0.000  0.8105 -0.5636 -0.1595
    73 H(1)   Bbb    -0.0000    -0.000    -0.000    -0.000 -0.2401 -0.5681  0.7872
              Bcc     0.0000     0.000     0.000     0.000  0.5343  0.5997  0.5957
 
              Baa    -0.0000    -0.000    -0.000    -0.000  0.9234 -0.3815 -0.0430
    74 H(1)   Bbb    -0.0000    -0.000    -0.000    -0.000 -0.0191 -0.1573  0.9874
              Bcc     0.0000     0.000     0.000     0.000  0.3834  0.9109  0.1525
 
              Baa    -0.0000    -0.000    -0.000    -0.000  0.8826  0.4530  0.1255
    75 H(1)   Bbb     0.0000     0.000     0.000     0.000 -0.4620  0.8852  0.0545
              Bcc     0.0000     0.000     0.000     0.000 -0.0864 -0.1061  0.9906
 
              Baa    -0.0000    -0.000    -0.000    -0.000  0.7723  0.4292 -0.4684
    76 H(1)   Bbb     0.0000     0.000     0.000     0.000  0.4473  0.1563  0.8806
              Bcc     0.0000     0.000     0.000     0.000 -0.4512  0.8896  0.0713
 
              Baa    -0.0000    -0.000    -0.000    -0.000 -0.3711  0.9118 -0.1755
    77 H(1)   Bbb     0.0000     0.000     0.000     0.000 -0.0593  0.1654  0.9844
              Bcc     0.0000     0.000     0.000     0.000  0.9267  0.3757 -0.0073
 
              Baa    -0.0000    -0.000    -0.000    -0.000  0.6343  0.7719 -0.0426
    78 H(1)   Bbb    -0.0000    -0.000    -0.000    -0.000  0.7607 -0.6331 -0.1436
              Bcc     0.0000     0.000     0.000     0.000  0.1378 -0.0587  0.9887
 
              Baa    -0.0000    -0.000    -0.000    -0.000  0.9846 -0.1703  0.0402
    79 H(1)   Bbb     0.0000     0.000     0.000     0.000 -0.0398  0.0059  0.9992
              Bcc     0.0000     0.000     0.000     0.000  0.1704  0.9854  0.0010
 
              Baa    -0.0000    -0.000    -0.000    -0.000  0.3512  0.9095 -0.2225
    80 H(1)   Bbb    -0.0000    -0.000    -0.000    -0.000  0.2431  0.1409  0.9597
              Bcc     0.0000     0.000     0.000     0.000  0.9042 -0.3911 -0.1716
 
              Baa    -0.0000    -0.000    -0.000    -0.000 -0.1084  0.8861  0.4506
    81 H(1)   Bbb    -0.0000    -0.000    -0.000    -0.000  0.9910  0.1324 -0.0219
              Bcc     0.0000     0.000     0.000     0.000  0.0791 -0.4442  0.8924
 
              Baa    -0.0000    -0.000    -0.000    -0.000  0.9014  0.3817 -0.2044
    82 H(1)   Bbb    -0.0000    -0.000    -0.000    -0.000  0.1635  0.1370  0.9770
              Bcc     0.0000     0.000     0.000     0.000 -0.4009  0.9141 -0.0611
 
              Baa    -0.0000    -0.000    -0.000    -0.000 -0.3614  0.9314 -0.0432
    83 H(1)   Bbb    -0.0000    -0.000    -0.000    -0.000  0.9237  0.3513 -0.1530
              Bcc     0.0000     0.000     0.000     0.000  0.1274  0.0952  0.9873
 
              Baa    -0.0000    -0.000    -0.000    -0.000 -0.0730  0.9321  0.3547
    84 H(1)   Bbb    -0.0000    -0.000    -0.000    -0.000  0.9767  0.1388 -0.1639
              Bcc     0.0000     0.000     0.000     0.000  0.2020 -0.3345  0.9205
 
              Baa    -0.0000    -0.000    -0.000    -0.000  0.0685 -0.4606  0.8849
    85 H(1)   Bbb     0.0000     0.000     0.000     0.000 -0.0295  0.8857  0.4633
              Bcc     0.0000     0.000     0.000     0.000  0.9972  0.0579 -0.0471
 
              Baa    -0.0000    -0.000    -0.000    -0.000  0.9093  0.3810  0.1675
    86 H(1)   Bbb     0.0000     0.000     0.000     0.000  0.0246 -0.4509  0.8922
              Bcc     0.0000     0.000     0.000     0.000 -0.4155  0.8072  0.4193
 

 ---------------------------------------------------------------------------------

 No NMR shielding tensors so no spin-rotation constants.
 Leave Link  601 at Sat Jul 25 20:45:09 2020, MaxMem=  4026531840 cpu:              14.4 elap:               1.9
 (Enter /opt/ohpc/pub/libs/gaussian/g16-A.03/sandybridge/g16/l9999.exe)

 Test job not archived.
 1\1\GINC-SKYLAKE005\FOpt\ULC-wPBE\CC-pVDZ\C42H16N14S14\RDU230\25-Jul-2
 020\0\\#P uLC-wPBE/cc-pVDZ iop(3/107=0414500000, 3/108=0414500000) opt
 \\H16 C42 S14 N14\\0,1\C,25.598276121,1.1619460789,1.1251596327\C,24.7
 924910387,2.0822554881,1.7177798489\N,23.4509711708,1.8918363196,1.538
 2907997\C,23.2431758715,0.834664668,0.8148110818\S,24.6553627854,-0.00
 33374737,0.3007520922\C,21.9112353814,0.3639134518,0.4471846166\N,21.6
 907183599,-0.6893602976,-0.2773655377\C,20.3513208292,-0.8680485182,-0
 .4546699886\C,19.5393186567,0.0549315664,0.1410005595\S,20.5084732599,
 1.2096572418,0.9770735682\C,18.085112869,0.1311972552,0.1227677566\C,1
 7.2856876933,1.2191651172,0.3340133759\N,15.943700459,1.0003280337,0.2
 474018051\C,15.7087681013,-0.2450678825,-0.0306010059\S,17.0991068408,
 -1.2460181118,-0.1955018769\C,14.3685357222,-0.7962306315,-0.196190866
 5\N,14.133354334,-2.0410541788,-0.4787082302\C,12.7917372231,-2.256574
 9669,-0.579899932\C,11.9937597226,-1.1693253023,-0.3632204679\S,12.978
 6904322,0.2026508493,-0.0184432636\C,10.5364581057,-1.1233086193,-0.38
 30883798\C,9.6704472229,-2.0852739083,0.0536327116\N,8.3452299921,-1.8
 08978413,-0.1013282564\C,8.1902888649,-0.6399383313,-0.6432785529\S,9.
 6411462455,0.205403762,-1.0185837393\C,6.8871649735,-0.0505433721,-0.9
 312400092\N,6.7315094326,1.1194486722,-1.4709031471\C,5.4059009426,1.4
 033888633,-1.6076438872\C,4.5405678232,0.4376411537,-1.1780998815\S,5.
 4368368644,-0.8997843453,-0.5624491804\C,3.0836521443,0.4680551283,-1.
 2301672517\C,2.3000710588,1.0027398395,-2.2131174699\N,0.9548346156,0.
 9257312085,-2.010915722\C,0.7028649391,0.3281519289,-0.8865767675\S,2.
 0796008182,-0.1724109908,0.0158772361\C,-0.6458092503,0.0800240171,-0.
 3896194558\N,-0.8990513954,-0.5156208681,0.734968675\C,-2.2444508584,-
 0.5964232326,0.9332441716\C,-3.0280356859,-0.0594761955,-0.0490977346\
 S,-2.0222117288,0.5762689974,-1.2958861308\C,-4.4811033822,0.011308790
 2,-0.1146452641\C,-5.260670389,0.8741634393,-0.8322905931\N,-6.6070209
 692,0.7160697757,-0.6970658038\C,-6.8649602866,-0.2586151994,0.1196792
 41\S,-5.4923274191,-1.0638810603,0.7751850865\C,-8.2155832839,-0.67537
 79692,0.4796361974\N,-8.471613038,-1.6476626827,1.3005082916\C,-9.8177
 200945,-1.797917208,1.4485938443\C,-10.5978206299,-0.9394842321,0.7270
 194851\S,-9.5891278444,0.1198579801,-0.1847050139\C,-12.0544994951,-0.
 896199524,0.6775513879\C,-12.916874694,-1.9549609084,0.7111921828\N,-1
 4.2432762608,-1.6447395381,0.6779492836\C,-14.4024503372,-0.3585715326
 ,0.6088998432\S,-12.9547006894,0.5714302452,0.5935463775\C,-15.7067668
 238,0.2922579027,0.5485866471\N,-15.8636804568,1.5785610477,0.47674420
 93\C,-17.1892205032,1.8898581216,0.4233788246\C,-18.0536628083,0.83291
 96141,0.4652292989\S,-17.1560709321,-0.6347065961,0.5713703966\C,-19.5
 110817094,0.8794656486,0.451465449\C,-20.3160620822,1.8070220179,1.048
 4945115\N,-21.6563748321,1.6414167031,0.863820422\C,-21.8835990076,0.5
 895767262,0.1387699313\S,-20.4871429255,-0.2695915823,-0.3847505178\C,
 -23.2190560168,0.1308316108,-0.2325400139\N,-23.4347464662,-0.92367937
 65,-0.9573521227\C,-24.7775710105,-1.1023119816,-1.1394081867\C,-25.57
 63831762,-0.1754577659,-0.5475966493\S,-24.6247974438,0.9807937676,0.2
 79628422\H,26.6839561362,1.1146147484,1.1340139436\H,25.1377254682,2.9
 310992699,2.30537961\H,19.9990046759,-1.706667971,-1.0543033363\H,17.6
 510491647,2.2223693471,0.5503284981\H,12.4235768085,-3.247955138,-0.83
 89741867\H,9.9746177742,-3.0208444307,0.5201462577\H,5.1006249858,2.36
 28624255,-2.0219898178\H,2.6823921266,1.4546976998,-3.1269146582\H,-2.
 6238171295,-1.060810483,1.8427568088\H,-4.877319597,1.6637076288,-1.47
 76270117\H,-10.2035779956,-2.5571974528,2.1268560409\H,-12.6086257335,
 -2.998729924,0.7431180102\H,-17.4948413293,2.9309945899,0.3338262528\H
 ,-19.9548509661,2.6329344963,1.6592481661\H,-25.1290263974,-1.94765454
 89,-1.7283621549\H,-26.6615869806,-0.1185884921,-0.5585027867\\Version
 =EM64L-G16RevA.03\State=1-A\HF=-7948.0889207\S2=0.\S2-1=0.\S2A=0.\RMSD
 =1.631e-09\RMSF=8.026e-07\Dipole=-0.0013737,0.0213001,0.0018217\Quadru
 pole=88.4643232,-41.2079336,-47.2563896,6.7394312,5.6005155,-0.3809127
 \PG=C01 [X(C42H16N14S14)]\\@


 SOME THINGS ARE EASY, THEY ARE ONLY HARD TO DO.
            -- A. EINSTEIN TO J. O. HIRSCHFELDER
 THE ONLY TROUBLE WITH A SURE THING IS THE UNCERTAINTY.
     -- FROM A TEABAG (BELONGING TO W.H.?)
 Job cpu time:       2 days 14 hours  6 minutes 58.2 seconds.
 Elapsed time:       0 days  7 hours 55 minutes 55.8 seconds.
 File lengths (MBytes):  RWF=   1412 Int=      0 D2E=      0 Chk=    128 Scr=      8
 Normal termination of Gaussian 16 at Sat Jul 25 20:45:09 2020.
