 Entering Gaussian System, Link 0=g16
 Input=mols_66_3_08_n-n-c-cOC_opt_0.gjf
 Output=mols_66_3_08_n-n-c-cOC_opt_0.log
 Initial command:
 /opt/ohpc/pub/libs/gaussian/g16-A.03/sandybridge/g16/l1.exe "/mnt/gpfs2_4m/scratch/rdu230/ondemand/projects/dihedral_energies/7trial/wtuning/redos_512cycles/redo999cycles/mols_66_3_08_n-n-c-cOC/Gau-415954.inp" -scrdir="/mnt/gpfs2_4m/scratch/rdu230/ondemand/projects/dihedral_energies/7trial/wtuning/redos_512cycles/redo999cycles/mols_66_3_08_n-n-c-cOC/"
 Entering Link 1 = /opt/ohpc/pub/libs/gaussian/g16-A.03/sandybridge/g16/l1.exe PID=    415956.
  
 Copyright (c) 1988,1990,1992,1993,1995,1998,2003,2009,2016,
            Gaussian, Inc.  All Rights Reserved.
  
 This is part of the Gaussian(R) 16 program.  It is based on
 the Gaussian(R) 09 system (copyright 2009, Gaussian, Inc.),
 the Gaussian(R) 03 system (copyright 2003, Gaussian, Inc.),
 the Gaussian(R) 98 system (copyright 1998, Gaussian, Inc.),
 the Gaussian(R) 94 system (copyright 1995, Gaussian, Inc.),
 the Gaussian 92(TM) system (copyright 1992, Gaussian, Inc.),
 the Gaussian 90(TM) system (copyright 1990, Gaussian, Inc.),
 the Gaussian 88(TM) system (copyright 1988, Gaussian, Inc.),
 the Gaussian 86(TM) system (copyright 1986, Carnegie Mellon
 University), and the Gaussian 82(TM) system (copyright 1983,
 Carnegie Mellon University). Gaussian is a federally registered
 trademark of Gaussian, Inc.
  
 This software contains proprietary and confidential information,
 including trade secrets, belonging to Gaussian, Inc.
  
 This software is provided under written license and may be
 used, copied, transmitted, or stored only in accord with that
 written license.
  
 The following legend is applicable only to US Government
 contracts under FAR:
  
                    RESTRICTED RIGHTS LEGEND
  
 Use, reproduction and disclosure by the US Government is
 subject to restrictions as set forth in subparagraphs (a)
 and (c) of the Commercial Computer Software - Restricted
 Rights clause in FAR 52.227-19.
  
 Gaussian, Inc.
 340 Quinnipiac St., Bldg. 40, Wallingford CT 06492
  
  
 ---------------------------------------------------------------
 Warning -- This program may not be used in any manner that
 competes with the business of Gaussian, Inc. or will provide
 assistance to any competitor of Gaussian, Inc.  The licensee
 of this program is prohibited from giving any competitor of
 Gaussian, Inc. access to this program.  By using this program,
 the user acknowledges that Gaussian, Inc. is engaged in the
 business of creating and licensing software in the field of
 computational chemistry and represents and warrants to the
 licensee that it is not a competitor of Gaussian, Inc. and that
 it will not use this program in any manner prohibited above.
 ---------------------------------------------------------------
  

 Cite this work as:
 Gaussian 16, Revision A.03,
 M. J. Frisch, G. W. Trucks, H. B. Schlegel, G. E. Scuseria, 
 M. A. Robb, J. R. Cheeseman, G. Scalmani, V. Barone, 
 G. A. Petersson, H. Nakatsuji, X. Li, M. Caricato, A. V. Marenich, 
 J. Bloino, B. G. Janesko, R. Gomperts, B. Mennucci, H. P. Hratchian, 
 J. V. Ortiz, A. F. Izmaylov, J. L. Sonnenberg, D. Williams-Young, 
 F. Ding, F. Lipparini, F. Egidi, J. Goings, B. Peng, A. Petrone, 
 T. Henderson, D. Ranasinghe, V. G. Zakrzewski, J. Gao, N. Rega, 
 G. Zheng, W. Liang, M. Hada, M. Ehara, K. Toyota, R. Fukuda, 
 J. Hasegawa, M. Ishida, T. Nakajima, Y. Honda, O. Kitao, H. Nakai, 
 T. Vreven, K. Throssell, J. A. Montgomery, Jr., J. E. Peralta, 
 F. Ogliaro, M. J. Bearpark, J. J. Heyd, E. N. Brothers, K. N. Kudin, 
 V. N. Staroverov, T. A. Keith, R. Kobayashi, J. Normand, 
 K. Raghavachari, A. P. Rendell, J. C. Burant, S. S. Iyengar, 
 J. Tomasi, M. Cossi, J. M. Millam, M. Klene, C. Adamo, R. Cammi, 
 J. W. Ochterski, R. L. Martin, K. Morokuma, O. Farkas, 
 J. B. Foresman, and D. J. Fox, Gaussian, Inc., Wallingford CT, 2016.
 
 ******************************************
 Gaussian 16:  EM64L-G16RevA.03 25-Dec-2016
                27-Jul-2020 
 ******************************************
 %mem=30GB
 %nproc=8
 Will use up to    8 processors via shared memory.
 ---------------------------------------------------------------
 #P uLC-wPBE/cc-pVDZ iop(3/107=0474600000, 3/108=0474600000) opt
 ---------------------------------------------------------------
 1/18=20,19=15,26=3,38=1/1,3;
 2/9=110,12=2,17=6,18=5,40=1/2;
 3/5=16,11=2,25=1,30=1,71=1,74=-41,107=474600000,108=474600000,116=2/1,2,3;
 4//1;
 5/5=2,38=5/2;
 6/7=2,8=2,9=2,10=2,28=1/1;
 7//1,2,3,16;
 1/18=20,19=15,26=3/3(2);
 2/9=110/2;
 99//99;
 2/9=110/2;
 3/5=16,11=2,25=1,30=1,71=1,74=-41,107=474600000,108=474600000,116=2/1,2,3;
 4/5=5,16=3,69=1/1;
 5/5=2,38=5/2;
 7//1,2,3,16;
 1/18=20,19=15,26=3/3(-5);
 2/9=110/2;
 6/7=2,8=2,9=2,10=2,19=2,28=1/1;
 99/9=1/99;
 Leave Link    1 at Mon Jul 27 11:15:49 2020, MaxMem=  4026531840 cpu:               1.5 elap:               0.2
 (Enter /opt/ohpc/pub/libs/gaussian/g16-A.03/sandybridge/g16/l101.exe)
 -------------
 H26 C33 N6 O3
 -------------
 Symbolic Z-matrix:
 Charge =  0 Multiplicity = 1
 C                     12.18035  -0.83835  -0.14382 
 C                     11.57323   0.19323  -0.8807 
 C                     10.22363   0.37499  -0.90881 
 C                     9.3683   -0.4818   -0.12624 
 N                     9.93191  -1.43093   0.6257 
 C                     11.30604  -1.55002   0.62733 
 C                     7.95456  -0.3501   -0.0793 
 N                     7.30343  -1.42089  -0.76007 
 C                     5.97132  -1.33332  -0.80086 
 C                     5.13031  -0.34479  -0.18259 
 C                     5.86004   0.72657   0.49428 
 C                     7.28018   0.67308   0.53994 
 O                     8.09095   1.63733   1.08952 
 C                     7.43117   2.65128   1.90754 
 C                     3.69062  -0.37271  -0.20592 
 C                     3.02859  -0.43978  -1.4733 
 C                     1.58078  -0.43625  -1.42198 
 C                     0.89477  -0.30283  -0.26065 
 N                     1.5761   -0.28363   0.98459 
 C                     2.93609  -0.30056   0.95392 
 C                    -0.49865  -0.26949  -0.14323 
 N                    -1.14634  -1.43681   0.13595 
 C                    -2.5193   -1.40645   0.18214 
 C                    -3.35223  -0.31916   0.00205 
 C                    -2.60267   0.87909  -0.32688 
 C                    -1.24364   0.94828  -0.42818 
 O                    -0.54822   2.01507  -0.72992 
 C                    -1.17616   3.30521  -0.46071 
 C                    -4.74956  -0.34645   0.10367 
 C                    -5.43597   0.42656   0.95629 
 C                    -6.88137   0.42078   1.01448 
 C                    -7.50357  -0.54556   0.21223 
 N                    -6.91315  -1.37599  -0.57986 
 C                    -5.47256  -1.30988  -0.64161 
 C                    -8.9711   -0.72277   0.30196 
 N                    -9.43093  -1.89633   0.66512 
 C                    -10.75756  -2.09938   0.77848 
 C                    -11.75811  -1.08668   0.42904 
 C                    -11.29956   0.11887   0.02654 
 C                    -9.8936    0.34045  -0.01008 
 O                    -9.3318    1.50482  -0.424 
 C                    -10.18498   2.54124  -0.92947 
 H                     13.24251  -0.9254   -0.0872 
 H                     12.22355   0.75356  -1.56931 
 H                     9.74103   1.06725  -1.5194 
 H                     11.64541  -2.36187   1.3294 
 H                     5.43734  -2.12562  -1.27714 
 H                     5.27784   1.53994   0.88791 
 H                     6.78101   3.29492   1.32907 
 H                     8.20087   3.22351   2.37943 
 H                     6.79352   2.16956   2.72394 
 H                     3.58027  -0.4446   -2.41298 
 H                     1.06155  -0.411    -2.40449 
 H                     3.38172  -0.24476   1.93821 
 H                    -2.90165  -2.38051   0.42496 
 H                    -3.29234   1.75963  -0.49245 
 H                    -1.56974   3.40278   0.52623 
 H                    -1.98086   3.42736  -1.28861 
 H                    -0.40677   4.05535  -0.59446 
 H                    -4.96549   1.22139   1.59997 
 H                    -7.40808   1.0707    1.66751 
 H                    -5.05101  -2.03927  -1.35595 
 H                    -11.12121  -3.08851   1.02083 
 H                    -12.74937  -1.28605   0.50311 
 H                    -11.9554   0.91214  -0.23983 
 H                    -10.758    2.19502  -1.84747 
 H                    -10.84826   2.87886  -0.21854 
 H                    -9.55365   3.41783  -1.3078 
 
 ITRead=  0  0  0  0  0  0  0  0  0  0  0  0  0  0  0  0  0  0  0  0
 ITRead=  0  0  0  0  0  0  0  0  0  0  0  0  0  0  0  0  0  0  0  0
 ITRead=  0  0  0  0  0  0  0  0  0  0  0  0  0  0  0  0  0  0  0  0
 ITRead=  0  0  0  0  0  0  0  0
 MicOpt= -1 -1 -1 -1 -1 -1 -1 -1 -1 -1 -1 -1 -1 -1 -1 -1 -1 -1 -1 -1
 MicOpt= -1 -1 -1 -1 -1 -1 -1 -1 -1 -1 -1 -1 -1 -1 -1 -1 -1 -1 -1 -1
 MicOpt= -1 -1 -1 -1 -1 -1 -1 -1 -1 -1 -1 -1 -1 -1 -1 -1 -1 -1 -1 -1
 MicOpt= -1 -1 -1 -1 -1 -1 -1 -1
 NAtoms=     68 NQM=       68 NQMF=       0 NMMI=      0 NMMIF=      0
                NMic=       0 NMicF=      0.
                    Isotopes and Nuclear Properties:
 (Nuclear quadrupole moments (NQMom) in fm**2, nuclear magnetic moments (NMagM)
  in nuclear magnetons)

  Atom         1           2           3           4           5           6           7           8           9          10
 IAtWgt=          12          12          12          12          14          12          12          14          12          12
 AtmWgt=  12.0000000  12.0000000  12.0000000  12.0000000  14.0030740  12.0000000  12.0000000  14.0030740  12.0000000  12.0000000
 NucSpn=           0           0           0           0           2           0           0           2           0           0
 AtZEff=  -0.0000000  -0.0000000  -0.0000000  -0.0000000  -0.0000000  -0.0000000  -0.0000000  -0.0000000  -0.0000000  -0.0000000
 NQMom=    0.0000000   0.0000000   0.0000000   0.0000000   2.0440000   0.0000000   0.0000000   2.0440000   0.0000000   0.0000000
 NMagM=    0.0000000   0.0000000   0.0000000   0.0000000   0.4037610   0.0000000   0.0000000   0.4037610   0.0000000   0.0000000
 AtZNuc=   6.0000000   6.0000000   6.0000000   6.0000000   7.0000000   6.0000000   6.0000000   7.0000000   6.0000000   6.0000000

  Atom        11          12          13          14          15          16          17          18          19          20
 IAtWgt=          12          12          16          12          12          12          12          12          14          12
 AtmWgt=  12.0000000  12.0000000  15.9949146  12.0000000  12.0000000  12.0000000  12.0000000  12.0000000  14.0030740  12.0000000
 NucSpn=           0           0           0           0           0           0           0           0           2           0
 AtZEff=  -0.0000000  -0.0000000  -0.0000000  -0.0000000  -0.0000000  -0.0000000  -0.0000000  -0.0000000  -0.0000000  -0.0000000
 NQMom=    0.0000000   0.0000000   0.0000000   0.0000000   0.0000000   0.0000000   0.0000000   0.0000000   2.0440000   0.0000000
 NMagM=    0.0000000   0.0000000   0.0000000   0.0000000   0.0000000   0.0000000   0.0000000   0.0000000   0.4037610   0.0000000
 AtZNuc=   6.0000000   6.0000000   8.0000000   6.0000000   6.0000000   6.0000000   6.0000000   6.0000000   7.0000000   6.0000000

  Atom        21          22          23          24          25          26          27          28          29          30
 IAtWgt=          12          14          12          12          12          12          16          12          12          12
 AtmWgt=  12.0000000  14.0030740  12.0000000  12.0000000  12.0000000  12.0000000  15.9949146  12.0000000  12.0000000  12.0000000
 NucSpn=           0           2           0           0           0           0           0           0           0           0
 AtZEff=  -0.0000000  -0.0000000  -0.0000000  -0.0000000  -0.0000000  -0.0000000  -0.0000000  -0.0000000  -0.0000000  -0.0000000
 NQMom=    0.0000000   2.0440000   0.0000000   0.0000000   0.0000000   0.0000000   0.0000000   0.0000000   0.0000000   0.0000000
 NMagM=    0.0000000   0.4037610   0.0000000   0.0000000   0.0000000   0.0000000   0.0000000   0.0000000   0.0000000   0.0000000
 AtZNuc=   6.0000000   7.0000000   6.0000000   6.0000000   6.0000000   6.0000000   8.0000000   6.0000000   6.0000000   6.0000000

  Atom        31          32          33          34          35          36          37          38          39          40
 IAtWgt=          12          12          14          12          12          14          12          12          12          12
 AtmWgt=  12.0000000  12.0000000  14.0030740  12.0000000  12.0000000  14.0030740  12.0000000  12.0000000  12.0000000  12.0000000
 NucSpn=           0           0           2           0           0           2           0           0           0           0
 AtZEff=  -0.0000000  -0.0000000  -0.0000000  -0.0000000  -0.0000000  -0.0000000  -0.0000000  -0.0000000  -0.0000000  -0.0000000
 NQMom=    0.0000000   0.0000000   2.0440000   0.0000000   0.0000000   2.0440000   0.0000000   0.0000000   0.0000000   0.0000000
 NMagM=    0.0000000   0.0000000   0.4037610   0.0000000   0.0000000   0.4037610   0.0000000   0.0000000   0.0000000   0.0000000
 AtZNuc=   6.0000000   6.0000000   7.0000000   6.0000000   6.0000000   7.0000000   6.0000000   6.0000000   6.0000000   6.0000000

  Atom        41          42          43          44          45          46          47          48          49          50
 IAtWgt=          16          12           1           1           1           1           1           1           1           1
 AtmWgt=  15.9949146  12.0000000   1.0078250   1.0078250   1.0078250   1.0078250   1.0078250   1.0078250   1.0078250   1.0078250
 NucSpn=           0           0           1           1           1           1           1           1           1           1
 AtZEff=  -0.0000000  -0.0000000  -0.0000000  -0.0000000  -0.0000000  -0.0000000  -0.0000000  -0.0000000  -0.0000000  -0.0000000
 NQMom=    0.0000000   0.0000000   0.0000000   0.0000000   0.0000000   0.0000000   0.0000000   0.0000000   0.0000000   0.0000000
 NMagM=    0.0000000   0.0000000   2.7928460   2.7928460   2.7928460   2.7928460   2.7928460   2.7928460   2.7928460   2.7928460
 AtZNuc=   8.0000000   6.0000000   1.0000000   1.0000000   1.0000000   1.0000000   1.0000000   1.0000000   1.0000000   1.0000000

  Atom        51          52          53          54          55          56          57          58          59          60
 IAtWgt=           1           1           1           1           1           1           1           1           1           1
 AtmWgt=   1.0078250   1.0078250   1.0078250   1.0078250   1.0078250   1.0078250   1.0078250   1.0078250   1.0078250   1.0078250
 NucSpn=           1           1           1           1           1           1           1           1           1           1
 AtZEff=  -0.0000000  -0.0000000  -0.0000000  -0.0000000  -0.0000000  -0.0000000  -0.0000000  -0.0000000  -0.0000000  -0.0000000
 NQMom=    0.0000000   0.0000000   0.0000000   0.0000000   0.0000000   0.0000000   0.0000000   0.0000000   0.0000000   0.0000000
 NMagM=    2.7928460   2.7928460   2.7928460   2.7928460   2.7928460   2.7928460   2.7928460   2.7928460   2.7928460   2.7928460
 AtZNuc=   1.0000000   1.0000000   1.0000000   1.0000000   1.0000000   1.0000000   1.0000000   1.0000000   1.0000000   1.0000000

  Atom        61          62          63          64          65          66          67          68
 IAtWgt=           1           1           1           1           1           1           1           1
 AtmWgt=   1.0078250   1.0078250   1.0078250   1.0078250   1.0078250   1.0078250   1.0078250   1.0078250
 NucSpn=           1           1           1           1           1           1           1           1
 AtZEff=  -0.0000000  -0.0000000  -0.0000000  -0.0000000  -0.0000000  -0.0000000  -0.0000000  -0.0000000
 NQMom=    0.0000000   0.0000000   0.0000000   0.0000000   0.0000000   0.0000000   0.0000000   0.0000000
 NMagM=    2.7928460   2.7928460   2.7928460   2.7928460   2.7928460   2.7928460   2.7928460   2.7928460
 AtZNuc=   1.0000000   1.0000000   1.0000000   1.0000000   1.0000000   1.0000000   1.0000000   1.0000000
 Leave Link  101 at Mon Jul 27 11:15:49 2020, MaxMem=  4026531840 cpu:               2.9 elap:               0.4
 (Enter /opt/ohpc/pub/libs/gaussian/g16-A.03/sandybridge/g16/l103.exe)

 GradGradGradGradGradGradGradGradGradGradGradGradGradGradGradGradGradGrad
 Berny optimization.
 Initialization pass.
                           ----------------------------
                           !    Initial Parameters    !
                           ! (Angstroms and Degrees)  !
 --------------------------                            --------------------------
 ! Name  Definition              Value          Derivative Info.                !
 --------------------------------------------------------------------------------
 ! R1    R(1,2)                  1.4056         estimate D2E/DX2                !
 ! R2    R(1,6)                  1.3659         estimate D2E/DX2                !
 ! R3    R(1,43)                 1.0672         estimate D2E/DX2                !
 ! R4    R(2,3)                  1.3621         estimate D2E/DX2                !
 ! R5    R(2,44)                 1.1005         estimate D2E/DX2                !
 ! R6    R(3,4)                  1.4416         estimate D2E/DX2                !
 ! R7    R(3,45)                 1.0416         estimate D2E/DX2                !
 ! R8    R(4,5)                  1.3356         estimate D2E/DX2                !
 ! R9    R(4,7)                  1.4206         estimate D2E/DX2                !
 ! R10   R(5,6)                  1.3793         estimate D2E/DX2                !
 ! R11   R(6,46)                 1.1257         estimate D2E/DX2                !
 ! R12   R(7,8)                  1.4262         estimate D2E/DX2                !
 ! R13   R(7,12)                 1.373          estimate D2E/DX2                !
 ! R14   R(8,9)                  1.3356         estimate D2E/DX2                !
 ! R15   R(9,10)                 1.4376         estimate D2E/DX2                !
 ! R16   R(9,47)                 1.0676         estimate D2E/DX2                !
 ! R17   R(10,11)                1.4623         estimate D2E/DX2                !
 ! R18   R(10,15)                1.4401         estimate D2E/DX2                !
 ! R19   R(11,12)                1.4219         estimate D2E/DX2                !
 ! R20   R(11,48)                1.0749         estimate D2E/DX2                !
 ! R21   R(12,13)                1.3745         estimate D2E/DX2                !
 ! R22   R(13,14)                1.4603         estimate D2E/DX2                !
 ! R23   R(14,49)                1.0824         estimate D2E/DX2                !
 ! R24   R(14,50)                1.0689         estimate D2E/DX2                !
 ! R25   R(14,51)                1.1424         estimate D2E/DX2                !
 ! R26   R(15,16)                1.4314         estimate D2E/DX2                !
 ! R27   R(15,20)                1.3856         estimate D2E/DX2                !
 ! R28   R(16,17)                1.4487         estimate D2E/DX2                !
 ! R29   R(16,52)                1.0897         estimate D2E/DX2                !
 ! R30   R(17,18)                1.3554         estimate D2E/DX2                !
 ! R31   R(17,53)                1.1116         estimate D2E/DX2                !
 ! R32   R(18,19)                1.4196         estimate D2E/DX2                !
 ! R33   R(18,21)                1.3988         estimate D2E/DX2                !
 ! R34   R(19,20)                1.3604         estimate D2E/DX2                !
 ! R35   R(20,54)                1.0819         estimate D2E/DX2                !
 ! R36   R(21,22)                1.3638         estimate D2E/DX2                !
 ! R37   R(21,26)                1.4557         estimate D2E/DX2                !
 ! R38   R(22,23)                1.3741         estimate D2E/DX2                !
 ! R39   R(23,24)                1.3814         estimate D2E/DX2                !
 ! R40   R(23,55)                1.0742         estimate D2E/DX2                !
 ! R41   R(24,25)                1.4512         estimate D2E/DX2                !
 ! R42   R(24,29)                1.4013         estimate D2E/DX2                !
 ! R43   R(25,26)                1.3646         estimate D2E/DX2                !
 ! R44   R(25,56)                1.1307         estimate D2E/DX2                !
 ! R45   R(26,27)                1.3087         estimate D2E/DX2                !
 ! R46   R(27,28)                1.4599         estimate D2E/DX2                !
 ! R47   R(28,57)                1.067          estimate D2E/DX2                !
 ! R48   R(28,58)                1.161          estimate D2E/DX2                !
 ! R49   R(28,59)                1.0828         estimate D2E/DX2                !
 ! R50   R(29,30)                1.34           estimate D2E/DX2                !
 ! R51   R(29,34)                1.4165         estimate D2E/DX2                !
 ! R52   R(30,31)                1.4466         estimate D2E/DX2                !
 ! R53   R(30,60)                1.1258         estimate D2E/DX2                !
 ! R54   R(31,32)                1.4016         estimate D2E/DX2                !
 ! R55   R(31,61)                1.0613         estimate D2E/DX2                !
 ! R56   R(32,33)                1.2906         estimate D2E/DX2                !
 ! R57   R(32,35)                1.4809         estimate D2E/DX2                !
 ! R58   R(33,34)                1.4434         estimate D2E/DX2                !
 ! R59   R(34,62)                1.1045         estimate D2E/DX2                !
 ! R60   R(35,36)                1.3117         estimate D2E/DX2                !
 ! R61   R(35,40)                1.4418         estimate D2E/DX2                !
 ! R62   R(36,37)                1.3469         estimate D2E/DX2                !
 ! R63   R(37,38)                1.4659         estimate D2E/DX2                !
 ! R64   R(37,63)                1.0814         estimate D2E/DX2                !
 ! R65   R(38,39)                1.3512         estimate D2E/DX2                !
 ! R66   R(38,64)                1.0138         estimate D2E/DX2                !
 ! R67   R(39,40)                1.4238         estimate D2E/DX2                !
 ! R68   R(39,65)                1.0632         estimate D2E/DX2                !
 ! R69   R(40,41)                1.3575         estimate D2E/DX2                !
 ! R70   R(41,42)                1.4344         estimate D2E/DX2                !
 ! R71   R(42,66)                1.1362         estimate D2E/DX2                !
 ! R72   R(42,67)                1.0292         estimate D2E/DX2                !
 ! R73   R(42,68)                1.1446         estimate D2E/DX2                !
 ! A1    A(2,1,6)              113.6967         estimate D2E/DX2                !
 ! A2    A(2,1,43)             121.1683         estimate D2E/DX2                !
 ! A3    A(6,1,43)             124.3762         estimate D2E/DX2                !
 ! A4    A(1,2,3)              122.4607         estimate D2E/DX2                !
 ! A5    A(1,2,44)             116.517          estimate D2E/DX2                !
 ! A6    A(3,2,44)             120.31           estimate D2E/DX2                !
 ! A7    A(2,3,4)              119.8276         estimate D2E/DX2                !
 ! A8    A(2,3,45)             124.0463         estimate D2E/DX2                !
 ! A9    A(4,3,45)             115.9971         estimate D2E/DX2                !
 ! A10   A(3,4,5)              118.5293         estimate D2E/DX2                !
 ! A11   A(3,4,7)              123.5936         estimate D2E/DX2                !
 ! A12   A(5,4,7)              117.8527         estimate D2E/DX2                !
 ! A13   A(4,5,6)              118.8434         estimate D2E/DX2                !
 ! A14   A(1,6,5)              126.3042         estimate D2E/DX2                !
 ! A15   A(1,6,46)             122.3388         estimate D2E/DX2                !
 ! A16   A(5,6,46)             111.3063         estimate D2E/DX2                !
 ! A17   A(4,7,8)              111.6521         estimate D2E/DX2                !
 ! A18   A(4,7,12)             124.9433         estimate D2E/DX2                !
 ! A19   A(8,7,12)             123.4046         estimate D2E/DX2                !
 ! A20   A(7,8,9)              114.8794         estimate D2E/DX2                !
 ! A21   A(8,9,10)             127.9824         estimate D2E/DX2                !
 ! A22   A(8,9,47)             117.6345         estimate D2E/DX2                !
 ! A23   A(10,9,47)            114.1785         estimate D2E/DX2                !
 ! A24   A(9,10,11)            114.2615         estimate D2E/DX2                !
 ! A25   A(9,10,15)            124.3687         estimate D2E/DX2                !
 ! A26   A(11,10,15)           121.3698         estimate D2E/DX2                !
 ! A27   A(10,11,12)           119.059          estimate D2E/DX2                !
 ! A28   A(10,11,48)           116.9731         estimate D2E/DX2                !
 ! A29   A(12,11,48)           123.8945         estimate D2E/DX2                !
 ! A30   A(7,12,11)            120.2727         estimate D2E/DX2                !
 ! A31   A(7,12,13)            114.4191         estimate D2E/DX2                !
 ! A32   A(11,12,13)           125.1421         estimate D2E/DX2                !
 ! A33   A(12,13,14)           116.3963         estimate D2E/DX2                !
 ! A34   A(13,14,49)           112.637          estimate D2E/DX2                !
 ! A35   A(13,14,50)           107.0778         estimate D2E/DX2                !
 ! A36   A(13,14,51)           111.082          estimate D2E/DX2                !
 ! A37   A(49,14,50)           110.4946         estimate D2E/DX2                !
 ! A38   A(49,14,51)           107.3            estimate D2E/DX2                !
 ! A39   A(50,14,51)           108.1898         estimate D2E/DX2                !
 ! A40   A(10,15,16)           118.5285         estimate D2E/DX2                !
 ! A41   A(10,15,20)           121.9938         estimate D2E/DX2                !
 ! A42   A(16,15,20)           119.4545         estimate D2E/DX2                !
 ! A43   A(15,16,17)           115.5136         estimate D2E/DX2                !
 ! A44   A(15,16,52)           121.9768         estimate D2E/DX2                !
 ! A45   A(17,16,52)           122.4467         estimate D2E/DX2                !
 ! A46   A(16,17,18)           122.4389         estimate D2E/DX2                !
 ! A47   A(16,17,53)           115.8217         estimate D2E/DX2                !
 ! A48   A(18,17,53)           121.2443         estimate D2E/DX2                !
 ! A49   A(17,18,19)           120.6644         estimate D2E/DX2                !
 ! A50   A(17,18,21)           125.3434         estimate D2E/DX2                !
 ! A51   A(19,18,21)           113.8385         estimate D2E/DX2                !
 ! A52   A(18,19,20)           117.3776         estimate D2E/DX2                !
 ! A53   A(15,20,19)           124.3264         estimate D2E/DX2                !
 ! A54   A(15,20,54)           122.6797         estimate D2E/DX2                !
 ! A55   A(19,20,54)           112.9927         estimate D2E/DX2                !
 ! A56   A(18,21,22)           118.026          estimate D2E/DX2                !
 ! A57   A(18,21,26)           120.885          estimate D2E/DX2                !
 ! A58   A(22,21,26)           120.8652         estimate D2E/DX2                !
 ! A59   A(21,22,23)           117.5476         estimate D2E/DX2                !
 ! A60   A(22,23,24)           127.9853         estimate D2E/DX2                !
 ! A61   A(22,23,55)           110.072          estimate D2E/DX2                !
 ! A62   A(24,23,55)           121.9074         estimate D2E/DX2                !
 ! A63   A(23,24,25)           111.593          estimate D2E/DX2                !
 ! A64   A(23,24,29)           125.2015         estimate D2E/DX2                !
 ! A65   A(25,24,29)           123.2019         estimate D2E/DX2                !
 ! A66   A(24,25,26)           124.9692         estimate D2E/DX2                !
 ! A67   A(24,25,56)           111.1729         estimate D2E/DX2                !
 ! A68   A(26,25,56)           123.8579         estimate D2E/DX2                !
 ! A69   A(21,26,25)           116.9196         estimate D2E/DX2                !
 ! A70   A(21,26,27)           117.0706         estimate D2E/DX2                !
 ! A71   A(25,26,27)           125.9929         estimate D2E/DX2                !
 ! A72   A(26,27,28)           116.6985         estimate D2E/DX2                !
 ! A73   A(27,28,57)           114.2072         estimate D2E/DX2                !
 ! A74   A(27,28,58)           105.0468         estimate D2E/DX2                !
 ! A75   A(27,28,59)           106.4879         estimate D2E/DX2                !
 ! A76   A(57,28,58)           113.223          estimate D2E/DX2                !
 ! A77   A(57,28,59)           108.2402         estimate D2E/DX2                !
 ! A78   A(58,28,59)           109.3603         estimate D2E/DX2                !
 ! A79   A(24,29,30)           123.0724         estimate D2E/DX2                !
 ! A80   A(24,29,34)           118.9518         estimate D2E/DX2                !
 ! A81   A(30,29,34)           117.7545         estimate D2E/DX2                !
 ! A82   A(29,30,31)           122.3513         estimate D2E/DX2                !
 ! A83   A(29,30,60)           123.848          estimate D2E/DX2                !
 ! A84   A(31,30,60)           113.4151         estimate D2E/DX2                !
 ! A85   A(30,31,32)           115.0418         estimate D2E/DX2                !
 ! A86   A(30,31,61)           121.2123         estimate D2E/DX2                !
 ! A87   A(32,31,61)           123.6489         estimate D2E/DX2                !
 ! A88   A(31,32,33)           126.2867         estimate D2E/DX2                !
 ! A89   A(31,32,35)           119.1907         estimate D2E/DX2                !
 ! A90   A(33,32,35)           114.4279         estimate D2E/DX2                !
 ! A91   A(32,33,34)           116.9605         estimate D2E/DX2                !
 ! A92   A(29,34,33)           121.2023         estimate D2E/DX2                !
 ! A93   A(29,34,62)           126.4869         estimate D2E/DX2                !
 ! A94   A(33,34,62)           112.2297         estimate D2E/DX2                !
 ! A95   A(32,35,36)           118.1138         estimate D2E/DX2                !
 ! A96   A(32,35,40)           122.1871         estimate D2E/DX2                !
 ! A97   A(36,35,40)           119.695          estimate D2E/DX2                !
 ! A98   A(35,36,37)           120.2302         estimate D2E/DX2                !
 ! A99   A(36,37,38)           123.2366         estimate D2E/DX2                !
 ! A100  A(36,37,63)           119.2094         estimate D2E/DX2                !
 ! A101  A(38,37,63)           117.1169         estimate D2E/DX2                !
 ! A102  A(37,38,39)           117.1146         estimate D2E/DX2                !
 ! A103  A(37,38,64)           120.9373         estimate D2E/DX2                !
 ! A104  A(39,38,64)           121.9412         estimate D2E/DX2                !
 ! A105  A(38,39,40)           118.7927         estimate D2E/DX2                !
 ! A106  A(38,39,65)           122.0734         estimate D2E/DX2                !
 ! A107  A(40,39,65)           119.1164         estimate D2E/DX2                !
 ! A108  A(35,40,39)           120.7627         estimate D2E/DX2                !
 ! A109  A(35,40,41)           115.7042         estimate D2E/DX2                !
 ! A110  A(39,40,41)           123.3675         estimate D2E/DX2                !
 ! A111  A(40,41,42)           118.7539         estimate D2E/DX2                !
 ! A112  A(41,42,66)           111.3776         estimate D2E/DX2                !
 ! A113  A(41,42,67)           112.142          estimate D2E/DX2                !
 ! A114  A(41,42,68)           109.9836         estimate D2E/DX2                !
 ! A115  A(66,42,67)           109.4534         estimate D2E/DX2                !
 ! A116  A(66,42,68)           104.1517         estimate D2E/DX2                !
 ! A117  A(67,42,68)           109.4225         estimate D2E/DX2                !
 ! D1    D(6,1,2,3)             -5.7139         estimate D2E/DX2                !
 ! D2    D(6,1,2,44)          -176.0592         estimate D2E/DX2                !
 ! D3    D(43,1,2,3)          -176.1537         estimate D2E/DX2                !
 ! D4    D(43,1,2,44)           13.501          estimate D2E/DX2                !
 ! D5    D(2,1,6,5)              7.1195         estimate D2E/DX2                !
 ! D6    D(2,1,6,46)          -175.6984         estimate D2E/DX2                !
 ! D7    D(43,1,6,5)           177.2048         estimate D2E/DX2                !
 ! D8    D(43,1,6,46)           -5.6131         estimate D2E/DX2                !
 ! D9    D(1,2,3,4)              2.1546         estimate D2E/DX2                !
 ! D10   D(1,2,3,45)          -173.5467         estimate D2E/DX2                !
 ! D11   D(44,2,3,4)           172.1441         estimate D2E/DX2                !
 ! D12   D(44,2,3,45)           -3.5572         estimate D2E/DX2                !
 ! D13   D(2,3,4,5)              0.7945         estimate D2E/DX2                !
 ! D14   D(2,3,4,7)            178.9544         estimate D2E/DX2                !
 ! D15   D(45,3,4,5)           176.8322         estimate D2E/DX2                !
 ! D16   D(45,3,4,7)            -5.0078         estimate D2E/DX2                !
 ! D17   D(3,4,5,6)              0.2343         estimate D2E/DX2                !
 ! D18   D(7,4,5,6)           -178.0321         estimate D2E/DX2                !
 ! D19   D(3,4,7,8)            109.1403         estimate D2E/DX2                !
 ! D20   D(3,4,7,12)           -70.8885         estimate D2E/DX2                !
 ! D21   D(5,4,7,8)            -72.6882         estimate D2E/DX2                !
 ! D22   D(5,4,7,12)           107.283          estimate D2E/DX2                !
 ! D23   D(4,5,6,1)             -4.5971         estimate D2E/DX2                !
 ! D24   D(4,5,6,46)           177.9582         estimate D2E/DX2                !
 ! D25   D(4,7,8,9)           -177.4951         estimate D2E/DX2                !
 ! D26   D(12,7,8,9)             2.5331         estimate D2E/DX2                !
 ! D27   D(4,7,12,11)          178.2631         estimate D2E/DX2                !
 ! D28   D(4,7,12,13)            2.7108         estimate D2E/DX2                !
 ! D29   D(8,7,12,11)           -1.7689         estimate D2E/DX2                !
 ! D30   D(8,7,12,13)         -177.3212         estimate D2E/DX2                !
 ! D31   D(7,8,9,10)            -3.9186         estimate D2E/DX2                !
 ! D32   D(7,8,9,47)          -178.3842         estimate D2E/DX2                !
 ! D33   D(8,9,10,11)            4.1659         estimate D2E/DX2                !
 ! D34   D(8,9,10,15)         -175.826          estimate D2E/DX2                !
 ! D35   D(47,9,10,11)         178.7918         estimate D2E/DX2                !
 ! D36   D(47,9,10,15)          -1.2001         estimate D2E/DX2                !
 ! D37   D(9,10,11,12)          -2.8659         estimate D2E/DX2                !
 ! D38   D(9,10,11,48)         174.1402         estimate D2E/DX2                !
 ! D39   D(15,10,11,12)        177.1263         estimate D2E/DX2                !
 ! D40   D(15,10,11,48)         -5.8676         estimate D2E/DX2                !
 ! D41   D(9,10,15,16)         -55.3766         estimate D2E/DX2                !
 ! D42   D(9,10,15,20)         126.387          estimate D2E/DX2                !
 ! D43   D(11,10,15,16)        124.632          estimate D2E/DX2                !
 ! D44   D(11,10,15,20)        -53.6044         estimate D2E/DX2                !
 ! D45   D(10,11,12,7)           1.9752         estimate D2E/DX2                !
 ! D46   D(10,11,12,13)        177.0214         estimate D2E/DX2                !
 ! D47   D(48,11,12,7)        -174.8101         estimate D2E/DX2                !
 ! D48   D(48,11,12,13)          0.2361         estimate D2E/DX2                !
 ! D49   D(7,12,13,14)        -172.2597         estimate D2E/DX2                !
 ! D50   D(11,12,13,14)         12.4383         estimate D2E/DX2                !
 ! D51   D(12,13,14,49)        -67.0809         estimate D2E/DX2                !
 ! D52   D(12,13,14,50)        171.2539         estimate D2E/DX2                !
 ! D53   D(12,13,14,51)         53.3217         estimate D2E/DX2                !
 ! D54   D(10,15,16,17)       -178.7573         estimate D2E/DX2                !
 ! D55   D(10,15,16,52)         -1.5743         estimate D2E/DX2                !
 ! D56   D(20,15,16,17)         -0.475          estimate D2E/DX2                !
 ! D57   D(20,15,16,52)        176.708          estimate D2E/DX2                !
 ! D58   D(10,15,20,19)        177.9961         estimate D2E/DX2                !
 ! D59   D(10,15,20,54)         -1.581          estimate D2E/DX2                !
 ! D60   D(16,15,20,19)         -0.2245         estimate D2E/DX2                !
 ! D61   D(16,15,20,54)       -179.8016         estimate D2E/DX2                !
 ! D62   D(15,16,17,18)          3.5653         estimate D2E/DX2                !
 ! D63   D(15,16,17,53)        175.5792         estimate D2E/DX2                !
 ! D64   D(52,16,17,18)       -173.6031         estimate D2E/DX2                !
 ! D65   D(52,16,17,53)         -1.5892         estimate D2E/DX2                !
 ! D66   D(16,17,18,19)         -5.893          estimate D2E/DX2                !
 ! D67   D(16,17,18,21)        178.8997         estimate D2E/DX2                !
 ! D68   D(53,17,18,19)       -177.4818         estimate D2E/DX2                !
 ! D69   D(53,17,18,21)          7.3109         estimate D2E/DX2                !
 ! D70   D(17,18,19,20)          4.9046         estimate D2E/DX2                !
 ! D71   D(21,18,19,20)       -179.3683         estimate D2E/DX2                !
 ! D72   D(17,18,21,22)         94.7553         estimate D2E/DX2                !
 ! D73   D(17,18,21,26)        -79.8552         estimate D2E/DX2                !
 ! D74   D(19,18,21,22)        -80.7383         estimate D2E/DX2                !
 ! D75   D(19,18,21,26)        104.6512         estimate D2E/DX2                !
 ! D76   D(18,19,20,15)         -1.8857         estimate D2E/DX2                !
 ! D77   D(18,19,20,54)        177.7277         estimate D2E/DX2                !
 ! D78   D(18,21,22,23)       -176.7773         estimate D2E/DX2                !
 ! D79   D(26,21,22,23)         -2.1657         estimate D2E/DX2                !
 ! D80   D(18,21,26,25)        178.0755         estimate D2E/DX2                !
 ! D81   D(18,21,26,27)         -3.3343         estimate D2E/DX2                !
 ! D82   D(22,21,26,25)          3.6184         estimate D2E/DX2                !
 ! D83   D(22,21,26,27)       -177.7914         estimate D2E/DX2                !
 ! D84   D(21,22,23,24)         -1.2691         estimate D2E/DX2                !
 ! D85   D(21,22,23,55)       -179.116          estimate D2E/DX2                !
 ! D86   D(22,23,24,25)          2.7991         estimate D2E/DX2                !
 ! D87   D(22,23,24,29)       -177.8755         estimate D2E/DX2                !
 ! D88   D(55,23,24,25)       -179.5833         estimate D2E/DX2                !
 ! D89   D(55,23,24,29)         -0.2579         estimate D2E/DX2                !
 ! D90   D(23,24,25,26)         -1.0287         estimate D2E/DX2                !
 ! D91   D(23,24,25,56)        178.8952         estimate D2E/DX2                !
 ! D92   D(29,24,25,26)        179.6301         estimate D2E/DX2                !
 ! D93   D(29,24,25,56)         -0.446          estimate D2E/DX2                !
 ! D94   D(23,24,29,30)        122.2472         estimate D2E/DX2                !
 ! D95   D(23,24,29,34)        -52.2201         estimate D2E/DX2                !
 ! D96   D(25,24,29,30)        -58.5025         estimate D2E/DX2                !
 ! D97   D(25,24,29,34)        127.0302         estimate D2E/DX2                !
 ! D98   D(24,25,26,21)         -1.9266         estimate D2E/DX2                !
 ! D99   D(24,25,26,27)        179.6249         estimate D2E/DX2                !
 ! D100  D(56,25,26,21)        178.1588         estimate D2E/DX2                !
 ! D101  D(56,25,26,27)         -0.2896         estimate D2E/DX2                !
 ! D102  D(21,26,27,28)       -154.6361         estimate D2E/DX2                !
 ! D103  D(25,26,27,28)         23.8103         estimate D2E/DX2                !
 ! D104  D(26,27,28,57)         50.4383         estimate D2E/DX2                !
 ! D105  D(26,27,28,58)        -74.2094         estimate D2E/DX2                !
 ! D106  D(26,27,28,59)        169.8419         estimate D2E/DX2                !
 ! D107  D(24,29,30,31)        177.7127         estimate D2E/DX2                !
 ! D108  D(24,29,30,60)          5.3149         estimate D2E/DX2                !
 ! D109  D(34,29,30,31)         -7.7577         estimate D2E/DX2                !
 ! D110  D(34,29,30,60)        179.8444         estimate D2E/DX2                !
 ! D111  D(24,29,34,33)       -179.6062         estimate D2E/DX2                !
 ! D112  D(24,29,34,62)         -3.1428         estimate D2E/DX2                !
 ! D113  D(30,29,34,33)          5.632          estimate D2E/DX2                !
 ! D114  D(30,29,34,62)       -177.9046         estimate D2E/DX2                !
 ! D115  D(29,30,31,32)          6.1196         estimate D2E/DX2                !
 ! D116  D(29,30,31,61)       -177.3373         estimate D2E/DX2                !
 ! D117  D(60,30,31,32)        179.243          estimate D2E/DX2                !
 ! D118  D(60,30,31,61)         -4.2139         estimate D2E/DX2                !
 ! D119  D(30,31,32,33)         -2.2353         estimate D2E/DX2                !
 ! D120  D(30,31,32,35)        174.016          estimate D2E/DX2                !
 ! D121  D(61,31,32,33)       -178.6836         estimate D2E/DX2                !
 ! D122  D(61,31,32,35)         -2.4323         estimate D2E/DX2                !
 ! D123  D(31,32,33,34)          0.3633         estimate D2E/DX2                !
 ! D124  D(35,32,33,34)       -176.0426         estimate D2E/DX2                !
 ! D125  D(31,32,35,36)       -119.9276         estimate D2E/DX2                !
 ! D126  D(31,32,35,40)         60.8123         estimate D2E/DX2                !
 ! D127  D(33,32,35,36)         56.7541         estimate D2E/DX2                !
 ! D128  D(33,32,35,40)       -122.506          estimate D2E/DX2                !
 ! D129  D(32,33,34,29)         -1.9551         estimate D2E/DX2                !
 ! D130  D(32,33,34,62)       -178.8838         estimate D2E/DX2                !
 ! D131  D(32,35,36,37)        179.0851         estimate D2E/DX2                !
 ! D132  D(40,35,36,37)         -1.6358         estimate D2E/DX2                !
 ! D133  D(32,35,40,39)        177.0683         estimate D2E/DX2                !
 ! D134  D(32,35,40,41)          1.5916         estimate D2E/DX2                !
 ! D135  D(36,35,40,39)         -2.1804         estimate D2E/DX2                !
 ! D136  D(36,35,40,41)       -177.6572         estimate D2E/DX2                !
 ! D137  D(35,36,37,38)          4.1566         estimate D2E/DX2                !
 ! D138  D(35,36,37,63)        176.3443         estimate D2E/DX2                !
 ! D139  D(36,37,38,39)         -2.6904         estimate D2E/DX2                !
 ! D140  D(36,37,38,64)        178.2467         estimate D2E/DX2                !
 ! D141  D(63,37,38,39)       -175.0302         estimate D2E/DX2                !
 ! D142  D(63,37,38,64)          5.9068         estimate D2E/DX2                !
 ! D143  D(37,38,39,40)         -1.1547         estimate D2E/DX2                !
 ! D144  D(37,38,39,65)       -179.6199         estimate D2E/DX2                !
 ! D145  D(64,38,39,40)        177.8982         estimate D2E/DX2                !
 ! D146  D(64,38,39,65)         -0.5671         estimate D2E/DX2                !
 ! D147  D(38,39,40,35)          3.5176         estimate D2E/DX2                !
 ! D148  D(38,39,40,41)        178.6367         estimate D2E/DX2                !
 ! D149  D(65,39,40,35)       -177.971          estimate D2E/DX2                !
 ! D150  D(65,39,40,41)         -2.852          estimate D2E/DX2                !
 ! D151  D(35,40,41,42)        171.3662         estimate D2E/DX2                !
 ! D152  D(39,40,41,42)         -3.9795         estimate D2E/DX2                !
 ! D153  D(40,41,42,66)        -60.7354         estimate D2E/DX2                !
 ! D154  D(40,41,42,67)         62.317          estimate D2E/DX2                !
 ! D155  D(40,41,42,68)       -175.6788         estimate D2E/DX2                !
 --------------------------------------------------------------------------------
 Trust Radius=3.00D-01 FncErr=1.00D-07 GrdErr=1.00D-06 EigMax=2.50D+02 EigMin=1.00D-04
 Number of steps in this run=    355 maximum allowed number of steps=    408.
 GradGradGradGradGradGradGradGradGradGradGradGradGradGradGradGradGradGrad

 Leave Link  103 at Mon Jul 27 11:15:49 2020, MaxMem=  4026531840 cpu:               0.2 elap:               0.0
 (Enter /opt/ohpc/pub/libs/gaussian/g16-A.03/sandybridge/g16/l202.exe)
 Stoichiometry    C33H26N6O3
 Framework group  C1[X(C33H26N6O3)]
 Deg. of freedom   198
 Full point group                 C1      NOp   1
 Largest Abelian subgroup         C1      NOp   1
 Largest concise Abelian subgroup C1      NOp   1
                         Standard orientation:                         
 ---------------------------------------------------------------------
 Center     Atomic      Atomic             Coordinates (Angstroms)
 Number     Number       Type             X           Y           Z
 ---------------------------------------------------------------------
      1          6           0       12.179083   -0.837425   -0.143089
      2          6           0       11.571647    0.187088   -0.889505
      3          6           0       10.222019    0.368362   -0.919036
      4          6           0        9.366987   -0.481162   -0.128270
      5          7           0        9.930897   -1.423101    0.632439
      6          6           0       11.305049   -1.541956    0.634895
      7          6           0        7.953230   -0.349254   -0.082276
      8          7           0        7.302126   -1.426488   -0.752816
      9          6           0        5.969995   -1.339513   -0.794144
     10          6           0        5.128959   -0.345346   -0.185014
     11          6           0        5.858667    0.732433    0.481605
     12          6           0        7.278819    0.679599    0.527465
     13          8           0        8.089551    1.649098    1.067791
     14          6           0        7.429788    2.670583    1.876385
     15          6           0        3.689272   -0.373709   -0.207779
     16          6           0        3.026987   -0.452790   -1.474332
     17          6           0        1.579187   -0.448999   -1.422750
     18          6           0        0.893402   -0.304786   -0.262581
     19          7           0        1.574988   -0.273776    0.982280
     20          6           0        2.934970   -0.290779    0.951491
     21          6           0       -0.500002   -0.270559   -0.145182
     22          7           0       -1.147454   -1.435306    0.145082
     23          6           0       -2.520409   -1.404724    0.191277
     24          6           0       -3.353546   -0.319304    0.001151
     25          6           0       -2.604240    0.875916   -0.339184
     26          6           0       -1.245246    0.944366   -0.441411
     27          8           0       -0.550054    2.008376   -0.753305
     28          6           0       -1.178135    3.300899   -0.496096
     29          6           0       -4.750852   -0.345856    0.103315
     30          6           0       -5.437207    0.435027    0.948779
     31          6           0       -6.882591    0.429569    1.007326
     32          6           0       -7.504807   -0.544363    0.214313
     33          7           0       -6.914414   -1.382104   -0.570056
     34          6           0       -5.473849   -1.316361   -0.632723
     35          6           0       -8.972291   -0.720947    0.306017
     36          7           0       -9.431862   -1.891121    0.680282
     37          6           0      -10.758428   -2.093300    0.795827
     38          6           0      -11.759211   -1.084087    0.437090
     39          6           0      -11.300936    0.117706    0.023192
     40          6           0       -9.895020    0.339147   -0.015806
     41          8           0       -9.333494    1.499667   -0.440768
     42          6           0      -10.186942    2.531153   -0.955777
     43          1           0       13.241268   -0.923776   -0.085875
     44          1           0       12.221740    0.741017   -1.583480
     45          1           0        9.739177    1.054786   -1.536006
     46          1           0       11.644692   -2.347125    1.344495
     47          1           0        5.436045   -2.136341   -1.262853
     48          1           0        5.276413    1.549373    0.867692
     49          1           0        6.779398    3.308663    1.292032
     50          1           0        8.199488    3.247344    2.342713
     51          1           0        6.792379    2.196461    2.697407
     52          1           0        3.578471   -0.466351   -2.414051
     53          1           0        1.059751   -0.433071   -2.405339
     54          1           0        3.380800   -0.225673    1.935111
     55          1           0       -2.902548   -2.376522    0.443313
     56          1           0       -3.294084    1.754761   -0.512872
     57          1           0       -1.571525    3.407670    0.489959
     58          1           0       -1.983027    3.415139   -1.324942
     59          1           0       -0.408894    4.049869   -0.637054
     60          1           0       -4.966714    1.235942    1.584859
     61          1           0       -7.409269    1.085516    1.654329
     62          1           0       -5.052341   -2.052367   -1.340268
     63          1           0      -11.121876   -3.080163    1.047533
     64          1           0      -12.750428   -1.282907    0.513245
     65          1           0      -11.956956    0.908328   -0.250486
     66          1           0      -10.760097    2.176230   -1.870361
     67          1           0      -10.850119    2.875340   -0.247906
     68          1           0       -9.555828    3.404247   -1.342454
 ---------------------------------------------------------------------
 Rotational constants (GHZ):           0.3892348           0.0168764           0.0165202
 Leave Link  202 at Mon Jul 27 11:15:49 2020, MaxMem=  4026531840 cpu:               0.1 elap:               0.1
 (Enter /opt/ohpc/pub/libs/gaussian/g16-A.03/sandybridge/g16/l301.exe)
 Standard basis: CC-pVDZ (5D, 7F)
 Ernie: Thresh=  0.10000D-02 Tol=  0.10000D-05 Strict=F.
 Ernie:  84 primitive shells out of 1054 were deleted.
 There are   760 symmetry adapted cartesian basis functions of A   symmetry.
 There are   718 symmetry adapted basis functions of A   symmetry.
   718 basis functions,  1568 primitive gaussians,   760 cartesian basis functions
   145 alpha electrons      145 beta electrons
       nuclear repulsion energy      4011.6502606766 Hartrees.
 IExCor=32609 DFT=T Ex+Corr=LC-wPBE ExCW=0 ScaHFX=  1.000000
 ScaDFX=  1.000000  0.000000  1.000000  1.000000 ScalE2=  1.000000  1.000000
 IRadAn=      5 IRanWt=     -1 IRanGd=            0 ICorTp=0 IEmpDi=  4
 HFx  wShort=  0.000000 wLong=  0.474600 cFull=  0.000000 cShort=  0.000000 cLong=  1.000000
 DFx  wShort=  0.000000 wLong=  0.474600 cFull=  0.000000 cShort=  0.000000 cLong=  1.000000
 NAtoms=   68 NActive=   68 NUniq=   68 SFac= 1.00D+00 NAtFMM=   60 NAOKFM=T Big=T
 Integral buffers will be    131072 words long.
 Raffenetti 2 integral format.
 Two-electron integral symmetry is turned on.
 Leave Link  301 at Mon Jul 27 11:15:49 2020, MaxMem=  4026531840 cpu:               0.7 elap:               0.1
 (Enter /opt/ohpc/pub/libs/gaussian/g16-A.03/sandybridge/g16/l302.exe)
 NPDir=0 NMtPBC=     1 NCelOv=     1 NCel=       1 NClECP=     1 NCelD=      1
         NCelK=      1 NCelE2=     1 NClLst=     1 CellRange=     0.0.
 One-electron integrals computed using PRISM.
 One-electron integral symmetry used in STVInt
 NBasis=   718 RedAO= T EigKep=  4.09D-04  NBF=   718
 NBsUse=   718 1.00D-06 EigRej= -1.00D+00 NBFU=   718
 Precomputing XC quadrature grid using
 IXCGrd= 4 IRadAn=           5 IRanWt=          -1 IRanGd=           0 AccXCQ= 0.00D+00.
 Generated NRdTot=       0 NPtTot=           0 NUsed=           0 NTot=          32
 NSgBfM=   653   630   633   639   653 MxSgAt=    68 MxSgA2=    68.
 Leave Link  302 at Mon Jul 27 11:15:51 2020, MaxMem=  4026531840 cpu:              14.8 elap:               1.9
 (Enter /opt/ohpc/pub/libs/gaussian/g16-A.03/sandybridge/g16/l303.exe)
 DipDrv:  MaxL=1.
 Leave Link  303 at Mon Jul 27 11:15:51 2020, MaxMem=  4026531840 cpu:               1.1 elap:               0.2
 (Enter /opt/ohpc/pub/libs/gaussian/g16-A.03/sandybridge/g16/l401.exe)
 ExpMin= 1.22D-01 ExpMax= 1.17D+04 ExpMxC= 4.01D+02 IAcc=3 IRadAn=         5 AccDes= 0.00D+00
 Harris functional with IExCor=32609 and IRadAn=       5 diagonalized for initial guess.
 HarFok:  IExCor=32609 AccDes= 0.00D+00 IRadAn=         5 IDoV= 1 UseB2=F ITyADJ=14
 ICtDFT=  3500011 ScaDFX=  1.000000  1.000000  1.000000  1.000000
 FoFCou: FMM=F IPFlag=           0 FMFlag=      100000 FMFlg1=        2001
         NFxFlg=           0 DoJE=T BraDBF=F KetDBF=T FulRan=T
         wScrn=  0.000000 ICntrl=       500 IOpCl=  0 I1Cent=   200000004 NGrid=           0
         NMat0=    1 NMatS0=      1 NMatT0=    0 NMatD0=    1 NMtDS0=    0 NMtDT0=    0
 Petite list used in FoFCou.
 Harris En= -1825.67185560539    
 JPrj=0 DoOrth=F DoCkMO=F.
 Initial guess <Sx>= 0.0000 <Sy>= 0.0000 <Sz>= 0.0000 <S**2>=-0.0000 S=-0.0000
 Leave Link  401 at Mon Jul 27 11:15:59 2020, MaxMem=  4026531840 cpu:              62.8 elap:               7.9
 (Enter /opt/ohpc/pub/libs/gaussian/g16-A.03/sandybridge/g16/l502.exe)
 Integral symmetry usage will be decided dynamically.
 UHF open shell SCF:
 Using DIIS extrapolation, IDIIS=  1040.
 NGot=  4026531840 LenX=  4025362672 LenY=  4024784312
 Requested convergence on RMS density matrix=1.00D-08 within 128 cycles.
 Requested convergence on MAX density matrix=1.00D-06.
 Requested convergence on             energy=1.00D-06.
 No special actions if energy rises.
 Fock matrices will be formed incrementally for  20 cycles.
 Integral accuracy reduced to 1.0D-05 until final iterations.

 Cycle   1  Pass 0  IDiag  1:
 FoFJK:  IHMeth= 1 ICntrl=       0 DoSepK=T KAlg= 0 I1Cent=           0 FoldK=F
 IRaf=         1 NMat=       1 IRICut=       1 DoRegI=T DoRafI=F ISym2E= 0 IDoP0=0 IntGTp=1.
 FoFCou: FMM=T IPFlag=           0 FMFlag=      100000 FMFlg1=        2001
         NFxFlg=           0 DoJE=T BraDBF=F KetDBF=F FulRan=T
         wScrn=  0.000000 ICntrl=       500 IOpCl=  0 I1Cent=           0 NGrid=           0
         NMat0=    1 NMatS0=      1 NMatT0=    0 NMatD0=    1 NMtDS0=    0 NMtDT0=    0
 Symmetry not used in FoFCou.
 FMM levels:  10  Number of levels for PrismC:   9
 E= -1825.47245546837    
 DIIS: error= 1.29D-02 at cycle   1 NSaved=   1.
 NSaved= 1 IEnMin= 1 EnMin= -1825.47245546837     IErMin= 1 ErrMin= 1.29D-02
 ErrMax= 1.29D-02  0.00D+00 EMaxC= 1.00D-01 BMatC= 1.83D+00 BMatP= 1.83D+00
 IDIUse=3 WtCom= 8.71D-01 WtEn= 1.29D-01
 Coeff-Com:  0.100D+01
 Coeff-En:   0.100D+01
 Coeff:      0.100D+01
 Gap=     0.343 Goal=   None    Shift=    0.000
 Gap=     0.343 Goal=   None    Shift=    0.000
 GapD=    0.343 DampG=1.000 DampE=0.500 DampFc=0.5000 IDamp=-1.
 Damping current iteration by 5.00D-01
 RMSDP=1.83D-03 MaxDP=7.00D-02              OVMax= 9.97D-02

 Cycle   2  Pass 0  IDiag  1:
 RMSU=  8.91D-04    CP:  9.83D-01
 E= -1825.74862575086     Delta-E=       -0.276170282486 Rises=F Damp=T
 DIIS: error= 5.23D-03 at cycle   2 NSaved=   2.
 NSaved= 2 IEnMin= 2 EnMin= -1825.74862575086     IErMin= 2 ErrMin= 5.23D-03
 ErrMax= 5.23D-03  0.00D+00 EMaxC= 1.00D-01 BMatC= 2.27D-01 BMatP= 1.83D+00
 IDIUse=3 WtCom= 9.48D-01 WtEn= 5.23D-02
 Coeff-Com: -0.369D+00 0.137D+01
 Coeff-En:   0.000D+00 0.100D+01
 Coeff:     -0.350D+00 0.135D+01
 Gap=     0.342 Goal=   None    Shift=    0.000
 Gap=     0.342 Goal=   None    Shift=    0.000
 RMSDP=8.25D-04 MaxDP=2.19D-02 DE=-2.76D-01 OVMax= 4.65D-02

 Cycle   3  Pass 0  IDiag  1:
 RMSU=  4.47D-04    CP:  9.68D-01  1.75D+00
 E= -1825.98631013429     Delta-E=       -0.237684383432 Rises=F Damp=F
 DIIS: error= 1.57D-03 at cycle   3 NSaved=   3.
 NSaved= 3 IEnMin= 3 EnMin= -1825.98631013429     IErMin= 3 ErrMin= 1.57D-03
 ErrMax= 1.57D-03  0.00D+00 EMaxC= 1.00D-01 BMatC= 3.14D-02 BMatP= 2.27D-01
 IDIUse=3 WtCom= 9.84D-01 WtEn= 1.57D-02
 Coeff-Com: -0.162D+00 0.460D+00 0.703D+00
 Coeff-En:   0.000D+00 0.000D+00 0.100D+01
 Coeff:     -0.160D+00 0.452D+00 0.707D+00
 Gap=     0.340 Goal=   None    Shift=    0.000
 Gap=     0.340 Goal=   None    Shift=    0.000
 RMSDP=1.59D-04 MaxDP=9.91D-03 DE=-2.38D-01 OVMax= 2.14D-02

 Cycle   4  Pass 0  IDiag  1:
 RMSU=  1.45D-04    CP:  9.67D-01  1.77D+00  8.64D-01
 E= -1825.99331998517     Delta-E=       -0.007009850880 Rises=F Damp=F
 DIIS: error= 8.83D-04 at cycle   4 NSaved=   4.
 NSaved= 4 IEnMin= 4 EnMin= -1825.99331998517     IErMin= 4 ErrMin= 8.83D-04
 ErrMax= 8.83D-04  0.00D+00 EMaxC= 1.00D-01 BMatC= 4.56D-03 BMatP= 3.14D-02
 IDIUse=3 WtCom= 9.91D-01 WtEn= 8.83D-03
 Coeff-Com: -0.205D-01 0.353D-01 0.279D+00 0.706D+00
 Coeff-En:   0.000D+00 0.000D+00 0.000D+00 0.100D+01
 Coeff:     -0.203D-01 0.350D-01 0.276D+00 0.709D+00
 Gap=     0.340 Goal=   None    Shift=    0.000
 Gap=     0.340 Goal=   None    Shift=    0.000
 RMSDP=6.41D-05 MaxDP=3.86D-03 DE=-7.01D-03 OVMax= 7.51D-03

 Cycle   5  Pass 0  IDiag  1:
 RMSU=  4.15D-05    CP:  9.67D-01  1.79D+00  9.49D-01  8.30D-01
 E= -1825.99450752392     Delta-E=       -0.001187538748 Rises=F Damp=F
 DIIS: error= 3.56D-04 at cycle   5 NSaved=   5.
 NSaved= 5 IEnMin= 5 EnMin= -1825.99450752392     IErMin= 5 ErrMin= 3.56D-04
 ErrMax= 3.56D-04  0.00D+00 EMaxC= 1.00D-01 BMatC= 4.50D-04 BMatP= 4.56D-03
 IDIUse=3 WtCom= 9.96D-01 WtEn= 3.56D-03
 Coeff-Com:  0.819D-02-0.300D-01 0.422D-01 0.274D+00 0.706D+00
 Coeff-En:   0.000D+00 0.000D+00 0.000D+00 0.000D+00 0.100D+01
 Coeff:      0.816D-02-0.299D-01 0.421D-01 0.273D+00 0.707D+00
 Gap=     0.341 Goal=   None    Shift=    0.000
 Gap=     0.341 Goal=   None    Shift=    0.000
 RMSDP=2.15D-05 MaxDP=1.10D-03 DE=-1.19D-03 OVMax= 2.10D-03

 Cycle   6  Pass 0  IDiag  1:
 RMSU=  1.67D-05    CP:  9.67D-01  1.79D+00  9.58D-01  9.15D-01  9.43D-01
 E= -1825.99465564617     Delta-E=       -0.000148122247 Rises=F Damp=F
 DIIS: error= 8.19D-05 at cycle   6 NSaved=   6.
 NSaved= 6 IEnMin= 6 EnMin= -1825.99465564617     IErMin= 6 ErrMin= 8.19D-05
 ErrMax= 8.19D-05  0.00D+00 EMaxC= 1.00D-01 BMatC= 4.94D-05 BMatP= 4.50D-04
 IDIUse=1 WtCom= 1.00D+00 WtEn= 0.00D+00
 Coeff-Com:  0.545D-02-0.148D-01-0.203D-01-0.552D-02 0.223D+00 0.812D+00
 Coeff:      0.545D-02-0.148D-01-0.203D-01-0.552D-02 0.223D+00 0.812D+00
 Gap=     0.341 Goal=   None    Shift=    0.000
 Gap=     0.341 Goal=   None    Shift=    0.000
 RMSDP=1.05D-05 MaxDP=3.87D-04 DE=-1.48D-04 OVMax= 1.48D-03

 Cycle   7  Pass 0  IDiag  1:
 RMSU=  7.79D-06    CP:  9.67D-01  1.79D+00  9.65D-01  9.30D-01  1.07D+00
                    CP:  1.06D+00
 E= -1825.99468787007     Delta-E=       -0.000032223898 Rises=F Damp=F
 DIIS: error= 3.06D-05 at cycle   7 NSaved=   7.
 NSaved= 7 IEnMin= 7 EnMin= -1825.99468787007     IErMin= 7 ErrMin= 3.06D-05
 ErrMax= 3.06D-05  0.00D+00 EMaxC= 1.00D-01 BMatC= 7.68D-06 BMatP= 4.94D-05
 IDIUse=1 WtCom= 1.00D+00 WtEn= 0.00D+00
 Coeff-Com:  0.377D-03 0.198D-03-0.962D-02-0.412D-01-0.517D-01 0.207D+00
 Coeff-Com:  0.895D+00
 Coeff:      0.377D-03 0.198D-03-0.962D-02-0.412D-01-0.517D-01 0.207D+00
 Coeff:      0.895D+00
 Gap=     0.341 Goal=   None    Shift=    0.000
 Gap=     0.341 Goal=   None    Shift=    0.000
 RMSDP=8.49D-06 MaxDP=2.41D-04 DE=-3.22D-05 OVMax= 6.38D-04

 Initial convergence to 1.0D-05 achieved.  Increase integral accuracy.
 Cycle   8  Pass 1  IDiag  1:
 E= -1825.99408848958     Delta-E=        0.000599380490 Rises=F Damp=F
 DIIS: error= 3.66D-04 at cycle   1 NSaved=   1.
 NSaved= 1 IEnMin= 1 EnMin= -1825.99408848958     IErMin= 1 ErrMin= 3.66D-04
 ErrMax= 3.66D-04  0.00D+00 EMaxC= 1.00D-01 BMatC= 1.25D-04 BMatP= 1.25D-04
 IDIUse=3 WtCom= 9.96D-01 WtEn= 3.66D-03
 Coeff-Com:  0.100D+01
 Coeff-En:   0.100D+01
 Coeff:      0.100D+01
 Gap=     0.341 Goal=   None    Shift=    0.000
 Gap=     0.341 Goal=   None    Shift=    0.000
 RMSDP=8.49D-06 MaxDP=2.41D-04 DE= 5.99D-04 OVMax= 6.36D-04

 Cycle   9  Pass 1  IDiag  1:
 RMSU=  1.31D-04    CP:  1.00D+00
 E= -1825.99411384324     Delta-E=       -0.000025353665 Rises=F Damp=F
 DIIS: error= 2.03D-05 at cycle   2 NSaved=   2.
 NSaved= 2 IEnMin= 2 EnMin= -1825.99411384324     IErMin= 2 ErrMin= 2.03D-05
 ErrMax= 2.03D-05  0.00D+00 EMaxC= 1.00D-01 BMatC= 1.46D-06 BMatP= 1.25D-04
 IDIUse=1 WtCom= 1.00D+00 WtEn= 0.00D+00
 Coeff-Com: -0.220D-01 0.102D+01
 Coeff:     -0.220D-01 0.102D+01
 Gap=     0.341 Goal=   None    Shift=    0.000
 Gap=     0.341 Goal=   None    Shift=    0.000
 RMSDP=8.35D-06 MaxDP=4.80D-04 DE=-2.54D-05 OVMax= 2.48D-04

 Cycle  10  Pass 1  IDiag  1:
 RMSU=  3.13D-06    CP:  1.00D+00  1.06D+00
 E= -1825.99411424271     Delta-E=       -0.000000399469 Rises=F Damp=F
 DIIS: error= 1.42D-05 at cycle   3 NSaved=   3.
 NSaved= 3 IEnMin= 3 EnMin= -1825.99411424271     IErMin= 3 ErrMin= 1.42D-05
 ErrMax= 1.42D-05  0.00D+00 EMaxC= 1.00D-01 BMatC= 1.43D-06 BMatP= 1.46D-06
 IDIUse=1 WtCom= 1.00D+00 WtEn= 0.00D+00
 Coeff-Com: -0.215D-01 0.519D+00 0.502D+00
 Coeff:     -0.215D-01 0.519D+00 0.502D+00
 Gap=     0.341 Goal=   None    Shift=    0.000
 Gap=     0.341 Goal=   None    Shift=    0.000
 RMSDP=8.53D-07 MaxDP=6.42D-05 DE=-3.99D-07 OVMax= 1.11D-04

 Cycle  11  Pass 1  IDiag  1:
 RMSU=  8.04D-07    CP:  1.00D+00  1.06D+00  9.52D-01
 E= -1825.99411459070     Delta-E=       -0.000000347993 Rises=F Damp=F
 DIIS: error= 3.83D-06 at cycle   4 NSaved=   4.
 NSaved= 4 IEnMin= 4 EnMin= -1825.99411459070     IErMin= 4 ErrMin= 3.83D-06
 ErrMax= 3.83D-06  0.00D+00 EMaxC= 1.00D-01 BMatC= 6.23D-08 BMatP= 1.43D-06
 IDIUse=1 WtCom= 1.00D+00 WtEn= 0.00D+00
 Coeff-Com:  0.476D-02-0.166D+00-0.770D-01 0.124D+01
 Coeff:      0.476D-02-0.166D+00-0.770D-01 0.124D+01
 Gap=     0.341 Goal=   None    Shift=    0.000
 Gap=     0.341 Goal=   None    Shift=    0.000
 RMSDP=6.36D-07 MaxDP=1.95D-05 DE=-3.48D-07 OVMax= 9.84D-05

 Cycle  12  Pass 1  IDiag  1:
 RMSU=  4.17D-07    CP:  1.00D+00  1.06D+00  1.07D+00  1.24D+00
 E= -1825.99411473412     Delta-E=       -0.000000143418 Rises=F Damp=F
 DIIS: error= 1.92D-06 at cycle   5 NSaved=   5.
 NSaved= 5 IEnMin= 5 EnMin= -1825.99411473412     IErMin= 5 ErrMin= 1.92D-06
 ErrMax= 1.92D-06  0.00D+00 EMaxC= 1.00D-01 BMatC= 2.56D-08 BMatP= 6.23D-08
 IDIUse=1 WtCom= 1.00D+00 WtEn= 0.00D+00
 Coeff-Com:  0.829D-02-0.221D+00-0.186D+00 0.526D+00 0.873D+00
 Coeff:      0.829D-02-0.221D+00-0.186D+00 0.526D+00 0.873D+00
 Gap=     0.341 Goal=   None    Shift=    0.000
 Gap=     0.341 Goal=   None    Shift=    0.000
 RMSDP=3.37D-07 MaxDP=1.26D-05 DE=-1.43D-07 OVMax= 6.72D-05

 Cycle  13  Pass 1  IDiag  1:
 RMSU=  1.72D-07    CP:  1.00D+00  1.06D+00  1.10D+00  1.44D+00  1.50D+00
 E= -1825.99411475354     Delta-E=       -0.000000019414 Rises=F Damp=F
 DIIS: error= 8.77D-07 at cycle   6 NSaved=   6.
 NSaved= 6 IEnMin= 6 EnMin= -1825.99411475354     IErMin= 6 ErrMin= 8.77D-07
 ErrMax= 8.77D-07  0.00D+00 EMaxC= 1.00D-01 BMatC= 3.76D-09 BMatP= 2.56D-08
 IDIUse=1 WtCom= 1.00D+00 WtEn= 0.00D+00
 Coeff-Com:  0.806D-03-0.130D-01-0.278D-01-0.165D+00 0.210D+00 0.995D+00
 Coeff:      0.806D-03-0.130D-01-0.278D-01-0.165D+00 0.210D+00 0.995D+00
 Gap=     0.341 Goal=   None    Shift=    0.000
 Gap=     0.341 Goal=   None    Shift=    0.000
 RMSDP=1.67D-07 MaxDP=5.87D-06 DE=-1.94D-08 OVMax= 3.01D-05

 Cycle  14  Pass 1  IDiag  1:
 RMSU=  6.54D-08    CP:  1.00D+00  1.06D+00  1.10D+00  1.48D+00  1.83D+00
                    CP:  1.17D+00
 E= -1825.99411475780     Delta-E=       -0.000000004268 Rises=F Damp=F
 DIIS: error= 3.33D-07 at cycle   7 NSaved=   7.
 NSaved= 7 IEnMin= 7 EnMin= -1825.99411475780     IErMin= 7 ErrMin= 3.33D-07
 ErrMax= 3.33D-07  0.00D+00 EMaxC= 1.00D-01 BMatC= 8.83D-10 BMatP= 3.76D-09
 IDIUse=1 WtCom= 1.00D+00 WtEn= 0.00D+00
 Coeff-Com: -0.689D-03 0.224D-01 0.107D-01-0.147D+00-0.218D-01 0.470D+00
 Coeff-Com:  0.666D+00
 Coeff:     -0.689D-03 0.224D-01 0.107D-01-0.147D+00-0.218D-01 0.470D+00
 Coeff:      0.666D+00
 Gap=     0.341 Goal=   None    Shift=    0.000
 Gap=     0.341 Goal=   None    Shift=    0.000
 RMSDP=4.65D-08 MaxDP=1.92D-06 DE=-4.27D-09 OVMax= 8.21D-06

 Cycle  15  Pass 1  IDiag  1:
 RMSU=  2.37D-08    CP:  1.00D+00  1.06D+00  1.10D+00  1.49D+00  1.90D+00
                    CP:  1.30D+00  1.05D+00
 E= -1825.99411475850     Delta-E=       -0.000000000698 Rises=F Damp=F
 DIIS: error= 7.48D-08 at cycle   8 NSaved=   8.
 NSaved= 8 IEnMin= 8 EnMin= -1825.99411475850     IErMin= 8 ErrMin= 7.48D-08
 ErrMax= 7.48D-08  0.00D+00 EMaxC= 1.00D-01 BMatC= 6.38D-11 BMatP= 8.83D-10
 IDIUse=1 WtCom= 1.00D+00 WtEn= 0.00D+00
 Coeff-Com: -0.859D-04 0.113D-02 0.367D-02 0.267D-01-0.354D-01-0.127D+00
 Coeff-Com:  0.311D-01 0.110D+01
 Coeff:     -0.859D-04 0.113D-02 0.367D-02 0.267D-01-0.354D-01-0.127D+00
 Coeff:      0.311D-01 0.110D+01
 Gap=     0.341 Goal=   None    Shift=    0.000
 Gap=     0.341 Goal=   None    Shift=    0.000
 RMSDP=1.87D-08 MaxDP=5.87D-07 DE=-6.98D-10 OVMax= 3.36D-06

 Cycle  16  Pass 1  IDiag  1:
 RMSU=  9.68D-09    CP:  1.00D+00  1.06D+00  1.10D+00  1.49D+00  1.90D+00
                    CP:  1.32D+00  1.23D+00  1.30D+00
 E= -1825.99411475835     Delta-E=        0.000000000154 Rises=F Damp=F
 DIIS: error= 4.66D-08 at cycle   9 NSaved=   9.
 NSaved= 9 IEnMin= 8 EnMin= -1825.99411475850     IErMin= 9 ErrMin= 4.66D-08
 ErrMax= 4.66D-08  0.00D+00 EMaxC= 1.00D-01 BMatC= 1.44D-11 BMatP= 6.38D-11
 IDIUse=1 WtCom= 1.00D+00 WtEn= 0.00D+00
 Coeff-Com:  0.138D-03-0.498D-02-0.122D-02 0.437D-01-0.100D-01-0.147D+00
 Coeff-Com: -0.131D+00 0.334D+00 0.917D+00
 Coeff:      0.138D-03-0.498D-02-0.122D-02 0.437D-01-0.100D-01-0.147D+00
 Coeff:     -0.131D+00 0.334D+00 0.917D+00
 Gap=     0.341 Goal=   None    Shift=    0.000
 Gap=     0.341 Goal=   None    Shift=    0.000
 RMSDP=8.22D-09 MaxDP=3.18D-07 DE= 1.54D-10 OVMax= 1.63D-06

 SCF Done:  E(ULC-wPBE) =  -1825.99411476     A.U. after   16 cycles
            NFock= 16  Conv=0.82D-08     -V/T= 2.0074
 <Sx>= 0.0000 <Sy>= 0.0000 <Sz>= 0.0000 <S**2>=-0.0000 S=-0.0000
 <L.S>= 0.000000000000E+00
 KE= 1.812582922888D+03 PE=-1.227161550501D+04 EE= 4.621388206686D+03
 Annihilation of the first spin contaminant:
 S**2 before annihilation    -0.0000,   after    -0.0000
 Leave Link  502 at Mon Jul 27 11:23:23 2020, MaxMem=  4026531840 cpu:            3479.5 elap:             443.4
 (Enter /opt/ohpc/pub/libs/gaussian/g16-A.03/sandybridge/g16/l601.exe)
 Copying SCF densities to generalized density rwf, IOpCl= 1 IROHF=0.

 **********************************************************************

            Population analysis using the SCF density.

 **********************************************************************

 Orbital symmetries:
 Alpha Orbitals:
       Occupied  (A) (A) (A) (A) (A) (A) (A) (A) (A) (A) (A) (A)
                 (A) (A) (A) (A) (A) (A) (A) (A) (A) (A) (A) (A)
                 (A) (A) (A) (A) (A) (A) (A) (A) (A) (A) (A) (A)
                 (A) (A) (A) (A) (A) (A) (A) (A) (A) (A) (A) (A)
                 (A) (A) (A) (A) (A) (A) (A) (A) (A) (A) (A) (A)
                 (A) (A) (A) (A) (A) (A) (A) (A) (A) (A) (A) (A)
                 (A) (A) (A) (A) (A) (A) (A) (A) (A) (A) (A) (A)
                 (A) (A) (A) (A) (A) (A) (A) (A) (A) (A) (A) (A)
                 (A) (A) (A) (A) (A) (A) (A) (A) (A) (A) (A) (A)
                 (A) (A) (A) (A) (A) (A) (A) (A) (A) (A) (A) (A)
                 (A) (A) (A) (A) (A) (A) (A) (A) (A) (A) (A) (A)
                 (A) (A) (A) (A) (A) (A) (A) (A) (A) (A) (A) (A)
                 (A)
       Virtual   (A) (A) (A) (A) (A) (A) (A) (A) (A) (A) (A) (A)
                 (A) (A) (A) (A) (A) (A) (A) (A) (A) (A) (A) (A)
                 (A) (A) (A) (A) (A) (A) (A) (A) (A) (A) (A) (A)
                 (A) (A) (A) (A) (A) (A) (A) (A) (A) (A) (A) (A)
                 (A) (A) (A) (A) (A) (A) (A) (A) (A) (A) (A) (A)
                 (A) (A) (A) (A) (A) (A) (A) (A) (A) (A) (A) (A)
                 (A) (A) (A) (A) (A) (A) (A) (A) (A) (A) (A) (A)
                 (A) (A) (A) (A) (A) (A) (A) (A) (A) (A) (A) (A)
                 (A) (A) (A) (A) (A) (A) (A) (A) (A) (A) (A) (A)
                 (A) (A) (A) (A) (A) (A) (A) (A) (A) (A) (A) (A)
                 (A) (A) (A) (A) (A) (A) (A) (A) (A) (A) (A) (A)
                 (A) (A) (A) (A) (A) (A) (A) (A) (A) (A) (A) (A)
                 (A) (A) (A) (A) (A) (A) (A) (A) (A) (A) (A) (A)
                 (A) (A) (A) (A) (A) (A) (A) (A) (A) (A) (A) (A)
                 (A) (A) (A) (A) (A) (A) (A) (A) (A) (A) (A) (A)
                 (A) (A) (A) (A) (A) (A) (A) (A) (A) (A) (A) (A)
                 (A) (A) (A) (A) (A) (A) (A) (A) (A) (A) (A) (A)
                 (A) (A) (A) (A) (A) (A) (A) (A) (A) (A) (A) (A)
                 (A) (A) (A) (A) (A) (A) (A) (A) (A) (A) (A) (A)
                 (A) (A) (A) (A) (A) (A) (A) (A) (A) (A) (A) (A)
                 (A) (A) (A) (A) (A) (A) (A) (A) (A) (A) (A) (A)
                 (A) (A) (A) (A) (A) (A) (A) (A) (A) (A) (A) (A)
                 (A) (A) (A) (A) (A) (A) (A) (A) (A) (A) (A) (A)
                 (A) (A) (A) (A) (A) (A) (A) (A) (A) (A) (A) (A)
                 (A) (A) (A) (A) (A) (A) (A) (A) (A) (A) (A) (A)
                 (A) (A) (A) (A) (A) (A) (A) (A) (A) (A) (A) (A)
                 (A) (A) (A) (A) (A) (A) (A) (A) (A) (A) (A) (A)
                 (A) (A) (A) (A) (A) (A) (A) (A) (A) (A) (A) (A)
                 (A) (A) (A) (A) (A) (A) (A) (A) (A) (A) (A) (A)
                 (A) (A) (A) (A) (A) (A) (A) (A) (A) (A) (A) (A)
                 (A) (A) (A) (A) (A) (A) (A) (A) (A) (A) (A) (A)
                 (A) (A) (A) (A) (A) (A) (A) (A) (A) (A) (A) (A)
                 (A) (A) (A) (A) (A) (A) (A) (A) (A) (A) (A) (A)
                 (A) (A) (A) (A) (A) (A) (A) (A) (A) (A) (A) (A)
                 (A) (A) (A) (A) (A) (A) (A) (A) (A) (A) (A) (A)
                 (A) (A) (A) (A) (A) (A) (A) (A) (A) (A) (A) (A)
                 (A) (A) (A) (A) (A) (A) (A) (A) (A) (A) (A) (A)
                 (A) (A) (A) (A) (A) (A) (A) (A) (A) (A) (A) (A)
                 (A) (A) (A) (A) (A) (A) (A) (A) (A) (A) (A) (A)
                 (A) (A) (A) (A) (A) (A) (A) (A) (A) (A) (A) (A)
                 (A) (A) (A) (A) (A) (A) (A) (A) (A) (A) (A) (A)
                 (A) (A) (A) (A) (A) (A) (A) (A) (A) (A) (A) (A)
                 (A) (A) (A) (A) (A) (A) (A) (A) (A) (A) (A) (A)
                 (A) (A) (A) (A) (A) (A) (A) (A) (A) (A) (A) (A)
                 (A) (A) (A) (A) (A) (A) (A) (A) (A) (A) (A) (A)
                 (A) (A) (A) (A) (A) (A) (A) (A) (A) (A) (A) (A)
                 (A) (A) (A) (A) (A) (A) (A) (A) (A) (A) (A) (A)
                 (A) (A) (A) (A) (A) (A) (A) (A) (A)
 Beta  Orbitals:
       Occupied  (A) (A) (A) (A) (A) (A) (A) (A) (A) (A) (A) (A)
                 (A) (A) (A) (A) (A) (A) (A) (A) (A) (A) (A) (A)
                 (A) (A) (A) (A) (A) (A) (A) (A) (A) (A) (A) (A)
                 (A) (A) (A) (A) (A) (A) (A) (A) (A) (A) (A) (A)
                 (A) (A) (A) (A) (A) (A) (A) (A) (A) (A) (A) (A)
                 (A) (A) (A) (A) (A) (A) (A) (A) (A) (A) (A) (A)
                 (A) (A) (A) (A) (A) (A) (A) (A) (A) (A) (A) (A)
                 (A) (A) (A) (A) (A) (A) (A) (A) (A) (A) (A) (A)
                 (A) (A) (A) (A) (A) (A) (A) (A) (A) (A) (A) (A)
                 (A) (A) (A) (A) (A) (A) (A) (A) (A) (A) (A) (A)
                 (A) (A) (A) (A) (A) (A) (A) (A) (A) (A) (A) (A)
                 (A) (A) (A) (A) (A) (A) (A) (A) (A) (A) (A) (A)
                 (A)
       Virtual   (A) (A) (A) (A) (A) (A) (A) (A) (A) (A) (A) (A)
                 (A) (A) (A) (A) (A) (A) (A) (A) (A) (A) (A) (A)
                 (A) (A) (A) (A) (A) (A) (A) (A) (A) (A) (A) (A)
                 (A) (A) (A) (A) (A) (A) (A) (A) (A) (A) (A) (A)
                 (A) (A) (A) (A) (A) (A) (A) (A) (A) (A) (A) (A)
                 (A) (A) (A) (A) (A) (A) (A) (A) (A) (A) (A) (A)
                 (A) (A) (A) (A) (A) (A) (A) (A) (A) (A) (A) (A)
                 (A) (A) (A) (A) (A) (A) (A) (A) (A) (A) (A) (A)
                 (A) (A) (A) (A) (A) (A) (A) (A) (A) (A) (A) (A)
                 (A) (A) (A) (A) (A) (A) (A) (A) (A) (A) (A) (A)
                 (A) (A) (A) (A) (A) (A) (A) (A) (A) (A) (A) (A)
                 (A) (A) (A) (A) (A) (A) (A) (A) (A) (A) (A) (A)
                 (A) (A) (A) (A) (A) (A) (A) (A) (A) (A) (A) (A)
                 (A) (A) (A) (A) (A) (A) (A) (A) (A) (A) (A) (A)
                 (A) (A) (A) (A) (A) (A) (A) (A) (A) (A) (A) (A)
                 (A) (A) (A) (A) (A) (A) (A) (A) (A) (A) (A) (A)
                 (A) (A) (A) (A) (A) (A) (A) (A) (A) (A) (A) (A)
                 (A) (A) (A) (A) (A) (A) (A) (A) (A) (A) (A) (A)
                 (A) (A) (A) (A) (A) (A) (A) (A) (A) (A) (A) (A)
                 (A) (A) (A) (A) (A) (A) (A) (A) (A) (A) (A) (A)
                 (A) (A) (A) (A) (A) (A) (A) (A) (A) (A) (A) (A)
                 (A) (A) (A) (A) (A) (A) (A) (A) (A) (A) (A) (A)
                 (A) (A) (A) (A) (A) (A) (A) (A) (A) (A) (A) (A)
                 (A) (A) (A) (A) (A) (A) (A) (A) (A) (A) (A) (A)
                 (A) (A) (A) (A) (A) (A) (A) (A) (A) (A) (A) (A)
                 (A) (A) (A) (A) (A) (A) (A) (A) (A) (A) (A) (A)
                 (A) (A) (A) (A) (A) (A) (A) (A) (A) (A) (A) (A)
                 (A) (A) (A) (A) (A) (A) (A) (A) (A) (A) (A) (A)
                 (A) (A) (A) (A) (A) (A) (A) (A) (A) (A) (A) (A)
                 (A) (A) (A) (A) (A) (A) (A) (A) (A) (A) (A) (A)
                 (A) (A) (A) (A) (A) (A) (A) (A) (A) (A) (A) (A)
                 (A) (A) (A) (A) (A) (A) (A) (A) (A) (A) (A) (A)
                 (A) (A) (A) (A) (A) (A) (A) (A) (A) (A) (A) (A)
                 (A) (A) (A) (A) (A) (A) (A) (A) (A) (A) (A) (A)
                 (A) (A) (A) (A) (A) (A) (A) (A) (A) (A) (A) (A)
                 (A) (A) (A) (A) (A) (A) (A) (A) (A) (A) (A) (A)
                 (A) (A) (A) (A) (A) (A) (A) (A) (A) (A) (A) (A)
                 (A) (A) (A) (A) (A) (A) (A) (A) (A) (A) (A) (A)
                 (A) (A) (A) (A) (A) (A) (A) (A) (A) (A) (A) (A)
                 (A) (A) (A) (A) (A) (A) (A) (A) (A) (A) (A) (A)
                 (A) (A) (A) (A) (A) (A) (A) (A) (A) (A) (A) (A)
                 (A) (A) (A) (A) (A) (A) (A) (A) (A) (A) (A) (A)
                 (A) (A) (A) (A) (A) (A) (A) (A) (A) (A) (A) (A)
                 (A) (A) (A) (A) (A) (A) (A) (A) (A) (A) (A) (A)
                 (A) (A) (A) (A) (A) (A) (A) (A) (A) (A) (A) (A)
                 (A) (A) (A) (A) (A) (A) (A) (A) (A) (A) (A) (A)
                 (A) (A) (A) (A) (A) (A) (A) (A) (A) (A) (A) (A)
                 (A) (A) (A) (A) (A) (A) (A) (A) (A)
 The electronic state is 1-A.
 Alpha  occ. eigenvalues --  -19.06453 -19.06181 -19.05947 -14.26840 -14.26380
 Alpha  occ. eigenvalues --  -14.26218 -14.25712 -14.25373 -14.24541 -10.24112
 Alpha  occ. eigenvalues --  -10.24064 -10.23884 -10.23532 -10.23033 -10.22682
 Alpha  occ. eigenvalues --  -10.21453 -10.20754 -10.20580 -10.20497 -10.20238
 Alpha  occ. eigenvalues --  -10.20235 -10.20138 -10.20103 -10.19926 -10.19821
 Alpha  occ. eigenvalues --  -10.19761 -10.19749 -10.19556 -10.19283 -10.19159
 Alpha  occ. eigenvalues --  -10.19146 -10.18847 -10.18626 -10.18501 -10.18390
 Alpha  occ. eigenvalues --  -10.18315 -10.17939 -10.17731 -10.17682 -10.17255
 Alpha  occ. eigenvalues --  -10.16433 -10.16204  -1.26445  -1.24852  -1.23786
 Alpha  occ. eigenvalues --   -1.13524  -1.12755  -1.12416  -1.10875  -1.10190
 Alpha  occ. eigenvalues --   -1.09664  -1.03173  -1.01378  -0.98641  -0.97979
 Alpha  occ. eigenvalues --   -0.97514  -0.97071  -0.96637  -0.96036  -0.95702
 Alpha  occ. eigenvalues --   -0.93794  -0.92131  -0.90871  -0.88735  -0.87994
 Alpha  occ. eigenvalues --   -0.87506  -0.84932  -0.82258  -0.81323  -0.80909
 Alpha  occ. eigenvalues --   -0.79343  -0.78513  -0.77676  -0.77514  -0.76848
 Alpha  occ. eigenvalues --   -0.76568  -0.74659  -0.73917  -0.69944  -0.69622
 Alpha  occ. eigenvalues --   -0.69183  -0.68329  -0.67085  -0.66923  -0.66535
 Alpha  occ. eigenvalues --   -0.66192  -0.65405  -0.64216  -0.64170  -0.63608
 Alpha  occ. eigenvalues --   -0.63424  -0.62815  -0.62457  -0.62218  -0.61916
 Alpha  occ. eigenvalues --   -0.61163  -0.60799  -0.59735  -0.58590  -0.58384
 Alpha  occ. eigenvalues --   -0.58223  -0.57636  -0.57467  -0.56461  -0.56219
 Alpha  occ. eigenvalues --   -0.55899  -0.55275  -0.54926  -0.54899  -0.54338
 Alpha  occ. eigenvalues --   -0.53857  -0.53611  -0.53259  -0.53016  -0.52754
 Alpha  occ. eigenvalues --   -0.52506  -0.51380  -0.50649  -0.50461  -0.50036
 Alpha  occ. eigenvalues --   -0.49330  -0.48857  -0.47872  -0.47845  -0.47414
 Alpha  occ. eigenvalues --   -0.47042  -0.46856  -0.42693  -0.40918  -0.40757
 Alpha  occ. eigenvalues --   -0.40647  -0.39709  -0.39551  -0.39348  -0.39193
 Alpha  occ. eigenvalues --   -0.38660  -0.38156  -0.37472  -0.37442  -0.36812
 Alpha  occ. eigenvalues --   -0.36575  -0.36238  -0.33762  -0.33032  -0.32308
 Alpha virt. eigenvalues --    0.01826   0.03384   0.04430   0.04747   0.05963
 Alpha virt. eigenvalues --    0.06320   0.07344   0.07431   0.08080   0.08139
 Alpha virt. eigenvalues --    0.10041   0.11081   0.14734   0.15306   0.15361
 Alpha virt. eigenvalues --    0.16870   0.16936   0.17084   0.18281   0.19378
 Alpha virt. eigenvalues --    0.19561   0.20119   0.20138   0.20285   0.20494
 Alpha virt. eigenvalues --    0.20916   0.21000   0.21201   0.21758   0.21954
 Alpha virt. eigenvalues --    0.22242   0.22636   0.22752   0.22915   0.23220
 Alpha virt. eigenvalues --    0.23482   0.23725   0.23910   0.24560   0.24720
 Alpha virt. eigenvalues --    0.25282   0.25322   0.25898   0.26258   0.26445
 Alpha virt. eigenvalues --    0.26943   0.27262   0.32071   0.33079   0.33264
 Alpha virt. eigenvalues --    0.33834   0.34288   0.34759   0.34909   0.35267
 Alpha virt. eigenvalues --    0.36011   0.36160   0.36367   0.37126   0.37274
 Alpha virt. eigenvalues --    0.38204   0.38557   0.39387   0.39896   0.40858
 Alpha virt. eigenvalues --    0.41576   0.42870   0.43193   0.43642   0.44066
 Alpha virt. eigenvalues --    0.44930   0.45067   0.45793   0.46303   0.46379
 Alpha virt. eigenvalues --    0.47055   0.48307   0.48408   0.48869   0.49082
 Alpha virt. eigenvalues --    0.49758   0.50226   0.51247   0.51750   0.52483
 Alpha virt. eigenvalues --    0.52709   0.53242   0.53506   0.53962   0.54989
 Alpha virt. eigenvalues --    0.55044   0.55393   0.56204   0.56962   0.57096
[...]
 
              Baa    -0.0000    -0.000    -0.000    -0.000 -0.2887 -0.0549  0.9558
     6 C(13)  Bbb     0.0000     0.000     0.000     0.000  0.7141  0.6526  0.2532
              Bcc     0.0000     0.000     0.000     0.000 -0.6377  0.7557 -0.1493
 
              Baa    -0.0000    -0.000    -0.000    -0.000  0.9699 -0.0567  0.2368
     7 C(13)  Bbb    -0.0000    -0.000    -0.000    -0.000 -0.2431 -0.1712  0.9548
              Bcc     0.0000     0.000     0.000     0.000  0.0136  0.9836  0.1798
 
              Baa    -0.0000    -0.000    -0.000    -0.000  0.1449  0.9820  0.1214
     8 N(14)  Bbb     0.0000     0.000     0.000     0.000  0.7602 -0.1890  0.6215
              Bcc     0.0000     0.000     0.000     0.000 -0.6333 -0.0023  0.7739
 
              Baa    -0.0000    -0.000    -0.000    -0.000  0.9909 -0.0482  0.1260
     9 C(13)  Bbb    -0.0000    -0.000    -0.000    -0.000 -0.1284 -0.0515  0.9904
              Bcc     0.0000     0.000     0.000     0.000  0.0412  0.9975  0.0572
 
              Baa    -0.0000    -0.000    -0.000    -0.000  0.0306  0.9955  0.0900
    10 C(13)  Bbb    -0.0000    -0.000    -0.000    -0.000  0.9983 -0.0349  0.0462
              Bcc     0.0000     0.000     0.000     0.000 -0.0491 -0.0884  0.9949
 
              Baa    -0.0000    -0.000    -0.000    -0.000  0.2287 -0.1360  0.9639
    11 C(13)  Bbb     0.0000     0.000     0.000     0.000 -0.4701  0.8516  0.2317
              Bcc     0.0000     0.000     0.000     0.000  0.8524  0.5062 -0.1309
 
              Baa    -0.0000    -0.000    -0.000    -0.000  0.0496  0.9817  0.1839
    12 C(13)  Bbb     0.0000     0.000     0.000     0.000  0.8684  0.0486 -0.4934
              Bcc     0.0000     0.000     0.000     0.000  0.4933 -0.1842  0.8501
 
              Baa    -0.0000     0.000     0.000     0.000  0.7448  0.2590 -0.6150
    13 O(17)  Bbb    -0.0000     0.000     0.000     0.000 -0.0580  0.9432  0.3270
              Bcc     0.0000    -0.000    -0.000    -0.000  0.6648 -0.2079  0.7176
 
              Baa    -0.0000    -0.000    -0.000    -0.000  0.5301  0.6484 -0.5465
    14 C(13)  Bbb    -0.0000    -0.000    -0.000    -0.000 -0.6986  0.6992  0.1519
              Bcc     0.0000     0.000     0.000     0.000  0.4806  0.3012  0.8236
 
              Baa    -0.0000    -0.000    -0.000    -0.000 -0.4914  0.1478  0.8583
    15 C(13)  Bbb    -0.0000    -0.000    -0.000    -0.000  0.8601 -0.0721  0.5049
              Bcc     0.0000     0.000     0.000     0.000  0.1365  0.9864 -0.0917
 
              Baa    -0.0000    -0.000    -0.000    -0.000  0.9419 -0.2384  0.2365
    16 C(13)  Bbb     0.0000     0.000     0.000     0.000 -0.1690  0.2722  0.9473
              Bcc     0.0000     0.000     0.000     0.000  0.2902  0.9322 -0.2161
 
              Baa    -0.0000    -0.000    -0.000    -0.000  0.1292  0.6379  0.7592
    17 C(13)  Bbb    -0.0000    -0.000    -0.000    -0.000  0.3493  0.6873 -0.6369
              Bcc     0.0000     0.000     0.000     0.000  0.9281 -0.3474  0.1340
 
              Baa    -0.0000    -0.000    -0.000    -0.000  0.9946 -0.0563 -0.0874
    18 C(13)  Bbb     0.0000     0.000     0.000     0.000  0.0407  0.9844 -0.1712
              Bcc     0.0000     0.000     0.000     0.000  0.0957  0.1667  0.9813
 
              Baa    -0.0000    -0.000    -0.000    -0.000  0.1957  0.9697 -0.1464
    19 N(14)  Bbb     0.0000     0.000     0.000     0.000  0.8746 -0.1051  0.4734
              Bcc     0.0000     0.000     0.000     0.000 -0.4436  0.2206  0.8686
 
              Baa    -0.0000    -0.000    -0.000    -0.000 -0.3768  0.7953 -0.4749
    20 C(13)  Bbb     0.0000     0.000     0.000     0.000  0.7031  0.5793  0.4123
              Bcc     0.0000     0.000     0.000     0.000 -0.6030  0.1785  0.7775
 
              Baa    -0.0000    -0.000    -0.000    -0.000 -0.0387 -0.2109  0.9767
    21 C(13)  Bbb     0.0000     0.000     0.000     0.000  0.1058  0.9711  0.2139
              Bcc     0.0000     0.000     0.000     0.000  0.9936 -0.1116  0.0153
 
              Baa    -0.0000    -0.000    -0.000    -0.000  0.0838  0.9964  0.0114
    22 N(14)  Bbb     0.0000     0.000     0.000     0.000 -0.2156  0.0070  0.9765
              Bcc     0.0000     0.000     0.000     0.000  0.9729 -0.0843  0.2154
 
              Baa    -0.0000    -0.000    -0.000    -0.000  0.0403 -0.0670  0.9969
    23 C(13)  Bbb    -0.0000    -0.000    -0.000    -0.000  0.9096 -0.4105 -0.0644
              Bcc     0.0000     0.000     0.000     0.000  0.4135  0.9094  0.0444
 
              Baa    -0.0000    -0.000    -0.000    -0.000  0.8609  0.5082 -0.0254
    24 C(13)  Bbb     0.0000     0.000     0.000     0.000 -0.5026  0.8570  0.1135
              Bcc     0.0000     0.000     0.000     0.000  0.0795 -0.0850  0.9932
 
              Baa    -0.0000    -0.000    -0.000    -0.000  0.0522 -0.0079  0.9986
    25 C(13)  Bbb    -0.0000    -0.000    -0.000    -0.000  0.9920  0.1155 -0.0509
              Bcc     0.0000     0.000     0.000     0.000 -0.1149  0.9933  0.0139
 
              Baa    -0.0000    -0.000    -0.000    -0.000  0.8803  0.4743 -0.0070
    26 C(13)  Bbb    -0.0000    -0.000    -0.000    -0.000 -0.4735  0.8794  0.0491
              Bcc     0.0000     0.000     0.000     0.000  0.0294 -0.0399  0.9988
 
              Baa    -0.0000     0.000     0.000     0.000  0.1945  0.9809 -0.0043
    27 O(17)  Bbb     0.0000    -0.000    -0.000    -0.000 -0.3098  0.0656  0.9485
              Bcc     0.0000    -0.000    -0.000    -0.000  0.9307 -0.1832  0.3167
 
              Baa    -0.0000    -0.000    -0.000    -0.000 -0.0568  0.9688 -0.2415
    28 C(13)  Bbb    -0.0000    -0.000    -0.000    -0.000  0.9954  0.0736  0.0611
              Bcc     0.0000     0.000     0.000     0.000 -0.0770  0.2369  0.9685
 
              Baa    -0.0000    -0.000    -0.000    -0.000  0.2199 -0.1163  0.9686
    29 C(13)  Bbb    -0.0000    -0.000    -0.000    -0.000  0.8458 -0.4719 -0.2487
              Bcc     0.0000     0.000     0.000     0.000  0.4860  0.8739 -0.0054
 
              Baa    -0.0000    -0.000    -0.000    -0.000  0.4314 -0.1990  0.8799
    30 C(13)  Bbb    -0.0000    -0.000    -0.000    -0.000  0.8956 -0.0228 -0.4443
              Bcc     0.0000     0.000     0.000     0.000  0.1085  0.9797  0.1684
 
              Baa    -0.0000    -0.000    -0.000    -0.000 -0.6669 -0.2236  0.7108
    31 C(13)  Bbb    -0.0000    -0.000    -0.000    -0.000 -0.4548  0.8778 -0.1505
              Bcc     0.0000     0.000     0.000     0.000  0.5903  0.4237  0.6871
 
              Baa    -0.0000    -0.000    -0.000    -0.000 -0.1212  0.8521 -0.5092
    32 C(13)  Bbb    -0.0000    -0.000    -0.000    -0.000 -0.0671  0.5048  0.8606
              Bcc     0.0000     0.000     0.000     0.000  0.9904  0.1385 -0.0040
 
              Baa    -0.0000    -0.000    -0.000    -0.000  0.0357  0.3671  0.9295
    33 N(14)  Bbb    -0.0000    -0.000    -0.000    -0.000  0.9917 -0.1277  0.0123
              Bcc     0.0000     0.000     0.000     0.000  0.1232  0.9214 -0.3687
 
              Baa    -0.0000    -0.000    -0.000    -0.000 -0.1753  0.7030 -0.6893
    34 C(13)  Bbb     0.0000     0.000     0.000     0.000  0.9593 -0.0353 -0.2801
              Bcc     0.0000     0.000     0.000     0.000  0.2212  0.7104  0.6682
 
              Baa    -0.0000    -0.000    -0.000    -0.000  0.9631 -0.2691  0.0039
    35 C(13)  Bbb     0.0000     0.000     0.000     0.000  0.2594  0.9245 -0.2794
              Bcc     0.0000     0.000     0.000     0.000  0.0716  0.2701  0.9602
 
              Baa    -0.0000    -0.000    -0.000    -0.000 -0.1694  0.9848  0.0373
    36 N(14)  Bbb    -0.0000    -0.000    -0.000    -0.000 -0.0545 -0.0472  0.9974
              Bcc     0.0000     0.000     0.000     0.000  0.9841  0.1669  0.0616
 
              Baa    -0.0000    -0.000    -0.000    -0.000  0.2394  0.9687  0.0655
    37 C(13)  Bbb     0.0000     0.000     0.000     0.000  0.4538 -0.1712  0.8745
              Bcc     0.0000     0.000     0.000     0.000  0.8584 -0.1796 -0.4806
 
              Baa    -0.0000    -0.000    -0.000    -0.000  0.7695 -0.4833 -0.4174
    38 C(13)  Bbb    -0.0000    -0.000    -0.000    -0.000  0.4306 -0.0900  0.8980
              Bcc     0.0000     0.000     0.000     0.000  0.4716  0.8708 -0.1388
 
              Baa    -0.0000    -0.000    -0.000    -0.000  0.3399  0.9404 -0.0105
    39 C(13)  Bbb    -0.0000    -0.000    -0.000    -0.000  0.9402 -0.3395  0.0265
              Bcc     0.0000     0.000     0.000     0.000 -0.0214  0.0189  0.9996
 
              Baa    -0.0000    -0.000    -0.000    -0.000 -0.5555  0.5429  0.6298
    40 C(13)  Bbb    -0.0000    -0.000    -0.000    -0.000  0.4323 -0.4584  0.7765
              Bcc     0.0000     0.000     0.000     0.000  0.7103  0.7037  0.0199
 
              Baa    -0.0000     0.000     0.000     0.000  0.9652  0.0428  0.2581
    41 O(17)  Bbb     0.0000    -0.000    -0.000    -0.000 -0.2613  0.1120  0.9587
              Bcc     0.0000    -0.000    -0.000    -0.000 -0.0121  0.9928 -0.1192
 
              Baa    -0.0000    -0.000    -0.000    -0.000  0.8346 -0.2905  0.4680
    42 C(13)  Bbb     0.0000     0.000     0.000     0.000  0.5267  0.6696 -0.5236
              Bcc     0.0000     0.000     0.000     0.000 -0.1613  0.6835  0.7119
 
              Baa    -0.0000    -0.000    -0.000    -0.000  0.2361  0.4513  0.8606
    43 H(1)   Bbb     0.0000     0.000     0.000     0.000  0.5096  0.6965 -0.5051
              Bcc     0.0000     0.000     0.000     0.000  0.8274 -0.5578  0.0655
 
              Baa    -0.0000    -0.000    -0.000    -0.000  0.1944 -0.4107  0.8908
    44 H(1)   Bbb    -0.0000    -0.000    -0.000    -0.000  0.6756 -0.6023 -0.4251
              Bcc     0.0000     0.000     0.000     0.000  0.7112  0.6845  0.1604
 
              Baa    -0.0000    -0.000    -0.000    -0.000 -0.1053  0.4137  0.9043
    45 H(1)   Bbb     0.0000     0.000     0.000     0.000  0.9942  0.0636  0.0867
              Bcc     0.0000     0.000     0.000     0.000 -0.0216  0.9082 -0.4180
 
              Baa    -0.0000    -0.000    -0.000    -0.000 -0.0835  0.9008  0.4262
    46 H(1)   Bbb     0.0000     0.000     0.000     0.000  0.6858 -0.2584  0.6804
              Bcc     0.0000     0.000     0.000     0.000  0.7230  0.3490 -0.5962
 
              Baa    -0.0000    -0.000    -0.000    -0.000  0.8747  0.1141 -0.4711
    47 H(1)   Bbb     0.0000     0.000     0.000     0.000  0.0068  0.9689  0.2472
              Bcc     0.0000     0.000     0.000     0.000  0.4847 -0.2194  0.8467
 
              Baa    -0.0000    -0.000    -0.000    -0.000  0.1610  0.9856  0.0510
    48 H(1)   Bbb    -0.0000    -0.000    -0.000    -0.000  0.8703 -0.1662  0.4636
              Bcc     0.0000     0.000     0.000     0.000 -0.4654  0.0302  0.8846
 
              Baa    -0.0000    -0.000    -0.000    -0.000 -0.5117  0.6343  0.5796
    49 H(1)   Bbb     0.0000     0.000     0.000     0.000  0.1662 -0.5887  0.7910
              Bcc     0.0000     0.000     0.000     0.000  0.8430  0.5011  0.1958
 
              Baa    -0.0000    -0.000    -0.000    -0.000 -0.2390 -0.3712  0.8973
    50 H(1)   Bbb     0.0000     0.000     0.000     0.000  0.4132  0.7974  0.4399
              Bcc     0.0000     0.000     0.000     0.000  0.8787 -0.4759  0.0372
 
              Baa    -0.0000    -0.000    -0.000    -0.000  0.2850 -0.3998  0.8712
    51 H(1)   Bbb     0.0000     0.000     0.000     0.000 -0.5770  0.6542  0.4890
              Bcc     0.0000     0.000     0.000     0.000  0.7654  0.6420  0.0443
 
              Baa    -0.0000    -0.000    -0.000    -0.000  0.0099 -0.5918  0.8060
    52 H(1)   Bbb    -0.0000    -0.000    -0.000    -0.000  0.1861  0.7931  0.5800
              Bcc     0.0000     0.000     0.000     0.000  0.9825 -0.1442 -0.1180
 
              Baa    -0.0000    -0.000    -0.000    -0.000  0.1112  0.7059  0.6996
    53 H(1)   Bbb    -0.0000    -0.000    -0.000    -0.000  0.9130  0.2054 -0.3524
              Bcc     0.0000     0.000     0.000     0.000 -0.3924  0.6779 -0.6216
 
              Baa    -0.0000    -0.000    -0.000    -0.000  0.8220  0.0427  0.5678
    54 H(1)   Bbb    -0.0000    -0.000    -0.000    -0.000 -0.5608 -0.1119  0.8203
              Bcc     0.0000     0.000     0.000     0.000 -0.0986  0.9928  0.0680
 
              Baa    -0.0000    -0.000    -0.000    -0.000 -0.1712  0.1449  0.9745
    55 H(1)   Bbb    -0.0000    -0.000    -0.000    -0.000  0.9825 -0.0488  0.1798
              Bcc     0.0000     0.000     0.000     0.000  0.0736  0.9882 -0.1340
 
              Baa    -0.0000    -0.000    -0.000    -0.000  0.6903 -0.4813  0.5402
    56 H(1)   Bbb    -0.0000    -0.000    -0.000    -0.000 -0.4081  0.3576  0.8400
              Bcc     0.0000     0.000     0.000     0.000  0.5975  0.8003 -0.0504
 
              Baa    -0.0000    -0.000    -0.000    -0.000 -0.0062  0.4767  0.8790
    57 H(1)   Bbb    -0.0000    -0.000    -0.000    -0.000 -0.5639  0.7243 -0.3968
              Bcc     0.0000     0.000     0.000     0.000  0.8258  0.4981 -0.2643
 
              Baa    -0.0000    -0.000    -0.000    -0.000  0.1349 -0.5786  0.8044
    58 H(1)   Bbb     0.0000     0.000     0.000     0.000 -0.3453  0.7335  0.5855
              Bcc     0.0000     0.000     0.000     0.000  0.9288  0.3567  0.1008
 
              Baa    -0.0000    -0.000    -0.000    -0.000 -0.0075  0.9935  0.1137
    59 H(1)   Bbb     0.0000     0.000     0.000     0.000  0.5521 -0.0907  0.8288
              Bcc     0.0000     0.000     0.000     0.000  0.8337  0.0690 -0.5478
 
              Baa    -0.0000    -0.000    -0.000    -0.000 -0.0857  0.8416 -0.5333
    60 H(1)   Bbb     0.0000     0.000     0.000     0.000  0.8143 -0.2493 -0.5242
              Bcc     0.0000     0.000     0.000     0.000  0.5741  0.4792  0.6639
 
              Baa    -0.0000    -0.000    -0.000    -0.000  0.9175 -0.3540  0.1811
    61 H(1)   Bbb    -0.0000    -0.000    -0.000    -0.000  0.1448  0.7216  0.6770
              Bcc     0.0000     0.000     0.000     0.000 -0.3704 -0.5949  0.7134
 
              Baa    -0.0000    -0.000    -0.000    -0.000  0.1317 -0.2747  0.9525
    62 H(1)   Bbb    -0.0000    -0.000    -0.000    -0.000 -0.0856  0.9541  0.2870
              Bcc     0.0000     0.000     0.000     0.000  0.9876  0.1193 -0.1022
 
              Baa    -0.0000    -0.000    -0.000    -0.000  0.1488  0.9888 -0.0091
    63 H(1)   Bbb     0.0000     0.000     0.000     0.000  0.3778 -0.0484  0.9246
              Bcc     0.0000     0.000     0.000     0.000  0.9138 -0.1410 -0.3808
 
              Baa    -0.0000    -0.000    -0.000    -0.000  0.6934  0.7206 -0.0048
    64 H(1)   Bbb     0.0000     0.000     0.000     0.000 -0.0531  0.0577  0.9969
              Bcc     0.0000     0.000     0.000     0.000  0.7186 -0.6910  0.0783
 
              Baa    -0.0000    -0.000    -0.000    -0.000 -0.2648  0.9631 -0.0478
    65 H(1)   Bbb     0.0000     0.000     0.000     0.000  0.9635  0.2662  0.0272
              Bcc     0.0000     0.000     0.000     0.000 -0.0390  0.0389  0.9985
 
              Baa    -0.0000    -0.000    -0.000    -0.000  0.4811 -0.3426  0.8070
    66 H(1)   Bbb     0.0000     0.000     0.000     0.000  0.8629  0.3478 -0.3668
              Bcc     0.0000     0.000     0.000     0.000 -0.1550  0.8728  0.4629
 
              Baa    -0.0000    -0.000    -0.000    -0.000  0.0002  0.6243  0.7812
    67 H(1)   Bbb    -0.0000    -0.000    -0.000    -0.000  0.7078 -0.5519  0.4409
              Bcc     0.0000     0.000     0.000     0.000  0.7064  0.5529 -0.4420
 
              Baa    -0.0000    -0.000    -0.000    -0.000  0.0029  0.7952  0.6064
    68 H(1)   Bbb    -0.0000    -0.000    -0.000    -0.000  0.6657 -0.4541  0.5922
              Bcc     0.0000     0.000     0.000     0.000  0.7462  0.4019 -0.5306
 

 ---------------------------------------------------------------------------------

 No NMR shielding tensors so no spin-rotation constants.
 Leave Link  601 at Mon Jul 27 14:12:40 2020, MaxMem=  4026531840 cpu:               7.1 elap:               1.0
 (Enter /opt/ohpc/pub/libs/gaussian/g16-A.03/sandybridge/g16/l9999.exe)

 Test job not archived.
 1\1\GINC-SKYLAKE009\FOpt\ULC-wPBE\CC-pVDZ\C33H26N6O3\RDU230\27-Jul-202
 0\0\\#P uLC-wPBE/cc-pVDZ iop(3/107=0474600000, 3/108=0474600000) opt\\
 H26 C33 N6 O3\\0,1\C,12.0696137138,-0.8663918118,-0.4847484421\C,11.61
 18720231,0.3828612169,-0.1056015677\C,10.2504310296,0.5824809205,0.025
 1980716\C,9.3907485706,-0.4773688149,-0.2414742999\N,9.8247021937,-1.6
 780723781,-0.6077362902\C,11.1315110452,-1.8584174626,-0.7186566063\C,
 7.9086167756,-0.3162443982,-0.184185187\N,7.2254103944,-0.8318912141,-
 1.1898172107\C,5.9053782373,-0.7330979697,-1.2018993256\C,5.1762623398
 ,-0.1087144282,-0.2013427481\C,5.8877041568,0.4281347694,0.8673684412\
 C,7.2669919298,0.3281964321,0.8853723094\O,8.0471797056,0.8134856471,1
 .8742626905\C,7.4216148517,1.3732064287,2.9992265328\C,3.7033239741,-0
 .0218469942,-0.2640830493\C,3.0316079374,0.2595916554,-1.4470385641\C,
 1.6531262402,0.3327118905,-1.4457115293\C,0.9690565677,0.1144236977,-0
 .2556000565\N,1.5976380323,-0.1623292134,0.8814162606\C,2.9170746652,-
 0.2243328234,0.8666467829\C,-0.5204743912,0.1230984468,-0.1876988255\N
 ,-1.0784419651,-0.8522531281,0.5059438251\C,-2.3965898724,-0.906422629
 ,0.6159350689\C,-3.2490341926,0.0225048839,0.0382598555\C,-2.668858718
 5,1.0603576543,-0.6845218727\C,-1.2925586899,1.1194082421,-0.806070493
 2\O,-0.633347892,2.0832987486,-1.4841566779\C,-1.3808943043,3.12858366
 79,-2.0476850574\C,-4.7145101512,-0.0805348561,0.1888272623\C,-5.51044
 62894,1.0272482849,0.4509454315\C,-6.8756521415,0.8700080299,0.5795522
 769\C,-7.4186946674,-0.4036642714,0.4572234757\N,-6.6706239435,-1.4711
 4329,0.203832085\C,-5.3666663488,-1.3047759712,0.0698936054\C,-8.87394
 74208,-0.6633447125,0.6584101013\N,-9.1774173942,-1.7064162469,1.40981
 82304\C,-10.452120672,-2.0041961459,1.6219834014\C,-11.4897603021,-1.2
 721260512,1.0823198782\C,-11.1905409236,-0.1781268059,0.2861211031\C,-
 9.8612446658,0.1413053462,0.0674718866\O,-9.4431878509,1.177473327,-0.
 6921324776\C,-10.4125920445,1.9396178217,-1.3615916177\H,13.1313950342
 ,-1.0729840788,-0.5980902872\H,12.3087419693,1.1971069298,0.0859961263
 \H,9.8508068575,1.5454409384,0.3286443382\H,11.4513862456,-2.859264336
 2,-1.0140544141\H,5.3958494824,-1.1942724354,-2.0488881182\H,5.3536514
 045,0.9345745666,1.6665917291\H,6.8470920588,2.2727912788,2.7388372111
 \H,8.2220634847,1.6499527113,3.688927159\H,6.7585544903,0.6493371158,3
 .492044912\H,3.5890429119,0.4371320304,-2.3652907716\H,1.107482799,0.5
 635470163,-2.3552938468\H,3.3916443744,-0.4705174528,1.8188531099\H,-2
 .7979417405,-1.7256401585,1.2134513878\H,-3.3046525765,1.8020464301,-1
 .1604323896\H,-1.9471743816,3.6762469376,-1.2820296046\H,-2.072923804,
 2.7627924965,-2.8186557443\H,-0.6600024159,3.8066839405,-2.509791931\H
 ,-5.058650761,2.0103722355,0.5762630105\H,-7.5183968238,1.7207054077,0
 .7841144775\H,-4.7919197621,-2.2029023982,-0.1641250513\H,-10.64714190
 69,-2.8714623255,2.2531602295\H,-12.523764266,-1.5486624541,1.27546530
 23\H,-11.9908488107,0.408169229,-0.1565389509\H,-11.0077714913,1.32115
 6529,-2.0471674485\H,-11.0844691661,2.4505418424,-0.6580984501\H,-9.86
 82297485,2.6890065091,-1.9406356626\\Version=EM64L-G16RevA.03\State=1-
 A\HF=-1826.1421307\S2=0.\S2-1=0.\S2A=0.\RMSD=9.020e-09\RMSF=4.121e-06\
 Dipole=-1.6090373,3.4859953,-0.4902296\Quadrupole=36.4211169,-18.56359
 47,-17.8575222,-7.0852845,24.1889143,-2.6934959\PG=C01 [X(C33H26N6O3)]
 \\@


 PATIENCE IS THE ABILITY TO IDLE YOUR MOTOR WHEN
 YOU FEEL LIKE STRIPPING YOUR GEARS.
 Job cpu time:       0 days 23 hours  1 minutes 23.0 seconds.
 Elapsed time:       0 days  2 hours 56 minutes 49.9 seconds.
 File lengths (MBytes):  RWF=    620 Int=      0 D2E=      0 Chk=     56 Scr=      8
 Normal termination of Gaussian 16 at Mon Jul 27 14:12:40 2020.
