 Entering Gaussian System, Link 0=g16
 Input=mols_55_3_05_CF-N_opt_0.gjf
 Output=mols_55_3_05_CF-N_opt_0.log
 Initial command:
 /opt/ohpc/pub/libs/gaussian/g16-A.03/sandybridge/g16/l1.exe "/mnt/gpfs2_4m/scratch/rdu230/ondemand/projects/dihedral_energies/7trial/wtuning/mols_55_3_05_CF-N/Gau-86375.inp" -scrdir="/mnt/gpfs2_4m/scratch/rdu230/ondemand/projects/dihedral_energies/7trial/wtuning/mols_55_3_05_CF-N/"
 Entering Link 1 = /opt/ohpc/pub/libs/gaussian/g16-A.03/sandybridge/g16/l1.exe PID=     86377.
  
 Copyright (c) 1988,1990,1992,1993,1995,1998,2003,2009,2016,
            Gaussian, Inc.  All Rights Reserved.
  
 This is part of the Gaussian(R) 16 program.  It is based on
 the Gaussian(R) 09 system (copyright 2009, Gaussian, Inc.),
 the Gaussian(R) 03 system (copyright 2003, Gaussian, Inc.),
 the Gaussian(R) 98 system (copyright 1998, Gaussian, Inc.),
 the Gaussian(R) 94 system (copyright 1995, Gaussian, Inc.),
 the Gaussian 92(TM) system (copyright 1992, Gaussian, Inc.),
 the Gaussian 90(TM) system (copyright 1990, Gaussian, Inc.),
 the Gaussian 88(TM) system (copyright 1988, Gaussian, Inc.),
 the Gaussian 86(TM) system (copyright 1986, Carnegie Mellon
 University), and the Gaussian 82(TM) system (copyright 1983,
 Carnegie Mellon University). Gaussian is a federally registered
 trademark of Gaussian, Inc.
  
 This software contains proprietary and confidential information,
 including trade secrets, belonging to Gaussian, Inc.
  
 This software is provided under written license and may be
 used, copied, transmitted, or stored only in accord with that
 written license.
  
 The following legend is applicable only to US Government
 contracts under FAR:
  
                    RESTRICTED RIGHTS LEGEND
  
 Use, reproduction and disclosure by the US Government is
 subject to restrictions as set forth in subparagraphs (a)
 and (c) of the Commercial Computer Software - Restricted
 Rights clause in FAR 52.227-19.
  
 Gaussian, Inc.
 340 Quinnipiac St., Bldg. 40, Wallingford CT 06492
  
  
 ---------------------------------------------------------------
 Warning -- This program may not be used in any manner that
 competes with the business of Gaussian, Inc. or will provide
 assistance to any competitor of Gaussian, Inc.  The licensee
 of this program is prohibited from giving any competitor of
 Gaussian, Inc. access to this program.  By using this program,
 the user acknowledges that Gaussian, Inc. is engaged in the
 business of creating and licensing software in the field of
 computational chemistry and represents and warrants to the
 licensee that it is not a competitor of Gaussian, Inc. and that
 it will not use this program in any manner prohibited above.
 ---------------------------------------------------------------
  

 Cite this work as:
 Gaussian 16, Revision A.03,
 M. J. Frisch, G. W. Trucks, H. B. Schlegel, G. E. Scuseria, 
 M. A. Robb, J. R. Cheeseman, G. Scalmani, V. Barone, 
 G. A. Petersson, H. Nakatsuji, X. Li, M. Caricato, A. V. Marenich, 
 J. Bloino, B. G. Janesko, R. Gomperts, B. Mennucci, H. P. Hratchian, 
 J. V. Ortiz, A. F. Izmaylov, J. L. Sonnenberg, D. Williams-Young, 
 F. Ding, F. Lipparini, F. Egidi, J. Goings, B. Peng, A. Petrone, 
 T. Henderson, D. Ranasinghe, V. G. Zakrzewski, J. Gao, N. Rega, 
 G. Zheng, W. Liang, M. Hada, M. Ehara, K. Toyota, R. Fukuda, 
 J. Hasegawa, M. Ishida, T. Nakajima, Y. Honda, O. Kitao, H. Nakai, 
 T. Vreven, K. Throssell, J. A. Montgomery, Jr., J. E. Peralta, 
 F. Ogliaro, M. J. Bearpark, J. J. Heyd, E. N. Brothers, K. N. Kudin, 
 V. N. Staroverov, T. A. Keith, R. Kobayashi, J. Normand, 
 K. Raghavachari, A. P. Rendell, J. C. Burant, S. S. Iyengar, 
 J. Tomasi, M. Cossi, J. M. Millam, M. Klene, C. Adamo, R. Cammi, 
 J. W. Ochterski, R. L. Martin, K. Morokuma, O. Farkas, 
 J. B. Foresman, and D. J. Fox, Gaussian, Inc., Wallingford CT, 2016.
 
 ******************************************
 Gaussian 16:  EM64L-G16RevA.03 25-Dec-2016
                24-Jul-2020 
 ******************************************
 %mem=30GB
 %nproc=8
 Will use up to    8 processors via shared memory.
 ---------------------------------------------------------------
 #P uLC-wPBE/cc-pVDZ iop(3/107=0377900000, 3/108=0377900000) opt
 ---------------------------------------------------------------
 1/18=20,19=15,26=3,38=1/1,3;
 2/9=110,12=2,17=6,18=5,40=1/2;
 3/5=16,11=2,25=1,30=1,71=1,74=-41,107=377900000,108=377900000,116=2/1,2,3;
 4//1;
 5/5=2,38=5/2;
 6/7=2,8=2,9=2,10=2,28=1/1;
 7//1,2,3,16;
 1/18=20,19=15,26=3/3(2);
 2/9=110/2;
 99//99;
 2/9=110/2;
 3/5=16,11=2,25=1,30=1,71=1,74=-41,107=377900000,108=377900000,116=2/1,2,3;
 4/5=5,16=3,69=1/1;
 5/5=2,38=5/2;
 7//1,2,3,16;
 1/18=20,19=15,26=3/3(-5);
 2/9=110/2;
 6/7=2,8=2,9=2,10=2,19=2,28=1/1;
 99/9=1/99;
 Leave Link    1 at Fri Jul 24 12:11:57 2020, MaxMem=  4026531840 cpu:               3.7 elap:               0.5
 (Enter /opt/ohpc/pub/libs/gaussian/g16-A.03/sandybridge/g16/l101.exe)
 ---------------
 H8 C21 S6 N3 F3
 ---------------
 Symbolic Z-matrix:
 Charge =  0 Multiplicity = 1
 C                     10.83158  -0.67722  -0.04656 
 C                     10.5083   0.6749    0.04407 
 C                     9.0848    0.8396   -0.0297 
 F                     8.62463   2.11235  -0.00621 
 C                     8.40235  -0.34127  -0.04023 
 S                     9.46541  -1.66713   0.04906 
 C                     6.91721  -0.52685   0.02035 
 N                     6.35603  -1.67229  -0.01351 
 C                     4.97221  -1.5881   -0.00999 
 C                     4.55556  -0.31732  -0.01075 
 S                     5.8868    0.80099   0.00734 
 C                     3.11619   0.14287  -0.04616 
 C                     2.62451   1.39798  -0.00262 
 C                     1.23828   1.46875  -0.04796 
 F                     0.58516   2.68606   0.03161 
 C                     0.60033   0.26169  -0.03912 
 S                     1.87176  -0.952    -0.01812 
 C                    -0.77843  -0.13478   0.02073 
 N                    -1.18544  -1.32252   0.04605 
 C                    -2.5632   -1.40647  -0.03091 
 C                    -3.22709  -0.1753   -0.04078 
 S                    -2.01018   1.13194   0.01743 
 C                    -4.63579   0.10836  -0.03829 
 C                    -5.26948   1.40976  -0.03545 
 C                    -6.6906    1.21619   0.00636 
 F                    -7.41984   2.32797  -0.01785 
 C                    -7.09987  -0.04007   0.01851 
 S                    -5.78141  -1.08635  -0.01991 
 C                    -8.52882  -0.48414   0.02646 
 N                    -8.7481   -1.78079  -0.0043 
 C                    -10.14268  -1.95547   0.02738 
 C                    -10.91827  -0.89037  -0.01943 
 S                    -9.8332    0.50484   0.00494 
 H                     11.86136  -1.16617   0.00237 
 H                     11.27128   1.41512  -0.01987 
 H                     4.4484   -2.52675   0.02971 
 H                     3.28006   2.32996   0.04917 
 H                    -3.08826  -2.37637  -0.02722 
 H                    -4.73012   2.28235   0.02315 
 H                    -10.57923  -3.03652   0.02734 
 H                    -11.96418  -0.72779  -0.03981 
 
 ITRead=  0  0  0  0  0  0  0  0  0  0  0  0  0  0  0  0  0  0  0  0
 ITRead=  0  0  0  0  0  0  0  0  0  0  0  0  0  0  0  0  0  0  0  0
 ITRead=  0
 MicOpt= -1 -1 -1 -1 -1 -1 -1 -1 -1 -1 -1 -1 -1 -1 -1 -1 -1 -1 -1 -1
 MicOpt= -1 -1 -1 -1 -1 -1 -1 -1 -1 -1 -1 -1 -1 -1 -1 -1 -1 -1 -1 -1
 MicOpt= -1
 NAtoms=     41 NQM=       41 NQMF=       0 NMMI=      0 NMMIF=      0
                NMic=       0 NMicF=      0.
                    Isotopes and Nuclear Properties:
 (Nuclear quadrupole moments (NQMom) in fm**2, nuclear magnetic moments (NMagM)
  in nuclear magnetons)

  Atom         1           2           3           4           5           6           7           8           9          10
 IAtWgt=          12          12          12          19          12          32          12          14          12          12
 AtmWgt=  12.0000000  12.0000000  12.0000000  18.9984033  12.0000000  31.9720718  12.0000000  14.0030740  12.0000000  12.0000000
 NucSpn=           0           0           0           1           0           0           0           2           0           0
 AtZEff=  -0.0000000  -0.0000000  -0.0000000  -0.0000000  -0.0000000  -0.0000000  -0.0000000  -0.0000000  -0.0000000  -0.0000000
 NQMom=    0.0000000   0.0000000   0.0000000   0.0000000   0.0000000   0.0000000   0.0000000   2.0440000   0.0000000   0.0000000
 NMagM=    0.0000000   0.0000000   0.0000000   2.6288670   0.0000000   0.0000000   0.0000000   0.4037610   0.0000000   0.0000000
 AtZNuc=   6.0000000   6.0000000   6.0000000   9.0000000   6.0000000  16.0000000   6.0000000   7.0000000   6.0000000   6.0000000

  Atom        11          12          13          14          15          16          17          18          19          20
 IAtWgt=          32          12          12          12          19          12          32          12          14          12
 AtmWgt=  31.9720718  12.0000000  12.0000000  12.0000000  18.9984033  12.0000000  31.9720718  12.0000000  14.0030740  12.0000000
 NucSpn=           0           0           0           0           1           0           0           0           2           0
 AtZEff=  -0.0000000  -0.0000000  -0.0000000  -0.0000000  -0.0000000  -0.0000000  -0.0000000  -0.0000000  -0.0000000  -0.0000000
 NQMom=    0.0000000   0.0000000   0.0000000   0.0000000   0.0000000   0.0000000   0.0000000   0.0000000   2.0440000   0.0000000
 NMagM=    0.0000000   0.0000000   0.0000000   0.0000000   2.6288670   0.0000000   0.0000000   0.0000000   0.4037610   0.0000000
 AtZNuc=  16.0000000   6.0000000   6.0000000   6.0000000   9.0000000   6.0000000  16.0000000   6.0000000   7.0000000   6.0000000

  Atom        21          22          23          24          25          26          27          28          29          30
 IAtWgt=          12          32          12          12          12          19          12          32          12          14
 AtmWgt=  12.0000000  31.9720718  12.0000000  12.0000000  12.0000000  18.9984033  12.0000000  31.9720718  12.0000000  14.0030740
 NucSpn=           0           0           0           0           0           1           0           0           0           2
 AtZEff=  -0.0000000  -0.0000000  -0.0000000  -0.0000000  -0.0000000  -0.0000000  -0.0000000  -0.0000000  -0.0000000  -0.0000000
 NQMom=    0.0000000   0.0000000   0.0000000   0.0000000   0.0000000   0.0000000   0.0000000   0.0000000   0.0000000   2.0440000
 NMagM=    0.0000000   0.0000000   0.0000000   0.0000000   0.0000000   2.6288670   0.0000000   0.0000000   0.0000000   0.4037610
 AtZNuc=   6.0000000  16.0000000   6.0000000   6.0000000   6.0000000   9.0000000   6.0000000  16.0000000   6.0000000   7.0000000

  Atom        31          32          33          34          35          36          37          38          39          40
 IAtWgt=          12          12          32           1           1           1           1           1           1           1
 AtmWgt=  12.0000000  12.0000000  31.9720718   1.0078250   1.0078250   1.0078250   1.0078250   1.0078250   1.0078250   1.0078250
 NucSpn=           0           0           0           1           1           1           1           1           1           1
 AtZEff=  -0.0000000  -0.0000000  -0.0000000  -0.0000000  -0.0000000  -0.0000000  -0.0000000  -0.0000000  -0.0000000  -0.0000000
 NQMom=    0.0000000   0.0000000   0.0000000   0.0000000   0.0000000   0.0000000   0.0000000   0.0000000   0.0000000   0.0000000
 NMagM=    0.0000000   0.0000000   0.0000000   2.7928460   2.7928460   2.7928460   2.7928460   2.7928460   2.7928460   2.7928460
 AtZNuc=   6.0000000   6.0000000  16.0000000   1.0000000   1.0000000   1.0000000   1.0000000   1.0000000   1.0000000   1.0000000

  Atom        41
 IAtWgt=           1
 AtmWgt=   1.0078250
 NucSpn=           1
 AtZEff=  -0.0000000
 NQMom=    0.0000000
 NMagM=    2.7928460
 AtZNuc=   1.0000000
 Leave Link  101 at Fri Jul 24 12:11:58 2020, MaxMem=  4026531840 cpu:               2.8 elap:               0.4
 (Enter /opt/ohpc/pub/libs/gaussian/g16-A.03/sandybridge/g16/l103.exe)

 GradGradGradGradGradGradGradGradGradGradGradGradGradGradGradGradGradGrad
 Berny optimization.
 Initialization pass.
                           ----------------------------
                           !    Initial Parameters    !
                           ! (Angstroms and Degrees)  !
 --------------------------                            --------------------------
 ! Name  Definition              Value          Derivative Info.                !
 --------------------------------------------------------------------------------
 ! R1    R(1,2)                  1.3932         estimate D2E/DX2                !
 ! R2    R(1,6)                  1.6898         estimate D2E/DX2                !
 ! R3    R(1,34)                 1.141          estimate D2E/DX2                !
 ! R4    R(2,3)                  1.4349         estimate D2E/DX2                !
 ! R5    R(2,35)                 1.065          estimate D2E/DX2                !
 ! R6    R(3,4)                  1.3536         estimate D2E/DX2                !
 ! R7    R(3,5)                  1.3639         estimate D2E/DX2                !
 ! R8    R(5,6)                  1.7017         estimate D2E/DX2                !
 ! R9    R(5,7)                  1.4979         estimate D2E/DX2                !
 ! R10   R(7,8)                  1.276          estimate D2E/DX2                !
 ! R11   R(7,11)                 1.6808         estimate D2E/DX2                !
 ! R12   R(8,9)                  1.3864         estimate D2E/DX2                !
 ! R13   R(9,10)                 1.3373         estimate D2E/DX2                !
 ! R14   R(9,36)                 1.0756         estimate D2E/DX2                !
 ! R15   R(10,11)                1.7387         estimate D2E/DX2                !
 ! R16   R(10,12)                1.5116         estimate D2E/DX2                !
 ! R17   R(12,13)                1.3487         estimate D2E/DX2                !
 ! R18   R(12,17)                1.6578         estimate D2E/DX2                !
 ! R19   R(13,14)                1.3888         estimate D2E/DX2                !
 ! R20   R(13,37)                1.1406         estimate D2E/DX2                !
 ! R21   R(14,15)                1.3837         estimate D2E/DX2                !
 ! R22   R(14,16)                1.3653         estimate D2E/DX2                !
 ! R23   R(16,17)                1.7578         estimate D2E/DX2                !
 ! R24   R(16,18)                1.4359         estimate D2E/DX2                !
 ! R25   R(18,19)                1.2558         estimate D2E/DX2                !
 ! R26   R(18,22)                1.7669         estimate D2E/DX2                !
 ! R27   R(19,20)                1.3825         estimate D2E/DX2                !
 ! R28   R(20,21)                1.3988         estimate D2E/DX2                !
 ! R29   R(20,38)                1.1029         estimate D2E/DX2                !
 ! R30   R(21,22)                1.7869         estimate D2E/DX2                !
 ! R31   R(21,23)                1.437          estimate D2E/DX2                !
 ! R32   R(23,24)                1.4475         estimate D2E/DX2                !
 ! R33   R(23,28)                1.6553         estimate D2E/DX2                !
 ! R34   R(24,25)                1.4349         estimate D2E/DX2                !
 ! R35   R(24,39)                1.0275         estimate D2E/DX2                !
 ! R36   R(25,26)                1.3298         estimate D2E/DX2                !
 ! R37   R(25,27)                1.3213         estimate D2E/DX2                !
 ! R38   R(27,28)                1.6836         estimate D2E/DX2                !
 ! R39   R(27,29)                1.4964         estimate D2E/DX2                !
 ! R40   R(29,30)                1.3154         estimate D2E/DX2                !
 ! R41   R(29,33)                1.6371         estimate D2E/DX2                !
 ! R42   R(30,31)                1.4058         estimate D2E/DX2                !
 ! R43   R(31,32)                1.3184         estimate D2E/DX2                !
 ! R44   R(31,40)                1.1659         estimate D2E/DX2                !
 ! R45   R(32,33)                1.7676         estimate D2E/DX2                !
 ! R46   R(32,41)                1.0587         estimate D2E/DX2                !
 ! A1    A(2,1,6)              112.1642         estimate D2E/DX2                !
 ! A2    A(2,1,34)             128.5006         estimate D2E/DX2                !
 ! A3    A(6,1,34)             118.4373         estimate D2E/DX2                !
 ! A4    A(1,2,3)              109.7702         estimate D2E/DX2                !
 ! A5    A(1,2,35)             120.2935         estimate D2E/DX2                !
 ! A6    A(3,2,35)             128.8941         estimate D2E/DX2                !
 ! A7    A(2,3,4)              116.3781         estimate D2E/DX2                !
 ! A8    A(2,3,5)              113.416          estimate D2E/DX2                !
 ! A9    A(4,3,5)              130.0993         estimate D2E/DX2                !
 ! A10   A(3,5,6)              111.1971         estimate D2E/DX2                !
 ! A11   A(3,5,7)              127.0877         estimate D2E/DX2                !
 ! A12   A(6,5,7)              121.38           estimate D2E/DX2                !
 ! A13   A(1,6,5)               92.6172         estimate D2E/DX2                !
 ! A14   A(5,7,8)              123.107          estimate D2E/DX2                !
 ! A15   A(5,7,11)             120.6395         estimate D2E/DX2                !
 ! A16   A(8,7,11)             116.0626         estimate D2E/DX2                !
 ! A17   A(7,8,9)              112.6078         estimate D2E/DX2                !
 ! A18   A(8,9,10)             111.6339         estimate D2E/DX2                !
 ! A19   A(8,9,36)             115.6693         estimate D2E/DX2                !
 ! A20   A(10,9,36)            132.6493         estimate D2E/DX2                !
 ! A21   A(9,10,11)            111.8778         estimate D2E/DX2                !
 ! A22   A(9,10,12)            125.8723         estimate D2E/DX2                !
 ! A23   A(11,10,12)           122.2425         estimate D2E/DX2                !
 ! A24   A(7,11,10)             87.7844         estimate D2E/DX2                !
 ! A25   A(10,12,13)           129.0296         estimate D2E/DX2                !
 ! A26   A(10,12,17)           120.8872         estimate D2E/DX2                !
 ! A27   A(13,12,17)           109.9025         estimate D2E/DX2                !
 ! A28   A(12,13,14)           114.2213         estimate D2E/DX2                !
 ! A29   A(12,13,37)           123.5269         estimate D2E/DX2                !
 ! A30   A(14,13,37)           122.2441         estimate D2E/DX2                !
 ! A31   A(13,14,15)           120.9358         estimate D2E/DX2                !
 ! A32   A(13,14,16)           114.9068         estimate D2E/DX2                !
 ! A33   A(15,14,16)           123.8379         estimate D2E/DX2                !
 ! A34   A(14,16,17)           105.8148         estimate D2E/DX2                !
 ! A35   A(14,16,18)           133.8723         estimate D2E/DX2                !
 ! A36   A(17,16,18)           120.2239         estimate D2E/DX2                !
 ! A37   A(12,17,16)            94.9763         estimate D2E/DX2                !
 ! A38   A(16,18,19)           124.9742         estimate D2E/DX2                !
 ! A39   A(16,18,22)           118.1241         estimate D2E/DX2                !
 ! A40   A(19,18,22)           116.8823         estimate D2E/DX2                !
 ! A41   A(18,19,20)           112.2918         estimate D2E/DX2                !
 ! A42   A(19,20,21)           114.8311         estimate D2E/DX2                !
 ! A43   A(19,20,38)           121.8478         estimate D2E/DX2                !
 ! A44   A(21,20,38)           123.2365         estimate D2E/DX2                !
 ! A45   A(20,21,22)           108.6897         estimate D2E/DX2                !
 ! A46   A(20,21,23)           129.7178         estimate D2E/DX2                !
 ! A47   A(22,21,23)           121.5431         estimate D2E/DX2                !
 ! A48   A(18,22,21)            87.154          estimate D2E/DX2                !
 ! A49   A(21,23,24)           127.3478         estimate D2E/DX2                !
 ! A50   A(21,23,28)           122.4124         estimate D2E/DX2                !
 ! A51   A(24,23,28)           110.2363         estimate D2E/DX2                !
 ! A52   A(23,24,25)           108.2016         estimate D2E/DX2                !
 ! A53   A(23,24,39)           122.2654         estimate D2E/DX2                !
 ! A54   A(25,24,39)           129.2571         estimate D2E/DX2                !
 ! A55   A(24,25,26)           115.4555         estimate D2E/DX2                !
 ! A56   A(24,25,27)           115.8053         estimate D2E/DX2                !
 ! A57   A(26,25,27)           128.6962         estimate D2E/DX2                !
 ! A58   A(25,27,28)           110.3701         estimate D2E/DX2                !
 ! A59   A(25,27,29)           125.3093         estimate D2E/DX2                !
 ! A60   A(28,27,29)           124.3001         estimate D2E/DX2                !
 ! A61   A(23,28,27)            95.3771         estimate D2E/DX2                !
 ! A62   A(27,29,30)           116.8457         estimate D2E/DX2                !
 ! A63   A(27,29,33)           125.558          estimate D2E/DX2                !
 ! A64   A(30,29,33)           117.5403         estimate D2E/DX2                !
 ! A65   A(29,30,31)           106.6973         estimate D2E/DX2                !
 ! A66   A(30,31,32)           118.8419         estimate D2E/DX2                !
 ! A67   A(30,31,40)           119.1211         estimate D2E/DX2                !
 ! A68   A(32,31,40)           121.926          estimate D2E/DX2                !
 ! A69   A(31,32,33)           106.0247         estimate D2E/DX2                !
 ! A70   A(31,32,41)           134.9059         estimate D2E/DX2                !
 ! A71   A(33,32,41)           119.0455         estimate D2E/DX2                !
 ! A72   A(29,33,32)            90.7134         estimate D2E/DX2                !
 ! D1    D(6,1,2,3)             -9.5207         estimate D2E/DX2                !
 ! D2    D(6,1,2,35)          -178.8494         estimate D2E/DX2                !
 ! D3    D(34,1,2,3)          -178.3547         estimate D2E/DX2                !
 ! D4    D(34,1,2,35)           12.3166         estimate D2E/DX2                !
 ! D5    D(2,1,6,5)              8.5261         estimate D2E/DX2                !
 ! D6    D(34,1,6,5)           178.6017         estimate D2E/DX2                !
 ! D7    D(1,2,3,4)           -177.5423         estimate D2E/DX2                !
 ! D8    D(1,2,3,5)              5.8281         estimate D2E/DX2                !
 ! D9    D(35,2,3,4)            -9.397          estimate D2E/DX2                !
 ! D10   D(35,2,3,5)           173.9733         estimate D2E/DX2                !
 ! D11   D(2,3,5,6)              0.3774         estimate D2E/DX2                !
 ! D12   D(2,3,5,7)            173.739          estimate D2E/DX2                !
 ! D13   D(4,3,5,6)           -175.6745         estimate D2E/DX2                !
 ! D14   D(4,3,5,7)             -2.3129         estimate D2E/DX2                !
 ! D15   D(3,5,6,1)             -5.032          estimate D2E/DX2                !
 ! D16   D(7,5,6,1)           -178.8309         estimate D2E/DX2                !
 ! D17   D(3,5,7,8)            178.9775         estimate D2E/DX2                !
 ! D18   D(3,5,7,11)             4.1982         estimate D2E/DX2                !
 ! D19   D(6,5,7,8)             -8.2753         estimate D2E/DX2                !
 ! D20   D(6,5,7,11)           176.9454         estimate D2E/DX2                !
 ! D21   D(5,7,8,9)           -177.0294         estimate D2E/DX2                !
 ! D22   D(11,7,8,9)            -2.0292         estimate D2E/DX2                !
 ! D23   D(5,7,11,10)          176.4292         estimate D2E/DX2                !
 ! D24   D(8,7,11,10)            1.2965         estimate D2E/DX2                !
 ! D25   D(7,8,9,10)             1.8005         estimate D2E/DX2                !
 ! D26   D(7,8,9,36)          -176.0148         estimate D2E/DX2                !
 ! D27   D(8,9,10,11)           -0.8245         estimate D2E/DX2                !
 ! D28   D(8,9,10,12)          178.1971         estimate D2E/DX2                !
 ! D29   D(36,9,10,11)         176.498          estimate D2E/DX2                !
 ! D30   D(36,9,10,12)          -4.4803         estimate D2E/DX2                !
 ! D31   D(9,10,11,7)           -0.1929         estimate D2E/DX2                !
 ! D32   D(12,10,11,7)        -179.2556         estimate D2E/DX2                !
 ! D33   D(9,10,12,13)         177.4589         estimate D2E/DX2                !
 ! D34   D(9,10,12,17)           2.8646         estimate D2E/DX2                !
 ! D35   D(11,10,12,13)         -3.6145         estimate D2E/DX2                !
 ! D36   D(11,10,12,17)       -178.2088         estimate D2E/DX2                !
 ! D37   D(10,12,13,14)       -179.655          estimate D2E/DX2                !
 ! D38   D(10,12,13,37)          1.3343         estimate D2E/DX2                !
 ! D39   D(17,12,13,14)         -4.5875         estimate D2E/DX2                !
 ! D40   D(17,12,13,37)        176.4018         estimate D2E/DX2                !
 ! D41   D(10,12,17,16)        178.6268         estimate D2E/DX2                !
 ! D42   D(13,12,17,16)          3.0907         estimate D2E/DX2                !
 ! D43   D(12,13,14,15)        177.9013         estimate D2E/DX2                !
 ! D44   D(12,13,14,16)          4.1509         estimate D2E/DX2                !
 ! D45   D(37,13,14,15)         -3.0739         estimate D2E/DX2                !
 ! D46   D(37,13,14,16)       -176.8242         estimate D2E/DX2                !
 ! D47   D(13,14,16,17)         -1.6289         estimate D2E/DX2                !
 ! D48   D(13,14,16,18)        174.8074         estimate D2E/DX2                !
 ! D49   D(15,14,16,17)       -175.1743         estimate D2E/DX2                !
 ! D50   D(15,14,16,18)          1.262          estimate D2E/DX2                !
 ! D51   D(14,16,17,12)         -0.8408         estimate D2E/DX2                !
 ! D52   D(18,16,17,12)       -177.8682         estimate D2E/DX2                !
 ! D53   D(14,16,18,19)       -178.4784         estimate D2E/DX2                !
 ! D54   D(14,16,18,22)          3.182          estimate D2E/DX2                !
 ! D55   D(17,16,18,19)         -2.4472         estimate D2E/DX2                !
 ! D56   D(17,16,18,22)        179.2132         estimate D2E/DX2                !
 ! D57   D(16,18,19,20)       -173.9685         estimate D2E/DX2                !
 ! D58   D(22,18,19,20)          4.3897         estimate D2E/DX2                !
 ! D59   D(16,18,22,21)        175.3594         estimate D2E/DX2                !
 ! D60   D(19,18,22,21)         -3.1152         estimate D2E/DX2                !
 ! D61   D(18,19,20,21)         -3.5921         estimate D2E/DX2                !
 ! D62   D(18,19,20,38)        179.65           estimate D2E/DX2                !
 ! D63   D(19,20,21,22)          1.2211         estimate D2E/DX2                !
 ! D64   D(19,20,21,23)       -176.2061         estimate D2E/DX2                !
 ! D65   D(38,20,21,22)        177.9284         estimate D2E/DX2                !
 ! D66   D(38,20,21,23)          0.5012         estimate D2E/DX2                !
 ! D67   D(20,21,22,18)          0.859          estimate D2E/DX2                !
 ! D68   D(23,21,22,18)        178.537          estimate D2E/DX2                !
 ! D69   D(20,21,23,24)        179.326          estimate D2E/DX2                !
 ! D70   D(20,21,23,28)          0.0823         estimate D2E/DX2                !
 ! D71   D(22,21,23,24)          2.1859         estimate D2E/DX2                !
 ! D72   D(22,21,23,28)       -177.0577         estimate D2E/DX2                !
 ! D73   D(21,23,24,25)       -178.3184         estimate D2E/DX2                !
 ! D74   D(21,23,24,39)         -3.8355         estimate D2E/DX2                !
 ! D75   D(28,23,24,25)          1.0011         estimate D2E/DX2                !
 ! D76   D(28,23,24,39)        175.4839         estimate D2E/DX2                !
 ! D77   D(21,23,28,27)        178.4602         estimate D2E/DX2                !
 ! D78   D(24,23,28,27)         -0.899          estimate D2E/DX2                !
 ! D79   D(23,24,25,26)       -178.48           estimate D2E/DX2                !
 ! D80   D(23,24,25,27)         -0.653          estimate D2E/DX2                !
 ! D81   D(39,24,25,26)          7.5468         estimate D2E/DX2                !
 ! D82   D(39,24,25,27)       -174.6262         estimate D2E/DX2                !
 ! D83   D(24,25,27,28)          0.0095         estimate D2E/DX2                !
 ! D84   D(24,25,27,29)       -178.4002         estimate D2E/DX2                !
 ! D85   D(26,25,27,28)        177.4955         estimate D2E/DX2                !
 ! D86   D(26,25,27,29)         -0.9143         estimate D2E/DX2                !
 ! D87   D(25,27,28,23)          0.5315         estimate D2E/DX2                !
 ! D88   D(29,27,28,23)        178.9606         estimate D2E/DX2                !
 ! D89   D(25,27,29,30)        177.9142         estimate D2E/DX2                !
 ! D90   D(25,27,29,33)          0.7139         estimate D2E/DX2                !
 ! D91   D(28,27,29,30)         -0.2812         estimate D2E/DX2                !
 ! D92   D(28,27,29,33)       -177.4814         estimate D2E/DX2                !
 ! D93   D(27,29,30,31)        179.2696         estimate D2E/DX2                !
 ! D94   D(33,29,30,31)         -3.299          estimate D2E/DX2                !
 ! D95   D(27,29,33,32)        178.3063         estimate D2E/DX2                !
 ! D96   D(30,29,33,32)          1.1236         estimate D2E/DX2                !
 ! D97   D(29,30,31,32)          4.8218         estimate D2E/DX2                !
 ! D98   D(29,30,31,40)       -178.9347         estimate D2E/DX2                !
 ! D99   D(30,31,32,33)         -4.0034         estimate D2E/DX2                !
 ! D100  D(30,31,32,41)        177.8745         estimate D2E/DX2                !
 ! D101  D(40,31,32,33)        179.8633         estimate D2E/DX2                !
 ! D102  D(40,31,32,41)          1.7412         estimate D2E/DX2                !
 ! D103  D(31,32,33,29)          1.6005         estimate D2E/DX2                !
 ! D104  D(41,32,33,29)       -179.9208         estimate D2E/DX2                !
 --------------------------------------------------------------------------------
 Trust Radius=3.00D-01 FncErr=1.00D-07 GrdErr=1.00D-06 EigMax=2.50D+02 EigMin=1.00D-04
 Number of steps in this run=    232 maximum allowed number of steps=    246.
 GradGradGradGradGradGradGradGradGradGradGradGradGradGradGradGradGradGrad

 Leave Link  103 at Fri Jul 24 12:11:58 2020, MaxMem=  4026531840 cpu:               0.1 elap:               0.0
 (Enter /opt/ohpc/pub/libs/gaussian/g16-A.03/sandybridge/g16/l202.exe)
                          Input orientation:                          
 ---------------------------------------------------------------------
 Center     Atomic      Atomic             Coordinates (Angstroms)
 Number     Number       Type             X           Y           Z
 ---------------------------------------------------------------------
      1          6           0       10.831577   -0.677220   -0.046562
      2          6           0       10.508303    0.674902    0.044074
      3          6           0        9.084797    0.839597   -0.029703
      4          9           0        8.624628    2.112353   -0.006211
      5          6           0        8.402351   -0.341273   -0.040226
      6         16           0        9.465407   -1.667125    0.049057
      7          6           0        6.917214   -0.526850    0.020351
      8          7           0        6.356027   -1.672285   -0.013513
      9          6           0        4.972211   -1.588099   -0.009992
     10          6           0        4.555563   -0.317322   -0.010745
     11         16           0        5.886799    0.800990    0.007339
     12          6           0        3.116188    0.142872   -0.046160
     13          6           0        2.624507    1.397980   -0.002622
     14          6           0        1.238280    1.468745   -0.047961
     15          9           0        0.585162    2.686060    0.031610
     16          6           0        0.600327    0.261686   -0.039117
     17         16           0        1.871759   -0.952004   -0.018115
     18          6           0       -0.778425   -0.134775    0.020731
     19          7           0       -1.185444   -1.322515    0.046045
     20          6           0       -2.563204   -1.406468   -0.030905
     21          6           0       -3.227093   -0.175297   -0.040781
     22         16           0       -2.010183    1.131938    0.017431
     23          6           0       -4.635791    0.108361   -0.038292
     24          6           0       -5.269478    1.409759   -0.035452
     25          6           0       -6.690599    1.216188    0.006356
     26          9           0       -7.419841    2.327965   -0.017846
     27          6           0       -7.099867   -0.040074    0.018505
     28         16           0       -5.781408   -1.086349   -0.019909
     29          6           0       -8.528819   -0.484144    0.026461
     30          7           0       -8.748096   -1.780788   -0.004297
     31          6           0      -10.142681   -1.955466    0.027375
     32          6           0      -10.918272   -0.890366   -0.019430
     33         16           0       -9.833204    0.504843    0.004939
     34          1           0       11.861360   -1.166174    0.002374
     35          1           0       11.271283    1.415119   -0.019870
     36          1           0        4.448399   -2.526750    0.029712
     37          1           0        3.280060    2.329960    0.049167
     38          1           0       -3.088261   -2.376370   -0.027219
     39          1           0       -4.730124    2.282352    0.023152
     40          1           0      -10.579233   -3.036521    0.027339
     41          1           0      -11.964181   -0.727786   -0.039805
 ---------------------------------------------------------------------
                    Distance matrix (angstroms):
                    1          2          3          4          5
     1  C    0.000000
     2  C    1.393182   0.000000
     3  C    2.313495   1.434900   0.000000
     4  F    3.557242   2.370026   1.353593   0.000000
     5  C    2.452354   2.339819   1.363927   2.463908   0.000000
     6  S    1.689815   2.563737   2.536675   3.872263   1.701747
     7  C    3.917822   3.786910   2.562830   3.143463   1.497912
     8  N    4.584953   4.770115   3.708908   4.412492   2.441260
     9  C    5.929857   5.981004   4.775716   5.199376   3.649842
    10  C    6.286427   6.035116   4.674696   4.739265   3.846976
    11  S    5.161283   4.623370   3.198446   3.035715   2.763156
    12  C    7.758852   7.411785   6.009159   5.850074   5.308291
    13  C    8.465482   7.917024   6.484433   6.042499   6.034061
    14  C    9.830387   9.304407   7.871721   7.414453   7.389191
    15  F   10.784562  10.124902   8.698102   8.059999   8.383218
    16  C   10.274243   9.916938   8.504134   8.235014   7.825288
    17  S    8.964076   8.788662   7.432219   7.415637   6.559124
    18  C   11.622862  11.315757   9.911362   9.667870   9.183300
    19  N   12.034690  11.863111  10.495633  10.394160   9.638262
    20  C   13.414627  13.236390  11.862577  11.728184  11.017174
    21  C   14.067628  13.761945  12.353654  12.070536  11.630628
    22  S   12.968730  12.526854  11.098931  10.679933  10.516394
    23  C   15.487307  15.154911  13.740062  13.411030  13.045893
    24  C   16.235750  15.795085  14.365595  13.911890  13.783506
    25  C   17.624257  17.207459  15.779932  15.341429  15.173167
    26  F   18.497195  18.004299  16.571616  16.045922  16.045781
    27  C   17.942878  17.622698  16.208624  15.871147  15.505255
    28  S   16.618043  16.384773  14.990444  14.756888  14.203330
    29  C   19.361496  19.072381  17.663378  17.348879  16.931904
    30  N   19.610794  19.412410  18.024404  17.803598  17.210791
    31  C   21.013302  20.817835  19.429656  19.203129  18.615273
    32  C   21.750910  21.483766  20.077740  19.772239  19.328435
    33  S   20.698626  20.342255  18.920994  18.527703  18.255230
    34  H    1.141019   2.285183   3.425412   4.607087   3.556265
    35  H    2.138209   1.064964   2.260983   2.736988   3.363941
    36  H    6.646167   6.853701   5.729922   6.242071   4.518289
    37  H    8.128819   7.415304   5.993528   5.349283   5.777659
    38  H   14.023173  13.934916  12.590703  12.543558  11.669445
    39  H   15.840785  15.322989  13.890154  13.355866  13.392137
    40  H   21.540533  21.411658  20.042495  19.882161  19.172101
    41  H   22.795815  22.516374  21.107256  20.783806  20.370199
                    6          7          8          9         10
     6  S    0.000000
     7  C    2.791834   0.000000
     8  N    3.110014   1.275970   0.000000
     9  C    4.494279   2.215899   1.386379   0.000000
    10  C    5.092358   2.371131   2.253354   1.337337   0.000000
    11  S    4.347386   1.680798   2.517479   2.558226   1.738717
    12  C    6.602858   3.860149   3.713814   2.538186   1.511566
    13  C    7.496363   4.704554   4.832276   3.798478   2.582887
    14  C    8.805039   6.019747   6.004881   4.825762   3.767730
    15  F    9.889857   7.100549   7.231880   6.125060   4.978572
    16  C    9.072912   6.366191   6.071983   4.747202   3.997493
    17  S    7.627542   5.063482   4.541749   3.165041   2.757840
    18  C   10.357847   7.705620   7.298323   5.931518   5.337204
    19  N   10.656425   8.141671   7.549813   6.163634   5.828619
    20  C   12.031701   9.521275   8.923208   7.537633   7.201631
    21  C   12.780187  10.150581   9.699377   8.320189   7.784010
    22  S   11.812067   9.080198   8.823723   7.493543   6.723851
    23  C   14.212803  11.570603  11.135142   9.756663   9.201247
    24  C   15.052946  12.339734  12.027129  10.671457   9.975713
    25  C   16.411333  13.719000  13.362564  11.995225  11.350247
    26  F   17.351565  14.618569  14.344914  12.996098  12.264090
    27  C   16.645015  14.025531  13.554565  12.170960  11.658764
    28  S   15.258028  12.711005  12.151572  10.765323  10.365542
    29  C   18.033084  15.446093  14.932244  13.546138  13.085498
    30  N   18.213936  15.715435  15.104516  13.721661  13.383913
    31  C   19.610220  17.119609  16.501189  15.119402  14.789298
    32  C   20.398589  17.839234  17.291988  15.905797  15.484445
    33  S   19.420499  16.782167  16.334976  14.952623  14.412245
    34  H    2.448208   4.985342   5.528571   6.902068   7.354957
    35  H    3.572977   4.767681   5.804468   6.978375   6.935584
    36  H    5.090157   3.177221   2.090699   1.075649   2.212395
    37  H    7.364456   4.625050   5.048115   4.268262   2.939149
    38  H   12.573919  10.175093   9.470507   8.098943   7.916312
    39  H   14.734726  11.981323  11.770439  10.445898   9.642792
    40  H   20.091374  17.675524  16.990169  15.618794  15.377176
    41  H   21.450350  18.882560  18.344558  16.958255  16.524868
                   11         12         13         14         15
    11  S    0.000000
    12  C    2.848204   0.000000
    13  C    3.316481   1.348682   0.000000
    14  C    4.696561   2.298800   1.388772   0.000000
    15  F    5.626849   3.588864   2.412312   1.383745   0.000000
    16  C    5.314113   2.518675   2.321594   1.365304   2.425453
    17  S    4.381117   1.657753   2.467650   2.502441   3.859186
    18  C    6.730605   3.905070   3.732269   2.577420   3.133145
    19  N    7.384267   4.545316   4.681793   3.697892   4.382229
    20  C    8.733664   5.886950   5.897294   4.766385   5.163807
    21  C    9.166159   6.351258   6.059528   4.758412   4.767168
    22  S    7.903920   5.221300   4.642363   3.266531   3.025114
    23  C   10.545460   7.752060   7.374030   6.029548   5.823038
    24  C   11.172956   8.480832   7.894062   6.508037   5.992516
    25  C   12.584249   9.865487   9.316884   7.933086   7.422793
    26  F   13.393990  10.760267  10.087320   8.700703   8.013161
    27  C   13.013877  10.217898   9.830152   8.473821   8.154241
    28  S   11.819892   8.982143   8.765363   7.470295   7.400469
    29  C   14.472801  11.662101  11.311053   9.960700   9.649605
    30  N   14.860884  12.019295  11.808500  10.501861  10.347160
    31  C   16.264768  13.424084  13.200287  11.885166  11.688901
    32  C   16.889992  14.072468  13.734761  12.383375  12.046677
    33  S   15.722792  12.954551  12.489688  11.113490  10.644283
    34  H    6.290083   8.842737   9.586155  10.945098  11.916090
    35  H    5.419461   8.253780   8.646810  10.033186  10.761558
    36  H    3.625376   2.984531   4.327948   5.125903   6.488297
    37  H    3.022348   2.195289   1.140622   2.218105   2.718380
    38  H    9.520951   6.696426   6.847046   5.788290   6.255054
    39  H   10.719783   8.133068   7.407657   6.024024   5.330602
    40  H   16.907309  14.059819  13.928548  12.647399  12.545584
    41  H   17.916385  15.105483  14.742798  13.383938  13.005593
                   16         17         18         19         20
    16  C    0.000000
    17  S    1.757846   0.000000
    18  C    1.435869   2.773598   0.000000
    19  N    2.388707   3.080241   1.255799   0.000000
    20  C    3.576414   4.458206   2.192101   1.382459   0.000000
    21  C    3.852285   5.157720   2.449776   2.343497   1.398795
    22  S    2.752326   4.406081   1.766862   2.589470   2.598398
    23  C    5.238362   6.593405   3.865472   3.736230   2.567173
    24  C    5.981028   7.521668   4.749558   4.914397   3.905774
    25  C    7.353281   8.832646   6.064578   6.062452   4.890307
    26  F    8.282092   9.853529   7.083430   7.224804   6.126425
    27  C    7.706320   9.017928   6.322152   6.051926   4.738226
    28  S    6.522585   7.654346   5.092836   4.602500   3.234105
    29  C    9.159796  10.411191   7.758266   7.391103   6.036765
    30  N    9.569009  10.652154   8.137914   7.576691   6.196266
    31  C   10.969613  12.056358   9.539615   8.979592   7.599557
    32  C   11.576085  12.790180  10.168040   9.742637   8.371001
    33  S   10.436457  11.795300   9.077356   8.838817   7.517133
    34  H   11.351272   9.991918  12.681809  13.047814  14.426604
    35  H   10.733130   9.693004  12.149045  12.754177  14.119296
    36  H    4.752659   3.020130   5.748157   5.761131   7.100795
    37  H    3.386225   3.571992   4.748371   5.768996   6.936212
    38  H    4.534883   5.160494   3.219067   2.176394   1.102909
    39  H    5.700936   7.351709   4.632325   5.055724   4.278534
    40  H   11.656121  12.624361  10.221351   9.548897   8.180293
    41  H   12.603409  13.837774  11.201628  10.795473   9.425447
                   21         22         23         24         25
    21  C    0.000000
    22  S    1.786931   0.000000
    23  C    1.436975   2.818622   0.000000
    24  C    2.585298   3.271542   1.447482   0.000000
    25  C    3.732871   4.681187   2.334847   1.434853   0.000000
    26  F    4.883235   5.540408   3.560617   2.338263   1.329822
    27  C    3.875588   5.222882   2.469196   2.335648   1.321303
    28  S    2.712006   4.375423   1.655327   2.548111   2.475681
    29  C    5.311140   6.715982   3.938391   3.770147   2.504114
    30  N    5.749818   7.340566   4.525604   4.720312   3.635282
    31  C    7.141359   8.698832   5.881287   5.922567   4.687931
    32  C    7.724378   9.134830   6.361398   6.099156   4.723500
    33  S    6.641188   7.848125   5.212693   4.652752   3.222108
    34  H   15.121016  14.060628  16.546362  17.323466  18.704300
    35  H   14.585361  13.284537  15.960669  16.540769  17.963003
    36  H    8.027919   7.422899   9.458908  10.485108  11.751060
    37  H    6.973338   5.424291   8.222156   8.599333  10.032764
    38  H    2.205489   3.670486   2.927261   4.369502   5.087675
    39  H    2.881532   2.953229   2.176904   1.027500   2.231692
    40  H    7.889563   9.529154   6.724514   6.925810   5.762590
    41  H    8.754539  10.126397   7.375937   7.027671   5.620661
                   26         27         28         29         30
    26  F    0.000000
    27  C    2.389835   0.000000
    28  S    3.787084   1.683598   0.000000
    29  C    3.023202   1.496384   2.813018   0.000000
    30  N    4.318136   2.397345   3.046921   1.315414   0.000000
    31  C    5.075794   3.595486   4.447280   2.183882   1.405839
    32  C    4.753596   3.912116   5.140601   2.424172   2.345793
    33  S    3.024668   2.787158   4.353109   1.637064   2.530149
    34  H   19.595258  18.994644  17.642963  20.401597  20.618620
    35  H   18.713402  18.428733  17.235185  19.891038  20.272878
    36  H   12.822856  11.812965  10.330836  13.136987  13.217606
    37  H   10.700111  10.647107   9.684324  12.139577  12.711320
    38  H    6.394798   4.642559   2.986176   5.760475   5.691131
    39  H    2.690416   3.318036   3.529192   4.699319   5.714364
    40  H    6.225874   4.591815   5.179240   3.273962   2.220570
    41  H    5.476233   4.913034   6.193193   3.444628   3.384269
                   31         32         33         34         35
    31  C    0.000000
    32  C    1.318397   0.000000
    33  S    2.479798   1.767647   0.000000
    34  H   22.018207  22.781312  21.758824   0.000000
    35  H   21.677660  22.309003  21.124123   2.647973   0.000000
    36  H   14.602260  15.453632  14.599841   7.536837   7.879882
    37  H   14.090256  14.559115  13.239739   9.266275   8.043715
    38  H    7.067176   7.969777   7.334622  14.998554  14.851665
    39  H    6.874219   6.954217   5.403822  16.946094  16.024948
    40  H    1.165872   2.173273   3.619160  22.518415  22.299425
    41  H    2.197629   1.058666   2.462202  23.829611  23.334079
                   36         37         38         39         40
    36  H    0.000000
    37  H    4.995300   0.000000
    38  H    7.538375   7.919021   0.000000
    39  H   10.362084   8.010368   4.939832   0.000000
    40  H   15.036276  14.862019   7.520202   7.905852   0.000000
    41  H   16.511023  15.548138   9.027732   7.835590   2.693111
                   41
    41  H    0.000000
 Stoichiometry    C21H8F3N3S6
 Framework group  C1[X(C21H8F3N3S6)]
 Deg. of freedom   117
 Full point group                 C1      NOp   1
 Largest Abelian subgroup         C1      NOp   1
 Largest concise Abelian subgroup C1      NOp   1
                         Standard orientation:                         
 ---------------------------------------------------------------------
 Center     Atomic      Atomic             Coordinates (Angstroms)
 Number     Number       Type             X           Y           Z
 ---------------------------------------------------------------------
      1          6           0       10.820167   -0.680863   -0.048454
      2          6           0       10.497154    0.671200    0.043980
      3          6           0        9.073652    0.836230   -0.029130
      4          9           0        8.613708    2.109034   -0.003895
      5          6           0        8.391001   -0.344510   -0.040913
      6         16           0        9.453859   -1.670654    0.046365
      7          6           0        6.905852   -0.529909    0.019912
      8          7           0        6.344458   -1.675205   -0.015207
      9          6           0        4.960658   -1.590788   -0.011133
     10          6           0        4.544227   -0.319940   -0.010159
     11         16           0        5.875660    0.798122    0.008896
     12          6           0        3.104919    0.140544   -0.044532
     13          6           0        2.613467    1.395680    0.000737
     14          6           0        1.227237    1.466738   -0.044065
     15          9           0        0.574353    2.684064    0.037242
     16          6           0        0.589081    0.259778   -0.036528
     17         16           0        1.860312   -0.954154   -0.017457
     18          6           0       -0.789720   -0.136523    0.023269
     19          7           0       -1.196933   -1.324224    0.047226
     20          6           0       -2.574733   -1.407845   -0.029384
     21          6           0       -3.238414   -0.176550   -0.037503
     22         16           0       -2.021262    1.130404    0.021954
     23          6           0       -4.647063    0.107345   -0.034203
     24          6           0       -5.280526    1.408847   -0.029528
     25          6           0       -6.701667    1.215466    0.012497
     26          9           0       -7.430727    2.327397   -0.010076
     27          6           0       -7.111146   -0.040741    0.023204
     28         16           0       -5.792878   -1.087192   -0.016947
     29          6           0       -8.540171   -0.484577    0.031065
     30          7           0       -8.759680   -1.781144   -0.001247
     31          6           0      -10.154284   -1.955623    0.030656
     32          6           0      -10.929708   -0.890333   -0.014563
     33         16           0       -9.844394    0.504659    0.011204
     34          1           0       11.849882   -1.170053   -0.000464
     35          1           0       11.260239    1.411366   -0.019282
     36          1           0        4.436698   -2.529398    0.027564
     37          1           0        3.269196    2.327483    0.053483
     38          1           0       -3.099954   -2.377662   -0.026744
     39          1           0       -4.741004    2.281273    0.029996
     40          1           0      -10.591021   -3.036603    0.029407
     41          1           0      -11.975596   -0.727549   -0.034397
 ---------------------------------------------------------------------
 Rotational constants (GHZ):           0.5466022           0.0206436           0.0198930
 Leave Link  202 at Fri Jul 24 12:11:58 2020, MaxMem=  4026531840 cpu:               0.2 elap:               0.1
 (Enter /opt/ohpc/pub/libs/gaussian/g16-A.03/sandybridge/g16/l301.exe)
 Standard basis: CC-pVDZ (5D, 7F)
 Ernie: Thresh=  0.10000D-02 Tol=  0.10000D-05 Strict=F.
 Ernie:  114 primitive shells out of 934 were deleted.
 There are   559 symmetry adapted cartesian basis functions of A   symmetry.
 There are   526 symmetry adapted basis functions of A   symmetry.
   526 basis functions,  1373 primitive gaussians,   559 cartesian basis functions
   139 alpha electrons      139 beta electrons
       nuclear repulsion energy      3835.8008525735 Hartrees.
 IExCor=32609 DFT=T Ex+Corr=LC-wPBE ExCW=0 ScaHFX=  1.000000
 ScaDFX=  1.000000  0.000000  1.000000  1.000000 ScalE2=  1.000000  1.000000
 IRadAn=      5 IRanWt=     -1 IRanGd=            0 ICorTp=0 IEmpDi=  4
 HFx  wShort=  0.000000 wLong=  0.377900 cFull=  0.000000 cShort=  0.000000 cLong=  1.000000
 DFx  wShort=  0.000000 wLong=  0.377900 cFull=  0.000000 cShort=  0.000000 cLong=  1.000000
 NAtoms=   41 NActive=   41 NUniq=   41 SFac= 1.00D+00 NAtFMM=   60 NAOKFM=F Big=F
 Integral buffers will be    131072 words long.
 Raffenetti 2 integral format.
 Two-electron integral symmetry is turned on.
 Leave Link  301 at Fri Jul 24 12:11:58 2020, MaxMem=  4026531840 cpu:               0.4 elap:               0.1
 (Enter /opt/ohpc/pub/libs/gaussian/g16-A.03/sandybridge/g16/l302.exe)
 NPDir=0 NMtPBC=     1 NCelOv=     1 NCel=       1 NClECP=     1 NCelD=      1
         NCelK=      1 NCelE2=     1 NClLst=     1 CellRange=     0.0.
 One-electron integrals computed using PRISM.
 One-electron integral symmetry used in STVInt
 NBasis=   526 RedAO= T EigKep=  3.24D-04  NBF=   526
 NBsUse=   526 1.00D-06 EigRej= -1.00D+00 NBFU=   526
 Precomputing XC quadrature grid using
 IXCGrd= 4 IRadAn=           5 IRanWt=          -1 IRanGd=           0 AccXCQ= 0.00D+00.
 Generated NRdTot=       0 NPtTot=           0 NUsed=           0 NTot=          32
 NSgBfM=   467   467   467   467   467 MxSgAt=    41 MxSgA2=    41.
 Leave Link  302 at Fri Jul 24 12:11:59 2020, MaxMem=  4026531840 cpu:               6.3 elap:               0.8
 (Enter /opt/ohpc/pub/libs/gaussian/g16-A.03/sandybridge/g16/l303.exe)
 DipDrv:  MaxL=1.
 Leave Link  303 at Fri Jul 24 12:11:59 2020, MaxMem=  4026531840 cpu:               0.6 elap:               0.1
 (Enter /opt/ohpc/pub/libs/gaussian/g16-A.03/sandybridge/g16/l401.exe)
 ExpMin= 1.22D-01 ExpMax= 1.11D+05 ExpMxC= 1.07D+03 IAcc=3 IRadAn=         5 AccDes= 0.00D+00
 Harris functional with IExCor=32609 and IRadAn=       5 diagonalized for initial guess.
 HarFok:  IExCor=32609 AccDes= 0.00D+00 IRadAn=         5 IDoV= 1 UseB2=F ITyADJ=14
 ICtDFT=  3500011 ScaDFX=  1.000000  1.000000  1.000000  1.000000
 FoFCou: FMM=F IPFlag=           0 FMFlag=      100000 FMFlg1=           0
         NFxFlg=           0 DoJE=T BraDBF=F KetDBF=T FulRan=T
         wScrn=  0.000000 ICntrl=       500 IOpCl=  0 I1Cent=   200000004 NGrid=           0
         NMat0=    1 NMatS0=      1 NMatT0=    0 NMatD0=    1 NMtDS0=    0 NMtDT0=    0
 Petite list used in FoFCou.
 Harris En= -3655.80503770318    
 JPrj=0 DoOrth=F DoCkMO=F.
 Initial guess <Sx>= 0.0000 <Sy>= 0.0000 <Sz>= 0.0000 <S**2>=-0.0000 S=-0.0000
 Leave Link  401 at Fri Jul 24 12:12:02 2020, MaxMem=  4026531840 cpu:              25.9 elap:               3.3
 (Enter /opt/ohpc/pub/libs/gaussian/g16-A.03/sandybridge/g16/l502.exe)
 Integral symmetry usage will be decided dynamically.
 UHF open shell SCF:
 Using DIIS extrapolation, IDIIS=  1040.
 NGot=  4026531840 LenX=  4025896931 LenY=  4025583891
 Requested convergence on RMS density matrix=1.00D-08 within 128 cycles.
 Requested convergence on MAX density matrix=1.00D-06.
 Requested convergence on             energy=1.00D-06.
 No special actions if energy rises.
 Fock matrices will be formed incrementally for  20 cycles.
 Integral accuracy reduced to 1.0D-05 until final iterations.

 Cycle   1  Pass 0  IDiag  1:
 FoFJK:  IHMeth= 1 ICntrl=       0 DoSepK=T KAlg= 0 I1Cent=           0 FoldK=F
 IRaf=         1 NMat=       1 IRICut=       1 DoRegI=T DoRafI=F ISym2E= 0 IDoP0=0 IntGTp=1.
 FoFCou: FMM=F IPFlag=           0 FMFlag=      100000 FMFlg1=           0
         NFxFlg=           0 DoJE=T BraDBF=F KetDBF=F FulRan=T
         wScrn=  0.000000 ICntrl=       500 IOpCl=  0 I1Cent=           0 NGrid=           0
         NMat0=    1 NMatS0=      1 NMatT0=    0 NMatD0=    1 NMtDS0=    0 NMtDT0=    0
 Symmetry not used in FoFCou.
 E= -3655.60435785748    
 DIIS: error= 2.05D-02 at cycle   1 NSaved=   1.
 NSaved= 1 IEnMin= 1 EnMin= -3655.60435785748     IErMin= 1 ErrMin= 2.05D-02
 ErrMax= 2.05D-02  0.00D+00 EMaxC= 1.00D-01 BMatC= 2.58D+00 BMatP= 2.58D+00
 IDIUse=3 WtCom= 7.95D-01 WtEn= 2.05D-01
 Coeff-Com:  0.100D+01
 Coeff-En:   0.100D+01
 Coeff:      0.100D+01
 Gap=     0.239 Goal=   None    Shift=    0.000
 Gap=     0.239 Goal=   None    Shift=    0.000
 GapD=    0.239 DampG=1.000 DampE=0.500 DampFc=0.5000 IDamp=-1.
 Damping current iteration by 5.00D-01
 RMSDP=3.15D-03 MaxDP=1.27D-01              OVMax= 2.09D-01

 Cycle   2  Pass 0  IDiag  1:
 RMSU=  1.57D-03    CP:  9.93D-01
 E= -3655.97873244051     Delta-E=       -0.374374583031 Rises=F Damp=T
 DIIS: error= 3.32D-03 at cycle   2 NSaved=   2.
 NSaved= 2 IEnMin= 2 EnMin= -3655.97873244051     IErMin= 2 ErrMin= 3.32D-03
 ErrMax= 3.32D-03  0.00D+00 EMaxC= 1.00D-01 BMatC= 9.95D-02 BMatP= 2.58D+00
 IDIUse=3 WtCom= 9.67D-01 WtEn= 3.32D-02
 Coeff-Com: -0.566D-01 0.106D+01
 Coeff-En:   0.000D+00 0.100D+01
 Coeff:     -0.547D-01 0.105D+01
 Gap=     0.264 Goal=   None    Shift=    0.000
 Gap=     0.264 Goal=   None    Shift=    0.000
 RMSDP=8.24D-04 MaxDP=2.21D-02 DE=-3.74D-01 OVMax= 1.15D-01

 Cycle   3  Pass 0  IDiag  1:
 RMSU=  7.79D-04    CP:  9.90D-01  1.17D+00
 E= -3656.32847322501     Delta-E=       -0.349740784499 Rises=F Damp=F
 DIIS: error= 2.63D-03 at cycle   3 NSaved=   3.
 NSaved= 3 IEnMin= 3 EnMin= -3656.32847322501     IErMin= 3 ErrMin= 2.63D-03
 ErrMax= 2.63D-03  0.00D+00 EMaxC= 1.00D-01 BMatC= 3.79D-02 BMatP= 9.95D-02
 IDIUse=3 WtCom= 9.74D-01 WtEn= 2.63D-02
 Coeff-Com: -0.286D-01 0.368D+00 0.660D+00
 Coeff-En:   0.000D+00 0.000D+00 0.100D+01
 Coeff:     -0.279D-01 0.359D+00 0.669D+00
 Gap=     0.269 Goal=   None    Shift=    0.000
 Gap=     0.269 Goal=   None    Shift=    0.000
 RMSDP=2.31D-04 MaxDP=1.59D-02 DE=-3.50D-01 OVMax= 2.36D-02

 Cycle   4  Pass 0  IDiag  1:
 RMSU=  2.24D-04    CP:  9.89D-01  1.18D+00  9.34D-01
 E= -3656.33661268263     Delta-E=       -0.008139457626 Rises=F Damp=F
 DIIS: error= 1.39D-03 at cycle   4 NSaved=   4.
 NSaved= 4 IEnMin= 4 EnMin= -3656.33661268263     IErMin= 4 ErrMin= 1.39D-03
 ErrMax= 1.39D-03  0.00D+00 EMaxC= 1.00D-01 BMatC= 8.53D-03 BMatP= 3.79D-02
 IDIUse=3 WtCom= 9.86D-01 WtEn= 1.39D-02
 Coeff-Com:  0.855D-02-0.550D-01 0.288D+00 0.758D+00
 Coeff-En:   0.000D+00 0.000D+00 0.153D-01 0.985D+00
 Coeff:      0.843D-02-0.542D-01 0.284D+00 0.762D+00
 Gap=     0.273 Goal=   None    Shift=    0.000
 Gap=     0.273 Goal=   None    Shift=    0.000
 RMSDP=1.26D-04 MaxDP=5.13D-03 DE=-8.14D-03 OVMax= 1.52D-02

 Cycle   5  Pass 0  IDiag  1:
 RMSU=  9.49D-05    CP:  9.89D-01  1.18D+00  1.03D+00  8.81D-01
 E= -3656.33944218785     Delta-E=       -0.002829505215 Rises=F Damp=F
 DIIS: error= 3.80D-04 at cycle   5 NSaved=   5.
 NSaved= 5 IEnMin= 5 EnMin= -3656.33944218785     IErMin= 5 ErrMin= 3.80D-04
 ErrMax= 3.80D-04  0.00D+00 EMaxC= 1.00D-01 BMatC= 5.22D-04 BMatP= 8.53D-03
 IDIUse=3 WtCom= 9.96D-01 WtEn= 3.80D-03
 Coeff-Com:  0.739D-02-0.475D-01-0.163D-01 0.134D+00 0.923D+00
 Coeff-En:   0.000D+00 0.000D+00 0.000D+00 0.000D+00 0.100D+01
 Coeff:      0.736D-02-0.473D-01-0.162D-01 0.133D+00 0.923D+00
 Gap=     0.275 Goal=   None    Shift=    0.000
 Gap=     0.275 Goal=   None    Shift=    0.000
 RMSDP=5.06D-05 MaxDP=2.05D-03 DE=-2.83D-03 OVMax= 5.54D-03

 Cycle   6  Pass 0  IDiag  1:
 RMSU=  3.19D-05    CP:  9.89D-01  1.18D+00  1.06D+00  1.00D+00  1.19D+00
 E= -3656.33981016824     Delta-E=       -0.000367980388 Rises=F Damp=F
 DIIS: error= 1.98D-04 at cycle   6 NSaved=   6.
 NSaved= 6 IEnMin= 6 EnMin= -3656.33981016824     IErMin= 6 ErrMin= 1.98D-04
 ErrMax= 1.98D-04  0.00D+00 EMaxC= 1.00D-01 BMatC= 1.55D-04 BMatP= 5.22D-04
 IDIUse=3 WtCom= 9.98D-01 WtEn= 1.98D-03
 Coeff-Com:  0.279D-02-0.125D-01-0.552D-01-0.718D-01 0.369D+00 0.768D+00
 Coeff-En:   0.000D+00 0.000D+00 0.000D+00 0.000D+00 0.000D+00 0.100D+01
 Coeff:      0.278D-02-0.125D-01-0.551D-01-0.717D-01 0.368D+00 0.769D+00
 Gap=     0.275 Goal=   None    Shift=    0.000
 Gap=     0.275 Goal=   None    Shift=    0.000
 RMSDP=2.53D-05 MaxDP=1.19D-03 DE=-3.68D-04 OVMax= 4.08D-03

 Cycle   7  Pass 0  IDiag  1:
 RMSU=  1.49D-05    CP:  9.88D-01  1.18D+00  1.07D+00  1.03D+00  1.36D+00
                    CP:  1.16D+00
 E= -3656.33990917093     Delta-E=       -0.000099002692 Rises=F Damp=F
 DIIS: error= 9.01D-05 at cycle   7 NSaved=   7.
 NSaved= 7 IEnMin= 7 EnMin= -3656.33990917093     IErMin= 7 ErrMin= 9.01D-05
 ErrMax= 9.01D-05  0.00D+00 EMaxC= 1.00D-01 BMatC= 2.15D-05 BMatP= 1.55D-04
 IDIUse=1 WtCom= 1.00D+00 WtEn= 0.00D+00
 Coeff-Com: -0.612D-03 0.657D-02-0.290D-02-0.368D-01-0.170D+00 0.148D+00
 Coeff-Com:  0.106D+01
 Coeff:     -0.612D-03 0.657D-02-0.290D-02-0.368D-01-0.170D+00 0.148D+00
 Coeff:      0.106D+01
 Gap=     0.276 Goal=   None    Shift=    0.000
 Gap=     0.276 Goal=   None    Shift=    0.000
 RMSDP=1.51D-05 MaxDP=6.58D-04 DE=-9.90D-05 OVMax= 2.04D-03

 Cycle   8  Pass 0  IDiag  1:
 RMSU=  4.78D-06    CP:  9.89D-01  1.18D+00  1.08D+00  1.05D+00  1.44D+00
                    CP:  1.48D+00  1.31D+00
 E= -3656.33992980280     Delta-E=       -0.000020631877 Rises=F Damp=F
 DIIS: error= 2.69D-05 at cycle   8 NSaved=   8.
 NSaved= 8 IEnMin= 8 EnMin= -3656.33992980280     IErMin= 8 ErrMin= 2.69D-05
 ErrMax= 2.69D-05  0.00D+00 EMaxC= 1.00D-01 BMatC= 2.37D-06 BMatP= 2.15D-05
 IDIUse=1 WtCom= 1.00D+00 WtEn= 0.00D+00
 Coeff-Com: -0.294D-03 0.270D-02 0.435D-02-0.219D-02-0.774D-01-0.343D-01
 Coeff-Com:  0.256D+00 0.851D+00
 Coeff:     -0.294D-03 0.270D-02 0.435D-02-0.219D-02-0.774D-01-0.343D-01
 Coeff:      0.256D+00 0.851D+00
 Gap=     0.276 Goal=   None    Shift=    0.000
 Gap=     0.276 Goal=   None    Shift=    0.000
 RMSDP=3.91D-06 MaxDP=1.63D-04 DE=-2.06D-05 OVMax= 5.66D-04

 Initial convergence to 1.0D-05 achieved.  Increase integral accuracy.
 Cycle   9  Pass 1  IDiag  1:
 E= -3656.33955313731     Delta-E=        0.000376665493 Rises=F Damp=F
 DIIS: error= 1.29D-04 at cycle   1 NSaved=   1.
 NSaved= 1 IEnMin= 1 EnMin= -3656.33955313731     IErMin= 1 ErrMin= 1.29D-04
 ErrMax= 1.29D-04  0.00D+00 EMaxC= 1.00D-01 BMatC= 1.54D-05 BMatP= 1.54D-05
 IDIUse=3 WtCom= 9.99D-01 WtEn= 1.29D-03
 Coeff-Com:  0.100D+01
 Coeff-En:   0.100D+01
 Coeff:      0.100D+01
 Gap=     0.276 Goal=   None    Shift=    0.000
 Gap=     0.276 Goal=   None    Shift=    0.000
 RMSDP=3.91D-06 MaxDP=1.63D-04 DE= 3.77D-04 OVMax= 1.71D-04

 Cycle  10  Pass 1  IDiag  1:
 RMSU=  4.83D-05    CP:  1.00D+00
 E= -3656.33955584285     Delta-E=       -0.000002705541 Rises=F Damp=F
 DIIS: error= 1.35D-05 at cycle   2 NSaved=   2.
 NSaved= 2 IEnMin= 2 EnMin= -3656.33955584285     IErMin= 2 ErrMin= 1.35D-05
 ErrMax= 1.35D-05  0.00D+00 EMaxC= 1.00D-01 BMatC= 7.63D-07 BMatP= 1.54D-05
 IDIUse=1 WtCom= 1.00D+00 WtEn= 0.00D+00
 Coeff-Com:  0.491D-01 0.951D+00
 Coeff:      0.491D-01 0.951D+00
 Gap=     0.276 Goal=   None    Shift=    0.000
 Gap=     0.276 Goal=   None    Shift=    0.000
 RMSDP=2.67D-06 MaxDP=9.91D-05 DE=-2.71D-06 OVMax= 1.44D-04

 Cycle  11  Pass 1  IDiag  1:
 RMSU=  1.82D-06    CP:  1.00D+00  1.04D+00
 E= -3656.33955587535     Delta-E=       -0.000000032494 Rises=F Damp=F
 DIIS: error= 1.26D-05 at cycle   3 NSaved=   3.
 NSaved= 3 IEnMin= 3 EnMin= -3656.33955587535     IErMin= 3 ErrMin= 1.26D-05
 ErrMax= 1.26D-05  0.00D+00 EMaxC= 1.00D-01 BMatC= 9.19D-07 BMatP= 7.63D-07
 IDIUse=1 WtCom= 1.00D+00 WtEn= 0.00D+00
 Coeff-Com: -0.200D-01 0.530D+00 0.490D+00
 Coeff:     -0.200D-01 0.530D+00 0.490D+00
 Gap=     0.276 Goal=   None    Shift=    0.000
 Gap=     0.276 Goal=   None    Shift=    0.000
 RMSDP=8.95D-07 MaxDP=5.45D-05 DE=-3.25D-08 OVMax= 8.12D-05

 Cycle  12  Pass 1  IDiag  1:
 RMSU=  5.60D-07    CP:  1.00D+00  1.05D+00  6.38D-01
 E= -3656.33955607681     Delta-E=       -0.000000201462 Rises=F Damp=F
 DIIS: error= 2.59D-06 at cycle   4 NSaved=   4.
 NSaved= 4 IEnMin= 4 EnMin= -3656.33955607681     IErMin= 4 ErrMin= 2.59D-06
 ErrMax= 2.59D-06  0.00D+00 EMaxC= 1.00D-01 BMatC= 1.23D-08 BMatP= 7.63D-07
 IDIUse=1 WtCom= 1.00D+00 WtEn= 0.00D+00
 Coeff-Com: -0.714D-02 0.129D+00 0.142D+00 0.736D+00
 Coeff:     -0.714D-02 0.129D+00 0.142D+00 0.736D+00
 Gap=     0.276 Goal=   None    Shift=    0.000
 Gap=     0.276 Goal=   None    Shift=    0.000
 RMSDP=1.94D-07 MaxDP=1.02D-05 DE=-2.01D-07 OVMax= 2.33D-05

 Cycle  13  Pass 1  IDiag  1:
 RMSU=  1.58D-07    CP:  1.00D+00  1.05D+00  6.83D-01  1.13D+00
 E= -3656.33955607581     Delta-E=        0.000000001002 Rises=F Damp=F
 DIIS: error= 1.50D-06 at cycle   5 NSaved=   5.
 NSaved= 5 IEnMin= 4 EnMin= -3656.33955607681     IErMin= 5 ErrMin= 1.50D-06
 ErrMax= 1.50D-06  0.00D+00 EMaxC= 1.00D-01 BMatC= 3.58D-09 BMatP= 1.23D-08
 IDIUse=1 WtCom= 1.00D+00 WtEn= 0.00D+00
 Coeff-Com:  0.631D-02-0.186D+00-0.166D+00 0.195D+00 0.115D+01
 Coeff:      0.631D-02-0.186D+00-0.166D+00 0.195D+00 0.115D+01
 Gap=     0.276 Goal=   None    Shift=    0.000
 Gap=     0.276 Goal=   None    Shift=    0.000
 RMSDP=2.18D-07 MaxDP=1.02D-05 DE= 1.00D-09 OVMax= 3.27D-05

 Cycle  14  Pass 1  IDiag  1:
 RMSU=  1.20D-07    CP:  1.00D+00  1.05D+00  7.18D-01  1.38D+00  1.57D+00
 E= -3656.33955608830     Delta-E=       -0.000000012489 Rises=F Damp=F
 DIIS: error= 4.74D-07 at cycle   6 NSaved=   6.
 NSaved= 6 IEnMin= 6 EnMin= -3656.33955608830     IErMin= 6 ErrMin= 4.74D-07
 ErrMax= 4.74D-07  0.00D+00 EMaxC= 1.00D-01 BMatC= 4.84D-10 BMatP= 3.58D-09
 IDIUse=1 WtCom= 1.00D+00 WtEn= 0.00D+00
 Coeff-Com:  0.287D-02-0.762D-01-0.710D-01-0.168D-01 0.401D+00 0.760D+00
 Coeff:      0.287D-02-0.762D-01-0.710D-01-0.168D-01 0.401D+00 0.760D+00
 Gap=     0.276 Goal=   None    Shift=    0.000
 Gap=     0.276 Goal=   None    Shift=    0.000
 RMSDP=5.09D-08 MaxDP=2.44D-06 DE=-1.25D-08 OVMax= 8.64D-06

 Cycle  15  Pass 1  IDiag  1:
 RMSU=  2.95D-08    CP:  1.00D+00  1.05D+00  7.23D-01  1.41D+00  1.77D+00
                    CP:  1.14D+00
 E= -3656.33955608840     Delta-E=       -0.000000000104 Rises=F Damp=F
 DIIS: error= 1.27D-07 at cycle   7 NSaved=   7.
 NSaved= 7 IEnMin= 7 EnMin= -3656.33955608840     IErMin= 7 ErrMin= 1.27D-07
 ErrMax= 1.27D-07  0.00D+00 EMaxC= 1.00D-01 BMatC= 1.02D-10 BMatP= 4.84D-10
 IDIUse=1 WtCom= 1.00D+00 WtEn= 0.00D+00
 Coeff-Com: -0.409D-03 0.154D-01 0.124D-01-0.581D-01-0.121D+00 0.308D+00
 Coeff-Com:  0.844D+00
 Coeff:     -0.409D-03 0.154D-01 0.124D-01-0.581D-01-0.121D+00 0.308D+00
 Coeff:      0.844D+00
 Gap=     0.276 Goal=   None    Shift=    0.000
 Gap=     0.276 Goal=   None    Shift=    0.000
 RMSDP=2.48D-08 MaxDP=1.09D-06 DE=-1.04D-10 OVMax= 3.68D-06

 Cycle  16  Pass 1  IDiag  1:
 RMSU=  1.13D-08    CP:  1.00D+00  1.05D+00  7.23D-01  1.42D+00  1.85D+00
                    CP:  1.28D+00  1.00D+00
 E= -3656.33955608558     Delta-E=        0.000000002825 Rises=F Damp=F
 DIIS: error= 3.45D-08 at cycle   8 NSaved=   8.
 NSaved= 8 IEnMin= 7 EnMin= -3656.33955608840     IErMin= 8 ErrMin= 3.45D-08
 ErrMax= 3.45D-08  0.00D+00 EMaxC= 1.00D-01 BMatC= 7.18D-12 BMatP= 1.02D-10
 IDIUse=1 WtCom= 1.00D+00 WtEn= 0.00D+00
 Coeff-Com: -0.323D-03 0.102D-01 0.882D-02-0.198D-01-0.690D-01 0.572D-01
 Coeff-Com:  0.288D+00 0.725D+00
 Coeff:     -0.323D-03 0.102D-01 0.882D-02-0.198D-01-0.690D-01 0.572D-01
 Coeff:      0.288D+00 0.725D+00
 Gap=     0.276 Goal=   None    Shift=    0.000
 Gap=     0.276 Goal=   None    Shift=    0.000
 RMSDP=5.12D-09 MaxDP=2.06D-07 DE= 2.82D-09 OVMax= 6.57D-07

 Cycle  17  Pass 1  IDiag  1:
 RMSU=  3.63D-09    CP:  1.00D+00  1.05D+00  7.23D-01  1.42D+00  1.86D+00
                    CP:  1.30D+00  1.06D+00  1.15D+00
 E= -3656.33955608878     Delta-E=       -0.000000003206 Rises=F Damp=F
 DIIS: error= 1.81D-08 at cycle   9 NSaved=   9.
 NSaved= 9 IEnMin= 9 EnMin= -3656.33955608878     IErMin= 9 ErrMin= 1.81D-08
 ErrMax= 1.81D-08  0.00D+00 EMaxC= 1.00D-01 BMatC= 1.12D-12 BMatP= 7.18D-12
 IDIUse=1 WtCom= 1.00D+00 WtEn= 0.00D+00
 Coeff-Com: -0.675D-05-0.412D-03-0.388D-04 0.794D-02 0.691D-02-0.530D-01
 Coeff-Com: -0.106D+00 0.205D+00 0.939D+00
 Coeff:     -0.675D-05-0.412D-03-0.388D-04 0.794D-02 0.691D-02-0.530D-01
 Coeff:     -0.106D+00 0.205D+00 0.939D+00
 Gap=     0.276 Goal=   None    Shift=    0.000
 Gap=     0.276 Goal=   None    Shift=    0.000
 RMSDP=2.87D-09 MaxDP=1.11D-07 DE=-3.21D-09 OVMax= 4.51D-07

 SCF Done:  E(ULC-wPBE) =  -3656.33955609     A.U. after   17 cycles
            NFock= 17  Conv=0.29D-08     -V/T= 2.0034
 <Sx>= 0.0000 <Sy>= 0.0000 <Sz>= 0.0000 <S**2>=-0.0000 S=-0.0000
 <L.S>= 0.000000000000E+00
 KE= 3.643867434442D+03 PE=-1.631223808700D+04 EE= 5.176230243893D+03
 Annihilation of the first spin contaminant:
 S**2 before annihilation    -0.0000,   after    -0.0000
 Leave Link  502 at Fri Jul 24 12:16:28 2020, MaxMem=  4026531840 cpu:            2122.5 elap:             266.1
 (Enter /opt/ohpc/pub/libs/gaussian/g16-A.03/sandybridge/g16/l601.exe)
 Copying SCF densities to generalized density rwf, IOpCl= 1 IROHF=0.

 **********************************************************************

            Population analysis using the SCF density.

 **********************************************************************

 Orbital symmetries:
 Alpha Orbitals:
       Occupied  (A) (A) (A) (A) (A) (A) (A) (A) (A) (A) (A) (A)
                 (A) (A) (A) (A) (A) (A) (A) (A) (A) (A) (A) (A)
                 (A) (A) (A) (A) (A) (A) (A) (A) (A) (A) (A) (A)
                 (A) (A) (A) (A) (A) (A) (A) (A) (A) (A) (A) (A)
                 (A) (A) (A) (A) (A) (A) (A) (A) (A) (A) (A) (A)
                 (A) (A) (A) (A) (A) (A) (A) (A) (A) (A) (A) (A)
                 (A) (A) (A) (A) (A) (A) (A) (A) (A) (A) (A) (A)
                 (A) (A) (A) (A) (A) (A) (A) (A) (A) (A) (A) (A)
                 (A) (A) (A) (A) (A) (A) (A) (A) (A) (A) (A) (A)
                 (A) (A) (A) (A) (A) (A) (A) (A) (A) (A) (A) (A)
                 (A) (A) (A) (A) (A) (A) (A) (A) (A) (A) (A) (A)
                 (A) (A) (A) (A) (A) (A) (A)
       Virtual   (A) (A) (A) (A) (A) (A) (A) (A) (A) (A) (A) (A)
                 (A) (A) (A) (A) (A) (A) (A) (A) (A) (A) (A) (A)
                 (A) (A) (A) (A) (A) (A) (A) (A) (A) (A) (A) (A)
                 (A) (A) (A) (A) (A) (A) (A) (A) (A) (A) (A) (A)
                 (A) (A) (A) (A) (A) (A) (A) (A) (A) (A) (A) (A)
                 (A) (A) (A) (A) (A) (A) (A) (A) (A) (A) (A) (A)
                 (A) (A) (A) (A) (A) (A) (A) (A) (A) (A) (A) (A)
                 (A) (A) (A) (A) (A) (A) (A) (A) (A) (A) (A) (A)
                 (A) (A) (A) (A) (A) (A) (A) (A) (A) (A) (A) (A)
                 (A) (A) (A) (A) (A) (A) (A) (A) (A) (A) (A) (A)
                 (A) (A) (A) (A) (A) (A) (A) (A) (A) (A) (A) (A)
                 (A) (A) (A) (A) (A) (A) (A) (A) (A) (A) (A) (A)
                 (A) (A) (A) (A) (A) (A) (A) (A) (A) (A) (A) (A)
                 (A) (A) (A) (A) (A) (A) (A) (A) (A) (A) (A) (A)
                 (A) (A) (A) (A) (A) (A) (A) (A) (A) (A) (A) (A)
                 (A) (A) (A) (A) (A) (A) (A) (A) (A) (A) (A) (A)
                 (A) (A) (A) (A) (A) (A) (A) (A) (A) (A) (A) (A)
                 (A) (A) (A) (A) (A) (A) (A) (A) (A) (A) (A) (A)
                 (A) (A) (A) (A) (A) (A) (A) (A) (A) (A) (A) (A)
                 (A) (A) (A) (A) (A) (A) (A) (A) (A) (A) (A) (A)
                 (A) (A) (A) (A) (A) (A) (A) (A) (A) (A) (A) (A)
                 (A) (A) (A) (A) (A) (A) (A) (A) (A) (A) (A) (A)
                 (A) (A) (A) (A) (A) (A) (A) (A) (A) (A) (A) (A)
                 (A) (A) (A) (A) (A) (A) (A) (A) (A) (A) (A) (A)
                 (A) (A) (A) (A) (A) (A) (A) (A) (A) (A) (A) (A)
                 (A) (A) (A) (A) (A) (A) (A) (A) (A) (A) (A) (A)
                 (A) (A) (A) (A) (A) (A) (A) (A) (A) (A) (A) (A)
                 (A) (A) (A) (A) (A) (A) (A) (A) (A) (A) (A) (A)
                 (A) (A) (A) (A) (A) (A) (A) (A) (A) (A) (A) (A)
                 (A) (A) (A) (A) (A) (A) (A) (A) (A) (A) (A) (A)
                 (A) (A) (A) (A) (A) (A) (A) (A) (A) (A) (A) (A)
                 (A) (A) (A) (A) (A) (A) (A) (A) (A) (A) (A) (A)
                 (A) (A) (A)
 Beta  Orbitals:
       Occupied  (A) (A) (A) (A) (A) (A) (A) (A) (A) (A) (A) (A)
                 (A) (A) (A) (A) (A) (A) (A) (A) (A) (A) (A) (A)
                 (A) (A) (A) (A) (A) (A) (A) (A) (A) (A) (A) (A)
                 (A) (A) (A) (A) (A) (A) (A) (A) (A) (A) (A) (A)
                 (A) (A) (A) (A) (A) (A) (A) (A) (A) (A) (A) (A)
                 (A) (A) (A) (A) (A) (A) (A) (A) (A) (A) (A) (A)
                 (A) (A) (A) (A) (A) (A) (A) (A) (A) (A) (A) (A)
                 (A) (A) (A) (A) (A) (A) (A) (A) (A) (A) (A) (A)
                 (A) (A) (A) (A) (A) (A) (A) (A) (A) (A) (A) (A)
                 (A) (A) (A) (A) (A) (A) (A) (A) (A) (A) (A) (A)
                 (A) (A) (A) (A) (A) (A) (A) (A) (A) (A) (A) (A)
                 (A) (A) (A) (A) (A) (A) (A)
       Virtual   (A) (A) (A) (A) (A) (A) (A) (A) (A) (A) (A) (A)
                 (A) (A) (A) (A) (A) (A) (A) (A) (A) (A) (A) (A)
                 (A) (A) (A) (A) (A) (A) (A) (A) (A) (A) (A) (A)
                 (A) (A) (A) (A) (A) (A) (A) (A) (A) (A) (A) (A)
                 (A) (A) (A) (A) (A) (A) (A) (A) (A) (A) (A) (A)
                 (A) (A) (A) (A) (A) (A) (A) (A) (A) (A) (A) (A)
                 (A) (A) (A) (A) (A) (A) (A) (A) (A) (A) (A) (A)
                 (A) (A) (A) (A) (A) (A) (A) (A) (A) (A) (A) (A)
                 (A) (A) (A) (A) (A) (A) (A) (A) (A) (A) (A) (A)
                 (A) (A) (A) (A) (A) (A) (A) (A) (A) (A) (A) (A)
                 (A) (A) (A) (A) (A) (A) (A) (A) (A) (A) (A) (A)
                 (A) (A) (A) (A) (A) (A) (A) (A) (A) (A) (A) (A)
                 (A) (A) (A) (A) (A) (A) (A) (A) (A) (A) (A) (A)
                 (A) (A) (A) (A) (A) (A) (A) (A) (A) (A) (A) (A)
                 (A) (A) (A) (A) (A) (A) (A) (A) (A) (A) (A) (A)
                 (A) (A) (A) (A) (A) (A) (A) (A) (A) (A) (A) (A)
                 (A) (A) (A) (A) (A) (A) (A) (A) (A) (A) (A) (A)
                 (A) (A) (A) (A) (A) (A) (A) (A) (A) (A) (A) (A)
                 (A) (A) (A) (A) (A) (A) (A) (A) (A) (A) (A) (A)
                 (A) (A) (A) (A) (A) (A) (A) (A) (A) (A) (A) (A)
                 (A) (A) (A) (A) (A) (A) (A) (A) (A) (A) (A) (A)
                 (A) (A) (A) (A) (A) (A) (A) (A) (A) (A) (A) (A)
                 (A) (A) (A) (A) (A) (A) (A) (A) (A) (A) (A) (A)
                 (A) (A) (A) (A) (A) (A) (A) (A) (A) (A) (A) (A)
                 (A) (A) (A) (A) (A) (A) (A) (A) (A) (A) (A) (A)
                 (A) (A) (A) (A) (A) (A) (A) (A) (A) (A) (A) (A)
                 (A) (A) (A) (A) (A) (A) (A) (A) (A) (A) (A) (A)
                 (A) (A) (A) (A) (A) (A) (A) (A) (A) (A) (A) (A)
                 (A) (A) (A) (A) (A) (A) (A) (A) (A) (A) (A) (A)
                 (A) (A) (A) (A) (A) (A) (A) (A) (A) (A) (A) (A)
                 (A) (A) (A) (A) (A) (A) (A) (A) (A) (A) (A) (A)
                 (A) (A) (A) (A) (A) (A) (A) (A) (A) (A) (A) (A)
                 (A) (A) (A)
 The electronic state is 1-A.
 Alpha  occ. eigenvalues --  -88.33364 -88.32951 -88.32921 -88.32755 -88.32740
 Alpha  occ. eigenvalues --  -88.32352 -24.51363 -24.50990 -24.50805 -14.22197
 Alpha  occ. eigenvalues --  -14.21582 -14.21285 -10.21737 -10.21650 -10.20701
 Alpha  occ. eigenvalues --  -10.20275 -10.20067 -10.19415 -10.17812 -10.17591
 Alpha  occ. eigenvalues --  -10.17548 -10.17517 -10.16893 -10.16687 -10.16581
 Alpha  occ. eigenvalues --  -10.16380 -10.15713 -10.15664 -10.15244 -10.14592
 Alpha  occ. eigenvalues --  -10.13747 -10.13446 -10.13099  -7.94258  -7.93768
 Alpha  occ. eigenvalues --   -7.93696  -7.93675  -7.93382  -7.93303  -5.95855
 Alpha  occ. eigenvalues --   -5.95387  -5.95323  -5.95303  -5.95282  -5.95004
 Alpha  occ. eigenvalues --   -5.94903  -5.94880  -5.94828  -5.94753  -5.94705
 Alpha  occ. eigenvalues --   -5.94510  -5.94402  -5.94362  -5.94331  -5.94318
 Alpha  occ. eigenvalues --   -5.94014  -5.93986  -1.35878  -1.35263  -1.33805
 Alpha  occ. eigenvalues --   -1.13419  -1.12950  -1.11813  -1.07347  -1.06719
 Alpha  occ. eigenvalues --   -1.05722  -0.97381  -0.96876  -0.94954  -0.94644
 Alpha  occ. eigenvalues --   -0.93299  -0.92274  -0.90205  -0.89858  -0.89313
 Alpha  occ. eigenvalues --   -0.88037  -0.86738  -0.85515  -0.78618  -0.77592
 Alpha  occ. eigenvalues --   -0.75621  -0.74931  -0.73722  -0.72085  -0.71530
 Alpha  occ. eigenvalues --   -0.70202  -0.69693  -0.69564  -0.69076  -0.68045
 Alpha  occ. eigenvalues --   -0.66631  -0.65368  -0.63557  -0.62122  -0.61524
 Alpha  occ. eigenvalues --   -0.61321  -0.61065  -0.60859  -0.60699  -0.59382
 Alpha  occ. eigenvalues --   -0.58713  -0.58155  -0.57831  -0.57636  -0.56972
 Alpha  occ. eigenvalues --   -0.56719  -0.56237  -0.55561  -0.55111  -0.54238
 Alpha  occ. eigenvalues --   -0.53404  -0.52913  -0.52335  -0.52244  -0.51386
 Alpha  occ. eigenvalues --   -0.51315  -0.50279  -0.49784  -0.49013  -0.48654
 Alpha  occ. eigenvalues --   -0.47393  -0.46854  -0.46768  -0.45898  -0.45020
 Alpha  occ. eigenvalues --   -0.42527  -0.40175  -0.40055  -0.39859  -0.39482
 Alpha  occ. eigenvalues --   -0.39435  -0.38935  -0.38794  -0.37181  -0.36503
 Alpha  occ. eigenvalues --   -0.36146  -0.35556  -0.32835  -0.29857
 Alpha virt. eigenvalues --   -0.02273   0.00586   0.03192   0.05802   0.08081
 Alpha virt. eigenvalues --    0.08850   0.09027   0.10423   0.10832   0.11312
 Alpha virt. eigenvalues --    0.11894   0.12689   0.12966   0.14195   0.14382
 Alpha virt. eigenvalues --    0.15441   0.15847   0.16324   0.16779   0.16939
 Alpha virt. eigenvalues --    0.17009   0.17604   0.18195   0.18503   0.19286
 Alpha virt. eigenvalues --    0.19870   0.20712   0.21051   0.21374   0.21529
 Alpha virt. eigenvalues --    0.23524   0.24427   0.26590   0.27093   0.27863
 Alpha virt. eigenvalues --    0.28792   0.30790   0.32082   0.33135   0.33538
 Alpha virt. eigenvalues --    0.34659   0.34752   0.35698   0.36721   0.37404
 Alpha virt. eigenvalues --    0.38425   0.39310   0.40547   0.40791   0.42577
 Alpha virt. eigenvalues --    0.43777   0.44396   0.45650   0.46770   0.47150
 Alpha virt. eigenvalues --    0.48282   0.49348   0.49974   0.51432   0.52038
 Alpha virt. eigenvalues --    0.52294   0.52464   0.52705   0.52985   0.53150
 Alpha virt. eigenvalues --    0.53257   0.53525   0.53628   0.54018   0.54144
 Alpha virt. eigenvalues --    0.54605   0.54708   0.54846   0.55041   0.55120
 Alpha virt. eigenvalues --    0.55433   0.55989   0.56185   0.56240   0.56657
 Alpha virt. eigenvalues --    0.56938   0.57039   0.57280   0.57519   0.57846
 Alpha virt. eigenvalues --    0.57866   0.58180   0.58261   0.58642   0.59236
 Alpha virt. eigenvalues --    0.59451   0.60105   0.60572   0.61036   0.61565
 Alpha virt. eigenvalues --    0.62185   0.62226   0.62652   0.62921   0.63023
 Alpha virt. eigenvalues --    0.63159   0.63931   0.64554   0.65296   0.65524
 Alpha virt. eigenvalues --    0.66209   0.66344   0.66822   0.66906   0.67913
 Alpha virt. eigenvalues --    0.68007   0.68557   0.69529   0.69695   0.70325
 Alpha virt. eigenvalues --    0.70437   0.70643   0.71729   0.73251   0.73854
 Alpha virt. eigenvalues --    0.73901   0.74383   0.74787   0.75071   0.75306
 Alpha virt. eigenvalues --    0.75619   0.75721   0.76223   0.76640   0.77177
 Alpha virt. eigenvalues --    0.77470   0.77965   0.78478   0.78578   0.79190
 Alpha virt. eigenvalues --    0.80338   0.80972   0.81752   0.81979   0.83264
 Alpha virt. eigenvalues --    0.83748   0.83937   0.84278   0.84724   0.85715
 Alpha virt. eigenvalues --    0.86781   0.86893   0.87532   0.88791   0.89366
 Alpha virt. eigenvalues --    0.89746   0.90896   0.91276   0.92270   0.93369
 Alpha virt. eigenvalues --    0.93622   0.94787   0.96269   0.97442   0.97972
 Alpha virt. eigenvalues --    0.98401   0.98695   0.99336   1.00220   1.00424
 Alpha virt. eigenvalues --    1.00737   1.01019   1.01569   1.02065   1.02728
 Alpha virt. eigenvalues --    1.03203   1.03648   1.03867   1.05126   1.05864
 Alpha virt. eigenvalues --    1.06814   1.06963   1.07600   1.07631   1.07889
 Alpha virt. eigenvalues --    1.08791   1.08881   1.09075   1.09735   1.11151
 Alpha virt. eigenvalues --    1.11742   1.12039   1.13357   1.13942   1.14152
 Alpha virt. eigenvalues --    1.14376   1.15312   1.16433   1.16507   1.17041
 Alpha virt. eigenvalues --    1.17988   1.18341   1.19194   1.20288   1.20512
 Alpha virt. eigenvalues --    1.21396   1.21499   1.21685   1.22606   1.23355
 Alpha virt. eigenvalues --    1.24224   1.24803   1.25104   1.25707   1.26459
 Alpha virt. eigenvalues --    1.26934   1.27906   1.28779   1.29287   1.29727
 Alpha virt. eigenvalues --    1.30133   1.30574   1.31473   1.32857   1.33896
 Alpha virt. eigenvalues --    1.35273   1.36322   1.37039   1.37451   1.39132
 Alpha virt. eigenvalues --    1.39967   1.40894   1.41104   1.41411   1.41760
 Alpha virt. eigenvalues --    1.42656   1.42883   1.43846   1.44975   1.45708
[...]
    26  F(19)             -0.00000      -0.00000      -0.00000      -0.00000
    27  C(13)             -0.00000      -0.00000      -0.00000      -0.00000
    28  S(33)             -0.00000      -0.00000      -0.00000      -0.00000
    29  C(13)              0.00000       0.00000       0.00000       0.00000
    30  N(14)             -0.00000      -0.00000      -0.00000      -0.00000
    31  C(13)              0.00000       0.00000       0.00000       0.00000
    32  C(13)              0.00000       0.00000       0.00000       0.00000
    33  S(33)             -0.00000      -0.00000      -0.00000      -0.00000
    34  H(1)              -0.00000      -0.00000      -0.00000      -0.00000
    35  H(1)              -0.00000      -0.00000      -0.00000      -0.00000
    36  H(1)              -0.00000      -0.00000      -0.00000      -0.00000
    37  H(1)              -0.00000      -0.00000      -0.00000      -0.00000
    38  H(1)               0.00000       0.00000       0.00000       0.00000
    39  H(1)               0.00000       0.00000       0.00000       0.00000
    40  H(1)              -0.00000      -0.00000      -0.00000      -0.00000
    41  H(1)              -0.00000      -0.00000      -0.00000      -0.00000
 --------------------------------------------------------
       Center         ----  Spin Dipole Couplings  ----
                      3XX-RR        3YY-RR        3ZZ-RR
 --------------------------------------------------------
     1   Atom        0.000000     -0.000000     -0.000000
     2   Atom       -0.000000      0.000000      0.000000
     3   Atom       -0.000000      0.000000     -0.000000
     4   Atom        0.000000     -0.000000      0.000000
     5   Atom       -0.000000     -0.000000      0.000000
     6   Atom        0.000000     -0.000000      0.000000
     7   Atom        0.000000     -0.000000     -0.000000
     8   Atom       -0.000000      0.000000      0.000000
     9   Atom       -0.000000      0.000000      0.000000
    10   Atom       -0.000000      0.000000      0.000000
    11   Atom       -0.000000     -0.000000      0.000000
    12   Atom       -0.000000      0.000000     -0.000000
    13   Atom        0.000000     -0.000000      0.000000
    14   Atom        0.000000     -0.000000      0.000000
    15   Atom        0.000000      0.000000     -0.000000
    16   Atom        0.000000     -0.000000      0.000000
    17   Atom       -0.000000      0.000000     -0.000000
    18   Atom        0.000000     -0.000000     -0.000000
    19   Atom        0.000000     -0.000000      0.000000
    20   Atom       -0.000000      0.000000     -0.000000
    21   Atom       -0.000000      0.000000     -0.000000
    22   Atom        0.000000     -0.000000     -0.000000
    23   Atom       -0.000000      0.000000     -0.000000
    24   Atom       -0.000000      0.000000      0.000000
    25   Atom        0.000000      0.000000     -0.000000
    26   Atom        0.000000      0.000000     -0.000000
    27   Atom        0.000000     -0.000000      0.000000
    28   Atom       -0.000000     -0.000000      0.000000
    29   Atom        0.000000      0.000000     -0.000000
    30   Atom       -0.000000     -0.000000      0.000000
    31   Atom        0.000000     -0.000000     -0.000000
    32   Atom        0.000000     -0.000000      0.000000
    33   Atom       -0.000000     -0.000000      0.000000
    34   Atom        0.000000     -0.000000     -0.000000
    35   Atom        0.000000     -0.000000      0.000000
    36   Atom       -0.000000      0.000000     -0.000000
    37   Atom        0.000000     -0.000000      0.000000
    38   Atom        0.000000     -0.000000      0.000000
    39   Atom        0.000000      0.000000     -0.000000
    40   Atom       -0.000000      0.000000     -0.000000
    41   Atom       -0.000000      0.000000      0.000000
 --------------------------------------------------------
                        XY            XZ            YZ
 --------------------------------------------------------
     1   Atom        0.000000      0.000000      0.000000
     2   Atom       -0.000000      0.000000      0.000000
     3   Atom        0.000000     -0.000000     -0.000000
     4   Atom       -0.000000     -0.000000      0.000000
     5   Atom       -0.000000      0.000000      0.000000
     6   Atom       -0.000000      0.000000      0.000000
     7   Atom        0.000000     -0.000000     -0.000000
     8   Atom       -0.000000      0.000000      0.000000
     9   Atom        0.000000      0.000000     -0.000000
    10   Atom        0.000000      0.000000      0.000000
    11   Atom       -0.000000     -0.000000      0.000000
    12   Atom       -0.000000     -0.000000      0.000000
    13   Atom       -0.000000     -0.000000     -0.000000
    14   Atom       -0.000000     -0.000000     -0.000000
    15   Atom        0.000000      0.000000      0.000000
    16   Atom       -0.000000     -0.000000     -0.000000
    17   Atom        0.000000     -0.000000      0.000000
    18   Atom        0.000000      0.000000     -0.000000
    19   Atom       -0.000000     -0.000000     -0.000000
    20   Atom       -0.000000     -0.000000      0.000000
    21   Atom       -0.000000     -0.000000      0.000000
    22   Atom       -0.000000     -0.000000      0.000000
    23   Atom       -0.000000      0.000000     -0.000000
    24   Atom       -0.000000      0.000000     -0.000000
    25   Atom       -0.000000      0.000000     -0.000000
    26   Atom       -0.000000      0.000000     -0.000000
    27   Atom        0.000000      0.000000      0.000000
    28   Atom       -0.000000     -0.000000      0.000000
    29   Atom        0.000000     -0.000000     -0.000000
    30   Atom       -0.000000      0.000000      0.000000
    31   Atom        0.000000     -0.000000     -0.000000
    32   Atom        0.000000     -0.000000      0.000000
    33   Atom        0.000000      0.000000      0.000000
    34   Atom        0.000000     -0.000000      0.000000
    35   Atom       -0.000000      0.000000      0.000000
    36   Atom       -0.000000      0.000000     -0.000000
    37   Atom        0.000000     -0.000000     -0.000000
    38   Atom        0.000000      0.000000     -0.000000
    39   Atom        0.000000     -0.000000     -0.000000
    40   Atom        0.000000     -0.000000     -0.000000
    41   Atom       -0.000000      0.000000      0.000000
 --------------------------------------------------------


 ---------------------------------------------------------------------------------
              Anisotropic Spin Dipole Couplings in Principal Axis System
 ---------------------------------------------------------------------------------

       Atom             a.u.   MegaHertz   Gauss  10(-4) cm-1        Axes

              Baa    -0.0000    -0.000    -0.000    -0.000 -0.0503 -0.0639  0.9967
     1 C(13)  Bbb    -0.0000    -0.000    -0.000    -0.000 -0.0068  0.9980  0.0636
              Bcc     0.0000     0.000     0.000     0.000  0.9987  0.0036  0.0506
 
              Baa    -0.0000    -0.000    -0.000    -0.000  0.9877  0.1316 -0.0839
     2 C(13)  Bbb     0.0000     0.000     0.000     0.000  0.1374 -0.4781  0.8675
              Bcc     0.0000     0.000     0.000     0.000 -0.0741  0.8684  0.4903
 
              Baa    -0.0000    -0.000    -0.000    -0.000  0.0754  0.1048  0.9916
     3 C(13)  Bbb    -0.0000    -0.000    -0.000    -0.000  0.9819 -0.1808 -0.0556
              Bcc     0.0000     0.000     0.000     0.000  0.1735  0.9779 -0.1165
 
              Baa    -0.0000    -0.000    -0.000    -0.000  0.0666  0.9741 -0.2161
     4 F(19)  Bbb     0.0000     0.000     0.000     0.000  0.1853  0.2007  0.9620
              Bcc     0.0000     0.000     0.000     0.000  0.9804 -0.1041 -0.1672
 
              Baa    -0.0000    -0.000    -0.000    -0.000  0.9725  0.1827 -0.1444
     5 C(13)  Bbb    -0.0000    -0.000    -0.000    -0.000 -0.2077  0.9610 -0.1827
              Bcc     0.0000     0.000     0.000     0.000  0.1054  0.2076  0.9725
 
              Baa    -0.0000    -0.000    -0.000    -0.000  0.6491  0.7437 -0.1597
     6 S(33)  Bbb     0.0000     0.000     0.000     0.000 -0.0013  0.2111  0.9775
              Bcc     0.0000     0.000     0.000     0.000  0.7607 -0.6343  0.1380
 
              Baa    -0.0000    -0.000    -0.000    -0.000  0.0532  0.2553  0.9654
     7 C(13)  Bbb    -0.0000    -0.000    -0.000    -0.000 -0.0294  0.9667 -0.2540
              Bcc     0.0000     0.000     0.000     0.000  0.9981  0.0148 -0.0590
 
              Baa    -0.0000    -0.000    -0.000    -0.000  0.8328  0.5468 -0.0866
     8 N(14)  Bbb     0.0000     0.000     0.000     0.000  0.2881 -0.2943  0.9112
              Bcc     0.0000     0.000     0.000     0.000 -0.4728  0.7838  0.4026
 
              Baa    -0.0000    -0.000    -0.000    -0.000  0.8873 -0.4452 -0.1203
     9 C(13)  Bbb     0.0000     0.000     0.000     0.000  0.2511  0.2475  0.9358
              Bcc     0.0000     0.000     0.000     0.000  0.3868  0.8606 -0.3314
 
              Baa    -0.0000    -0.000    -0.000    -0.000  0.9748 -0.2210 -0.0297
    10 C(13)  Bbb     0.0000     0.000     0.000     0.000  0.2152  0.9673 -0.1339
              Bcc     0.0000     0.000     0.000     0.000  0.0583  0.1241  0.9906
 
              Baa    -0.0000    -0.000    -0.000    -0.000  0.7618  0.6476 -0.0167
    11 S(33)  Bbb     0.0000     0.000     0.000     0.000 -0.6191  0.7201 -0.3135
              Bcc     0.0000     0.000     0.000     0.000 -0.1910  0.2491  0.9494
 
              Baa    -0.0000    -0.000    -0.000    -0.000  0.9649  0.2627  0.0039
    12 C(13)  Bbb    -0.0000    -0.000    -0.000    -0.000  0.0518 -0.2048  0.9774
              Bcc     0.0000     0.000     0.000     0.000 -0.2576  0.9429  0.2112
 
              Baa    -0.0000    -0.000    -0.000    -0.000  0.5921  0.7862  0.1770
    13 C(13)  Bbb     0.0000     0.000     0.000     0.000  0.2674 -0.3989  0.8771
              Bcc     0.0000     0.000     0.000     0.000  0.7602 -0.4720 -0.4465
 
              Baa    -0.0000    -0.000    -0.000    -0.000  0.4377  0.8288  0.3486
    14 C(13)  Bbb     0.0000     0.000     0.000     0.000 -0.5746 -0.0404  0.8175
              Bcc     0.0000     0.000     0.000     0.000  0.6916 -0.5581  0.4585
 
              Baa    -0.0000    -0.000    -0.000    -0.000  0.6991 -0.6652 -0.2624
    15 F(19)  Bbb    -0.0000    -0.000    -0.000    -0.000  0.0377 -0.3321  0.9425
              Bcc     0.0000     0.000     0.000     0.000  0.7141  0.6688  0.2071
 
              Baa    -0.0000    -0.000    -0.000    -0.000  0.3081  0.9035  0.2978
    16 C(13)  Bbb     0.0000     0.000     0.000     0.000  0.9476 -0.2636 -0.1803
              Bcc     0.0000     0.000     0.000     0.000  0.0844 -0.3378  0.9374
 
              Baa    -0.0000    -0.000    -0.000    -0.000  0.5346 -0.5456  0.6454
    17 S(33)  Bbb    -0.0000    -0.000    -0.000    -0.000 -0.6447  0.2306  0.7288
              Bcc     0.0000     0.000     0.000     0.000  0.5465  0.8057  0.2285
 
              Baa    -0.0000    -0.000    -0.000    -0.000 -0.0498  0.6078  0.7925
    18 C(13)  Bbb    -0.0000    -0.000    -0.000    -0.000 -0.0121  0.7931 -0.6090
              Bcc     0.0000     0.000     0.000     0.000  0.9987  0.0399  0.0321
 
              Baa    -0.0000    -0.000    -0.000    -0.000  0.1349  0.8588  0.4943
    19 N(14)  Bbb     0.0000     0.000     0.000     0.000  0.9733 -0.2084  0.0965
              Bcc     0.0000     0.000     0.000     0.000 -0.1859 -0.4680  0.8639
 
              Baa    -0.0000    -0.000    -0.000    -0.000  0.8734  0.4835  0.0585
    20 C(13)  Bbb    -0.0000    -0.000    -0.000    -0.000  0.0335 -0.1795  0.9832
              Bcc     0.0000     0.000     0.000     0.000 -0.4859  0.8567  0.1729
 
              Baa    -0.0000    -0.000    -0.000    -0.000  0.8440  0.2347  0.4822
    21 C(13)  Bbb    -0.0000    -0.000    -0.000    -0.000 -0.3653 -0.4068  0.8373
              Bcc     0.0000     0.000     0.000     0.000 -0.3927  0.8829  0.2576
 
              Baa    -0.0000    -0.000    -0.000    -0.000  0.2901  0.8666 -0.4059
    22 S(33)  Bbb    -0.0000    -0.000    -0.000    -0.000  0.3486  0.2994  0.8882
              Bcc     0.0000     0.000     0.000     0.000  0.8913 -0.3992 -0.2152
 
              Baa    -0.0000    -0.000    -0.000    -0.000  0.9793  0.0810 -0.1856
    23 C(13)  Bbb    -0.0000    -0.000    -0.000    -0.000  0.1649  0.2127  0.9631
              Bcc     0.0000     0.000     0.000     0.000 -0.1175  0.9738 -0.1949
 
              Baa    -0.0000    -0.000    -0.000    -0.000  0.9966  0.0314 -0.0763
    24 C(13)  Bbb     0.0000     0.000     0.000     0.000  0.0200  0.8055  0.5923
              Bcc     0.0000     0.000     0.000     0.000  0.0801 -0.5918  0.8021
 
              Baa    -0.0000    -0.000    -0.000    -0.000 -0.0399  0.1176  0.9923
    25 C(13)  Bbb     0.0000     0.000     0.000     0.000  0.2545  0.9615 -0.1038
              Bcc     0.0000     0.000     0.000     0.000  0.9663 -0.2484  0.0683
 
              Baa    -0.0000    -0.000    -0.000    -0.000  0.1085  0.2441  0.9637
    26 F(19)  Bbb    -0.0000    -0.000    -0.000    -0.000  0.7977  0.5570 -0.2309
              Bcc     0.0000     0.000     0.000     0.000 -0.5931  0.7938 -0.1343
 
              Baa    -0.0000    -0.000    -0.000    -0.000 -0.0169  0.9837 -0.1793
    27 C(13)  Bbb     0.0000     0.000     0.000     0.000 -0.0281  0.1788  0.9835
              Bcc     0.0000     0.000     0.000     0.000  0.9995  0.0216  0.0246
 
              Baa    -0.0000    -0.000    -0.000    -0.000  0.5883  0.8080  0.0320
    28 S(33)  Bbb     0.0000     0.000     0.000     0.000  0.7942 -0.5848  0.1652
              Bcc     0.0000     0.000     0.000     0.000 -0.1522  0.0717  0.9857
 
              Baa    -0.0000    -0.000    -0.000    -0.000 -0.0390  0.1387  0.9896
    29 C(13)  Bbb    -0.0000    -0.000    -0.000    -0.000  0.8756 -0.4724  0.1007
              Bcc     0.0000     0.000     0.000     0.000  0.4814  0.8704 -0.1030
 
              Baa    -0.0000    -0.000    -0.000    -0.000  0.3373  0.9388 -0.0697
    30 N(14)  Bbb     0.0000     0.000     0.000     0.000  0.9400 -0.3399 -0.0299
              Bcc     0.0000     0.000     0.000     0.000  0.0518  0.0554  0.9971
 
              Baa    -0.0000    -0.000    -0.000    -0.000  0.0090  0.5715  0.8206
    31 C(13)  Bbb    -0.0000    -0.000    -0.000    -0.000 -0.2584  0.7941 -0.5502
              Bcc     0.0000     0.000     0.000     0.000  0.9660  0.2071 -0.1548
 
              Baa    -0.0000    -0.000    -0.000    -0.000 -0.3634  0.9093 -0.2027
    32 C(13)  Bbb     0.0000     0.000     0.000     0.000 -0.1608  0.1531  0.9750
              Bcc     0.0000     0.000     0.000     0.000  0.9177  0.3869  0.0906
 
              Baa    -0.0000    -0.000    -0.000    -0.000 -0.6211  0.7814  0.0606
    33 S(33)  Bbb     0.0000     0.000     0.000     0.000 -0.4468 -0.4165  0.7917
              Bcc     0.0000     0.000     0.000     0.000  0.6439  0.4646  0.6079
 
              Baa    -0.0000    -0.000    -0.000    -0.000 -0.0161  0.9975 -0.0682
    34 H(1)   Bbb    -0.0000    -0.000    -0.000    -0.000  0.0394  0.0688  0.9968
              Bcc     0.0000     0.000     0.000     0.000  0.9991  0.0134 -0.0404
 
              Baa    -0.0000    -0.000    -0.000    -0.000  0.4293  0.8911 -0.1470
    35 H(1)   Bbb     0.0000     0.000     0.000     0.000  0.9012 -0.4334  0.0043
              Bcc     0.0000     0.000     0.000     0.000  0.0599  0.1343  0.9891
 
              Baa    -0.0000    -0.000    -0.000    -0.000  0.9505  0.0867 -0.2984
    36 H(1)   Bbb    -0.0000    -0.000    -0.000    -0.000  0.2933  0.0663  0.9537
              Bcc     0.0000     0.000     0.000     0.000 -0.1025  0.9940 -0.0376
 
              Baa    -0.0000    -0.000    -0.000    -0.000 -0.2352  0.8967  0.3750
    37 H(1)   Bbb     0.0000     0.000     0.000     0.000  0.9425  0.1162  0.3132
              Bcc     0.0000     0.000     0.000     0.000 -0.2373 -0.4271  0.8725
 
              Baa    -0.0000    -0.000    -0.000    -0.000 -0.1817  0.9322  0.3129
    38 H(1)   Bbb    -0.0000    -0.000    -0.000    -0.000  0.8258  0.3174 -0.4661
              Bcc     0.0000     0.000     0.000     0.000  0.5338 -0.1738  0.8275
 
              Baa    -0.0000    -0.000    -0.000    -0.000 -0.5069  0.5583  0.6568
    39 H(1)   Bbb    -0.0000    -0.000    -0.000    -0.000  0.6025 -0.3155  0.7331
              Bcc     0.0000     0.000     0.000     0.000  0.6165  0.7673 -0.1764
 
              Baa    -0.0000    -0.000    -0.000    -0.000  0.8462 -0.5164  0.1318
    40 H(1)   Bbb    -0.0000    -0.000    -0.000    -0.000 -0.0857  0.1122  0.9900
              Bcc     0.0000     0.000     0.000     0.000  0.5260  0.8490 -0.0507
 
              Baa    -0.0000    -0.000    -0.000    -0.000  0.9596  0.2716 -0.0729
    41 H(1)   Bbb     0.0000     0.000     0.000     0.000 -0.2748  0.9607 -0.0383
              Bcc     0.0000     0.000     0.000     0.000  0.0596  0.0568  0.9966
 

 ---------------------------------------------------------------------------------

 No NMR shielding tensors so no spin-rotation constants.
 Leave Link  601 at Fri Jul 24 17:18:48 2020, MaxMem=  4026531840 cpu:               4.0 elap:               0.6
 (Enter /opt/ohpc/pub/libs/gaussian/g16-A.03/sandybridge/g16/l9999.exe)

 Test job not archived.
 1\1\GINC-SKYLAKE025\FOpt\ULC-wPBE\CC-pVDZ\C21H8F3N3S6\RDU230\24-Jul-20
 20\0\\#P uLC-wPBE/cc-pVDZ iop(3/107=0377900000, 3/108=0377900000) opt\
 \H8 C21 S6 N3 F3\\0,1\C,10.7944708283,-0.7280854746,-0.1415225474\C,10
 .4900586491,0.5854056674,-0.339873836\C,9.0888507565,0.7819892532,-0.2
 802498127\F,8.5221922559,1.9832545185,-0.4430413187\C,8.3585480204,-0.
 3489206406,-0.0438908647\S,9.412300191,-1.7059992622,0.1122691611\C,6.
 919535278,-0.5103040823,0.0773607855\N,6.3600956237,-1.6646973719,0.30
 64368382\C,5.0047256532,-1.5353319954,0.380312109\C,4.50629969,-0.2750
 848415,0.2041000025\S,5.8164948317,0.8160501853,-0.0749939243\C,3.1184
 88468,0.1699710552,0.2325434007\C,2.6433366141,1.4184491644,0.53589852
 31\C,1.2325436703,1.4533486867,0.4683849809\F,0.5297778745,2.560407316
 8,0.7303020471\C,0.6397385015,0.2712086438,0.1250684421\S,1.8457623705
 ,-0.9334499769,-0.1456293217\C,-0.7674909881,-0.0505541911,-0.02933189
 52\N,-1.1794433367,-1.2407593193,-0.3646894465\C,-2.5400410626,-1.2715
 327214,-0.4491964729\C,-3.1905157925,-0.1012511605,-0.1746063771\S,-2.
 0257867571,1.1129503793,0.2181576589\C,-4.6222862897,0.1731230093,-0.1
 868032832\C,-5.244705739,1.3754505821,-0.3923941974\C,-6.6503240605,1.
 2336153235,-0.343431136\F,-7.4799946789,2.2671933562,-0.5225835596\C,-
 7.0960299676,-0.0357082693,-0.1089804661\S,-5.7538679693,-1.1038401026
 ,0.0783520014\C,-8.455240786,-0.5410672581,-0.0017962974\N,-8.71419106
 98,-1.7969630425,0.2267956682\C,-10.0658989361,-2.0044390591,0.2817631
 143\C,-10.8414236592,-0.9039877269,0.0945510877\S,-9.8502973376,0.4716
 897221,-0.1653443645\H,11.7851187589,-1.1796075058,-0.131950704\H,11.2
 089384881,1.3825341359,-0.5200673261\H,4.3952014001,-2.4163843909,0.58
 63466996\H,3.2572416382,2.2732753666,0.8155005558\H,-3.0359677764,-2.1
 990043844,-0.7388581149\H,-4.7385809943,2.3191236894,-0.5905764721\H,-
 10.4427497629,-3.010448308,0.4671333431\H,-11.9268845976,-0.8319699703
 ,0.0958203191\\Version=EM64L-G16RevA.03\State=1-A\HF=-3656.4108502\S2=
 0.\S2-1=0.\S2A=0.\RMSD=3.860e-09\RMSF=9.338e-07\Dipole=0.8082699,0.538
 4947,-0.025771\Quadrupole=36.6444946,-15.8389486,-20.8055459,3.6585827
 ,-0.6464756,-0.1211994\PG=C01 [X(C21H8F3N3S6)]\\@


 THE ATTENTION SPAN OF A COMPUTER IS AS LONG
 AS ITS EXTENSION CORD.
 Job cpu time:       1 days 16 hours 37 minutes 26.2 seconds.
 Elapsed time:       0 days  5 hours  6 minutes 47.0 seconds.
 File lengths (MBytes):  RWF=    364 Int=      0 D2E=      0 Chk=     32 Scr=      8
 Normal termination of Gaussian 16 at Fri Jul 24 17:18:48 2020.
