 Entering Gaussian System, Link 0=g16
 Input=mols_65_7_08_c-cF-C_opt_0.gjf
 Output=mols_65_7_08_c-cF-C_opt_0.log
 Initial command:
 /opt/ohpc/pub/libs/gaussian/g16-A.03/sandybridge/g16/l1.exe "/mnt/gpfs2_4m/scratch/rdu230/ondemand/projects/dihedral_energies/7trial/wtuning/redos_512cycles/mols_65_7_08_c-cF-C/Gau-444316.inp" -scrdir="/mnt/gpfs2_4m/scratch/rdu230/ondemand/projects/dihedral_energies/7trial/wtuning/redos_512cycles/mols_65_7_08_c-cF-C/"
 Entering Link 1 = /opt/ohpc/pub/libs/gaussian/g16-A.03/sandybridge/g16/l1.exe PID=    444317.
  
 Copyright (c) 1988,1990,1992,1993,1995,1998,2003,2009,2016,
            Gaussian, Inc.  All Rights Reserved.
  
 This is part of the Gaussian(R) 16 program.  It is based on
 the Gaussian(R) 09 system (copyright 2009, Gaussian, Inc.),
 the Gaussian(R) 03 system (copyright 2003, Gaussian, Inc.),
 the Gaussian(R) 98 system (copyright 1998, Gaussian, Inc.),
 the Gaussian(R) 94 system (copyright 1995, Gaussian, Inc.),
 the Gaussian 92(TM) system (copyright 1992, Gaussian, Inc.),
 the Gaussian 90(TM) system (copyright 1990, Gaussian, Inc.),
 the Gaussian 88(TM) system (copyright 1988, Gaussian, Inc.),
 the Gaussian 86(TM) system (copyright 1986, Carnegie Mellon
 University), and the Gaussian 82(TM) system (copyright 1983,
 Carnegie Mellon University). Gaussian is a federally registered
 trademark of Gaussian, Inc.
  
 This software contains proprietary and confidential information,
 including trade secrets, belonging to Gaussian, Inc.
  
 This software is provided under written license and may be
 used, copied, transmitted, or stored only in accord with that
 written license.
  
 The following legend is applicable only to US Government
 contracts under FAR:
  
                    RESTRICTED RIGHTS LEGEND
  
 Use, reproduction and disclosure by the US Government is
 subject to restrictions as set forth in subparagraphs (a)
 and (c) of the Commercial Computer Software - Restricted
 Rights clause in FAR 52.227-19.
  
 Gaussian, Inc.
 340 Quinnipiac St., Bldg. 40, Wallingford CT 06492
  
  
 ---------------------------------------------------------------
 Warning -- This program may not be used in any manner that
 competes with the business of Gaussian, Inc. or will provide
 assistance to any competitor of Gaussian, Inc.  The licensee
 of this program is prohibited from giving any competitor of
 Gaussian, Inc. access to this program.  By using this program,
 the user acknowledges that Gaussian, Inc. is engaged in the
 business of creating and licensing software in the field of
 computational chemistry and represents and warrants to the
 licensee that it is not a competitor of Gaussian, Inc. and that
 it will not use this program in any manner prohibited above.
 ---------------------------------------------------------------
  

 Cite this work as:
 Gaussian 16, Revision A.03,
 M. J. Frisch, G. W. Trucks, H. B. Schlegel, G. E. Scuseria, 
 M. A. Robb, J. R. Cheeseman, G. Scalmani, V. Barone, 
 G. A. Petersson, H. Nakatsuji, X. Li, M. Caricato, A. V. Marenich, 
 J. Bloino, B. G. Janesko, R. Gomperts, B. Mennucci, H. P. Hratchian, 
 J. V. Ortiz, A. F. Izmaylov, J. L. Sonnenberg, D. Williams-Young, 
 F. Ding, F. Lipparini, F. Egidi, J. Goings, B. Peng, A. Petrone, 
 T. Henderson, D. Ranasinghe, V. G. Zakrzewski, J. Gao, N. Rega, 
 G. Zheng, W. Liang, M. Hada, M. Ehara, K. Toyota, R. Fukuda, 
 J. Hasegawa, M. Ishida, T. Nakajima, Y. Honda, O. Kitao, H. Nakai, 
 T. Vreven, K. Throssell, J. A. Montgomery, Jr., J. E. Peralta, 
 F. Ogliaro, M. J. Bearpark, J. J. Heyd, E. N. Brothers, K. N. Kudin, 
 V. N. Staroverov, T. A. Keith, R. Kobayashi, J. Normand, 
 K. Raghavachari, A. P. Rendell, J. C. Burant, S. S. Iyengar, 
 J. Tomasi, M. Cossi, J. M. Millam, M. Klene, C. Adamo, R. Cammi, 
 J. W. Ochterski, R. L. Martin, K. Morokuma, O. Farkas, 
 J. B. Foresman, and D. J. Fox, Gaussian, Inc., Wallingford CT, 2016.
 
 ******************************************
 Gaussian 16:  EM64L-G16RevA.03 25-Dec-2016
                26-Jul-2020 
 ******************************************
 %mem=30GB
 %nproc=8
 Will use up to    8 processors via shared memory.
 ---------------------------------------------------------------
 #P uLC-wPBE/cc-pVDZ iop(3/107=0312300000, 3/108=0312300000) opt
 ---------------------------------------------------------------
 1/18=20,19=15,26=3,38=1/1,3;
 2/9=110,12=2,17=6,18=5,40=1/2;
 3/5=16,11=2,25=1,30=1,71=1,74=-41,107=312300000,108=312300000,116=2/1,2,3;
 4//1;
 5/5=2,38=5/2;
 6/7=2,8=2,9=2,10=2,28=1/1;
 7//1,2,3,16;
 1/18=20,19=15,26=3/3(2);
 2/9=110/2;
 99//99;
 2/9=110/2;
 3/5=16,11=2,25=1,30=1,71=1,74=-41,107=312300000,108=312300000,116=2/1,2,3;
 4/5=5,16=3,69=1/1;
 5/5=2,38=5/2;
 7//1,2,3,16;
 1/18=20,19=15,26=3/3(-5);
 2/9=110/2;
 6/7=2,8=2,9=2,10=2,19=2,28=1/1;
 99/9=1/99;
 Leave Link    1 at Sun Jul 26 12:21:38 2020, MaxMem=  4026531840 cpu:               2.1 elap:               0.3
 (Enter /opt/ohpc/pub/libs/gaussian/g16-A.03/sandybridge/g16/l101.exe)
 -------------
 H37 C70 S7 F7
 -------------
 Symbolic Z-matrix:
 Charge =  0 Multiplicity = 1
 C                     24.88055   3.80754   2.22237 
 C                     24.03819   2.85209   2.72599 
 C                     23.08401   2.24604   1.87284 
 C                     22.9456   2.61513   0.55738 
 C                     23.80241   3.58308   0.05964 
 F                     23.6918   4.02637  -1.20307 
 C                     24.78452   4.24955   0.90245 
 C                     21.94717   2.05963  -0.34445 
 C                     22.10157   1.68021  -1.67021 
 C                     20.88253   1.1106   -2.29323 
 C                     19.81583   0.97909  -1.32732 
 S                     20.32829   1.68665   0.18714 
 C                     18.4714   0.49688  -1.5424 
 C                     17.92645  -0.34934  -0.58119 
 C                     16.62849  -0.92788  -0.74187 
 C                     15.86958  -0.51776  -1.86958 
 C                     16.46635   0.29387  -2.85956 
 F                     15.79485   0.69188  -3.96881 
 C                     17.76724   0.81919  -2.59159 
 C                     14.56726  -1.06294  -2.12888 
 C                     13.95874  -1.44758  -3.36182 
 C                     12.64877  -1.97761  -3.18998 
 C                     12.19413  -1.8364   -1.92176 
 S                     13.38972  -1.20888  -0.81863 
 C                     10.89212  -2.18517  -1.33502 
 C                     10.65236  -2.83164  -0.07689 
 C                     9.38097  -3.20038   0.39378 
 C                     8.29126  -2.83886  -0.36549 
 C                     8.43514  -2.20468  -1.59802 
 F                     7.32258  -1.9467   -2.36984 
 C                     9.6998   -1.93948  -2.03804 
 C                     6.91978  -3.26948   0.2032 
 C                     6.52881  -4.50945   0.57943 
 C                     5.13705  -4.4153    1.01396 
 C                     4.56952  -3.16714   1.0345 
 S                     5.78939  -2.04036   0.49895 
 C                     3.24703  -2.79548   1.46268 
 C                     2.58868  -1.66009   0.87277 
 C                     1.29931  -1.32091   1.21238 
 C                     0.64777  -1.99658   2.25927 
 C                     1.30707  -2.98692   2.89561 
 F                     0.80139  -3.69346   3.92523 
 C                     2.6177   -3.45817   2.52099 
 C                    -0.67386  -1.5991    2.74872 
 C                    -1.25485  -1.6559    4.0289 
 C                    -2.57434  -1.0764    4.11622 
 C                    -3.07425  -0.67139   2.86102 
 S                    -1.78971  -0.89418   1.65509 
 C                    -4.33556  -0.11756   2.57884 
 C                    -4.86404   0.93041   3.40627 
 C                    -6.117     1.48161   3.10609 
 C                    -6.78134   1.09203   1.93198 
 C                    -6.22322   0.12114   1.10801 
 F                    -6.947    -0.27189  -0.03461 
 C                    -5.09133  -0.47674   1.37347 
 C                    -8.11186   1.8336    1.58122 
 C                    -8.25961   3.16682   1.45579 
 C                    -9.70386   3.44038   1.08541 
 C                    -10.38962   2.32782   0.93277 
 S                    -9.50669   0.86483   1.29023 
 C                    -11.89448   2.20344   0.5467 
 C                    -12.38161   1.16123  -0.21251 
 C                    -13.69008   1.14672  -0.67105 
 C                    -14.54463   2.10463  -0.19945 
 C                    -14.07759   3.20105   0.54555 
 F                    -14.93949   4.12359   0.9958 
 C                    -12.70799   3.19929   0.99674 
 C                    -15.96605   2.17006  -0.67791 
 C                    -16.73425   3.128    -1.27816 
 C                    -18.01772   2.76581  -1.59533 
 C                    -18.37692   1.48034  -1.17743 
 S                    -16.92395   0.72882  -0.46855 
 C                    -19.66474   0.78355  -1.20064 
 C                    -19.72732  -0.62374  -1.55508 
 C                    -20.9615  -1.18732  -1.68487 
 C                    -22.13045  -0.51231  -1.48481 
 C                    -22.02093   0.80558  -1.1095 
 F                    -23.1843   1.54212  -0.83253 
 C                    -20.82356   1.49456  -0.96222 
 C                    -23.45253  -1.19133  -1.58528 
 C                    -23.89298  -2.24051  -0.73702 
 C                    -25.24753  -2.68238  -1.22919 
 C                    -25.6972  -1.89526  -2.26838 
 S                    -24.55992  -0.78609  -2.79992 
 H                     25.60965   4.31824   2.81943 
 H                     24.01684   2.5564    3.74153 
 H                     22.41549   1.45752   2.26182 
 H                     25.37412   4.98583   0.51157 
 H                     22.98677   1.81274  -2.30834 
 H                     20.74155   0.75637  -3.28856 
 H                     18.45776  -0.73619   0.34844 
 H                     16.26247  -1.59238  -0.03276 
 H                     18.15073   1.50561  -3.42172 
 H                     14.46074  -1.51655  -4.26251 
 H                     12.02977  -2.31444  -3.95896 
 H                     11.54635  -3.08719   0.54388 
 H                     9.30546  -3.65073   1.33893 
 H                     9.7329   -1.42316  -3.09352 
 H                     7.05644  -5.43608   0.43439 
 H                     4.62406  -5.29664   1.34188 
 H                     3.02884  -1.12626  -0.03186 
 H                     0.82549  -0.42335   0.71521 
 H                     3.10404  -4.24133   2.96381 
 H                    -0.67819  -1.95836   4.91237 
 H                    -3.12606  -1.09429   4.9599 
 H                    -4.32083   1.26613   4.28299 
 H                    -6.5355    2.29108   3.70262 
 H                    -4.67288  -1.19587   0.73124 
 H                    -7.49973   3.93601   1.58574 
 H                    -10.07168   4.44728   0.89379 
 H                    -11.71054   0.38216  -0.62107 
 H                    -14.05946   0.31836  -1.24464 
 H                    -12.44032   4.07354   1.627 
 H                    -16.21625   4.13889  -1.50254 
 H                    -18.7008   3.44607  -2.02809 
 H                    -18.80909  -1.13638  -1.79766 
 H                    -20.9394  -2.25539  -1.92189 
 H                    -20.85659   2.56395  -0.73724 
 H                    -23.38634  -2.63758   0.01929 
 H                    -25.7401  -3.45607  -0.73532 
 H                    -26.64386  -2.04857  -2.83191 
 
 ITRead=  0  0  0  0  0  0  0  0  0  0  0  0  0  0  0  0  0  0  0  0
 ITRead=  0  0  0  0  0  0  0  0  0  0  0  0  0  0  0  0  0  0  0  0
 ITRead=  0  0  0  0  0  0  0  0  0  0  0  0  0  0  0  0  0  0  0  0
 ITRead=  0  0  0  0  0  0  0  0  0  0  0  0  0  0  0  0  0  0  0  0
 ITRead=  0  0  0  0  0  0  0  0  0  0  0  0  0  0  0  0  0  0  0  0
 ITRead=  0  0  0  0  0  0  0  0  0  0  0  0  0  0  0  0  0  0  0  0
 ITRead=  0
 MicOpt= -1 -1 -1 -1 -1 -1 -1 -1 -1 -1 -1 -1 -1 -1 -1 -1 -1 -1 -1 -1
 MicOpt= -1 -1 -1 -1 -1 -1 -1 -1 -1 -1 -1 -1 -1 -1 -1 -1 -1 -1 -1 -1
 MicOpt= -1 -1 -1 -1 -1 -1 -1 -1 -1 -1 -1 -1 -1 -1 -1 -1 -1 -1 -1 -1
 MicOpt= -1 -1 -1 -1 -1 -1 -1 -1 -1 -1 -1 -1 -1 -1 -1 -1 -1 -1 -1 -1
 MicOpt= -1 -1 -1 -1 -1 -1 -1 -1 -1 -1 -1 -1 -1 -1 -1 -1 -1 -1 -1 -1
 MicOpt= -1 -1 -1 -1 -1 -1 -1 -1 -1 -1 -1 -1 -1 -1 -1 -1 -1 -1 -1 -1
 MicOpt= -1
 NAtoms=    121 NQM=      121 NQMF=       0 NMMI=      0 NMMIF=      0
                NMic=       0 NMicF=      0.
                    Isotopes and Nuclear Properties:
 (Nuclear quadrupole moments (NQMom) in fm**2, nuclear magnetic moments (NMagM)
  in nuclear magnetons)

  Atom         1           2           3           4           5           6           7           8           9          10
 IAtWgt=          12          12          12          12          12          19          12          12          12          12
 AtmWgt=  12.0000000  12.0000000  12.0000000  12.0000000  12.0000000  18.9984033  12.0000000  12.0000000  12.0000000  12.0000000
 NucSpn=           0           0           0           0           0           1           0           0           0           0
 AtZEff=  -0.0000000  -0.0000000  -0.0000000  -0.0000000  -0.0000000  -0.0000000  -0.0000000  -0.0000000  -0.0000000  -0.0000000
 NQMom=    0.0000000   0.0000000   0.0000000   0.0000000   0.0000000   0.0000000   0.0000000   0.0000000   0.0000000   0.0000000
 NMagM=    0.0000000   0.0000000   0.0000000   0.0000000   0.0000000   2.6288670   0.0000000   0.0000000   0.0000000   0.0000000
 AtZNuc=   6.0000000   6.0000000   6.0000000   6.0000000   6.0000000   9.0000000   6.0000000   6.0000000   6.0000000   6.0000000

  Atom        11          12          13          14          15          16          17          18          19          20
 IAtWgt=          12          32          12          12          12          12          12          19          12          12
 AtmWgt=  12.0000000  31.9720718  12.0000000  12.0000000  12.0000000  12.0000000  12.0000000  18.9984033  12.0000000  12.0000000
 NucSpn=           0           0           0           0           0           0           0           1           0           0
 AtZEff=  -0.0000000  -0.0000000  -0.0000000  -0.0000000  -0.0000000  -0.0000000  -0.0000000  -0.0000000  -0.0000000  -0.0000000
 NQMom=    0.0000000   0.0000000   0.0000000   0.0000000   0.0000000   0.0000000   0.0000000   0.0000000   0.0000000   0.0000000
 NMagM=    0.0000000   0.0000000   0.0000000   0.0000000   0.0000000   0.0000000   0.0000000   2.6288670   0.0000000   0.0000000
 AtZNuc=   6.0000000  16.0000000   6.0000000   6.0000000   6.0000000   6.0000000   6.0000000   9.0000000   6.0000000   6.0000000

  Atom        21          22          23          24          25          26          27          28          29          30
 IAtWgt=          12          12          12          32          12          12          12          12          12          19
 AtmWgt=  12.0000000  12.0000000  12.0000000  31.9720718  12.0000000  12.0000000  12.0000000  12.0000000  12.0000000  18.9984033
 NucSpn=           0           0           0           0           0           0           0           0           0           1
 AtZEff=  -0.0000000  -0.0000000  -0.0000000  -0.0000000  -0.0000000  -0.0000000  -0.0000000  -0.0000000  -0.0000000  -0.0000000
 NQMom=    0.0000000   0.0000000   0.0000000   0.0000000   0.0000000   0.0000000   0.0000000   0.0000000   0.0000000   0.0000000
 NMagM=    0.0000000   0.0000000   0.0000000   0.0000000   0.0000000   0.0000000   0.0000000   0.0000000   0.0000000   2.6288670
 AtZNuc=   6.0000000   6.0000000   6.0000000  16.0000000   6.0000000   6.0000000   6.0000000   6.0000000   6.0000000   9.0000000

  Atom        31          32          33          34          35          36          37          38          39          40
 IAtWgt=          12          12          12          12          12          32          12          12          12          12
 AtmWgt=  12.0000000  12.0000000  12.0000000  12.0000000  12.0000000  31.9720718  12.0000000  12.0000000  12.0000000  12.0000000
 NucSpn=           0           0           0           0           0           0           0           0           0           0
 AtZEff=  -0.0000000  -0.0000000  -0.0000000  -0.0000000  -0.0000000  -0.0000000  -0.0000000  -0.0000000  -0.0000000  -0.0000000
 NQMom=    0.0000000   0.0000000   0.0000000   0.0000000   0.0000000   0.0000000   0.0000000   0.0000000   0.0000000   0.0000000
 NMagM=    0.0000000   0.0000000   0.0000000   0.0000000   0.0000000   0.0000000   0.0000000   0.0000000   0.0000000   0.0000000
 AtZNuc=   6.0000000   6.0000000   6.0000000   6.0000000   6.0000000  16.0000000   6.0000000   6.0000000   6.0000000   6.0000000

  Atom        41          42          43          44          45          46          47          48          49          50
 IAtWgt=          12          19          12          12          12          12          12          32          12          12
 AtmWgt=  12.0000000  18.9984033  12.0000000  12.0000000  12.0000000  12.0000000  12.0000000  31.9720718  12.0000000  12.0000000
 NucSpn=           0           1           0           0           0           0           0           0           0           0
 AtZEff=  -0.0000000  -0.0000000  -0.0000000  -0.0000000  -0.0000000  -0.0000000  -0.0000000  -0.0000000  -0.0000000  -0.0000000
 NQMom=    0.0000000   0.0000000   0.0000000   0.0000000   0.0000000   0.0000000   0.0000000   0.0000000   0.0000000   0.0000000
 NMagM=    0.0000000   2.6288670   0.0000000   0.0000000   0.0000000   0.0000000   0.0000000   0.0000000   0.0000000   0.0000000
 AtZNuc=   6.0000000   9.0000000   6.0000000   6.0000000   6.0000000   6.0000000   6.0000000  16.0000000   6.0000000   6.0000000

  Atom        51          52          53          54          55          56          57          58          59          60
 IAtWgt=          12          12          12          19          12          12          12          12          12          32
 AtmWgt=  12.0000000  12.0000000  12.0000000  18.9984033  12.0000000  12.0000000  12.0000000  12.0000000  12.0000000  31.9720718
 NucSpn=           0           0           0           1           0           0           0           0           0           0
 AtZEff=  -0.0000000  -0.0000000  -0.0000000  -0.0000000  -0.0000000  -0.0000000  -0.0000000  -0.0000000  -0.0000000  -0.0000000
 NQMom=    0.0000000   0.0000000   0.0000000   0.0000000   0.0000000   0.0000000   0.0000000   0.0000000   0.0000000   0.0000000
 NMagM=    0.0000000   0.0000000   0.0000000   2.6288670   0.0000000   0.0000000   0.0000000   0.0000000   0.0000000   0.0000000
 AtZNuc=   6.0000000   6.0000000   6.0000000   9.0000000   6.0000000   6.0000000   6.0000000   6.0000000   6.0000000  16.0000000

  Atom        61          62          63          64          65          66          67          68          69          70
 IAtWgt=          12          12          12          12          12          19          12          12          12          12
 AtmWgt=  12.0000000  12.0000000  12.0000000  12.0000000  12.0000000  18.9984033  12.0000000  12.0000000  12.0000000  12.0000000
 NucSpn=           0           0           0           0           0           1           0           0           0           0
 AtZEff=  -0.0000000  -0.0000000  -0.0000000  -0.0000000  -0.0000000  -0.0000000  -0.0000000  -0.0000000  -0.0000000  -0.0000000
 NQMom=    0.0000000   0.0000000   0.0000000   0.0000000   0.0000000   0.0000000   0.0000000   0.0000000   0.0000000   0.0000000
 NMagM=    0.0000000   0.0000000   0.0000000   0.0000000   0.0000000   2.6288670   0.0000000   0.0000000   0.0000000   0.0000000
 AtZNuc=   6.0000000   6.0000000   6.0000000   6.0000000   6.0000000   9.0000000   6.0000000   6.0000000   6.0000000   6.0000000

  Atom        71          72          73          74          75          76          77          78          79          80
 IAtWgt=          12          32          12          12          12          12          12          19          12          12
 AtmWgt=  12.0000000  31.9720718  12.0000000  12.0000000  12.0000000  12.0000000  12.0000000  18.9984033  12.0000000  12.0000000
 NucSpn=           0           0           0           0           0           0           0           1           0           0
 AtZEff=  -0.0000000  -0.0000000  -0.0000000  -0.0000000  -0.0000000  -0.0000000  -0.0000000  -0.0000000  -0.0000000  -0.0000000
 NQMom=    0.0000000   0.0000000   0.0000000   0.0000000   0.0000000   0.0000000   0.0000000   0.0000000   0.0000000   0.0000000
 NMagM=    0.0000000   0.0000000   0.0000000   0.0000000   0.0000000   0.0000000   0.0000000   2.6288670   0.0000000   0.0000000
 AtZNuc=   6.0000000  16.0000000   6.0000000   6.0000000   6.0000000   6.0000000   6.0000000   9.0000000   6.0000000   6.0000000

  Atom        81          82          83          84          85          86          87          88          89          90
 IAtWgt=          12          12          12          32           1           1           1           1           1           1
 AtmWgt=  12.0000000  12.0000000  12.0000000  31.9720718   1.0078250   1.0078250   1.0078250   1.0078250   1.0078250   1.0078250
 NucSpn=           0           0           0           0           1           1           1           1           1           1
 AtZEff=  -0.0000000  -0.0000000  -0.0000000  -0.0000000  -0.0000000  -0.0000000  -0.0000000  -0.0000000  -0.0000000  -0.0000000
 NQMom=    0.0000000   0.0000000   0.0000000   0.0000000   0.0000000   0.0000000   0.0000000   0.0000000   0.0000000   0.0000000
 NMagM=    0.0000000   0.0000000   0.0000000   0.0000000   2.7928460   2.7928460   2.7928460   2.7928460   2.7928460   2.7928460
 AtZNuc=   6.0000000   6.0000000   6.0000000  16.0000000   1.0000000   1.0000000   1.0000000   1.0000000   1.0000000   1.0000000

  Atom        91          92          93          94          95          96          97          98          99         100
 IAtWgt=           1           1           1           1           1           1           1           1           1           1
 AtmWgt=   1.0078250   1.0078250   1.0078250   1.0078250   1.0078250   1.0078250   1.0078250   1.0078250   1.0078250   1.0078250
 NucSpn=           1           1           1           1           1           1           1           1           1           1
 AtZEff=  -0.0000000  -0.0000000  -0.0000000  -0.0000000  -0.0000000  -0.0000000  -0.0000000  -0.0000000  -0.0000000  -0.0000000
 NQMom=    0.0000000   0.0000000   0.0000000   0.0000000   0.0000000   0.0000000   0.0000000   0.0000000   0.0000000   0.0000000
 NMagM=    2.7928460   2.7928460   2.7928460   2.7928460   2.7928460   2.7928460   2.7928460   2.7928460   2.7928460   2.7928460
 AtZNuc=   1.0000000   1.0000000   1.0000000   1.0000000   1.0000000   1.0000000   1.0000000   1.0000000   1.0000000   1.0000000

  Atom       101         102         103         104         105         106         107         108         109         110
 IAtWgt=           1           1           1           1           1           1           1           1           1           1
 AtmWgt=   1.0078250   1.0078250   1.0078250   1.0078250   1.0078250   1.0078250   1.0078250   1.0078250   1.0078250   1.0078250
 NucSpn=           1           1           1           1           1           1           1           1           1           1
 AtZEff=  -0.0000000  -0.0000000  -0.0000000  -0.0000000  -0.0000000  -0.0000000  -0.0000000  -0.0000000  -0.0000000  -0.0000000
 NQMom=    0.0000000   0.0000000   0.0000000   0.0000000   0.0000000   0.0000000   0.0000000   0.0000000   0.0000000   0.0000000
 NMagM=    2.7928460   2.7928460   2.7928460   2.7928460   2.7928460   2.7928460   2.7928460   2.7928460   2.7928460   2.7928460
 AtZNuc=   1.0000000   1.0000000   1.0000000   1.0000000   1.0000000   1.0000000   1.0000000   1.0000000   1.0000000   1.0000000

  Atom       111         112         113         114         115         116         117         118         119         120
 IAtWgt=           1           1           1           1           1           1           1           1           1           1
 AtmWgt=   1.0078250   1.0078250   1.0078250   1.0078250   1.0078250   1.0078250   1.0078250   1.0078250   1.0078250   1.0078250
 NucSpn=           1           1           1           1           1           1           1           1           1           1
 AtZEff=  -0.0000000  -0.0000000  -0.0000000  -0.0000000  -0.0000000  -0.0000000  -0.0000000  -0.0000000  -0.0000000  -0.0000000
 NQMom=    0.0000000   0.0000000   0.0000000   0.0000000   0.0000000   0.0000000   0.0000000   0.0000000   0.0000000   0.0000000
 NMagM=    2.7928460   2.7928460   2.7928460   2.7928460   2.7928460   2.7928460   2.7928460   2.7928460   2.7928460   2.7928460
 AtZNuc=   1.0000000   1.0000000   1.0000000   1.0000000   1.0000000   1.0000000   1.0000000   1.0000000   1.0000000   1.0000000

  Atom       121
 IAtWgt=           1
 AtmWgt=   1.0078250
 NucSpn=           1
 AtZEff=  -0.0000000
 NQMom=    0.0000000
 NMagM=    2.7928460
 AtZNuc=   1.0000000
 Leave Link  101 at Sun Jul 26 12:21:38 2020, MaxMem=  4026531840 cpu:               2.9 elap:               0.4
 (Enter /opt/ohpc/pub/libs/gaussian/g16-A.03/sandybridge/g16/l103.exe)

 GradGradGradGradGradGradGradGradGradGradGradGradGradGradGradGradGradGrad
 Berny optimization.
 Initialization pass.
                           ----------------------------
                           !    Initial Parameters    !
                           ! (Angstroms and Degrees)  !
 --------------------------                            --------------------------
 ! Name  Definition              Value          Derivative Info.                !
 --------------------------------------------------------------------------------
 ! R1    R(1,2)                  1.3697         estimate D2E/DX2                !
 ! R2    R(1,7)                  1.3953         estimate D2E/DX2                !
 ! R3    R(1,85)                 1.0718         estimate D2E/DX2                !
 ! R4    R(2,3)                  1.4162         estimate D2E/DX2                !
 ! R5    R(2,86)                 1.0579         estimate D2E/DX2                !
 ! R6    R(3,4)                  1.3733         estimate D2E/DX2                !
 ! R7    R(3,87)                 1.1045         estimate D2E/DX2                !
 ! R8    R(4,5)                  1.3852         estimate D2E/DX2                !
 ! R9    R(4,8)                  1.4556         estimate D2E/DX2                !
 ! R10   R(5,6)                  1.3428         estimate D2E/DX2                !
 ! R11   R(5,7)                  1.4557         estimate D2E/DX2                !
 ! R12   R(7,88)                 1.021          estimate D2E/DX2                !
 ! R13   R(8,9)                  1.3876         estimate D2E/DX2                !
 ! R14   R(8,12)                 1.7443         estimate D2E/DX2                !
 ! R15   R(9,10)                 1.4828         estimate D2E/DX2                !
 ! R16   R(9,89)                 1.0993         estimate D2E/DX2                !
 ! R17   R(10,11)                1.445          estimate D2E/DX2                !
 ! R18   R(10,90)                1.0658         estimate D2E/DX2                !
 ! R19   R(11,12)                1.7484         estimate D2E/DX2                !
 ! R20   R(11,13)                1.4444         estimate D2E/DX2                !
 ! R21   R(13,14)                1.3918         estimate D2E/DX2                !
 ! R22   R(13,19)                1.304          estimate D2E/DX2                !
 ! R23   R(14,15)                1.4301         estimate D2E/DX2                !
 ! R24   R(14,91)                1.1385         estimate D2E/DX2                !
 ! R25   R(15,16)                1.4198         estimate D2E/DX2                !
 ! R26   R(15,92)                1.0384         estimate D2E/DX2                !
 ! R27   R(16,17)                1.4124         estimate D2E/DX2                !
 ! R28   R(16,20)                1.4354         estimate D2E/DX2                !
 ! R29   R(17,18)                1.3564         estimate D2E/DX2                !
 ! R30   R(17,19)                1.4283         estimate D2E/DX2                !
 ! R31   R(19,93)                1.1434         estimate D2E/DX2                !
 ! R32   R(20,21)                1.4277         estimate D2E/DX2                !
 ! R33   R(20,24)                1.7677         estimate D2E/DX2                !
 ! R34   R(21,22)                1.4235         estimate D2E/DX2                !
 ! R35   R(21,94)                1.0334         estimate D2E/DX2                !
 ! R36   R(22,23)                1.3546         estimate D2E/DX2                !
 ! R37   R(22,95)                1.0431         estimate D2E/DX2                !
 ! R38   R(23,24)                1.7436         estimate D2E/DX2                !
 ! R39   R(23,25)                1.4701         estimate D2E/DX2                !
 ! R40   R(25,26)                1.4347         estimate D2E/DX2                !
 ! R41   R(25,31)                1.4058         estimate D2E/DX2                !
 ! R42   R(26,27)                1.405          estimate D2E/DX2                !
 ! R43   R(26,96)                1.118          estimate D2E/DX2                !
 ! R44   R(27,28)                1.3765         estimate D2E/DX2                !
 ! R45   R(27,97)                1.0497         estimate D2E/DX2                !
 ! R46   R(28,29)                1.3936         estimate D2E/DX2                !
 ! R47   R(28,32)                1.5459         estimate D2E/DX2                !
 ! R48   R(29,30)                1.3784         estimate D2E/DX2                !
 ! R49   R(29,31)                1.365          estimate D2E/DX2                !
 ! R50   R(31,98)                1.1755         estimate D2E/DX2                !
 ! R51   R(32,33)                1.3535         estimate D2E/DX2                !
 ! R52   R(32,36)                1.6959         estimate D2E/DX2                !
 ! R53   R(33,34)                1.4611         estimate D2E/DX2                !
 ! R54   R(33,99)                1.0761         estimate D2E/DX2                !
 ! R55   R(34,35)                1.3713         estimate D2E/DX2                !
 ! R56   R(34,100)               1.0712         estimate D2E/DX2                !
 ! R57   R(35,36)                1.7449         estimate D2E/DX2                !
 ! R58   R(35,37)                1.4389         estimate D2E/DX2                !
 ! R59   R(37,38)                1.4389         estimate D2E/DX2                !
 ! R60   R(37,43)                1.3983         estimate D2E/DX2                !
 ! R61   R(38,39)                1.3758         estimate D2E/DX2                !
 ! R62   R(38,101)               1.1389         estimate D2E/DX2                !
 ! R63   R(39,40)                1.4061         estimate D2E/DX2                !
 ! R64   R(39,102)               1.1302         estimate D2E/DX2                !
 ! R65   R(40,41)                1.3492         estimate D2E/DX2                !
 ! R66   R(40,44)                1.4643         estimate D2E/DX2                !
 ! R67   R(41,42)                1.3472         estimate D2E/DX2                !
 ! R68   R(41,43)                1.4423         estimate D2E/DX2                !
 ! R69   R(43,103)               1.0227         estimate D2E/DX2                !
 ! R70   R(44,45)                1.407          estimate D2E/DX2                !
 ! R71   R(44,48)                1.7141         estimate D2E/DX2                !
 ! R72   R(45,46)                1.4438         estimate D2E/DX2                !
 ! R73   R(45,104)               1.0975         estimate D2E/DX2                !
 ! R74   R(46,47)                1.4105         estimate D2E/DX2                !
 ! R75   R(46,105)               1.0082         estimate D2E/DX2                !
 ! R76   R(47,48)                1.7759         estimate D2E/DX2                !
 ! R77   R(47,49)                1.4062         estimate D2E/DX2                !
 ! R78   R(49,50)                1.436          estimate D2E/DX2                !
 ! R79   R(49,55)                1.4673         estimate D2E/DX2                !
 ! R80   R(50,51)                1.4014         estimate D2E/DX2                !
 ! R81   R(50,106)               1.0846         estimate D2E/DX2                !
 ! R82   R(51,52)                1.4042         estimate D2E/DX2                !
 ! R83   R(51,107)               1.0891         estimate D2E/DX2                !
 ! R84   R(52,53)                1.3903         estimate D2E/DX2                !
 ! R85   R(52,56)                1.5631         estimate D2E/DX2                !
 ! R86   R(53,54)                1.4085         estimate D2E/DX2                !
 ! R87   R(53,55)                1.3073         estimate D2E/DX2                !
 ! R88   R(55,108)               1.0511         estimate D2E/DX2                !
 ! R89   R(56,57)                1.3472         estimate D2E/DX2                !
 ! R90   R(56,60)                1.723          estimate D2E/DX2                !
 ! R91   R(57,58)                1.5159         estimate D2E/DX2                !
 ! R92   R(57,109)               1.089          estimate D2E/DX2                !
 ! R93   R(58,59)                1.3158         estimate D2E/DX2                !
 ! R94   R(58,110)               1.089          estimate D2E/DX2                !
 ! R95   R(59,60)                1.7458         estimate D2E/DX2                !
 ! R96   R(59,61)                1.5586         estimate D2E/DX2                !
 ! R97   R(61,62)                1.3784         estimate D2E/DX2                !
 ! R98   R(61,67)                1.3624         estimate D2E/DX2                !
 ! R99   R(62,63)                1.3866         estimate D2E/DX2                !
 ! R100  R(62,111)               1.1064         estimate D2E/DX2                !
 ! R101  R(63,64)                1.3676         estimate D2E/DX2                !
 ! R102  R(63,112)               1.0731         estimate D2E/DX2                !
 ! R103  R(64,65)                1.4054         estimate D2E/DX2                !
 ! R104  R(64,68)                1.5012         estimate D2E/DX2                !
 ! R105  R(65,66)                1.3404         estimate D2E/DX2                !
 ! R106  R(65,67)                1.442          estimate D2E/DX2                !
 ! R107  R(67,113)               1.1105         estimate D2E/DX2                !
 ! R108  R(68,69)                1.3668         estimate D2E/DX2                !
 ! R109  R(68,72)                1.7431         estimate D2E/DX2                !
 ! R110  R(69,70)                1.3708         estimate D2E/DX2                !
 ! R111  R(69,114)               1.1578         estimate D2E/DX2                !
 ! R112  R(70,71)                1.3986         estimate D2E/DX2                !
 ! R113  R(70,115)               1.0567         estimate D2E/DX2                !
 ! R114  R(71,72)                1.7828         estimate D2E/DX2                !
 ! R115  R(71,73)                1.4644         estimate D2E/DX2                !
 ! R116  R(73,74)                1.4526         estimate D2E/DX2                !
 ! R117  R(73,79)                1.3803         estimate D2E/DX2                !
 ! R118  R(74,75)                1.363          estimate D2E/DX2                !
 ! R119  R(74,116)               1.0793         estimate D2E/DX2                !
 ! R120  R(75,76)                1.3646         estimate D2E/DX2                !
 ! R121  R(75,117)               1.0943         estimate D2E/DX2                !
 ! R122  R(76,77)                1.3747         estimate D2E/DX2                !
 ! R123  R(76,80)                1.4896         estimate D2E/DX2                !
 ! R124  R(77,78)                1.4045         estimate D2E/DX2                !
 ! R125  R(77,79)                1.3893         estimate D2E/DX2                !
 ! R126  R(79,118)               1.0933         estimate D2E/DX2                !
 ! R127  R(80,81)                1.4193         estimate D2E/DX2                !
 ! R128  R(80,84)                1.6929         estimate D2E/DX2                !
 ! R129  R(81,82)                1.5074         estimate D2E/DX2                !
 ! R130  R(81,119)               0.9932         estimate D2E/DX2                !
 ! R131  R(82,83)                1.379          estimate D2E/DX2                !
 ! R132  R(82,120)               1.0417         estimate D2E/DX2                !
 ! R133  R(83,84)                1.6752         estimate D2E/DX2                !
 ! R134  R(83,121)               1.1123         estimate D2E/DX2                !
 ! A1    A(2,1,7)              121.7682         estimate D2E/DX2                !
 ! A2    A(2,1,85)             123.085          estimate D2E/DX2                !
 ! A3    A(7,1,85)             115.0128         estimate D2E/DX2                !
 ! A4    A(1,2,3)              119.4308         estimate D2E/DX2                !
 ! A5    A(1,2,86)             124.0789         estimate D2E/DX2                !
 ! A6    A(3,2,86)             116.4282         estimate D2E/DX2                !
 ! A7    A(2,3,4)              122.0028         estimate D2E/DX2                !
 ! A8    A(2,3,87)             120.0761         estimate D2E/DX2                !
 ! A9    A(4,3,87)             117.9185         estimate D2E/DX2                !
 ! A10   A(3,4,5)              118.0128         estimate D2E/DX2                !
 ! A11   A(3,4,8)              124.0592         estimate D2E/DX2                !
 ! A12   A(5,4,8)              117.9262         estimate D2E/DX2                !
 ! A13   A(4,5,6)              121.1721         estimate D2E/DX2                !
 ! A14   A(4,5,7)              121.9515         estimate D2E/DX2                !
 ! A15   A(6,5,7)              116.6708         estimate D2E/DX2                !
 ! A16   A(1,7,5)              116.6858         estimate D2E/DX2                !
 ! A17   A(1,7,88)             123.4254         estimate D2E/DX2                !
 ! A18   A(5,7,88)             119.8738         estimate D2E/DX2                !
 ! A19   A(4,8,9)              128.3145         estimate D2E/DX2                !
 ! A20   A(4,8,12)             121.9654         estimate D2E/DX2                !
 ! A21   A(9,8,12)             109.6323         estimate D2E/DX2                !
 ! A22   A(8,9,10)             114.5196         estimate D2E/DX2                !
 ! A23   A(8,9,89)             127.6816         estimate D2E/DX2                !
 ! A24   A(10,9,89)            117.6743         estimate D2E/DX2                !
 ! A25   A(9,10,11)            111.1607         estimate D2E/DX2                !
 ! A26   A(9,10,90)            128.9607         estimate D2E/DX2                !
 ! A27   A(11,10,90)           119.7564         estimate D2E/DX2                !
 ! A28   A(10,11,12)           109.0144         estimate D2E/DX2                !
 ! A29   A(10,11,13)           128.1661         estimate D2E/DX2                !
 ! A30   A(12,11,13)           122.4736         estimate D2E/DX2                !
 ! A31   A(8,12,11)             95.4274         estimate D2E/DX2                !
 ! A32   A(11,13,14)           117.6846         estimate D2E/DX2                !
 ! A33   A(11,13,19)           122.6768         estimate D2E/DX2                !
 ! A34   A(14,13,19)           119.6381         estimate D2E/DX2                !
 ! A35   A(13,14,15)           121.584          estimate D2E/DX2                !
 ! A36   A(13,14,91)           126.0025         estimate D2E/DX2                !
 ! A37   A(15,14,91)           112.1994         estimate D2E/DX2                !
 ! A38   A(14,15,16)           117.2261         estimate D2E/DX2                !
 ! A39   A(14,15,92)           120.1352         estimate D2E/DX2                !
 ! A40   A(16,15,92)           122.6027         estimate D2E/DX2                !
 ! A41   A(15,16,17)           119.7922         estimate D2E/DX2                !
 ! A42   A(15,16,20)           121.2459         estimate D2E/DX2                !
 ! A43   A(17,16,20)           118.357          estimate D2E/DX2                !
 ! A44   A(16,17,18)           122.1846         estimate D2E/DX2                !
 ! A45   A(16,17,19)           117.6887         estimate D2E/DX2                !
 ! A46   A(18,17,19)           119.7629         estimate D2E/DX2                !
 ! A47   A(13,19,17)           123.4941         estimate D2E/DX2                !
 ! A48   A(13,19,93)           123.4641         estimate D2E/DX2                !
 ! A49   A(17,19,93)           112.9578         estimate D2E/DX2                !
 ! A50   A(16,20,21)           130.1664         estimate D2E/DX2                !
 ! A51   A(16,20,24)           120.1212         estimate D2E/DX2                !
 ! A52   A(21,20,24)           109.508          estimate D2E/DX2                !
 ! A53   A(20,21,22)           112.8472         estimate D2E/DX2                !
 ! A54   A(20,21,94)           124.3039         estimate D2E/DX2                !
 ! A55   A(22,21,94)           121.8273         estimate D2E/DX2                !
 ! A56   A(21,22,23)           112.5225         estimate D2E/DX2                !
 ! A57   A(21,22,95)           125.2642         estimate D2E/DX2                !
 ! A58   A(23,22,95)           121.6481         estimate D2E/DX2                !
 ! A59   A(22,23,24)           113.5593         estimate D2E/DX2                !
 ! A60   A(22,23,25)           130.2543         estimate D2E/DX2                !
 ! A61   A(24,23,25)           116.1155         estimate D2E/DX2                !
 ! A62   A(20,24,23)            91.005          estimate D2E/DX2                !
 ! A63   A(23,25,26)           127.2233         estimate D2E/DX2                !
 ! A64   A(23,25,31)           120.6724         estimate D2E/DX2                !
 ! A65   A(26,25,31)           112.0588         estimate D2E/DX2                !
 ! A66   A(25,26,27)           124.2824         estimate D2E/DX2                !
 ! A67   A(25,26,96)           117.1484         estimate D2E/DX2                !
 ! A68   A(27,26,96)           118.5296         estimate D2E/DX2                !
 ! A69   A(26,27,28)           117.5603         estimate D2E/DX2                !
 ! A70   A(26,27,97)           118.6425         estimate D2E/DX2                !
 ! A71   A(28,27,97)           123.5328         estimate D2E/DX2                !
 ! A72   A(27,28,29)           121.7122         estimate D2E/DX2                !
 ! A73   A(27,28,32)           115.2309         estimate D2E/DX2                !
 ! A74   A(29,28,32)           122.9377         estimate D2E/DX2                !
 ! A75   A(28,29,30)           119.8057         estimate D2E/DX2                !
 ! A76   A(28,29,31)           117.9808         estimate D2E/DX2                !
 ! A77   A(30,29,31)           122.0677         estimate D2E/DX2                !
 ! A78   A(25,31,29)           126.2016         estimate D2E/DX2                !
 ! A79   A(25,31,98)           120.1274         estimate D2E/DX2                !
 ! A80   A(29,31,98)           113.6331         estimate D2E/DX2                !
 ! A81   A(28,32,33)           127.8587         estimate D2E/DX2                !
 ! A82   A(28,32,36)           116.9758         estimate D2E/DX2                !
 ! A83   A(33,32,36)           115.0222         estimate D2E/DX2                !
 ! A84   A(32,33,34)           107.3851         estimate D2E/DX2                !
 ! A85   A(32,33,99)           127.5723         estimate D2E/DX2                !
 ! A86   A(34,33,99)           124.2371         estimate D2E/DX2                !
 ! A87   A(33,34,35)           117.2164         estimate D2E/DX2                !
 ! A88   A(33,34,100)          119.6179         estimate D2E/DX2                !
 ! A89   A(35,34,100)          123.0999         estimate D2E/DX2                !
 ! A90   A(34,35,36)           107.0884         estimate D2E/DX2                !
 ! A91   A(34,35,37)           128.312          estimate D2E/DX2                !
 ! A92   A(36,35,37)           124.548          estimate D2E/DX2                !
 ! A93   A(32,36,35)            92.9515         estimate D2E/DX2                !
 ! A94   A(35,37,38)           120.1536         estimate D2E/DX2                !
 ! A95   A(35,37,43)           121.0957         estimate D2E/DX2                !
 ! A96   A(38,37,43)           118.5753         estimate D2E/DX2                !
 ! A97   A(37,38,39)           121.4741         estimate D2E/DX2                !
 ! A98   A(37,38,101)          121.2425         estimate D2E/DX2                !
 ! A99   A(39,38,101)          116.2769         estimate D2E/DX2                !
 ! A100  A(38,39,40)           119.9725         estimate D2E/DX2                !
 ! A101  A(38,39,102)          118.6927         estimate D2E/DX2                !
 ! A102  A(40,39,102)          120.9904         estimate D2E/DX2                !
 ! A103  A(39,40,41)           118.5188         estimate D2E/DX2                !
 ! A104  A(39,40,44)           122.4558         estimate D2E/DX2                !
 ! A105  A(41,40,44)           118.8577         estimate D2E/DX2                !
 ! A106  A(40,41,42)           124.1923         estimate D2E/DX2                !
 ! A107  A(40,41,43)           124.1512         estimate D2E/DX2                !
 ! A108  A(42,41,43)           111.6074         estimate D2E/DX2                !
 ! A109  A(37,43,41)           116.7903         estimate D2E/DX2                !
 ! A110  A(37,43,103)          118.4634         estimate D2E/DX2                !
 ! A111  A(41,43,103)          124.7411         estimate D2E/DX2                !
 ! A112  A(40,44,45)           131.7479         estimate D2E/DX2                !
 ! A113  A(40,44,48)           119.0728         estimate D2E/DX2                !
 ! A114  A(45,44,48)           109.1664         estimate D2E/DX2                !
 ! A115  A(44,45,46)           114.5954         estimate D2E/DX2                !
 ! A116  A(44,45,104)          121.7747         estimate D2E/DX2                !
 ! A117  A(46,45,104)          122.8282         estimate D2E/DX2                !
 ! A118  A(45,46,47)           112.665          estimate D2E/DX2                !
 ! A119  A(45,46,105)          122.929          estimate D2E/DX2                !
 ! A120  A(47,46,105)          123.7675         estimate D2E/DX2                !
 ! A121  A(46,47,48)           108.174          estimate D2E/DX2                !
 ! A122  A(46,47,49)           127.5597         estimate D2E/DX2                !
 ! A123  A(48,47,49)           124.1907         estimate D2E/DX2                !
 ! A124  A(44,48,47)            95.118          estimate D2E/DX2                !
 ! A125  A(47,49,50)           120.1268         estimate D2E/DX2                !
 ! A126  A(47,49,55)           122.0348         estimate D2E/DX2                !
 ! A127  A(50,49,55)           117.5425         estimate D2E/DX2                !
 ! A128  A(49,50,51)           119.5159         estimate D2E/DX2                !
 ! A129  A(49,50,106)          120.4855         estimate D2E/DX2                !
 ! A130  A(51,50,106)          119.9452         estimate D2E/DX2                !
 ! A131  A(50,51,52)           119.5375         estimate D2E/DX2                !
 ! A132  A(50,51,107)          121.236          estimate D2E/DX2                !
 ! A133  A(52,51,107)          118.8414         estimate D2E/DX2                !
 ! A134  A(51,52,53)           119.9582         estimate D2E/DX2                !
 ! A135  A(51,52,56)           117.3055         estimate D2E/DX2                !
 ! A136  A(53,52,56)           122.6842         estimate D2E/DX2                !
 ! A137  A(52,53,54)           117.9914         estimate D2E/DX2                !
 ! A138  A(52,53,55)           123.1322         estimate D2E/DX2                !
 ! A139  A(54,53,55)           118.8174         estimate D2E/DX2                !
 ! A140  A(49,55,53)           120.0527         estimate D2E/DX2                !
 ! A141  A(49,55,108)          117.6696         estimate D2E/DX2                !
 ! A142  A(53,55,108)          122.2437         estimate D2E/DX2                !
 ! A143  A(52,56,57)           125.7138         estimate D2E/DX2                !
 ! A144  A(52,56,60)           117.4022         estimate D2E/DX2                !
 ! A145  A(57,56,60)           116.8659         estimate D2E/DX2                !
 ! A146  A(56,57,58)           107.8076         estimate D2E/DX2                !
 ! A147  A(56,57,109)          127.6862         estimate D2E/DX2                !
 ! A148  A(58,57,109)          124.5058         estimate D2E/DX2                !
 ! A149  A(57,58,59)           111.8573         estimate D2E/DX2                !
 ! A150  A(57,58,110)          122.1177         estimate D2E/DX2                !
 ! A151  A(59,58,110)          125.8292         estimate D2E/DX2                !
 ! A152  A(58,59,60)           114.9132         estimate D2E/DX2                !
 ! A153  A(58,59,61)           126.8281         estimate D2E/DX2                !
 ! A154  A(60,59,61)           118.1755         estimate D2E/DX2                !
 ! A155  A(56,60,59)            88.4425         estimate D2E/DX2                !
 ! A156  A(59,61,62)           122.5481         estimate D2E/DX2                !
 ! A157  A(59,61,67)           115.8741         estimate D2E/DX2                !
 ! A158  A(62,61,67)           121.5754         estimate D2E/DX2                !
 ! A159  A(61,62,63)           121.5721         estimate D2E/DX2                !
 ! A160  A(61,62,111)          121.4291         estimate D2E/DX2                !
 ! A161  A(63,62,111)          116.2869         estimate D2E/DX2                !
 ! A162  A(62,63,64)           117.9235         estimate D2E/DX2                !
 ! A163  A(62,63,112)          120.6412         estimate D2E/DX2                !
 ! A164  A(64,63,112)          120.6583         estimate D2E/DX2                !
 ! A165  A(63,64,65)           121.4385         estimate D2E/DX2                !
 ! A166  A(63,64,68)           120.8151         estimate D2E/DX2                !
 ! A167  A(65,64,68)           116.7173         estimate D2E/DX2                !
 ! A168  A(64,65,66)           120.0862         estimate D2E/DX2                !
 ! A169  A(64,65,67)           118.7197         estimate D2E/DX2                !
 ! A170  A(66,65,67)           120.4288         estimate D2E/DX2                !
 ! A171  A(61,67,65)           117.6896         estimate D2E/DX2                !
 ! A172  A(61,67,113)          128.2446         estimate D2E/DX2                !
 ! A173  A(65,67,113)          113.9257         estimate D2E/DX2                !
 ! A174  A(64,68,69)           134.6433         estimate D2E/DX2                !
 ! A175  A(64,68,72)           116.4871         estimate D2E/DX2                !
 ! A176  A(69,68,72)           108.8674         estimate D2E/DX2                !
 ! A177  A(68,69,70)           116.2743         estimate D2E/DX2                !
 ! A178  A(68,69,114)          116.4608         estimate D2E/DX2                !
 ! A179  A(70,69,114)          127.2101         estimate D2E/DX2                !
 ! A180  A(69,70,71)           114.4675         estimate D2E/DX2                !
 ! A181  A(69,70,115)          121.9992         estimate D2E/DX2                !
 ! A182  A(71,70,115)          123.232          estimate D2E/DX2                !
 ! A183  A(70,71,72)           107.2736         estimate D2E/DX2                !
 ! A184  A(70,71,73)           131.1807         estimate D2E/DX2                !
 ! A185  A(72,71,73)           121.496          estimate D2E/DX2                !
 ! A186  A(68,72,71)            92.9561         estimate D2E/DX2                !
 ! A187  A(71,73,74)           120.1806         estimate D2E/DX2                !
 ! A188  A(71,73,79)           119.3711         estimate D2E/DX2                !
 ! A189  A(74,73,79)           120.333          estimate D2E/DX2                !
 ! A190  A(73,74,75)           117.5712         estimate D2E/DX2                !
 ! A191  A(73,74,116)          118.5794         estimate D2E/DX2                !
 ! A192  A(75,74,116)          123.5451         estimate D2E/DX2                !
 ! A193  A(74,75,76)           123.8613         estimate D2E/DX2                !
 ! A194  A(74,75,117)          113.9495         estimate D2E/DX2                !
 ! A195  A(76,75,117)          122.1322         estimate D2E/DX2                !
 ! A196  A(75,76,77)           116.4884         estimate D2E/DX2                !
 ! A197  A(75,76,80)           121.6616         estimate D2E/DX2                !
 ! A198  A(77,76,80)           121.7436         estimate D2E/DX2                !
 ! A199  A(76,77,78)           119.3805         estimate D2E/DX2                !
 ! A200  A(76,77,79)           124.9636         estimate D2E/DX2                !
 ! A201  A(78,77,79)           115.6529         estimate D2E/DX2                !
 ! A202  A(73,79,77)           116.731          estimate D2E/DX2                !
 ! A203  A(73,79,118)          124.3851         estimate D2E/DX2                !
 ! A204  A(77,79,118)          118.7417         estimate D2E/DX2                !
 ! A205  A(76,80,81)           124.8959         estimate D2E/DX2                !
 ! A206  A(76,80,84)           121.321          estimate D2E/DX2                !
 ! A207  A(81,80,84)           113.7518         estimate D2E/DX2                !
 ! A208  A(80,81,82)           107.4834         estimate D2E/DX2                !
 ! A209  A(80,81,119)          126.3264         estimate D2E/DX2                !
 ! A210  A(82,81,119)          126.1454         estimate D2E/DX2                !
 ! A211  A(81,82,83)           111.8229         estimate D2E/DX2                !
 ! A212  A(81,82,120)          119.1978         estimate D2E/DX2                !
 ! A213  A(83,82,120)          128.8305         estimate D2E/DX2                !
 ! A214  A(82,83,84)           113.3075         estimate D2E/DX2                !
 ! A215  A(82,83,121)          125.4946         estimate D2E/DX2                !
 ! A216  A(84,83,121)          120.5511         estimate D2E/DX2                !
 ! A217  A(80,84,83)            93.3214         estimate D2E/DX2                !
 ! D1    D(7,1,2,3)              3.0935         estimate D2E/DX2                !
 ! D2    D(7,1,2,86)          -173.9355         estimate D2E/DX2                !
 ! D3    D(85,1,2,3)           178.6745         estimate D2E/DX2                !
 ! D4    D(85,1,2,86)            1.6455         estimate D2E/DX2                !
 ! D5    D(2,1,7,5)             -3.9196         estimate D2E/DX2                !
 ! D6    D(2,1,7,88)           177.4946         estimate D2E/DX2                !
 ! D7    D(85,1,7,5)          -179.8345         estimate D2E/DX2                !
 ! D8    D(85,1,7,88)            1.5797         estimate D2E/DX2                !
 ! D9    D(1,2,3,4)             -2.0385         estimate D2E/DX2                !
 ! D10   D(1,2,3,87)           178.5605         estimate D2E/DX2                !
 ! D11   D(86,2,3,4)           175.2137         estimate D2E/DX2                !
 ! D12   D(86,2,3,87)           -4.1873         estimate D2E/DX2                !
 ! D13   D(2,3,4,5)              1.9688         estimate D2E/DX2                !
 ! D14   D(2,3,4,8)           -177.5372         estimate D2E/DX2                !
 ! D15   D(87,3,4,5)          -178.6178         estimate D2E/DX2                !
 ! D16   D(87,3,4,8)             1.8762         estimate D2E/DX2                !
 ! D17   D(3,4,5,6)           -177.5582         estimate D2E/DX2                !
 ! D18   D(3,4,5,7)             -2.9424         estimate D2E/DX2                !
 ! D19   D(8,4,5,6)              1.9786         estimate D2E/DX2                !
 ! D20   D(8,4,5,7)            176.5945         estimate D2E/DX2                !
 ! D21   D(3,4,8,9)           -138.0312         estimate D2E/DX2                !
 ! D22   D(3,4,8,12)            38.1963         estimate D2E/DX2                !
 ! D23   D(5,4,8,9)             42.4624         estimate D2E/DX2                !
 ! D24   D(5,4,8,12)          -141.3102         estimate D2E/DX2                !
 ! D25   D(4,5,7,1)              3.8832         estimate D2E/DX2                !
 ! D26   D(4,5,7,88)          -177.478          estimate D2E/DX2                !
 ! D27   D(6,5,7,1)            178.7285         estimate D2E/DX2                !
 ! D28   D(6,5,7,88)            -2.6327         estimate D2E/DX2                !
 ! D29   D(4,8,9,10)           178.3066         estimate D2E/DX2                !
 ! D30   D(4,8,9,89)            -5.8831         estimate D2E/DX2                !
 ! D31   D(12,8,9,10)            1.7042         estimate D2E/DX2                !
 ! D32   D(12,8,9,89)          177.5145         estimate D2E/DX2                !
 ! D33   D(4,8,12,11)         -175.6118         estimate D2E/DX2                !
 ! D34   D(9,8,12,11)            1.2462         estimate D2E/DX2                !
 ! D35   D(8,9,10,11)           -4.6273         estimate D2E/DX2                !
 ! D36   D(8,9,10,90)          179.4659         estimate D2E/DX2                !
 ! D37   D(89,9,10,11)         179.1162         estimate D2E/DX2                !
 ! D38   D(89,9,10,90)           3.2094         estimate D2E/DX2                !
 ! D39   D(9,10,11,12)           5.2462         estimate D2E/DX2                !
 ! D40   D(9,10,11,13)         178.5408         estimate D2E/DX2                !
 ! D41   D(90,10,11,12)       -178.4194         estimate D2E/DX2                !
 ! D42   D(90,10,11,13)         -5.1248         estimate D2E/DX2                !
 ! D43   D(10,11,12,8)          -3.819          estimate D2E/DX2                !
 ! D44   D(13,11,12,8)        -177.5718         estimate D2E/DX2                !
 ! D45   D(10,11,13,14)        138.1894         estimate D2E/DX2                !
 ! D46   D(10,11,13,19)        -41.5435         estimate D2E/DX2                !
 ! D47   D(12,11,13,14)        -49.3295         estimate D2E/DX2                !
 ! D48   D(12,11,13,19)        130.9376         estimate D2E/DX2                !
 ! D49   D(11,13,14,15)       -176.8763         estimate D2E/DX2                !
 ! D50   D(11,13,14,91)         -2.6182         estimate D2E/DX2                !
 ! D51   D(19,13,14,15)          2.865          estimate D2E/DX2                !
 ! D52   D(19,13,14,91)        177.1231         estimate D2E/DX2                !
 ! D53   D(11,13,19,17)        176.3508         estimate D2E/DX2                !
 ! D54   D(11,13,19,93)         -0.0792         estimate D2E/DX2                !
 ! D55   D(14,13,19,17)         -3.3771         estimate D2E/DX2                !
 ! D56   D(14,13,19,93)       -179.8071         estimate D2E/DX2                !
 ! D57   D(13,14,15,16)         -5.0845         estimate D2E/DX2                !
 ! D58   D(13,14,15,92)        177.0406         estimate D2E/DX2                !
 ! D59   D(91,14,15,16)        179.9305         estimate D2E/DX2                !
 ! D60   D(91,14,15,92)          2.0557         estimate D2E/DX2                !
 ! D61   D(14,15,16,17)          7.8248         estimate D2E/DX2                !
 ! D62   D(14,15,16,20)        178.7609         estimate D2E/DX2                !
 ! D63   D(92,15,16,17)       -174.3569         estimate D2E/DX2                !
 ! D64   D(92,15,16,20)         -3.4208         estimate D2E/DX2                !
 ! D65   D(15,16,17,18)        178.6839         estimate D2E/DX2                !
 ! D66   D(15,16,17,19)         -8.2634         estimate D2E/DX2                !
 ! D67   D(20,16,17,18)          7.4876         estimate D2E/DX2                !
 ! D68   D(20,16,17,19)       -179.4597         estimate D2E/DX2                !
 ! D69   D(15,16,20,21)       -140.116          estimate D2E/DX2                !
 ! D70   D(15,16,20,24)         45.6632         estimate D2E/DX2                !
 ! D71   D(17,16,20,21)         30.9465         estimate D2E/DX2                !
 ! D72   D(17,16,20,24)       -143.2743         estimate D2E/DX2                !
 ! D73   D(16,17,19,13)          6.1202         estimate D2E/DX2                !
 ! D74   D(16,17,19,93)       -177.1138         estimate D2E/DX2                !
 ! D75   D(18,17,19,13)        179.3478         estimate D2E/DX2                !
 ! D76   D(18,17,19,93)         -3.8862         estimate D2E/DX2                !
 ! D77   D(16,20,21,22)        178.6999         estimate D2E/DX2                !
 ! D78   D(16,20,21,94)         10.1172         estimate D2E/DX2                !
 ! D79   D(24,20,21,22)         -6.6018         estimate D2E/DX2                !
 ! D80   D(24,20,21,94)       -175.1846         estimate D2E/DX2                !
 ! D81   D(16,20,24,23)        177.9715         estimate D2E/DX2                !
 ! D82   D(21,20,24,23)          2.654          estimate D2E/DX2                !
 ! D83   D(20,21,22,23)          8.3422         estimate D2E/DX2                !
 ! D84   D(20,21,22,95)        179.7976         estimate D2E/DX2                !
 ! D85   D(94,21,22,23)        177.2459         estimate D2E/DX2                !
 ! D86   D(94,21,22,95)        -11.2987         estimate D2E/DX2                !
 ! D87   D(21,22,23,24)         -6.2327         estimate D2E/DX2                !
 ! D88   D(21,22,23,25)        176.9968         estimate D2E/DX2                !
 ! D89   D(95,22,23,24)       -178.0397         estimate D2E/DX2                !
 ! D90   D(95,22,23,25)          5.1898         estimate D2E/DX2                !
 ! D91   D(22,23,24,20)          2.034          estimate D2E/DX2                !
 ! D92   D(25,23,24,20)        179.2895         estimate D2E/DX2                !
 ! D93   D(22,23,25,26)        136.2828         estimate D2E/DX2                !
 ! D94   D(22,23,25,31)        -41.0607         estimate D2E/DX2                !
 ! D95   D(24,23,25,26)        -40.4202         estimate D2E/DX2                !
 ! D96   D(24,23,25,31)        142.2363         estimate D2E/DX2                !
 ! D97   D(23,25,26,27)       -176.4799         estimate D2E/DX2                !
 ! D98   D(23,25,26,96)          1.1924         estimate D2E/DX2                !
 ! D99   D(31,25,26,27)          1.0548         estimate D2E/DX2                !
 ! D100  D(31,25,26,96)        178.7272         estimate D2E/DX2                !
 ! D101  D(23,25,31,29)       -179.32           estimate D2E/DX2                !
 ! D102  D(23,25,31,98)         -1.709          estimate D2E/DX2                !
 ! D103  D(26,25,31,29)          2.9622         estimate D2E/DX2                !
 ! D104  D(26,25,31,98)       -179.4267         estimate D2E/DX2                !
 ! D105  D(25,26,27,28)         -4.3596         estimate D2E/DX2                !
 ! D106  D(25,26,27,97)       -178.6638         estimate D2E/DX2                !
 ! D107  D(96,26,27,28)        177.9978         estimate D2E/DX2                !
 ! D108  D(96,26,27,97)          3.6936         estimate D2E/DX2                !
 ! D109  D(26,27,28,29)          3.9517         estimate D2E/DX2                !
 ! D110  D(26,27,28,32)       -179.9056         estimate D2E/DX2                !
 ! D111  D(97,27,28,29)        177.9538         estimate D2E/DX2                !
 ! D112  D(97,27,28,32)         -5.9035         estimate D2E/DX2                !
 ! D113  D(27,28,29,30)        175.3309         estimate D2E/DX2                !
 ! D114  D(27,28,29,31)         -0.3706         estimate D2E/DX2                !
 ! D115  D(32,28,29,30)         -0.511          estimate D2E/DX2                !
 ! D116  D(32,28,29,31)       -176.2125         estimate D2E/DX2                !
 ! D117  D(27,28,32,33)        -53.2956         estimate D2E/DX2                !
 ! D118  D(27,28,32,36)        122.1073         estimate D2E/DX2                !
 ! D119  D(29,28,32,33)        122.7944         estimate D2E/DX2                !
 ! D120  D(29,28,32,36)        -61.8027         estimate D2E/DX2                !
 ! D121  D(28,29,31,25)         -3.3872         estimate D2E/DX2                !
 ! D122  D(28,29,31,98)        178.8681         estimate D2E/DX2                !
 ! D123  D(30,29,31,25)       -178.9856         estimate D2E/DX2                !
 ! D124  D(30,29,31,98)          3.2697         estimate D2E/DX2                !
 ! D125  D(28,32,33,34)       -178.4455         estimate D2E/DX2                !
 ! D126  D(28,32,33,99)         -8.4788         estimate D2E/DX2                !
 ! D127  D(36,32,33,34)          6.0757         estimate D2E/DX2                !
 ! D128  D(36,32,33,99)        176.0424         estimate D2E/DX2                !
 ! D129  D(28,32,36,35)        178.4254         estimate D2E/DX2                !
 ! D130  D(33,32,36,35)         -5.5791         estimate D2E/DX2                !
 ! D131  D(32,33,34,35)         -3.7825         estimate D2E/DX2                !
 ! D132  D(32,33,34,100)       179.0755         estimate D2E/DX2                !
 ! D133  D(99,33,34,35)       -174.1675         estimate D2E/DX2                !
 ! D134  D(99,33,34,100)         8.6906         estimate D2E/DX2                !
 ! D135  D(33,34,35,36)         -0.062          estimate D2E/DX2                !
 ! D136  D(33,34,35,37)       -177.514          estimate D2E/DX2                !
 ! D137  D(100,34,35,36)       176.972          estimate D2E/DX2                !
 ! D138  D(100,34,35,37)        -0.4801         estimate D2E/DX2                !
 ! D139  D(34,35,36,32)          2.9663         estimate D2E/DX2                !
 ! D140  D(37,35,36,32)       -179.4609         estimate D2E/DX2                !
 ! D141  D(34,35,37,38)       -150.4143         estimate D2E/DX2                !
 ! D142  D(34,35,37,43)         34.4668         estimate D2E/DX2                !
 ! D143  D(36,35,37,38)         32.5429         estimate D2E/DX2                !
 ! D144  D(36,35,37,43)       -142.576          estimate D2E/DX2                !
 ! D145  D(35,37,38,39)        176.6581         estimate D2E/DX2                !
 ! D146  D(35,37,38,101)         8.5626         estimate D2E/DX2                !
 ! D147  D(43,37,38,39)         -8.1011         estimate D2E/DX2                !
 ! D148  D(43,37,38,101)      -176.1967         estimate D2E/DX2                !
 ! D149  D(35,37,43,41)        178.4209         estimate D2E/DX2                !
 ! D150  D(35,37,43,103)        -2.3715         estimate D2E/DX2                !
 ! D151  D(38,37,43,41)          3.2267         estimate D2E/DX2                !
 ! D152  D(38,37,43,103)      -177.5657         estimate D2E/DX2                !
 ! D153  D(37,38,39,40)          7.0449         estimate D2E/DX2                !
 ! D154  D(37,38,39,102)      -179.6255         estimate D2E/DX2                !
 ! D155  D(101,38,39,40)       175.7014         estimate D2E/DX2                !
 ! D156  D(101,38,39,102)      -10.9691         estimate D2E/DX2                !
 ! D157  D(38,39,40,41)         -1.0744         estimate D2E/DX2                !
 ! D158  D(38,39,40,44)        174.1621         estimate D2E/DX2                !
 ! D159  D(102,39,40,41)      -174.248          estimate D2E/DX2                !
 ! D160  D(102,39,40,44)         0.9885         estimate D2E/DX2                !
 ! D161  D(39,40,41,42)        178.9028         estimate D2E/DX2                !
 ! D162  D(39,40,41,43)         -3.8611         estimate D2E/DX2                !
 ! D163  D(44,40,41,42)          3.4918         estimate D2E/DX2                !
 ! D164  D(44,40,41,43)       -179.2721         estimate D2E/DX2                !
 ! D165  D(39,40,44,45)       -147.4835         estimate D2E/DX2                !
 ! D166  D(39,40,44,48)         31.0554         estimate D2E/DX2                !
 ! D167  D(41,40,44,45)         27.7375         estimate D2E/DX2                !
 ! D168  D(41,40,44,48)       -153.7236         estimate D2E/DX2                !
 ! D169  D(40,41,43,37)          2.6738         estimate D2E/DX2                !
 ! D170  D(40,41,43,103)      -176.4785         estimate D2E/DX2                !
 ! D171  D(42,41,43,37)       -179.785          estimate D2E/DX2                !
 ! D172  D(42,41,43,103)         1.0628         estimate D2E/DX2                !
 ! D173  D(40,44,45,46)        176.1845         estimate D2E/DX2                !
 ! D174  D(40,44,45,104)         6.168          estimate D2E/DX2                !
 ! D175  D(48,44,45,46)         -2.4636         estimate D2E/DX2                !
 ! D176  D(48,44,45,104)      -172.4801         estimate D2E/DX2                !
 ! D177  D(40,44,48,47)       -179.5464         estimate D2E/DX2                !
 ! D178  D(45,44,48,47)         -0.7004         estimate D2E/DX2                !
 ! D179  D(44,45,46,47)          5.4045         estimate D2E/DX2                !
 ! D180  D(44,45,46,105)       176.5503         estimate D2E/DX2                !
 ! D181  D(104,45,46,47)       175.303          estimate D2E/DX2                !
 ! D182  D(104,45,46,105)      -13.5511         estimate D2E/DX2                !
 ! D183  D(45,46,47,48)         -5.5373         estimate D2E/DX2                !
 ! D184  D(45,46,47,49)        177.5463         estimate D2E/DX2                !
 ! D185  D(105,46,47,48)      -176.5967         estimate D2E/DX2                !
 ! D186  D(105,46,47,49)         6.4868         estimate D2E/DX2                !
 ! D187  D(46,47,48,44)          3.6311         estimate D2E/DX2                !
 ! D188  D(49,47,48,44)       -179.3239         estimate D2E/DX2                !
 ! D189  D(46,47,49,50)         45.7143         estimate D2E/DX2                !
 ! D190  D(46,47,49,55)       -140.6878         estimate D2E/DX2                !
 ! D191  D(48,47,49,50)       -130.7433         estimate D2E/DX2                !
 ! D192  D(48,47,49,55)         42.8545         estimate D2E/DX2                !
 ! D193  D(47,49,50,51)        179.4166         estimate D2E/DX2                !
 ! D194  D(47,49,50,106)        -3.2403         estimate D2E/DX2                !
 ! D195  D(55,49,50,51)          5.5365         estimate D2E/DX2                !
 ! D196  D(55,49,50,106)      -177.1204         estimate D2E/DX2                !
 ! D197  D(47,49,55,53)       -175.8709         estimate D2E/DX2                !
 ! D198  D(47,49,55,108)         2.0572         estimate D2E/DX2                !
 ! D199  D(50,49,55,53)         -2.1153         estimate D2E/DX2                !
 ! D200  D(50,49,55,108)       175.8127         estimate D2E/DX2                !
 ! D201  D(49,50,51,52)         -5.9565         estimate D2E/DX2                !
 ! D202  D(49,50,51,107)      -178.7497         estimate D2E/DX2                !
 ! D203  D(106,50,51,52)       176.6858         estimate D2E/DX2                !
 ! D204  D(106,50,51,107)        3.8927         estimate D2E/DX2                !
 ! D205  D(50,51,52,53)          2.8994         estimate D2E/DX2                !
 ! D206  D(50,51,52,56)       -174.5451         estimate D2E/DX2                !
 ! D207  D(107,51,52,53)       175.8655         estimate D2E/DX2                !
 ! D208  D(107,51,52,56)        -1.579          estimate D2E/DX2                !
 ! D209  D(51,52,53,54)        177.8206         estimate D2E/DX2                !
 ! D210  D(51,52,53,55)          0.6508         estimate D2E/DX2                !
 ! D211  D(56,52,53,54)         -4.8775         estimate D2E/DX2                !
 ! D212  D(56,52,53,55)        177.9527         estimate D2E/DX2                !
 ! D213  D(51,52,56,57)         55.1181         estimate D2E/DX2                !
 ! D214  D(51,52,56,60)       -126.4866         estimate D2E/DX2                !
 ! D215  D(53,52,56,57)       -122.2512         estimate D2E/DX2                !
 ! D216  D(53,52,56,60)         56.1441         estimate D2E/DX2                !
 ! D217  D(52,53,55,49)         -0.9742         estimate D2E/DX2                !
 ! D218  D(52,53,55,108)      -178.8045         estimate D2E/DX2                !
 ! D219  D(54,53,55,49)       -178.1218         estimate D2E/DX2                !
 ! D220  D(54,53,55,108)         4.0478         estimate D2E/DX2                !
 ! D221  D(52,56,57,58)        178.9805         estimate D2E/DX2                !
 ! D222  D(52,56,57,109)        -0.7828         estimate D2E/DX2                !
 ! D223  D(60,56,57,58)          0.5775         estimate D2E/DX2                !
 ! D224  D(60,56,57,109)      -179.1858         estimate D2E/DX2                !
 ! D225  D(52,56,60,59)       -177.3817         estimate D2E/DX2                !
 ! D226  D(57,56,60,59)          1.1579         estimate D2E/DX2                !
 ! D227  D(56,57,58,59)         -2.7351         estimate D2E/DX2                !
 ! D228  D(56,57,58,110)      -177.9257         estimate D2E/DX2                !
 ! D229  D(109,57,58,59)       177.0376         estimate D2E/DX2                !
 ! D230  D(109,57,58,110)        1.847          estimate D2E/DX2                !
 ! D231  D(57,58,59,60)          3.7494         estimate D2E/DX2                !
 ! D232  D(57,58,59,61)       -179.6527         estimate D2E/DX2                !
 ! D233  D(110,58,59,60)       178.7248         estimate D2E/DX2                !
 ! D234  D(110,58,59,61)        -4.6773         estimate D2E/DX2                !
 ! D235  D(58,59,60,56)         -2.8994         estimate D2E/DX2                !
 ! D236  D(61,59,60,56)       -179.8105         estimate D2E/DX2                !
 ! D237  D(58,59,61,62)        146.8515         estimate D2E/DX2                !
 ! D238  D(58,59,61,67)        -32.596          estimate D2E/DX2                !
 ! D239  D(60,59,61,62)        -36.6489         estimate D2E/DX2                !
 ! D240  D(60,59,61,67)        143.9036         estimate D2E/DX2                !
 ! D241  D(59,61,62,63)       -172.6246         estimate D2E/DX2                !
 ! D242  D(59,61,62,111)        -2.6517         estimate D2E/DX2                !
 ! D243  D(67,61,62,63)          6.7919         estimate D2E/DX2                !
 ! D244  D(67,61,62,111)       176.7648         estimate D2E/DX2                !
 ! D245  D(59,61,67,65)        173.559          estimate D2E/DX2                !
 ! D246  D(59,61,67,113)        -1.8474         estimate D2E/DX2                !
 ! D247  D(62,61,67,65)         -5.8943         estimate D2E/DX2                !
 ! D248  D(62,61,67,113)       178.6993         estimate D2E/DX2                !
 ! D249  D(61,62,63,64)         -8.804          estimate D2E/DX2                !
 ! D250  D(61,62,63,112)      -178.7741         estimate D2E/DX2                !
 ! D251  D(111,62,63,64)      -179.2658         estimate D2E/DX2                !
 ! D252  D(111,62,63,112)       10.7641         estimate D2E/DX2                !
 ! D253  D(62,63,64,65)         10.4714         estimate D2E/DX2                !
 ! D254  D(62,63,64,68)        178.4872         estimate D2E/DX2                !
 ! D255  D(112,63,64,65)      -179.5602         estimate D2E/DX2                !
 ! D256  D(112,63,64,68)       -11.5444         estimate D2E/DX2                !
 ! D257  D(63,64,65,66)       -179.9337         estimate D2E/DX2                !
 ! D258  D(63,64,65,67)         -9.9095         estimate D2E/DX2                !
 ! D259  D(68,64,65,66)         11.5824         estimate D2E/DX2                !
 ! D260  D(68,64,65,67)       -178.3934         estimate D2E/DX2                !
 ! D261  D(63,64,68,69)       -122.7675         estimate D2E/DX2                !
 ! D262  D(63,64,68,72)         56.6298         estimate D2E/DX2                !
 ! D263  D(65,64,68,69)         45.7928         estimate D2E/DX2                !
 ! D264  D(65,64,68,72)       -134.8098         estimate D2E/DX2                !
 ! D265  D(64,65,67,61)          7.3263         estimate D2E/DX2                !
 ! D266  D(64,65,67,113)      -176.6195         estimate D2E/DX2                !
 ! D267  D(66,65,67,61)        177.3153         estimate D2E/DX2                !
 ! D268  D(66,65,67,113)        -6.6305         estimate D2E/DX2                !
 ! D269  D(64,68,69,70)        178.2765         estimate D2E/DX2                !
 ! D270  D(64,68,69,114)         0.7721         estimate D2E/DX2                !
 ! D271  D(72,68,69,70)         -1.1535         estimate D2E/DX2                !
 ! D272  D(72,68,69,114)      -178.6579         estimate D2E/DX2                !
 ! D273  D(64,68,72,71)        179.2651         estimate D2E/DX2                !
 ! D274  D(69,68,72,71)         -1.188          estimate D2E/DX2                !
 ! D275  D(68,69,70,71)          3.7586         estimate D2E/DX2                !
 ! D276  D(68,69,70,115)       177.6442         estimate D2E/DX2                !
 ! D277  D(114,69,70,71)      -179.0468         estimate D2E/DX2                !
 ! D278  D(114,69,70,115)       -5.1613         estimate D2E/DX2                !
 ! D279  D(69,70,71,72)         -4.3187         estimate D2E/DX2                !
 ! D280  D(69,70,71,73)        173.0841         estimate D2E/DX2                !
 ! D281  D(115,70,71,72)      -178.1191         estimate D2E/DX2                !
 ! D282  D(115,70,71,73)        -0.7163         estimate D2E/DX2                !
 ! D283  D(70,71,72,68)          3.0774         estimate D2E/DX2                !
 ! D284  D(73,71,72,68)       -174.6303         estimate D2E/DX2                !
 ! D285  D(70,71,73,74)        139.8892         estimate D2E/DX2                !
 ! D286  D(70,71,73,79)        -36.2186         estimate D2E/DX2                !
 ! D287  D(72,71,73,74)        -43.0196         estimate D2E/DX2                !
 ! D288  D(72,71,73,79)        140.8725         estimate D2E/DX2                !
 ! D289  D(71,73,74,75)       -173.8603         estimate D2E/DX2                !
 ! D290  D(71,73,74,116)         0.0321         estimate D2E/DX2                !
 ! D291  D(79,73,74,75)          2.2098         estimate D2E/DX2                !
 ! D292  D(79,73,74,116)       176.1022         estimate D2E/DX2                !
 ! D293  D(71,73,79,77)        174.6751         estimate D2E/DX2                !
 ! D294  D(71,73,79,118)        -0.923          estimate D2E/DX2                !
 ! D295  D(74,73,79,77)         -1.4267         estimate D2E/DX2                !
 ! D296  D(74,73,79,118)      -177.0248         estimate D2E/DX2                !
 ! D297  D(73,74,75,76)         -0.8823         estimate D2E/DX2                !
 ! D298  D(73,74,75,117)      -178.1841         estimate D2E/DX2                !
 ! D299  D(116,74,75,76)      -174.4458         estimate D2E/DX2                !
 ! D300  D(116,74,75,117)        8.2524         estimate D2E/DX2                !
 ! D301  D(74,75,76,77)         -1.1259         estimate D2E/DX2                !
 ! D302  D(74,75,76,80)       -177.4374         estimate D2E/DX2                !
 ! D303  D(117,75,76,77)       175.9619         estimate D2E/DX2                !
 ! D304  D(117,75,76,80)        -0.3495         estimate D2E/DX2                !
 ! D305  D(75,76,77,78)       -177.3253         estimate D2E/DX2                !
 ! D306  D(75,76,77,79)          2.0162         estimate D2E/DX2                !
 ! D307  D(80,76,77,78)         -1.0171         estimate D2E/DX2                !
 ! D308  D(80,76,77,79)        178.3244         estimate D2E/DX2                !
 ! D309  D(75,76,80,81)         63.4087         estimate D2E/DX2                !
 ! D310  D(75,76,80,84)       -114.4295         estimate D2E/DX2                !
[...]
  Beta virt. eigenvalues --    1.83414   1.83546   1.83619   1.83811   1.84020
  Beta virt. eigenvalues --    1.84242   1.84701   1.85081   1.85286   1.85481
  Beta virt. eigenvalues --    1.85553   1.85973   1.86114   1.86163   1.86613
  Beta virt. eigenvalues --    1.86837   1.87001   1.87150   1.87463   1.87847
  Beta virt. eigenvalues --    1.88300   1.88796   1.88984   1.89401   1.89443
  Beta virt. eigenvalues --    1.89922   1.90008   1.90305   1.90516   1.90939
  Beta virt. eigenvalues --    1.91146   1.91281   1.91515   1.91711   1.91799
  Beta virt. eigenvalues --    1.92077   1.92368   1.92383   1.92739   1.92919
  Beta virt. eigenvalues --    1.93034   1.93219   1.93428   1.93458   1.93698
  Beta virt. eigenvalues --    1.93804   1.94338   1.94525   1.94659   1.94748
  Beta virt. eigenvalues --    1.94900   1.94942   1.95128   1.95449   1.95573
  Beta virt. eigenvalues --    1.95803   1.96139   1.96256   1.96358   1.96512
  Beta virt. eigenvalues --    1.96746   1.97017   1.97267   1.97795   1.98452
  Beta virt. eigenvalues --    1.98636   1.98847   1.99200   1.99297   1.99464
  Beta virt. eigenvalues --    1.99953   2.00320   2.00714   2.01203   2.01258
  Beta virt. eigenvalues --    2.01604   2.02031   2.02347   2.02559   2.03015
  Beta virt. eigenvalues --    2.03442   2.04011   2.04386   2.04832   2.05059
  Beta virt. eigenvalues --    2.05227   2.05429   2.05753   2.05807   2.06358
  Beta virt. eigenvalues --    2.06591   2.07212   2.07338   2.07837   2.07964
  Beta virt. eigenvalues --    2.08098   2.08408   2.08545   2.08897   2.09012
  Beta virt. eigenvalues --    2.09267   2.09680   2.10021   2.10512   2.10647
  Beta virt. eigenvalues --    2.11068   2.11382   2.11650   2.11700   2.12656
  Beta virt. eigenvalues --    2.13092   2.13541   2.14506   2.15127   2.15294
  Beta virt. eigenvalues --    2.15387   2.16007   2.16042   2.16313   2.16450
  Beta virt. eigenvalues --    2.16641   2.16780   2.17140   2.17472   2.18268
  Beta virt. eigenvalues --    2.19052   2.19201   2.19225   2.19875   2.20138
  Beta virt. eigenvalues --    2.21059   2.21420   2.21554   2.22121   2.22289
  Beta virt. eigenvalues --    2.22424   2.23062   2.23732   2.24843   2.25507
  Beta virt. eigenvalues --    2.25965   2.26629   2.26973   2.27554   2.28967
  Beta virt. eigenvalues --    2.29671   2.29748   2.29998   2.30383   2.30532
  Beta virt. eigenvalues --    2.30591   2.31108   2.31292   2.32500   2.32721
  Beta virt. eigenvalues --    2.32996   2.33668   2.34253   2.34363   2.34569
  Beta virt. eigenvalues --    2.34880   2.35314   2.35467   2.36672   2.37337
  Beta virt. eigenvalues --    2.37505   2.38185   2.38399   2.38519   2.38905
  Beta virt. eigenvalues --    2.39427   2.39726   2.40384   2.40543   2.41542
  Beta virt. eigenvalues --    2.41957   2.42724   2.43043   2.43356   2.43652
  Beta virt. eigenvalues --    2.45580   2.47459   2.48972   2.49119   2.49613
  Beta virt. eigenvalues --    2.50004   2.50736   2.50898   2.51414   2.51608
  Beta virt. eigenvalues --    2.51882   2.51977   2.52094   2.52115   2.52350
  Beta virt. eigenvalues --    2.52440   2.56417   2.57276   2.57707   2.58294
  Beta virt. eigenvalues --    2.58800   2.58992   2.59019   2.59159   2.59769
  Beta virt. eigenvalues --    2.60217   2.60574   2.60806   2.61031   2.61371
  Beta virt. eigenvalues --    2.62115   2.62509   2.62941   2.63831   2.64080
  Beta virt. eigenvalues --    2.64423   2.65650   2.66780   2.67356   2.67610
  Beta virt. eigenvalues --    2.68610   2.69166   2.69225   2.70061   2.71191
  Beta virt. eigenvalues --    2.71537   2.71926   2.72427   2.73440   2.73831
  Beta virt. eigenvalues --    2.74859   2.76661   2.77116   2.77199   2.77459
  Beta virt. eigenvalues --    2.78656   2.78775   2.78809   2.81151   2.81303
  Beta virt. eigenvalues --    2.81666   2.82070   2.82313   2.82918   2.83309
  Beta virt. eigenvalues --    2.84750   2.84827   2.84973   2.85059   2.85889
  Beta virt. eigenvalues --    2.86072   2.86569   2.92010   2.92300   2.92601
  Beta virt. eigenvalues --    2.93412   2.93645   2.94156   2.94349   3.18971
  Beta virt. eigenvalues --    3.19456   3.20256   3.20644   3.21318   3.21986
  Beta virt. eigenvalues --    3.24634   3.42208   3.42794   3.43472   3.44438
  Beta virt. eigenvalues --    3.44985   3.45540   3.50725   3.62785   3.62901
  Beta virt. eigenvalues --    3.63012   3.63100   3.63234   3.63267   3.63280
  Beta virt. eigenvalues --    3.67034   3.67132   3.67482   3.67618   3.67679
  Beta virt. eigenvalues --    3.67861   3.67915   3.81679   3.81806   3.81823
  Beta virt. eigenvalues --    3.81868   3.82007   3.82035   3.82276   4.04157
  Beta virt. eigenvalues --    4.04251   4.04590   4.04729   4.04746   4.04760
  Beta virt. eigenvalues --    4.04928   4.25028   4.25138   4.25508   4.25511
  Beta virt. eigenvalues --    4.25609   4.25784   4.25827
          Condensed to atoms (all electrons):
          Atomic-Atomic Spin Densities.
 Mulliken charges and spin densities:
               1          2
     1  C    0.022749   0.000000
     2  C    0.023704  -0.000000
     3  C   -0.009095   0.000000
     4  C    0.016199  -0.000000
     5  C    0.077069   0.000000
     6  F   -0.127501  -0.000000
     7  C    0.014876  -0.000000
     8  C   -0.143694   0.000000
     9  C    0.035712  -0.000000
    10  C    0.030316   0.000000
    11  C   -0.152989  -0.000000
    12  S    0.159021   0.000000
    13  C    0.068958   0.000000
    14  C    0.007186   0.000000
    15  C    0.000601  -0.000000
    16  C    0.027445   0.000000
    17  C    0.085909   0.000000
    18  F   -0.125743  -0.000000
    19  C    0.002809  -0.000000
    20  C   -0.143961  -0.000000
    21  C    0.031131   0.000000
    22  C    0.033099  -0.000000
    23  C   -0.152106   0.000000
    24  S    0.158120   0.000000
    25  C    0.066144  -0.000000
    26  C    0.009054   0.000000
    27  C   -0.000127  -0.000000
    28  C    0.013765   0.000000
    29  C    0.094046  -0.000000
    30  F   -0.123611   0.000000
    31  C    0.004082   0.000000
    32  C   -0.141285  -0.000000
    33  C    0.027587  -0.000000
    34  C    0.029510   0.000000
    35  C   -0.156328  -0.000000
    36  S    0.183474  -0.000000
    37  C    0.064149   0.000000
    38  C    0.008877  -0.000000
    39  C    0.000368   0.000000
    40  C    0.022356  -0.000000
    41  C    0.086563  -0.000000
    42  F   -0.126487  -0.000000
    43  C    0.003996   0.000000
    44  C   -0.141543   0.000000
    45  C    0.031272   0.000000
    46  C    0.032630  -0.000000
    47  C   -0.148516   0.000000
    48  S    0.154432   0.000000
    49  C    0.062351  -0.000000
    50  C    0.009052  -0.000000
    51  C    0.001335   0.000000
    52  C    0.013810   0.000000
    53  C    0.091484   0.000000
    54  F   -0.122947  -0.000000
    55  C    0.006114   0.000000
    56  C   -0.141863   0.000000
    57  C    0.027884  -0.000000
    58  C    0.028417   0.000000
    59  C   -0.156252  -0.000000
    60  S    0.183718   0.000000
    61  C    0.066227  -0.000000
    62  C    0.006984   0.000000
    63  C    0.000461  -0.000000
    64  C    0.028128   0.000000
    65  C    0.085017  -0.000000
    66  F   -0.126411   0.000000
    67  C    0.003293   0.000000
    68  C   -0.144552  -0.000000
    69  C    0.030633   0.000000
    70  C    0.032580  -0.000000
    71  C   -0.151825   0.000000
    72  S    0.158354   0.000000
    73  C    0.066348  -0.000000
    74  C    0.007777  -0.000000
    75  C    0.000900   0.000000
    76  C    0.017084  -0.000000
    77  C    0.095996  -0.000000
    78  F   -0.123542  -0.000000
    79  C    0.000948   0.000000
    80  C   -0.146211   0.000000
    81  C    0.000182   0.000000
    82  C    0.054963  -0.000000
    83  C   -0.137256   0.000000
    84  S    0.174044   0.000000
    85  H    0.004047   0.000000
    86  H   -0.000812   0.000000
    87  H    0.005330  -0.000000
    88  H    0.012831  -0.000000
    89  H    0.000751   0.000000
    90  H   -0.002605   0.000000
    91  H   -0.003670   0.000000
    92  H    0.006200   0.000000
    93  H    0.004920   0.000000
    94  H    0.000944   0.000000
    95  H   -0.001916   0.000000
    96  H   -0.003582  -0.000000
    97  H   -0.001465  -0.000000
    98  H    0.005257   0.000000
    99  H   -0.001868   0.000000
   100  H   -0.003605   0.000000
   101  H    0.000229   0.000000
   102  H    0.010126   0.000000
   103  H    0.003200   0.000000
   104  H    0.000824  -0.000000
   105  H   -0.002557  -0.000000
   106  H   -0.009751  -0.000000
   107  H   -0.001610  -0.000000
   108  H    0.012787   0.000000
   109  H   -0.002183  -0.000000
   110  H   -0.003916  -0.000000
   111  H   -0.000198   0.000000
   112  H    0.006795  -0.000000
   113  H    0.003154   0.000000
   114  H    0.000059   0.000000
   115  H   -0.002523  -0.000000
   116  H   -0.004545   0.000000
   117  H   -0.001477   0.000000
   118  H    0.003992   0.000000
   119  H   -0.001290   0.000000
   120  H   -0.001639  -0.000000
   121  H    0.032319   0.000000
 Sum of Mulliken charges =  -0.00000   0.00000
 Mulliken charges and spin densities with hydrogens summed into heavy atoms:
               1          2
     1  C    0.026796   0.000000
     2  C    0.022893  -0.000000
     3  C   -0.003765   0.000000
     4  C    0.016199  -0.000000
     5  C    0.077069   0.000000
     6  F   -0.127501  -0.000000
     7  C    0.027707  -0.000000
     8  C   -0.143694   0.000000
     9  C    0.036463  -0.000000
    10  C    0.027711   0.000000
    11  C   -0.152989  -0.000000
    12  S    0.159021   0.000000
    13  C    0.068958   0.000000
    14  C    0.003516   0.000000
    15  C    0.006801  -0.000000
    16  C    0.027445   0.000000
    17  C    0.085909   0.000000
    18  F   -0.125743  -0.000000
    19  C    0.007729  -0.000000
    20  C   -0.143961  -0.000000
    21  C    0.032075   0.000000
    22  C    0.031183  -0.000000
    23  C   -0.152106   0.000000
    24  S    0.158120   0.000000
    25  C    0.066144  -0.000000
    26  C    0.005472   0.000000
    27  C   -0.001592  -0.000000
    28  C    0.013765   0.000000
    29  C    0.094046  -0.000000
    30  F   -0.123611   0.000000
    31  C    0.009339   0.000000
    32  C   -0.141285  -0.000000
    33  C    0.025719  -0.000000
    34  C    0.025905   0.000000
    35  C   -0.156328  -0.000000
    36  S    0.183474  -0.000000
    37  C    0.064149   0.000000
    38  C    0.009107  -0.000000
    39  C    0.010494   0.000000
    40  C    0.022356  -0.000000
    41  C    0.086563  -0.000000
    42  F   -0.126487  -0.000000
    43  C    0.007196   0.000000
    44  C   -0.141543   0.000000
    45  C    0.032096   0.000000
    46  C    0.030073  -0.000000
    47  C   -0.148516   0.000000
    48  S    0.154432   0.000000
    49  C    0.062351  -0.000000
    50  C   -0.000699  -0.000000
    51  C   -0.000276   0.000000
    52  C    0.013810   0.000000
    53  C    0.091484   0.000000
    54  F   -0.122947  -0.000000
    55  C    0.018901   0.000000
    56  C   -0.141863   0.000000
    57  C    0.025701  -0.000000
    58  C    0.024501   0.000000
    59  C   -0.156252  -0.000000
    60  S    0.183718   0.000000
    61  C    0.066227  -0.000000
    62  C    0.006786   0.000000
    63  C    0.007256  -0.000000
    64  C    0.028128   0.000000
    65  C    0.085017  -0.000000
    66  F   -0.126411   0.000000
    67  C    0.006446   0.000000
    68  C   -0.144552  -0.000000
    69  C    0.030691   0.000000
    70  C    0.030058  -0.000000
    71  C   -0.151825   0.000000
    72  S    0.158354   0.000000
    73  C    0.066348  -0.000000
    74  C    0.003232   0.000000
    75  C   -0.000577   0.000000
    76  C    0.017084  -0.000000
    77  C    0.095996  -0.000000
    78  F   -0.123542  -0.000000
    79  C    0.004940   0.000000
    80  C   -0.146211   0.000000
    81  C   -0.001108   0.000000
    82  C    0.053324  -0.000000
    83  C   -0.104938   0.000000
    84  S    0.174044   0.000000
 Electronic spatial extent (au):  <R**2>=         541989.9488
 Charge=             -0.0000 electrons
 Dipole moment (field-independent basis, Debye):
    X=              6.2121    Y=              0.9046    Z=              1.2690  Tot=              6.4046
 Quadrupole moment (field-independent basis, Debye-Ang):
   XX=           -464.8174   YY=           -481.7940   ZZ=           -515.8226
   XY=             17.5354   XZ=             37.3125   YZ=             -5.1762
 Traceless Quadrupole moment (field-independent basis, Debye-Ang):
   XX=             22.6606   YY=              5.6840   ZZ=            -28.3446
   XY=             17.5354   XZ=             37.3125   YZ=             -5.1762
 Octapole moment (field-independent basis, Debye-Ang**2):
  XXX=           4469.3483  YYY=            -30.8757  ZZZ=              9.1329  XYY=           -329.7801
  XXY=             16.0234  XXZ=            377.8176  XZZ=              3.8051  YZZ=             25.7289
  YYZ=              0.1800  XYZ=            411.0022
 Hexadecapole moment (field-independent basis, Debye-Ang**3):
 XXXX=        -631957.1059 YYYY=         -28324.6040 ZZZZ=          -5908.8476 XXXY=          15248.2608
 XXXZ=           7694.7756 YYYX=            625.4997 YYYZ=           -565.9062 ZZZX=            -32.1019
 ZZZY=            123.2328 XXYY=        -114006.4343 XXZZ=        -119035.3094 YYZZ=          -5873.7071
 XXYZ=          -1943.2497 YYXZ=          -1635.0394 ZZXY=             66.7132
 N-N= 1.145991966230D+04 E-N=-3.744179320814D+04  KE= 6.144981638510D+03
 Leave Link  601 at Sun Jul 26 18:56:38 2020, MaxMem=  4026531840 cpu:              11.5 elap:               1.6
 (Enter /opt/ohpc/pub/libs/gaussian/g16-A.03/sandybridge/g16/l9999.exe)

 Test job not archived.
 1\1\GINC-SKYLAKE033\FOpt\ULC-wPBE\CC-pVDZ\C70H37F7S7\RDU230\26-Jul-202
 0\0\\#P uLC-wPBE/cc-pVDZ iop(3/107=0312300000, 3/108=0312300000) opt\\
 H37 C70 S7 F7\\0,1\C,25.8998414324,0.1661603618,0.063754069\C,24.80109
 95833,-0.4613845841,0.6483224763\C,23.5873998137,-0.5113160312,-0.0288
 64261\C,23.4252047209,0.0627444578,-1.2992877695\C,24.5527992837,0.681
 3617825,-1.8514758214\F,24.4648722299,1.2530062795,-3.0708370323\C,25.
 7742454277,0.7409682716,-1.1972869734\C,22.1337568989,0.025121545,-2.0
 084895863\C,21.8751330176,0.0608950993,-3.357739991\C,20.4899530639,-0
 .0197212763,-3.6633432868\C,19.6911088655,-0.1098282238,-2.5502107402\
 S,20.65288427,-0.0843320025,-1.1114631572\C,18.2225045491,-0.205939970
 9,-2.4855366995\C,17.5698295853,-0.8708258509,-1.438400636\C,16.184816
 0731,-0.9591793291,-1.4074496586\C,15.3786368984,-0.3967925533,-2.4086
 074455\C,16.0583574628,0.2575489036,-3.4426921363\F,15.3537772533,0.83
 24377902,-4.4393013606\C,17.4375119556,0.3646134583,-3.4934957751\C,13
 .9095747904,-0.4793113869,-2.3662285148\C,12.9999652255,-0.4290444258,
 -3.3957762686\C,11.6549523424,-0.5660262631,-2.9598899718\C,11.5353569
 458,-0.7142301064,-1.6000076896\S,13.093389559,-0.6732088944,-0.847357
 2114\C,10.3063491238,-0.87972109,-0.8047897164\C,10.2969981076,-1.5898
 794395,0.4041421772\C,9.1255313401,-1.7367642606,1.1338749609\C,7.9037
 026015,-1.2040958755,0.6951257486\C,7.9464913161,-0.4952276276,-0.5094
 766399\F,6.8127612945,0.0667074052,-0.9794160808\C,9.1032004255,-0.321
 9042966,-1.2497356831\C,6.6675369122,-1.4134388893,1.468466373\C,6.420
 0501459,-2.4325765936,2.3593900162\C,5.1553754598,-2.3309501816,2.9942
 39705\C,4.4367745476,-1.2330555957,2.5869002911\S,5.3214423054,-0.3232
 539909,1.4127460985\C,3.0896797757,-0.8182571707,3.0168122017\C,2.2214
 507778,-0.1234891948,2.1635692906\C,0.9553597544,0.2516441503,2.591770
 0515\C,0.4816820604,-0.0512833393,3.8773174595\C,1.3706759003,-0.74521
 38036,4.7062574938\F,0.9936065915,-1.0678666749,5.9612152188\C,2.64232
 71516,-1.1199544033,4.3076227155\C,-0.8690873653,0.3308835946,4.321785
 3234\C,-1.3434131405,0.5499049519,5.5933421435\C,-2.7114247366,0.93256
 0551,5.6213483426\C,-3.2844616618,0.9967882987,4.3753144976\S,-2.12738
 02363,0.5880110368,3.154935316\C,-4.6723177757,1.3484587427,4.02679217
 55\C,-5.4082872055,2.2304240851,4.8313326633\C,-6.7224221017,2.5482282
 739,4.5189097934\C,-7.3657706045,2.0265785104,3.3855941901\C,-6.607178
 9329,1.1500358719,2.6045702271\F,-7.1683016383,0.594137605,1.510332399
 5\C,-5.2989978444,0.805751629,2.900536867\C,-8.7468224196,2.4179251568
 ,3.0545210462\C,-9.387580928,3.5727339544,3.4409393579\C,-10.739051118
 9,3.6366883003,3.0138500457\C,-11.1299317097,2.5292541874,2.3007079526
 \S,-9.8248437035,1.4051515877,2.1515162663\C,-12.4448320606,2.25573884
 3,1.694489762\C,-12.5781121466,1.4831793773,0.5326231873\C,-13.8278531
 885,1.2504373695,-0.0251619072\C,-15.0045635185,1.7691610124,0.5361357
 952\C,-14.8395956574,2.5388561405,1.6935856147\F,-15.9237253419,3.0665
 134744,2.2994600274\C,-13.6057118085,2.7810088892,2.2724764209\C,-16.3
 297243499,1.5088993152,-0.0495298161\C,-17.4863522884,2.2465675087,0.0
 396546388\C,-18.5674916144,1.6804608706,-0.6875472496\C,-18.2408113469
 ,0.5095142025,-1.3259149617\S,-16.5889861447,0.0935808862,-1.019489206
 2\C,-19.1011565979,-0.346961435,-2.1608319477\C,-18.5822982537,-1.1155
 524645,-3.2121767276\C,-19.4152903222,-1.9034840246,-3.9950051358\C,-2
 0.798849263,-1.9724062705,-3.7733609037\C,-21.2878031726,-1.1870661673
 ,-2.7250049663\F,-22.6108708172,-1.1982394794,-2.4597553848\C,-20.4793
 578655,-0.3962436636,-1.9265219625\C,-21.6531830048,-2.8476544433,-4.5
 95974008\C,-21.2599078007,-3.988008292,-5.2573162513\C,-22.3021179571,
 -4.5840732656,-6.0207618429\C,-23.4740381623,-3.8855451056,-5.93049975
 02\S,-23.325619242,-2.5137841496,-4.9114771567\H,26.8598412636,0.20727
 80522,0.5870497126\H,24.8896287278,-0.9220484215,1.6364588059\H,22.734
 3470277,-1.0212126765,0.4306650384\H,26.6086944784,1.2446750998,-1.692
 6238639\H,22.6610965459,0.1277914138,-4.110055915\H,20.0959187255,-0.0
 384843927,-4.6821267147\H,18.1554707043,-1.3471122362,-0.646342152\H,1
 5.7049407551,-1.5019283383,-0.5867436271\H,17.8831505423,0.9223020863,
 -4.3210798936\H,13.2919081178,-0.3126032975,-4.4394542948\H,10.7987014
 205,-0.5824613899,-3.6381793086\H,11.2214110719,-2.0407129473,0.777743
 7295\H,9.1537274914,-2.2767935804,2.0843716459\H,9.0483713435,0.269815
 7236,-2.1668894342\H,7.1195123206,-3.2524191887,2.5367587804\H,4.77197
 7689,-3.0667973522,3.7047127523\H,2.5368380776,0.1196227801,1.14446027
 9\H,0.305467181,0.8048440951,1.9061498894\H,3.2796750824,-1.6369109876
 ,5.0295057857\H,-0.7244669483,0.4403966319,6.4837374697\H,-3.265278197
 8,1.1289007623,6.5422382895\H,-4.9398686513,2.6816741556,5.7102753459\
 H,-7.2793491648,3.221247601,5.1768819383\H,-4.78923879,0.0962391682,2.
 2425321176\H,-8.8925420834,4.3715158504,3.9975205279\H,-11.393690804,4
 .4917241856,3.1970621384\H,-11.6880916911,1.0764538711,0.0431240838\H,
 -13.8978123537,0.6597416176,-0.944181493\H,-13.5728601548,3.3661957431
 ,3.1950303768\H,-17.5527567648,3.1792609452,0.5997793518\H,-19.5549570
 615,2.1421348738,-0.7599654229\H,-17.5124836447,-1.0758700228,-3.43879
 79984\H,-18.9878464802,-2.4708177913,-4.8265922396\H,-20.9429671917,0.
 1592370317,-1.1073879113\H,-20.2512306781,-4.4007589511,-5.1826455672\
 H,-22.1862564858,-5.4988019761,-6.6061503957\H,-24.4322222115,-4.11502
 67839,-6.3991109429\\Version=EM64L-G16RevA.03\State=1-A\HF=-6172.72196
 15\S2=0.\S2-1=0.\S2A=0.\RMSD=5.322e-09\RMSF=9.751e-07\Dipole=2.4459618
 ,-0.3631897,0.4843707\Quadrupole=16.9943613,-16.1039046,-0.8904567,-22
 .124993,21.1353431,10.7955863\PG=C01 [X(C70H37F7S7)]\\@


 BETTER TO HUNT IN FIELDS, FOR HEALTH UNBOUGHT
 THAN FEE THE DOCTOR FOR A NAUSEOUS DRAUGHT.
 THE WISE, FOR CURE, ON EXERCISE DEPEND;
 GOD NEVER MADE HIS WORK FOR MAN TO MEND.
     -- JOHN DRYDEN (1631-1700)
 Job cpu time:       2 days  3 hours 46 minutes 20.7 seconds.
 Elapsed time:       0 days  6 hours 34 minutes 56.9 seconds.
 File lengths (MBytes):  RWF=   2156 Int=      0 D2E=      0 Chk=    196 Scr=      8
 Normal termination of Gaussian 16 at Sun Jul 26 18:56:39 2020.
