 Entering Gaussian System, Link 0=g16
 Input=mols_66_3_17_n-n-cOC-cOC_opt_0.gjf
 Output=mols_66_3_17_n-n-cOC-cOC_opt_0.log
 Initial command:
 /opt/ohpc/pub/libs/gaussian/g16-A.03/sandybridge/g16/l1.exe "/mnt/gpfs2_4m/scratch/rdu230/ondemand/projects/dihedral_energies/7trial/wtuning/mols_66_3_17_n-n-cOC-cOC/Gau-196003.inp" -scrdir="/mnt/gpfs2_4m/scratch/rdu230/ondemand/projects/dihedral_energies/7trial/wtuning/mols_66_3_17_n-n-cOC-cOC/"
 Entering Link 1 = /opt/ohpc/pub/libs/gaussian/g16-A.03/sandybridge/g16/l1.exe PID=    196006.
  
 Copyright (c) 1988,1990,1992,1993,1995,1998,2003,2009,2016,
            Gaussian, Inc.  All Rights Reserved.
  
 This is part of the Gaussian(R) 16 program.  It is based on
 the Gaussian(R) 09 system (copyright 2009, Gaussian, Inc.),
 the Gaussian(R) 03 system (copyright 2003, Gaussian, Inc.),
 the Gaussian(R) 98 system (copyright 1998, Gaussian, Inc.),
 the Gaussian(R) 94 system (copyright 1995, Gaussian, Inc.),
 the Gaussian 92(TM) system (copyright 1992, Gaussian, Inc.),
 the Gaussian 90(TM) system (copyright 1990, Gaussian, Inc.),
 the Gaussian 88(TM) system (copyright 1988, Gaussian, Inc.),
 the Gaussian 86(TM) system (copyright 1986, Carnegie Mellon
 University), and the Gaussian 82(TM) system (copyright 1983,
 Carnegie Mellon University). Gaussian is a federally registered
 trademark of Gaussian, Inc.
  
 This software contains proprietary and confidential information,
 including trade secrets, belonging to Gaussian, Inc.
  
 This software is provided under written license and may be
 used, copied, transmitted, or stored only in accord with that
 written license.
  
 The following legend is applicable only to US Government
 contracts under FAR:
  
                    RESTRICTED RIGHTS LEGEND
  
 Use, reproduction and disclosure by the US Government is
 subject to restrictions as set forth in subparagraphs (a)
 and (c) of the Commercial Computer Software - Restricted
 Rights clause in FAR 52.227-19.
  
 Gaussian, Inc.
 340 Quinnipiac St., Bldg. 40, Wallingford CT 06492
  
  
 ---------------------------------------------------------------
 Warning -- This program may not be used in any manner that
 competes with the business of Gaussian, Inc. or will provide
 assistance to any competitor of Gaussian, Inc.  The licensee
 of this program is prohibited from giving any competitor of
 Gaussian, Inc. access to this program.  By using this program,
 the user acknowledges that Gaussian, Inc. is engaged in the
 business of creating and licensing software in the field of
 computational chemistry and represents and warrants to the
 licensee that it is not a competitor of Gaussian, Inc. and that
 it will not use this program in any manner prohibited above.
 ---------------------------------------------------------------
  

 Cite this work as:
 Gaussian 16, Revision A.03,
 M. J. Frisch, G. W. Trucks, H. B. Schlegel, G. E. Scuseria, 
 M. A. Robb, J. R. Cheeseman, G. Scalmani, V. Barone, 
 G. A. Petersson, H. Nakatsuji, X. Li, M. Caricato, A. V. Marenich, 
 J. Bloino, B. G. Janesko, R. Gomperts, B. Mennucci, H. P. Hratchian, 
 J. V. Ortiz, A. F. Izmaylov, J. L. Sonnenberg, D. Williams-Young, 
 F. Ding, F. Lipparini, F. Egidi, J. Goings, B. Peng, A. Petrone, 
 T. Henderson, D. Ranasinghe, V. G. Zakrzewski, J. Gao, N. Rega, 
 G. Zheng, W. Liang, M. Hada, M. Ehara, K. Toyota, R. Fukuda, 
 J. Hasegawa, M. Ishida, T. Nakajima, Y. Honda, O. Kitao, H. Nakai, 
 T. Vreven, K. Throssell, J. A. Montgomery, Jr., J. E. Peralta, 
 F. Ogliaro, M. J. Bearpark, J. J. Heyd, E. N. Brothers, K. N. Kudin, 
 V. N. Staroverov, T. A. Keith, R. Kobayashi, J. Normand, 
 K. Raghavachari, A. P. Rendell, J. C. Burant, S. S. Iyengar, 
 J. Tomasi, M. Cossi, J. M. Millam, M. Klene, C. Adamo, R. Cammi, 
 J. W. Ochterski, R. L. Martin, K. Morokuma, O. Farkas, 
 J. B. Foresman, and D. J. Fox, Gaussian, Inc., Wallingford CT, 2016.
 
 ******************************************
 Gaussian 16:  EM64L-G16RevA.03 25-Dec-2016
                23-Jul-2020 
 ******************************************
 %mem=30GB
 %nproc=8
 Will use up to    8 processors via shared memory.
 ---------------------------------------------------------------
 #P uLC-wPBE/cc-pVDZ iop(3/107=0443900000, 3/108=0443900000) opt
 ---------------------------------------------------------------
 1/18=20,19=15,26=3,38=1/1,3;
 2/9=110,12=2,17=6,18=5,40=1/2;
 3/5=16,11=2,25=1,30=1,71=1,74=-41,107=443900000,108=443900000,116=2/1,2,3;
 4//1;
 5/5=2,38=5/2;
 6/7=2,8=2,9=2,10=2,28=1/1;
 7//1,2,3,16;
 1/18=20,19=15,26=3/3(2);
 2/9=110/2;
 99//99;
 2/9=110/2;
 3/5=16,11=2,25=1,30=1,71=1,74=-41,107=443900000,108=443900000,116=2/1,2,3;
 4/5=5,16=3,69=1/1;
 5/5=2,38=5/2;
 7//1,2,3,16;
 1/18=20,19=15,26=3/3(-5);
 2/9=110/2;
 6/7=2,8=2,9=2,10=2,19=2,28=1/1;
 99/9=1/99;
 Leave Link    1 at Thu Jul 23 10:00:15 2020, MaxMem=  4026531840 cpu:               3.2 elap:               0.5
 (Enter /opt/ohpc/pub/libs/gaussian/g16-A.03/sandybridge/g16/l101.exe)
 -------------
 H32 C36 N6 O6
 -------------
 Symbolic Z-matrix:
 Charge =  0 Multiplicity = 1
 C                     11.92505   0.34693  -0.94957 
 C                     11.34179  -0.87795  -0.56292 
 C                     9.99449  -1.01768  -0.37529 
 O                     9.39867  -2.14101   0.00239 
 C                     10.08491  -3.36966  -0.05828 
 C                     9.26654   0.15313  -0.50264 
 N                     9.76591   1.33682  -0.90849 
 C                     11.08428   1.37666  -1.06664 
 C                     7.71825   0.1938   -0.3098 
 N                     7.04003   0.34305  -1.42621 
 C                     5.64129   0.3113   -1.37547 
 C                     4.94083   0.13177  -0.15926 
 C                     5.71691   0.00651   0.98315 
 C                     7.13441  -0.07504   0.87896 
 O                     7.96048  -0.12971   2.01204 
 C                     7.455    -1.15023   2.97081 
 C                     3.47552   0.17055  -0.11575 
 C                     2.78723   1.28111  -0.5018 
 C                     1.38336   1.2819   -0.56744 
 O                     0.59327   2.37358  -0.93039 
 C                     1.23563   3.53169  -1.21824 
 C                     0.74735   0.08928  -0.03004 
 N                     1.44104  -0.988     0.38787 
 C                     2.8134   -0.91976   0.24994 
 C                    -0.7189   -0.02973  -0.07487 
 N                    -1.25731  -0.79124  -1.06664 
 C                    -2.61963  -0.83579  -1.06825 
 C                    -3.4439   -0.31295  -0.16535 
 C                    -2.89047   0.48991   0.89628 
 C                    -1.53934   0.61199   0.97144 
 O                    -0.87973   1.30893   1.93776 
 C                    -1.54989   1.82148   3.01822 
 C                    -4.88024  -0.48793  -0.21519 
 C                    -5.74156   0.60421  -0.42634 
 C                    -7.1705    0.48084  -0.58488 
 O                    -8.06016   1.52644  -0.77192 
 C                    -7.50673   2.78537  -0.95397 
 C                    -7.66431  -0.75146  -0.412 
 N                    -6.86692  -1.92169  -0.13613 
 C                    -5.53383  -1.71637  -0.14476 
 C                    -9.13293  -1.04507  -0.52524 
 N                    -9.51347  -1.76178  -1.6034 
 C                    -10.80833  -1.95002  -1.74183 
 C                    -11.78859  -1.6819   -0.85643 
 C                    -11.39761  -1.0148    0.31041 
 C                    -10.04892  -0.66314   0.47892 
 O                    -9.55006  -0.07101   1.65194 
 C                    -10.43315   0.85905   2.23872 
 H                     12.98472   0.44608  -1.01482 
 H                     12.02162  -1.76236  -0.36541 
 H                     9.40724  -4.21383   0.11691 
 H                     10.42966  -3.49042  -1.14074 
 H                     10.84027  -3.39156   0.63534 
 H                     11.48901   2.34974  -1.35718 
 H                     5.16163   0.45017  -2.28701 
 H                     5.20298  -0.16321   1.92552 
 H                     8.29608  -1.42905   3.65318 
 H                     7.12481  -2.03499   2.54714 
 H                     6.70157  -0.69308   3.61758 
 H                     3.31082   2.13541  -0.91406 
 H                     1.82127   3.94457  -0.39474 
 H                     1.85746   3.4377   -2.13534 
 H                     0.42931   4.26848  -1.51603 
 H                     3.29693  -1.80824   0.63568 
 H                    -3.00518  -1.42578  -1.87679 
 H                    -3.52118   0.93526   1.67686 
 H                    -2.36248   2.55747   2.67795 
 H                    -0.90386   2.3341    3.71119 
 H                    -2.10488   1.02382   3.59743 
 H                    -5.327     1.64844  -0.55764 
 H                    -6.98081   3.12268  -0.04525 
 H                    -6.77323   2.81973  -1.81019 
 H                    -8.3142    3.50544  -1.23623 
 H                    -4.93965  -2.58194   0.0394 
 H                    -11.12745  -2.52764  -2.7131 
 H                    -12.78178  -1.88464  -0.9458 
 H                    -12.1015  -0.72223   1.0468 
 H                    -10.83148   1.50957   1.48993 
 H                    -9.78867   1.43849   2.90649 
 H                    -11.14031   0.3204    2.81125 
 
 ITRead=  0  0  0  0  0  0  0  0  0  0  0  0  0  0  0  0  0  0  0  0
 ITRead=  0  0  0  0  0  0  0  0  0  0  0  0  0  0  0  0  0  0  0  0
 ITRead=  0  0  0  0  0  0  0  0  0  0  0  0  0  0  0  0  0  0  0  0
 ITRead=  0  0  0  0  0  0  0  0  0  0  0  0  0  0  0  0  0  0  0  0
 MicOpt= -1 -1 -1 -1 -1 -1 -1 -1 -1 -1 -1 -1 -1 -1 -1 -1 -1 -1 -1 -1
 MicOpt= -1 -1 -1 -1 -1 -1 -1 -1 -1 -1 -1 -1 -1 -1 -1 -1 -1 -1 -1 -1
 MicOpt= -1 -1 -1 -1 -1 -1 -1 -1 -1 -1 -1 -1 -1 -1 -1 -1 -1 -1 -1 -1
 MicOpt= -1 -1 -1 -1 -1 -1 -1 -1 -1 -1 -1 -1 -1 -1 -1 -1 -1 -1 -1 -1
 NAtoms=     80 NQM=       80 NQMF=       0 NMMI=      0 NMMIF=      0
                NMic=       0 NMicF=      0.
                    Isotopes and Nuclear Properties:
 (Nuclear quadrupole moments (NQMom) in fm**2, nuclear magnetic moments (NMagM)
  in nuclear magnetons)

  Atom         1           2           3           4           5           6           7           8           9          10
 IAtWgt=          12          12          12          16          12          12          14          12          12          14
 AtmWgt=  12.0000000  12.0000000  12.0000000  15.9949146  12.0000000  12.0000000  14.0030740  12.0000000  12.0000000  14.0030740
 NucSpn=           0           0           0           0           0           0           2           0           0           2
 AtZEff=  -0.0000000  -0.0000000  -0.0000000  -0.0000000  -0.0000000  -0.0000000  -0.0000000  -0.0000000  -0.0000000  -0.0000000
 NQMom=    0.0000000   0.0000000   0.0000000   0.0000000   0.0000000   0.0000000   2.0440000   0.0000000   0.0000000   2.0440000
 NMagM=    0.0000000   0.0000000   0.0000000   0.0000000   0.0000000   0.0000000   0.4037610   0.0000000   0.0000000   0.4037610
 AtZNuc=   6.0000000   6.0000000   6.0000000   8.0000000   6.0000000   6.0000000   7.0000000   6.0000000   6.0000000   7.0000000

  Atom        11          12          13          14          15          16          17          18          19          20
 IAtWgt=          12          12          12          12          16          12          12          12          12          16
 AtmWgt=  12.0000000  12.0000000  12.0000000  12.0000000  15.9949146  12.0000000  12.0000000  12.0000000  12.0000000  15.9949146
 NucSpn=           0           0           0           0           0           0           0           0           0           0
 AtZEff=  -0.0000000  -0.0000000  -0.0000000  -0.0000000  -0.0000000  -0.0000000  -0.0000000  -0.0000000  -0.0000000  -0.0000000
 NQMom=    0.0000000   0.0000000   0.0000000   0.0000000   0.0000000   0.0000000   0.0000000   0.0000000   0.0000000   0.0000000
 NMagM=    0.0000000   0.0000000   0.0000000   0.0000000   0.0000000   0.0000000   0.0000000   0.0000000   0.0000000   0.0000000
 AtZNuc=   6.0000000   6.0000000   6.0000000   6.0000000   8.0000000   6.0000000   6.0000000   6.0000000   6.0000000   8.0000000

  Atom        21          22          23          24          25          26          27          28          29          30
 IAtWgt=          12          12          14          12          12          14          12          12          12          12
 AtmWgt=  12.0000000  12.0000000  14.0030740  12.0000000  12.0000000  14.0030740  12.0000000  12.0000000  12.0000000  12.0000000
 NucSpn=           0           0           2           0           0           2           0           0           0           0
 AtZEff=  -0.0000000  -0.0000000  -0.0000000  -0.0000000  -0.0000000  -0.0000000  -0.0000000  -0.0000000  -0.0000000  -0.0000000
 NQMom=    0.0000000   0.0000000   2.0440000   0.0000000   0.0000000   2.0440000   0.0000000   0.0000000   0.0000000   0.0000000
 NMagM=    0.0000000   0.0000000   0.4037610   0.0000000   0.0000000   0.4037610   0.0000000   0.0000000   0.0000000   0.0000000
 AtZNuc=   6.0000000   6.0000000   7.0000000   6.0000000   6.0000000   7.0000000   6.0000000   6.0000000   6.0000000   6.0000000

  Atom        31          32          33          34          35          36          37          38          39          40
 IAtWgt=          16          12          12          12          12          16          12          12          14          12
 AtmWgt=  15.9949146  12.0000000  12.0000000  12.0000000  12.0000000  15.9949146  12.0000000  12.0000000  14.0030740  12.0000000
 NucSpn=           0           0           0           0           0           0           0           0           2           0
 AtZEff=  -0.0000000  -0.0000000  -0.0000000  -0.0000000  -0.0000000  -0.0000000  -0.0000000  -0.0000000  -0.0000000  -0.0000000
 NQMom=    0.0000000   0.0000000   0.0000000   0.0000000   0.0000000   0.0000000   0.0000000   0.0000000   2.0440000   0.0000000
 NMagM=    0.0000000   0.0000000   0.0000000   0.0000000   0.0000000   0.0000000   0.0000000   0.0000000   0.4037610   0.0000000
 AtZNuc=   8.0000000   6.0000000   6.0000000   6.0000000   6.0000000   8.0000000   6.0000000   6.0000000   7.0000000   6.0000000

  Atom        41          42          43          44          45          46          47          48          49          50
 IAtWgt=          12          14          12          12          12          12          16          12           1           1
 AtmWgt=  12.0000000  14.0030740  12.0000000  12.0000000  12.0000000  12.0000000  15.9949146  12.0000000   1.0078250   1.0078250
 NucSpn=           0           2           0           0           0           0           0           0           1           1
 AtZEff=  -0.0000000  -0.0000000  -0.0000000  -0.0000000  -0.0000000  -0.0000000  -0.0000000  -0.0000000  -0.0000000  -0.0000000
 NQMom=    0.0000000   2.0440000   0.0000000   0.0000000   0.0000000   0.0000000   0.0000000   0.0000000   0.0000000   0.0000000
 NMagM=    0.0000000   0.4037610   0.0000000   0.0000000   0.0000000   0.0000000   0.0000000   0.0000000   2.7928460   2.7928460
 AtZNuc=   6.0000000   7.0000000   6.0000000   6.0000000   6.0000000   6.0000000   8.0000000   6.0000000   1.0000000   1.0000000

  Atom        51          52          53          54          55          56          57          58          59          60
 IAtWgt=           1           1           1           1           1           1           1           1           1           1
 AtmWgt=   1.0078250   1.0078250   1.0078250   1.0078250   1.0078250   1.0078250   1.0078250   1.0078250   1.0078250   1.0078250
 NucSpn=           1           1           1           1           1           1           1           1           1           1
 AtZEff=  -0.0000000  -0.0000000  -0.0000000  -0.0000000  -0.0000000  -0.0000000  -0.0000000  -0.0000000  -0.0000000  -0.0000000
 NQMom=    0.0000000   0.0000000   0.0000000   0.0000000   0.0000000   0.0000000   0.0000000   0.0000000   0.0000000   0.0000000
 NMagM=    2.7928460   2.7928460   2.7928460   2.7928460   2.7928460   2.7928460   2.7928460   2.7928460   2.7928460   2.7928460
 AtZNuc=   1.0000000   1.0000000   1.0000000   1.0000000   1.0000000   1.0000000   1.0000000   1.0000000   1.0000000   1.0000000

  Atom        61          62          63          64          65          66          67          68          69          70
 IAtWgt=           1           1           1           1           1           1           1           1           1           1
 AtmWgt=   1.0078250   1.0078250   1.0078250   1.0078250   1.0078250   1.0078250   1.0078250   1.0078250   1.0078250   1.0078250
 NucSpn=           1           1           1           1           1           1           1           1           1           1
 AtZEff=  -0.0000000  -0.0000000  -0.0000000  -0.0000000  -0.0000000  -0.0000000  -0.0000000  -0.0000000  -0.0000000  -0.0000000
 NQMom=    0.0000000   0.0000000   0.0000000   0.0000000   0.0000000   0.0000000   0.0000000   0.0000000   0.0000000   0.0000000
 NMagM=    2.7928460   2.7928460   2.7928460   2.7928460   2.7928460   2.7928460   2.7928460   2.7928460   2.7928460   2.7928460
 AtZNuc=   1.0000000   1.0000000   1.0000000   1.0000000   1.0000000   1.0000000   1.0000000   1.0000000   1.0000000   1.0000000

  Atom        71          72          73          74          75          76          77          78          79          80
 IAtWgt=           1           1           1           1           1           1           1           1           1           1
 AtmWgt=   1.0078250   1.0078250   1.0078250   1.0078250   1.0078250   1.0078250   1.0078250   1.0078250   1.0078250   1.0078250
 NucSpn=           1           1           1           1           1           1           1           1           1           1
 AtZEff=  -0.0000000  -0.0000000  -0.0000000  -0.0000000  -0.0000000  -0.0000000  -0.0000000  -0.0000000  -0.0000000  -0.0000000
 NQMom=    0.0000000   0.0000000   0.0000000   0.0000000   0.0000000   0.0000000   0.0000000   0.0000000   0.0000000   0.0000000
 NMagM=    2.7928460   2.7928460   2.7928460   2.7928460   2.7928460   2.7928460   2.7928460   2.7928460   2.7928460   2.7928460
 AtZNuc=   1.0000000   1.0000000   1.0000000   1.0000000   1.0000000   1.0000000   1.0000000   1.0000000   1.0000000   1.0000000
 Leave Link  101 at Thu Jul 23 10:00:15 2020, MaxMem=  4026531840 cpu:               2.0 elap:               0.5
 (Enter /opt/ohpc/pub/libs/gaussian/g16-A.03/sandybridge/g16/l103.exe)

 GradGradGradGradGradGradGradGradGradGradGradGradGradGradGradGradGradGrad
 Berny optimization.
 Initialization pass.
                           ----------------------------
                           !    Initial Parameters    !
                           ! (Angstroms and Degrees)  !
 --------------------------                            --------------------------
 ! Name  Definition              Value          Derivative Info.                !
 --------------------------------------------------------------------------------
 ! R1    R(1,2)                  1.4107         estimate D2E/DX2                !
 ! R2    R(1,8)                  1.3345         estimate D2E/DX2                !
 ! R3    R(1,49)                 1.0663         estimate D2E/DX2                !
 ! R4    R(2,3)                  1.3675         estimate D2E/DX2                !
 ! R5    R(2,50)                 1.1329         estimate D2E/DX2                !
 ! R6    R(3,4)                  1.3265         estimate D2E/DX2                !
 ! R7    R(3,6)                  1.3845         estimate D2E/DX2                !
 ! R8    R(4,5)                  1.4086         estimate D2E/DX2                !
 ! R9    R(5,51)                 1.0966         estimate D2E/DX2                !
 ! R10   R(5,52)                 1.1424         estimate D2E/DX2                !
 ! R11   R(5,53)                 1.0257         estimate D2E/DX2                !
 ! R12   R(6,7)                  1.3473         estimate D2E/DX2                !
 ! R13   R(6,9)                  1.5608         estimate D2E/DX2                !
 ! R14   R(7,8)                  1.3284         estimate D2E/DX2                !
 ! R15   R(8,54)                 1.0932         estimate D2E/DX2                !
 ! R16   R(9,10)                 1.3148         estimate D2E/DX2                !
 ! R17   R(9,14)                 1.3514         estimate D2E/DX2                !
 ! R18   R(10,11)                1.4            estimate D2E/DX2                !
 ! R19   R(11,12)                1.4149         estimate D2E/DX2                !
 ! R20   R(11,55)                1.0394         estimate D2E/DX2                !
 ! R21   R(12,13)                1.3868         estimate D2E/DX2                !
 ! R22   R(12,17)                1.4665         estimate D2E/DX2                !
 ! R23   R(13,14)                1.4237         estimate D2E/DX2                !
 ! R24   R(13,56)                1.0867         estimate D2E/DX2                !
 ! R25   R(14,15)                1.4033         estimate D2E/DX2                !
 ! R26   R(15,16)                1.4887         estimate D2E/DX2                !
 ! R27   R(16,57)                1.1184         estimate D2E/DX2                !
 ! R28   R(16,58)                1.0351         estimate D2E/DX2                !
 ! R29   R(16,59)                1.0931         estimate D2E/DX2                !
 ! R30   R(17,18)                1.3624         estimate D2E/DX2                !
 ! R31   R(17,24)                1.327          estimate D2E/DX2                !
 ! R32   R(18,19)                1.4054         estimate D2E/DX2                !
 ! R33   R(18,60)                1.0835         estimate D2E/DX2                !
 ! R34   R(19,20)                1.3956         estimate D2E/DX2                !
 ! R35   R(19,22)                1.4545         estimate D2E/DX2                !
 ! R36   R(20,21)                1.3553         estimate D2E/DX2                !
 ! R37   R(21,61)                1.0916         estimate D2E/DX2                !
 ! R38   R(21,62)                1.112          estimate D2E/DX2                !
 ! R39   R(21,63)                1.1321         estimate D2E/DX2                !
 ! R40   R(22,23)                1.3477         estimate D2E/DX2                !
 ! R41   R(22,25)                1.4718         estimate D2E/DX2                !
 ! R42   R(23,24)                1.381          estimate D2E/DX2                !
 ! R43   R(24,64)                1.0826         estimate D2E/DX2                !
 ! R44   R(25,26)                1.3614         estimate D2E/DX2                !
 ! R45   R(25,30)                1.4764         estimate D2E/DX2                !
 ! R46   R(26,27)                1.363          estimate D2E/DX2                !
 ! R47   R(27,28)                1.3297         estimate D2E/DX2                !
 ! R48   R(27,65)                1.0726         estimate D2E/DX2                !
 ! R49   R(28,29)                1.4415         estimate D2E/DX2                !
 ! R50   R(28,33)                1.4478         estimate D2E/DX2                !
 ! R51   R(29,30)                1.3587         estimate D2E/DX2                !
 ! R52   R(29,66)                1.0979         estimate D2E/DX2                !
 ! R53   R(30,31)                1.3618         estimate D2E/DX2                !
 ! R54   R(31,32)                1.3708         estimate D2E/DX2                !
 ! R55   R(32,67)                1.1479         estimate D2E/DX2                !
 ! R56   R(32,68)                1.0772         estimate D2E/DX2                !
 ! R57   R(32,69)                1.1313         estimate D2E/DX2                !
 ! R58   R(33,34)                1.4069         estimate D2E/DX2                !
 ! R59   R(33,40)                1.3933         estimate D2E/DX2                !
 ! R60   R(34,35)                1.443          estimate D2E/DX2                !
 ! R61   R(34,70)                1.1312         estimate D2E/DX2                !
 ! R62   R(35,36)                1.3856         estimate D2E/DX2                !
 ! R63   R(35,38)                1.3388         estimate D2E/DX2                !
 ! R64   R(36,37)                1.3872         estimate D2E/DX2                !
 ! R65   R(37,71)                1.1028         estimate D2E/DX2                !
 ! R66   R(37,72)                1.128          estimate D2E/DX2                !
 ! R67   R(37,73)                1.1181         estimate D2E/DX2                !
 ! R68   R(38,39)                1.4427         estimate D2E/DX2                !
 ! R69   R(38,41)                1.502          estimate D2E/DX2                !
 ! R70   R(39,40)                1.3488         estimate D2E/DX2                !
 ! R71   R(40,74)                1.0659         estimate D2E/DX2                !
 ! R72   R(41,42)                1.3494         estimate D2E/DX2                !
 ! R73   R(41,46)                1.4118         estimate D2E/DX2                !
 ! R74   R(42,43)                1.3158         estimate D2E/DX2                !
 ! R75   R(43,44)                1.3479         estimate D2E/DX2                !
 ! R76   R(43,75)                1.1742         estimate D2E/DX2                !
 ! R77   R(44,45)                1.3998         estimate D2E/DX2                !
 ! R78   R(44,76)                1.0176         estimate D2E/DX2                !
 ! R79   R(45,46)                1.4039         estimate D2E/DX2                !
 ! R80   R(45,77)                1.0599         estimate D2E/DX2                !
 ! R81   R(46,47)                1.4055         estimate D2E/DX2                !
 ! R82   R(47,48)                1.4104         estimate D2E/DX2                !
 ! R83   R(48,78)                1.0689         estimate D2E/DX2                !
 ! R84   R(48,79)                1.0941         estimate D2E/DX2                !
 ! R85   R(48,80)                1.0574         estimate D2E/DX2                !
 ! A1    A(2,1,8)              115.6922         estimate D2E/DX2                !
 ! A2    A(2,1,49)             120.5568         estimate D2E/DX2                !
 ! A3    A(8,1,49)             123.2981         estimate D2E/DX2                !
 ! A4    A(1,2,3)              122.2555         estimate D2E/DX2                !
 ! A5    A(1,2,50)             118.525          estimate D2E/DX2                !
 ! A6    A(3,2,50)             119.1798         estimate D2E/DX2                !
 ! A7    A(2,3,4)              124.622          estimate D2E/DX2                !
 ! A8    A(2,3,6)              114.7706         estimate D2E/DX2                !
 ! A9    A(4,3,6)              120.4085         estimate D2E/DX2                !
 ! A10   A(3,4,5)              120.5022         estimate D2E/DX2                !
 ! A11   A(4,5,51)             111.3158         estimate D2E/DX2                !
 ! A12   A(4,5,52)             106.2616         estimate D2E/DX2                !
 ! A13   A(4,5,53)             110.3804         estimate D2E/DX2                !
 ! A14   A(51,5,52)            104.8615         estimate D2E/DX2                !
 ! A15   A(51,5,53)            109.3055         estimate D2E/DX2                !
 ! A16   A(52,5,53)            114.5973         estimate D2E/DX2                !
 ! A17   A(3,6,7)              125.1548         estimate D2E/DX2                !
 ! A18   A(3,6,9)              122.1564         estimate D2E/DX2                !
 ! A19   A(7,6,9)              112.4577         estimate D2E/DX2                !
 ! A20   A(6,7,8)              115.4707         estimate D2E/DX2                !
 ! A21   A(1,8,7)              126.2756         estimate D2E/DX2                !
 ! A22   A(1,8,54)             118.482          estimate D2E/DX2                !
 ! A23   A(7,8,54)             115.1987         estimate D2E/DX2                !
 ! A24   A(6,9,10)             114.1896         estimate D2E/DX2                !
 ! A25   A(6,9,14)             122.1454         estimate D2E/DX2                !
 ! A26   A(10,9,14)            123.1381         estimate D2E/DX2                !
 ! A27   A(9,10,11)            118.8173         estimate D2E/DX2                !
 ! A28   A(10,11,12)           121.913          estimate D2E/DX2                !
 ! A29   A(10,11,55)           115.23           estimate D2E/DX2                !
 ! A30   A(12,11,55)           122.8427         estimate D2E/DX2                !
 ! A31   A(11,12,13)           116.264          estimate D2E/DX2                !
 ! A32   A(11,12,17)           121.1183         estimate D2E/DX2                !
 ! A33   A(13,12,17)           122.4894         estimate D2E/DX2                !
 ! A34   A(12,13,14)           120.1392         estimate D2E/DX2                !
 ! A35   A(12,13,56)           117.6329         estimate D2E/DX2                !
 ! A36   A(14,13,56)           121.6943         estimate D2E/DX2                !
 ! A37   A(9,14,13)            118.8906         estimate D2E/DX2                !
 ! A38   A(9,14,15)            117.6261         estimate D2E/DX2                !
 ! A39   A(13,14,15)           121.9549         estimate D2E/DX2                !
 ! A40   A(14,15,16)           110.2953         estimate D2E/DX2                !
 ! A41   A(15,16,57)           107.9694         estimate D2E/DX2                !
 ! A42   A(15,16,58)           115.5106         estimate D2E/DX2                !
 ! A43   A(15,16,59)           109.1714         estimate D2E/DX2                !
 ! A44   A(57,16,58)           106.0541         estimate D2E/DX2                !
 ! A45   A(57,16,59)           105.1651         estimate D2E/DX2                !
 ! A46   A(58,16,59)           112.3201         estimate D2E/DX2                !
 ! A47   A(12,17,18)           121.1954         estimate D2E/DX2                !
 ! A48   A(12,17,24)           119.0136         estimate D2E/DX2                !
 ! A49   A(18,17,24)           119.7205         estimate D2E/DX2                !
 ! A50   A(17,18,19)           121.2217         estimate D2E/DX2                !
 ! A51   A(17,18,60)           120.4249         estimate D2E/DX2                !
 ! A52   A(19,18,60)           117.6778         estimate D2E/DX2                !
 ! A53   A(18,19,20)           125.3163         estimate D2E/DX2                !
 ! A54   A(18,19,22)           114.7756         estimate D2E/DX2                !
 ! A55   A(20,19,22)           119.3351         estimate D2E/DX2                !
 ! A56   A(19,20,21)           117.0872         estimate D2E/DX2                !
 ! A57   A(20,21,61)           114.6626         estimate D2E/DX2                !
 ! A58   A(20,21,62)           111.5909         estimate D2E/DX2                !
 ! A59   A(20,21,63)           105.9279         estimate D2E/DX2                !
 ! A60   A(61,21,62)           110.7402         estimate D2E/DX2                !
 ! A61   A(61,21,63)           109.5353         estimate D2E/DX2                !
 ! A62   A(62,21,63)           103.6707         estimate D2E/DX2                !
 ! A63   A(19,22,23)           123.0178         estimate D2E/DX2                !
 ! A64   A(19,22,25)           119.385          estimate D2E/DX2                !
 ! A65   A(23,22,25)           117.2319         estimate D2E/DX2                !
 ! A66   A(22,23,24)           116.1697         estimate D2E/DX2                !
 ! A67   A(17,24,23)           124.3317         estimate D2E/DX2                !
 ! A68   A(17,24,64)           123.3437         estimate D2E/DX2                !
 ! A69   A(23,24,64)           111.5745         estimate D2E/DX2                !
 ! A70   A(22,25,26)           117.4791         estimate D2E/DX2                !
 ! A71   A(22,25,30)           119.7952         estimate D2E/DX2                !
 ! A72   A(26,25,30)           122.6591         estimate D2E/DX2                !
 ! A73   A(25,26,27)           114.4824         estimate D2E/DX2                !
 ! A74   A(26,27,28)           127.2952         estimate D2E/DX2                !
 ! A75   A(26,27,65)           112.2183         estimate D2E/DX2                !
 ! A76   A(28,27,65)           120.3529         estimate D2E/DX2                !
 ! A77   A(27,28,29)           118.7578         estimate D2E/DX2                !
 ! A78   A(27,28,33)           122.9628         estimate D2E/DX2                !
 ! A79   A(29,28,33)           118.2645         estimate D2E/DX2                !
 ! A80   A(28,29,30)           118.2006         estimate D2E/DX2                !
 ! A81   A(28,29,66)           121.9368         estimate D2E/DX2                !
 ! A82   A(30,29,66)           119.701          estimate D2E/DX2                !
 ! A83   A(25,30,29)           118.3174         estimate D2E/DX2                !
 ! A84   A(25,30,31)           117.1391         estimate D2E/DX2                !
 ! A85   A(29,30,31)           124.5334         estimate D2E/DX2                !
 ! A86   A(30,31,32)           120.9189         estimate D2E/DX2                !
 ! A87   A(31,32,67)           110.618          estimate D2E/DX2                !
 ! A88   A(31,32,68)           113.0654         estimate D2E/DX2                !
 ! A89   A(31,32,69)           112.3187         estimate D2E/DX2                !
 ! A90   A(67,32,68)           108.0654         estimate D2E/DX2                !
 ! A91   A(67,32,69)           104.8661         estimate D2E/DX2                !
 ! A92   A(68,32,69)           107.4817         estimate D2E/DX2                !
 ! A93   A(28,33,34)           121.2468         estimate D2E/DX2                !
 ! A94   A(28,33,40)           124.7643         estimate D2E/DX2                !
 ! A95   A(34,33,40)           113.8818         estimate D2E/DX2                !
 ! A96   A(33,34,35)           123.8066         estimate D2E/DX2                !
 ! A97   A(33,34,70)           120.6427         estimate D2E/DX2                !
 ! A98   A(35,34,70)           115.4105         estimate D2E/DX2                !
 ! A99   A(34,35,36)           125.8846         estimate D2E/DX2                !
 ! A100  A(34,35,38)           115.4528         estimate D2E/DX2                !
 ! A101  A(36,35,38)           118.3742         estimate D2E/DX2                !
 ! A102  A(35,36,37)           116.5136         estimate D2E/DX2                !
 ! A103  A(36,37,71)           111.0825         estimate D2E/DX2                !
 ! A104  A(36,37,72)           112.7493         estimate D2E/DX2                !
 ! A105  A(36,37,73)           109.2366         estimate D2E/DX2                !
 ! A106  A(71,37,72)           107.8218         estimate D2E/DX2                !
 ! A107  A(71,37,73)           110.8205         estimate D2E/DX2                !
 ! A108  A(72,37,73)           104.9732         estimate D2E/DX2                !
 ! A109  A(35,38,39)           124.5734         estimate D2E/DX2                !
 ! A110  A(35,38,41)           122.0637         estimate D2E/DX2                !
 ! A111  A(39,38,41)           113.3469         estimate D2E/DX2                !
 ! A112  A(38,39,40)           114.9335         estimate D2E/DX2                !
 ! A113  A(33,40,39)           126.7378         estimate D2E/DX2                !
 ! A114  A(33,40,74)           117.5952         estimate D2E/DX2                !
 ! A115  A(39,40,74)           115.2276         estimate D2E/DX2                !
 ! A116  A(38,41,42)           116.0913         estimate D2E/DX2                !
 ! A117  A(38,41,46)           121.8632         estimate D2E/DX2                !
 ! A118  A(42,41,46)           121.9381         estimate D2E/DX2                !
 ! A119  A(41,42,43)           115.9482         estimate D2E/DX2                !
 ! A120  A(42,43,44)           128.181          estimate D2E/DX2                !
 ! A121  A(42,43,75)           115.1404         estimate D2E/DX2                !
 ! A122  A(44,43,75)           116.3305         estimate D2E/DX2                !
 ! A123  A(43,44,45)           116.0548         estimate D2E/DX2                !
 ! A124  A(43,44,76)           127.7709         estimate D2E/DX2                !
 ! A125  A(45,44,76)           116.1532         estimate D2E/DX2                !
 ! A126  A(44,45,46)           119.1932         estimate D2E/DX2                !
 ! A127  A(44,45,77)           121.6828         estimate D2E/DX2                !
 ! A128  A(46,45,77)           119.0424         estimate D2E/DX2                !
 ! A129  A(41,46,45)           118.0431         estimate D2E/DX2                !
 ! A130  A(41,46,47)           118.5086         estimate D2E/DX2                !
 ! A131  A(45,46,47)           123.1388         estimate D2E/DX2                !
 ! A132  A(46,47,48)           113.7535         estimate D2E/DX2                !
 ! A133  A(47,48,78)           110.0728         estimate D2E/DX2                !
 ! A134  A(47,48,79)           103.5531         estimate D2E/DX2                !
 ! A135  A(47,48,80)           107.9441         estimate D2E/DX2                !
 ! A136  A(78,48,79)           108.9516         estimate D2E/DX2                !
 ! A137  A(78,48,80)           116.1117         estimate D2E/DX2                !
 ! A138  A(79,48,80)           109.4676         estimate D2E/DX2                !
 ! D1    D(8,1,2,3)              2.6951         estimate D2E/DX2                !
 ! D2    D(8,1,2,50)          -174.9945         estimate D2E/DX2                !
 ! D3    D(49,1,2,3)           175.2234         estimate D2E/DX2                !
 ! D4    D(49,1,2,50)           -2.4662         estimate D2E/DX2                !
 ! D5    D(2,1,8,7)             -2.9548         estimate D2E/DX2                !
 ! D6    D(2,1,8,54)           179.5727         estimate D2E/DX2                !
 ! D7    D(49,1,8,7)          -175.2556         estimate D2E/DX2                !
 ! D8    D(49,1,8,54)            7.2718         estimate D2E/DX2                !
 ! D9    D(1,2,3,4)           -179.179          estimate D2E/DX2                !
 ! D10   D(1,2,3,6)             -4.3066         estimate D2E/DX2                !
 ! D11   D(50,2,3,4)            -1.504          estimate D2E/DX2                !
 ! D12   D(50,2,3,6)           173.3683         estimate D2E/DX2                !
 ! D13   D(2,3,4,5)            -14.9117         estimate D2E/DX2                !
 ! D14   D(6,3,4,5)            170.4876         estimate D2E/DX2                !
 ! D15   D(2,3,6,7)              6.5459         estimate D2E/DX2                !
 ! D16   D(2,3,6,9)           -179.4008         estimate D2E/DX2                !
 ! D17   D(4,3,6,7)           -178.3462         estimate D2E/DX2                !
 ! D18   D(4,3,6,9)             -4.2929         estimate D2E/DX2                !
 ! D19   D(3,4,5,51)          -169.9986         estimate D2E/DX2                !
 ! D20   D(3,4,5,52)           -56.3823         estimate D2E/DX2                !
 ! D21   D(3,4,5,53)            68.4311         estimate D2E/DX2                !
 ! D22   D(3,6,7,8)             -6.6957         estimate D2E/DX2                !
 ! D23   D(9,6,7,8)            178.7502         estimate D2E/DX2                !
 ! D24   D(3,6,9,10)          -107.1121         estimate D2E/DX2                !
 ! D25   D(3,6,9,14)            64.8029         estimate D2E/DX2                !
 ! D26   D(7,6,9,10)            67.629          estimate D2E/DX2                !
 ! D27   D(7,6,9,14)          -120.456          estimate D2E/DX2                !
 ! D28   D(6,7,8,1)              4.8            estimate D2E/DX2                !
 ! D29   D(6,7,8,54)          -177.6551         estimate D2E/DX2                !
 ! D30   D(6,9,10,11)          176.1925         estimate D2E/DX2                !
 ! D31   D(14,9,10,11)           4.3684         estimate D2E/DX2                !
 ! D32   D(6,9,14,13)          178.8486         estimate D2E/DX2                !
 ! D33   D(6,9,14,15)           12.6645         estimate D2E/DX2                !
 ! D34   D(10,9,14,13)          -9.9646         estimate D2E/DX2                !
 ! D35   D(10,9,14,15)        -176.1487         estimate D2E/DX2                !
 ! D36   D(9,10,11,12)           0.3872         estimate D2E/DX2                !
 ! D37   D(9,10,11,55)         179.0529         estimate D2E/DX2                !
 ! D38   D(10,11,12,13)          0.8204         estimate D2E/DX2                !
 ! D39   D(10,11,12,17)        176.8017         estimate D2E/DX2                !
 ! D40   D(55,11,12,13)       -177.743          estimate D2E/DX2                !
 ! D41   D(55,11,12,17)         -1.7617         estimate D2E/DX2                !
 ! D42   D(11,12,13,14)         -6.3782         estimate D2E/DX2                !
 ! D43   D(11,12,13,56)       -178.1425         estimate D2E/DX2                !
 ! D44   D(17,12,13,14)        177.7007         estimate D2E/DX2                !
 ! D45   D(17,12,13,56)          5.9364         estimate D2E/DX2                !
 ! D46   D(11,12,17,18)        -60.1435         estimate D2E/DX2                !
 ! D47   D(11,12,17,24)        116.7933         estimate D2E/DX2                !
 ! D48   D(13,12,17,18)        115.5835         estimate D2E/DX2                !
 ! D49   D(13,12,17,24)        -67.4797         estimate D2E/DX2                !
 ! D50   D(12,13,14,9)          10.936          estimate D2E/DX2                !
 ! D51   D(12,13,14,15)        176.496          estimate D2E/DX2                !
 ! D52   D(56,13,14,9)        -177.6417         estimate D2E/DX2                !
 ! D53   D(56,13,14,15)        -12.0817         estimate D2E/DX2                !
 ! D54   D(9,14,15,16)        -145.9787         estimate D2E/DX2                !
 ! D55   D(13,14,15,16)         48.2874         estimate D2E/DX2                !
 ! D56   D(14,15,16,57)        159.9426         estimate D2E/DX2                !
 ! D57   D(14,15,16,58)         41.4592         estimate D2E/DX2                !
 ! D58   D(14,15,16,59)        -86.2336         estimate D2E/DX2                !
 ! D59   D(12,17,18,19)        174.5956         estimate D2E/DX2                !
 ! D60   D(12,17,18,60)          4.2347         estimate D2E/DX2                !
 ! D61   D(24,17,18,19)         -2.3198         estimate D2E/DX2                !
 ! D62   D(24,17,18,60)       -172.6807         estimate D2E/DX2                !
 ! D63   D(12,17,24,23)        176.9062         estimate D2E/DX2                !
 ! D64   D(12,17,24,64)          7.6721         estimate D2E/DX2                !
 ! D65   D(18,17,24,23)         -6.111          estimate D2E/DX2                !
 ! D66   D(18,17,24,64)       -175.3451         estimate D2E/DX2                !
 ! D67   D(17,18,19,20)        178.9552         estimate D2E/DX2                !
 ! D68   D(17,18,19,22)          7.7412         estimate D2E/DX2                !
 ! D69   D(60,18,19,20)        -10.4282         estimate D2E/DX2                !
 ! D70   D(60,18,19,22)        178.3578         estimate D2E/DX2                !
 ! D71   D(18,19,20,21)         -1.2825         estimate D2E/DX2                !
 ! D72   D(22,19,20,21)        169.5637         estimate D2E/DX2                !
 ! D73   D(18,19,22,23)         -5.7964         estimate D2E/DX2                !
 ! D74   D(18,19,22,25)       -178.6599         estimate D2E/DX2                !
 ! D75   D(20,19,22,23)       -177.5767         estimate D2E/DX2                !
 ! D76   D(20,19,22,25)          9.5598         estimate D2E/DX2                !
 ! D77   D(19,20,21,61)        -60.8543         estimate D2E/DX2                !
 ! D78   D(19,20,21,62)         66.0723         estimate D2E/DX2                !
 ! D79   D(19,20,21,63)        178.2365         estimate D2E/DX2                !
 ! D80   D(19,22,23,24)         -1.5338         estimate D2E/DX2                !
 ! D81   D(25,22,23,24)        171.4735         estimate D2E/DX2                !
 ! D82   D(19,22,25,26)        100.1331         estimate D2E/DX2                !
 ! D83   D(19,22,25,30)        -82.754          estimate D2E/DX2                !
 ! D84   D(23,22,25,26)        -73.139          estimate D2E/DX2                !
 ! D85   D(23,22,25,30)        103.9739         estimate D2E/DX2                !
 ! D86   D(22,23,24,17)          7.8875         estimate D2E/DX2                !
 ! D87   D(22,23,24,64)        178.2273         estimate D2E/DX2                !
 ! D88   D(22,25,26,27)       -178.6412         estimate D2E/DX2                !
 ! D89   D(30,25,26,27)          4.3348         estimate D2E/DX2                !
 ! D90   D(22,25,30,29)        179.6025         estimate D2E/DX2                !
 ! D91   D(22,25,30,31)          0.7045         estimate D2E/DX2                !
 ! D92   D(26,25,30,29)         -3.44           estimate D2E/DX2                !
 ! D93   D(26,25,30,31)        177.662          estimate D2E/DX2                !
 ! D94   D(25,26,27,28)         -5.5795         estimate D2E/DX2                !
 ! D95   D(25,26,27,65)        178.6564         estimate D2E/DX2                !
 ! D96   D(26,27,28,29)          5.4066         estimate D2E/DX2                !
 ! D97   D(26,27,28,33)       -176.0193         estimate D2E/DX2                !
 ! D98   D(65,27,28,29)       -179.1382         estimate D2E/DX2                !
 ! D99   D(65,27,28,33)         -0.5642         estimate D2E/DX2                !
 ! D100  D(27,28,29,30)         -3.7937         estimate D2E/DX2                !
 ! D101  D(27,28,29,66)       -179.1564         estimate D2E/DX2                !
 ! D102  D(33,28,29,30)        177.5647         estimate D2E/DX2                !
 ! D103  D(33,28,29,66)          2.2019         estimate D2E/DX2                !
 ! D104  D(27,28,33,34)       -114.7774         estimate D2E/DX2                !
 ! D105  D(27,28,33,40)         61.223          estimate D2E/DX2                !
 ! D106  D(29,28,33,34)         63.8033         estimate D2E/DX2                !
 ! D107  D(29,28,33,40)       -120.1963         estimate D2E/DX2                !
 ! D108  D(28,29,30,25)          2.9046         estimate D2E/DX2                !
 ! D109  D(28,29,30,31)       -178.2859         estimate D2E/DX2                !
 ! D110  D(66,29,30,25)        178.3742         estimate D2E/DX2                !
 ! D111  D(66,29,30,31)         -2.8163         estimate D2E/DX2                !
 ! D112  D(25,30,31,32)       -173.3971         estimate D2E/DX2                !
 ! D113  D(29,30,31,32)          7.7806         estimate D2E/DX2                !
 ! D114  D(30,31,32,67)        -59.6256         estimate D2E/DX2                !
 ! D115  D(30,31,32,68)        179.0206         estimate D2E/DX2                !
 ! D116  D(30,31,32,69)         57.1672         estimate D2E/DX2                !
 ! D117  D(28,33,34,35)        175.2159         estimate D2E/DX2                !
 ! D118  D(28,33,34,70)         -0.2787         estimate D2E/DX2                !
 ! D119  D(40,33,34,35)         -1.1914         estimate D2E/DX2                !
 ! D120  D(40,33,34,70)       -176.6859         estimate D2E/DX2                !
 ! D121  D(28,33,40,39)        177.2857         estimate D2E/DX2                !
 ! D122  D(28,33,40,74)          5.2936         estimate D2E/DX2                !
 ! D123  D(34,33,40,39)         -6.4535         estimate D2E/DX2                !
 ! D124  D(34,33,40,74)       -178.4456         estimate D2E/DX2                !
 ! D125  D(33,34,35,36)        178.8455         estimate D2E/DX2                !
 ! D126  D(33,34,35,38)          5.1487         estimate D2E/DX2                !
 ! D127  D(70,34,35,36)         -5.4456         estimate D2E/DX2                !
 ! D128  D(70,34,35,38)       -179.1424         estimate D2E/DX2                !
 ! D129  D(34,35,36,37)          6.7858         estimate D2E/DX2                !
 ! D130  D(38,35,36,37)       -179.6834         estimate D2E/DX2                !
 ! D131  D(34,35,38,39)         -2.3378         estimate D2E/DX2                !
 ! D132  D(34,35,38,41)        179.2198         estimate D2E/DX2                !
 ! D133  D(36,35,38,39)       -176.5354         estimate D2E/DX2                !
 ! D134  D(36,35,38,41)          5.0222         estimate D2E/DX2                !
 ! D135  D(35,36,37,71)        -65.427          estimate D2E/DX2                !
 ! D136  D(35,36,37,72)         55.7268         estimate D2E/DX2                !
 ! D137  D(35,36,37,73)        172.0257         estimate D2E/DX2                !
 ! D138  D(35,38,39,40)         -4.1477         estimate D2E/DX2                !
 ! D139  D(41,38,39,40)        174.4146         estimate D2E/DX2                !
 ! D140  D(35,38,41,42)        109.6753         estimate D2E/DX2                !
 ! D141  D(35,38,41,46)        -74.0247         estimate D2E/DX2                !
 ! D142  D(39,38,41,42)        -68.9278         estimate D2E/DX2                !
 ! D143  D(39,38,41,46)        107.3722         estimate D2E/DX2                !
 ! D144  D(38,39,40,33)          9.0057         estimate D2E/DX2                !
 ! D145  D(38,39,40,74)       -178.8384         estimate D2E/DX2                !
 ! D146  D(38,41,42,43)       -176.1368         estimate D2E/DX2                !
 ! D147  D(46,41,42,43)          7.5663         estimate D2E/DX2                !
 ! D148  D(38,41,46,45)       -178.0498         estimate D2E/DX2                !
 ! D149  D(38,41,46,47)         -4.2356         estimate D2E/DX2                !
 ! D150  D(42,41,46,45)         -1.9659         estimate D2E/DX2                !
 ! D151  D(42,41,46,47)        171.8483         estimate D2E/DX2                !
 ! D152  D(41,42,43,44)        -10.0913         estimate D2E/DX2                !
 ! D153  D(41,42,43,75)        176.9959         estimate D2E/DX2                !
 ! D154  D(42,43,44,45)          6.0338         estimate D2E/DX2                !
 ! D155  D(42,43,44,76)       -175.7162         estimate D2E/DX2                !
 ! D156  D(75,43,44,45)        178.8749         estimate D2E/DX2                !
 ! D157  D(75,43,44,76)         -2.8751         estimate D2E/DX2                !
 ! D158  D(43,44,45,46)          0.5913         estimate D2E/DX2                !
 ! D159  D(43,44,45,77)        177.2737         estimate D2E/DX2                !
 ! D160  D(76,44,45,46)       -177.8676         estimate D2E/DX2                !
 ! D161  D(76,44,45,77)         -1.1852         estimate D2E/DX2                !
 ! D162  D(44,45,46,41)         -2.2353         estimate D2E/DX2                !
 ! D163  D(44,45,46,47)       -175.7424         estimate D2E/DX2                !
 ! D164  D(77,45,46,41)       -179.0062         estimate D2E/DX2                !
 ! D165  D(77,45,46,47)          7.4867         estimate D2E/DX2                !
 ! D166  D(41,46,47,48)        148.8433         estimate D2E/DX2                !
 ! D167  D(45,46,47,48)        -37.6781         estimate D2E/DX2                !
 ! D168  D(46,47,48,78)        -45.8531         estimate D2E/DX2                !
 ! D169  D(46,47,48,79)       -162.1973         estimate D2E/DX2                !
 ! D170  D(46,47,48,80)         81.8            estimate D2E/DX2                !
 --------------------------------------------------------------------------------
 Trust Radius=3.00D-01 FncErr=1.00D-07 GrdErr=1.00D-06 EigMax=2.50D+02 EigMin=1.00D-04
 Number of steps in this run=    403 maximum allowed number of steps=    480.
 GradGradGradGradGradGradGradGradGradGradGradGradGradGradGradGradGradGrad

 Leave Link  103 at Thu Jul 23 10:00:15 2020, MaxMem=  4026531840 cpu:               0.2 elap:               0.1
 (Enter /opt/ohpc/pub/libs/gaussian/g16-A.03/sandybridge/g16/l202.exe)
 Stoichiometry    C36H32N6O6
 Framework group  C1[X(C36H32N6O6)]
 Deg. of freedom   234
 Full point group                 C1      NOp   1
 Largest Abelian subgroup         C1      NOp   1
 Largest concise Abelian subgroup C1      NOp   1
                         Standard orientation:                         
 ---------------------------------------------------------------------
 Center     Atomic      Atomic             Coordinates (Angstroms)
 Number     Number       Type             X           Y           Z
 ---------------------------------------------------------------------
      1          6           0       11.932170    0.346556   -0.948109
      2          6           0       11.349287   -0.874588   -0.549256
      3          6           0       10.001998   -1.012907   -0.360424
      4          8           0        9.406523   -2.132589    0.028439
      5          6           0       10.093213   -3.361548   -0.019779
      6          6           0        9.273661    0.156302   -0.499650
      7          7           0        9.772671    1.336039   -0.917301
      8          6           0       11.091045    1.374756   -1.075650
      9          6           0        7.725325    0.198358   -0.307457
     10          7           0        7.047224    0.336141   -1.425420
     11          6           0        5.648488    0.304405   -1.374565
     12          6           0        4.947904    0.136860   -0.156724
     13          6           0        5.723856    0.023368    0.987003
     14          6           0        7.141398   -0.058719    0.883852
     15          8           0        7.967309   -0.101710    2.017552
     16          6           0        7.462052   -1.112716    2.986457
     17          6           0        3.482572    0.175553   -0.113825
     18          6           0        2.793947    1.281923   -0.511113
     19          6           0        1.390083    1.281553   -0.576973
     20          8           0        0.599663    2.369251   -0.950999
     21          6           0        1.241655    3.524641   -1.250374
     22          6           0        0.754419    0.094174   -0.027706
     23          7           0        1.448431   -0.978605    0.401118
     24          6           0        2.820784   -0.911262    0.262712
     25          6           0       -0.711779   -0.025805   -0.071555
     26          7           0       -1.249766   -0.797442   -1.055701
     27          6           0       -2.612069   -0.842485   -1.057071
     28          6           0       -3.436663   -0.310891   -0.159590
     29          6           0       -2.883690    0.502793    0.893998
     30          6           0       -1.532612    0.626108    0.968126
     31          8           0       -0.873393    1.332963    1.927487
     32          6           0       -1.543901    1.856102    3.002648
     33          6           0       -4.872940   -0.486878   -0.207881
     34          6           0       -5.734618    0.602775   -0.430132
     35          6           0       -7.163490    0.477306   -0.587637
     36          8           0       -8.053494    1.520659   -0.785312
     37          6           0       -7.500479    2.777893   -0.979924
     38          6           0       -7.656881   -0.753371   -0.402450
     39          7           0       -6.859120   -1.920478   -0.114710
     40          6           0       -5.526098   -1.714786   -0.125204
     41          6           0       -9.125384   -1.048621   -0.512950
     42          7           0       -9.505498   -1.776270   -1.583911
     43          6           0      -10.800278   -1.966351   -1.720632
     44          6           0      -11.780770   -1.689697   -0.838124
     45          6           0      -11.390197   -1.010759    0.322010
     46          6           0      -10.041658   -0.656941    0.487181
     47          8           0       -9.543188   -0.052876    1.654259
     48          6           0      -10.426703    0.882724    2.231528
     49          1           0       12.991812    0.445416   -1.014191
     50          1           0       12.029392   -1.756725   -0.342755
     51          1           0        9.415810   -4.204157    0.163787
     52          1           0       10.438169   -3.493058   -1.100914
     53          1           0       10.848467   -3.376208    0.674140
     54          1           0       11.495476    2.345006   -1.375901
     55          1           0        5.168918    0.433928   -2.287534
     56          1           0        5.209833   -0.137055    1.930955
     57          1           0        8.303118   -1.384367    3.671721
     58          1           0        7.132234   -2.001812    2.571656
     59          1           0        6.708356   -0.649354    3.628488
     60          1           0        3.317295    2.132229   -0.931870
     61          1           0        1.827021    3.945982   -0.430983
     62          1           0        1.863655    3.421656   -2.166393
     63          1           0        0.435117    4.258111   -1.555679
     64          1           0        3.304566   -1.795651    0.657434
     65          1           0       -2.997295   -1.440719   -1.859689
     66          1           0       -3.514675    0.955747    1.669967
     67          1           0       -2.356700    2.588353    2.654872
     68          1           0       -0.898160    2.375902    3.690526
     69          1           0       -2.098700    1.064117    3.589764
     70          1           0       -5.320402    1.645784   -0.571860
     71          1           0       -6.974818    3.124510   -0.074565
     72          1           0       -6.766856    2.803909   -1.836339
     73          1           0       -8.308159    3.494802   -1.269534
     74          1           0       -4.931647   -2.578244    0.067735
     75          1           0      -11.119042   -2.553821   -2.686100
     76          1           0      -12.773869   -1.893678   -0.925596
     77          1           0      -12.094311   -0.711053    1.055323
     78          1           0      -10.825146    1.525541    1.476179
     79          1           0       -9.782535    1.469072    2.893542
     80          1           0      -11.133760    0.349596    2.809336
 ---------------------------------------------------------------------
 Rotational constants (GHZ):           0.2321923           0.0144013           0.0142494
 Leave Link  202 at Thu Jul 23 10:00:15 2020, MaxMem=  4026531840 cpu:               0.2 elap:               0.0
 (Enter /opt/ohpc/pub/libs/gaussian/g16-A.03/sandybridge/g16/l301.exe)
 Standard basis: CC-pVDZ (5D, 7F)
 Ernie: Thresh=  0.10000D-02 Tol=  0.10000D-05 Strict=F.
 Ernie:  96 primitive shells out of 1216 were deleted.
 There are   880 symmetry adapted cartesian basis functions of A   symmetry.
 There are   832 symmetry adapted basis functions of A   symmetry.
   832 basis functions,  1808 primitive gaussians,   880 cartesian basis functions
   169 alpha electrons      169 beta electrons
       nuclear repulsion energy      5254.7216567267 Hartrees.
 IExCor=32609 DFT=T Ex+Corr=LC-wPBE ExCW=0 ScaHFX=  1.000000
 ScaDFX=  1.000000  0.000000  1.000000  1.000000 ScalE2=  1.000000  1.000000
 IRadAn=      5 IRanWt=     -1 IRanGd=            0 ICorTp=0 IEmpDi=  4
 HFx  wShort=  0.000000 wLong=  0.443900 cFull=  0.000000 cShort=  0.000000 cLong=  1.000000
 DFx  wShort=  0.000000 wLong=  0.443900 cFull=  0.000000 cShort=  0.000000 cLong=  1.000000
 NAtoms=   80 NActive=   80 NUniq=   80 SFac= 1.00D+00 NAtFMM=   60 NAOKFM=T Big=T
 Integral buffers will be    131072 words long.
 Raffenetti 2 integral format.
 Two-electron integral symmetry is turned on.
 Leave Link  301 at Thu Jul 23 10:00:16 2020, MaxMem=  4026531840 cpu:               0.7 elap:               0.1
 (Enter /opt/ohpc/pub/libs/gaussian/g16-A.03/sandybridge/g16/l302.exe)
 NPDir=0 NMtPBC=     1 NCelOv=     1 NCel=       1 NClECP=     1 NCelD=      1
         NCelK=      1 NCelE2=     1 NClLst=     1 CellRange=     0.0.
 One-electron integrals computed using PRISM.
 One-electron integral symmetry used in STVInt
 NBasis=   832 RedAO= T EigKep=  4.72D-04  NBF=   832
 NBsUse=   832 1.00D-06 EigRej= -1.00D+00 NBFU=   832
 Precomputing XC quadrature grid using
 IXCGrd= 4 IRadAn=           5 IRanWt=          -1 IRanGd=           0 AccXCQ= 0.00D+00.
 Generated NRdTot=       0 NPtTot=           0 NUsed=           0 NTot=          32
 NSgBfM=   726   723   723   726   726 MxSgAt=    80 MxSgA2=    80.
 Leave Link  302 at Thu Jul 23 10:00:20 2020, MaxMem=  4026531840 cpu:              31.8 elap:               4.5
 (Enter /opt/ohpc/pub/libs/gaussian/g16-A.03/sandybridge/g16/l303.exe)
 DipDrv:  MaxL=1.
 Leave Link  303 at Thu Jul 23 10:00:21 2020, MaxMem=  4026531840 cpu:               1.0 elap:               0.2
 (Enter /opt/ohpc/pub/libs/gaussian/g16-A.03/sandybridge/g16/l401.exe)
 ExpMin= 1.22D-01 ExpMax= 1.17D+04 ExpMxC= 4.01D+02 IAcc=3 IRadAn=         5 AccDes= 0.00D+00
 Harris functional with IExCor=32609 and IRadAn=       5 diagonalized for initial guess.
 HarFok:  IExCor=32609 AccDes= 0.00D+00 IRadAn=         5 IDoV= 1 UseB2=F ITyADJ=14
 ICtDFT=  3500011 ScaDFX=  1.000000  1.000000  1.000000  1.000000
 FoFCou: FMM=F IPFlag=           0 FMFlag=      100000 FMFlg1=        2001
         NFxFlg=           0 DoJE=T BraDBF=F KetDBF=T FulRan=T
         wScrn=  0.000000 ICntrl=       500 IOpCl=  0 I1Cent=   200000004 NGrid=           0
         NMat0=    1 NMatS0=      1 NMatT0=    0 NMatD0=    1 NMtDS0=    0 NMtDT0=    0
 Petite list used in FoFCou.
 Harris En= -2168.98384090776    
 JPrj=0 DoOrth=F DoCkMO=F.
 Initial guess <Sx>= 0.0000 <Sy>= 0.0000 <Sz>= 0.0000 <S**2>=-0.0000 S=-0.0000
 Leave Link  401 at Thu Jul 23 10:00:32 2020, MaxMem=  4026531840 cpu:              84.0 elap:              11.1
 (Enter /opt/ohpc/pub/libs/gaussian/g16-A.03/sandybridge/g16/l502.exe)
 Integral symmetry usage will be decided dynamically.
 UHF open shell SCF:
 Using DIIS extrapolation, IDIIS=  1040.
 NGot=  4026531840 LenX=  4024966852 LenY=  4024191572
 Requested convergence on RMS density matrix=1.00D-08 within 128 cycles.
 Requested convergence on MAX density matrix=1.00D-06.
 Requested convergence on             energy=1.00D-06.
 No special actions if energy rises.
 Fock matrices will be formed incrementally for  20 cycles.
 Integral accuracy reduced to 1.0D-05 until final iterations.

 Cycle   1  Pass 0  IDiag  1:
 FoFJK:  IHMeth= 1 ICntrl=       0 DoSepK=T KAlg= 0 I1Cent=           0 FoldK=F
 IRaf=         1 NMat=       1 IRICut=       1 DoRegI=T DoRafI=F ISym2E= 0 IDoP0=0 IntGTp=1.
 FoFCou: FMM=T IPFlag=           0 FMFlag=      100000 FMFlg1=        2001
         NFxFlg=           0 DoJE=T BraDBF=F KetDBF=F FulRan=T
         wScrn=  0.000000 ICntrl=       500 IOpCl=  0 I1Cent=           0 NGrid=           0
         NMat0=    1 NMatS0=      1 NMatT0=    0 NMatD0=    1 NMtDS0=    0 NMtDT0=    0
 Symmetry not used in FoFCou.
 FMM levels:  10  Number of levels for PrismC:   9
 E= -2168.75411441654    
 DIIS: error= 1.61D-02 at cycle   1 NSaved=   1.
 NSaved= 1 IEnMin= 1 EnMin= -2168.75411441654     IErMin= 1 ErrMin= 1.61D-02
 ErrMax= 1.61D-02  0.00D+00 EMaxC= 1.00D-01 BMatC= 2.27D+00 BMatP= 2.27D+00
 IDIUse=3 WtCom= 8.39D-01 WtEn= 1.61D-01
 Coeff-Com:  0.100D+01
 Coeff-En:   0.100D+01
 Coeff:      0.100D+01
 Gap=     0.375 Goal=   None    Shift=    0.000
 Gap=     0.375 Goal=   None    Shift=    0.000
 GapD=    0.375 DampG=1.000 DampE=0.500 DampFc=0.5000 IDamp=-1.
 Damping current iteration by 5.00D-01
 RMSDP=1.66D-03 MaxDP=7.57D-02              OVMax= 1.05D-01

 Cycle   2  Pass 0  IDiag  1:
 RMSU=  8.15D-04    CP:  9.86D-01
 E= -2169.08286209219     Delta-E=       -0.328747675652 Rises=F Damp=T
 DIIS: error= 5.03D-03 at cycle   2 NSaved=   2.
 NSaved= 2 IEnMin= 2 EnMin= -2169.08286209219     IErMin= 2 ErrMin= 5.03D-03
 ErrMax= 5.03D-03  0.00D+00 EMaxC= 1.00D-01 BMatC= 2.54D-01 BMatP= 2.27D+00
 IDIUse=3 WtCom= 9.50D-01 WtEn= 5.03D-02
 Coeff-Com: -0.279D+00 0.128D+01
 Coeff-En:   0.000D+00 0.100D+01
 Coeff:     -0.265D+00 0.127D+01
 Gap=     0.374 Goal=   None    Shift=    0.000
 Gap=     0.374 Goal=   None    Shift=    0.000
 RMSDP=7.48D-04 MaxDP=2.32D-02 DE=-3.29D-01 OVMax= 6.57D-02

 Cycle   3  Pass 0  IDiag  1:
 RMSU=  5.05D-04    CP:  9.73D-01  1.65D+00
 E= -2169.36240452748     Delta-E=       -0.279542435289 Rises=F Damp=F
 DIIS: error= 2.68D-03 at cycle   3 NSaved=   3.
 NSaved= 3 IEnMin= 3 EnMin= -2169.36240452748     IErMin= 3 ErrMin= 2.68D-03
 ErrMax= 2.68D-03  0.00D+00 EMaxC= 1.00D-01 BMatC= 7.58D-02 BMatP= 2.54D-01
 IDIUse=3 WtCom= 9.73D-01 WtEn= 2.68D-02
 Coeff-Com: -0.167D+00 0.535D+00 0.632D+00
 Coeff-En:   0.000D+00 0.000D+00 0.100D+01
 Coeff:     -0.162D+00 0.520D+00 0.642D+00
 Gap=     0.362 Goal=   None    Shift=    0.000
 Gap=     0.362 Goal=   None    Shift=    0.000
 RMSDP=2.05D-04 MaxDP=1.52D-02 DE=-2.80D-01 OVMax= 2.78D-02

 Cycle   4  Pass 0  IDiag  1:
 RMSU=  1.55D-04    CP:  9.73D-01  1.69D+00  7.40D-01
 E= -2169.38022860651     Delta-E=       -0.017824079033 Rises=F Damp=F
 DIIS: error= 1.05D-03 at cycle   4 NSaved=   4.
 NSaved= 4 IEnMin= 4 EnMin= -2169.38022860651     IErMin= 4 ErrMin= 1.05D-03
 ErrMax= 1.05D-03  0.00D+00 EMaxC= 1.00D-01 BMatC= 6.91D-03 BMatP= 7.58D-02
 IDIUse=3 WtCom= 9.89D-01 WtEn= 1.05D-02
 Coeff-Com: -0.188D-01 0.362D-01 0.237D+00 0.745D+00
 Coeff-En:   0.000D+00 0.000D+00 0.000D+00 0.100D+01
 Coeff:     -0.186D-01 0.358D-01 0.235D+00 0.748D+00
 Gap=     0.360 Goal=   None    Shift=    0.000
 Gap=     0.360 Goal=   None    Shift=    0.000
 RMSDP=6.62D-05 MaxDP=4.01D-03 DE=-1.78D-02 OVMax= 6.96D-03

 Cycle   5  Pass 0  IDiag  1:
 RMSU=  3.95D-05    CP:  9.73D-01  1.70D+00  8.36D-01  8.77D-01
 E= -2169.38201881674     Delta-E=       -0.001790210230 Rises=F Damp=F
 DIIS: error= 2.46D-04 at cycle   5 NSaved=   5.
 NSaved= 5 IEnMin= 5 EnMin= -2169.38201881674     IErMin= 5 ErrMin= 2.46D-04
 ErrMax= 2.46D-04  0.00D+00 EMaxC= 1.00D-01 BMatC= 4.59D-04 BMatP= 6.91D-03
 IDIUse=3 WtCom= 9.98D-01 WtEn= 2.46D-03
 Coeff-Com:  0.715D-02-0.273D-01 0.340D-01 0.250D+00 0.736D+00
 Coeff-En:   0.000D+00 0.000D+00 0.000D+00 0.000D+00 0.100D+01
 Coeff:      0.713D-02-0.273D-01 0.339D-01 0.250D+00 0.736D+00
 Gap=     0.361 Goal=   None    Shift=    0.000
 Gap=     0.361 Goal=   None    Shift=    0.000
 RMSDP=1.85D-05 MaxDP=1.10D-03 DE=-1.79D-03 OVMax= 2.05D-03

 Cycle   6  Pass 0  IDiag  1:
 RMSU=  1.55D-05    CP:  9.73D-01  1.71D+00  8.42D-01  9.33D-01  9.83D-01
 E= -2169.38215979603     Delta-E=       -0.000140979284 Rises=F Damp=F
 DIIS: error= 5.64D-05 at cycle   6 NSaved=   6.
 NSaved= 6 IEnMin= 6 EnMin= -2169.38215979603     IErMin= 6 ErrMin= 5.64D-05
 ErrMax= 5.64D-05  0.00D+00 EMaxC= 1.00D-01 BMatC= 7.03D-05 BMatP= 4.59D-04
 IDIUse=1 WtCom= 1.00D+00 WtEn= 0.00D+00
 Coeff-Com:  0.523D-02-0.154D-01-0.166D-01-0.684D-02 0.267D+00 0.767D+00
 Coeff:      0.523D-02-0.154D-01-0.166D-01-0.684D-02 0.267D+00 0.767D+00
 Gap=     0.361 Goal=   None    Shift=    0.000
 Gap=     0.361 Goal=   None    Shift=    0.000
 RMSDP=9.39D-06 MaxDP=4.15D-04 DE=-1.41D-04 OVMax= 1.13D-03

 Initial convergence to 1.0D-05 achieved.  Increase integral accuracy.
 Cycle   7  Pass 1  IDiag  1:
 E= -2169.38152266571     Delta-E=        0.000637130322 Rises=F Damp=F
 DIIS: error= 3.35D-04 at cycle   1 NSaved=   1.
 NSaved= 1 IEnMin= 1 EnMin= -2169.38152266571     IErMin= 1 ErrMin= 3.35D-04
 ErrMax= 3.35D-04  0.00D+00 EMaxC= 1.00D-01 BMatC= 1.67D-04 BMatP= 1.67D-04
 IDIUse=3 WtCom= 9.97D-01 WtEn= 3.35D-03
 Coeff-Com:  0.100D+01
 Coeff-En:   0.100D+01
 Coeff:      0.100D+01
 Gap=     0.361 Goal=   None    Shift=    0.000
 Gap=     0.361 Goal=   None    Shift=    0.000
 RMSDP=9.39D-06 MaxDP=4.15D-04 DE= 6.37D-04 OVMax= 6.39D-04

 Cycle   8  Pass 1  IDiag  1:
 RMSU=  1.20D-04    CP:  1.00D+00
 E= -2169.38155785177     Delta-E=       -0.000035186069 Rises=F Damp=F
 DIIS: error= 2.09D-05 at cycle   2 NSaved=   2.
 NSaved= 2 IEnMin= 2 EnMin= -2169.38155785177     IErMin= 2 ErrMin= 2.09D-05
 ErrMax= 2.09D-05  0.00D+00 EMaxC= 1.00D-01 BMatC= 5.87D-06 BMatP= 1.67D-04
 IDIUse=1 WtCom= 1.00D+00 WtEn= 0.00D+00
 Coeff-Com:  0.164D-01 0.984D+00
 Coeff:      0.164D-01 0.984D+00
 Gap=     0.361 Goal=   None    Shift=    0.000
 Gap=     0.361 Goal=   None    Shift=    0.000
 RMSDP=7.38D-06 MaxDP=3.51D-04 DE=-3.52D-05 OVMax= 4.29D-04

 Cycle   9  Pass 1  IDiag  1:
 RMSU=  3.36D-06    CP:  1.00D+00  1.05D+00
 E= -2169.38155867995     Delta-E=       -0.000000828179 Rises=F Damp=F
 DIIS: error= 2.61D-05 at cycle   3 NSaved=   3.
 NSaved= 3 IEnMin= 3 EnMin= -2169.38155867995     IErMin= 2 ErrMin= 2.09D-05
 ErrMax= 2.61D-05  0.00D+00 EMaxC= 1.00D-01 BMatC= 5.77D-06 BMatP= 5.87D-06
 IDIUse=1 WtCom= 1.00D+00 WtEn= 0.00D+00
 Coeff-Com: -0.239D-01 0.507D+00 0.517D+00
 Coeff:     -0.239D-01 0.507D+00 0.517D+00
 Gap=     0.361 Goal=   None    Shift=    0.000
 Gap=     0.361 Goal=   None    Shift=    0.000
 RMSDP=1.56D-06 MaxDP=1.48D-04 DE=-8.28D-07 OVMax= 2.21D-04

 Cycle  10  Pass 1  IDiag  1:
 RMSU=  1.31D-06    CP:  1.00D+00  1.06D+00  8.65D-01
 E= -2169.38155993185     Delta-E=       -0.000001251901 Rises=F Damp=F
 DIIS: error= 4.36D-06 at cycle   4 NSaved=   4.
 NSaved= 4 IEnMin= 4 EnMin= -2169.38155993185     IErMin= 4 ErrMin= 4.36D-06
 ErrMax= 4.36D-06  0.00D+00 EMaxC= 1.00D-01 BMatC= 1.27D-07 BMatP= 5.77D-06
 IDIUse=1 WtCom= 1.00D+00 WtEn= 0.00D+00
 Coeff-Com:  0.265D-02-0.132D+00-0.576D-01 0.119D+01
 Coeff:      0.265D-02-0.132D+00-0.576D-01 0.119D+01
 Gap=     0.361 Goal=   None    Shift=    0.000
 Gap=     0.361 Goal=   None    Shift=    0.000
 RMSDP=7.42D-07 MaxDP=4.29D-05 DE=-1.25D-06 OVMax= 1.54D-04

 Cycle  11  Pass 1  IDiag  1:
 RMSU=  4.90D-07    CP:  1.00D+00  1.06D+00  9.85D-01  1.25D+00
 E= -2169.38156010887     Delta-E=       -0.000000177014 Rises=F Damp=F
 DIIS: error= 3.54D-06 at cycle   5 NSaved=   5.
 NSaved= 5 IEnMin= 5 EnMin= -2169.38156010887     IErMin= 5 ErrMin= 3.54D-06
 ErrMax= 3.54D-06  0.00D+00 EMaxC= 1.00D-01 BMatC= 5.45D-08 BMatP= 1.27D-07
 IDIUse=1 WtCom= 1.00D+00 WtEn= 0.00D+00
 Coeff-Com:  0.797D-02-0.203D+00-0.169D+00 0.500D+00 0.865D+00
 Coeff:      0.797D-02-0.203D+00-0.169D+00 0.500D+00 0.865D+00
 Gap=     0.361 Goal=   None    Shift=    0.000
 Gap=     0.361 Goal=   None    Shift=    0.000
 RMSDP=4.10D-07 MaxDP=2.76D-05 DE=-1.77D-07 OVMax= 1.00D-04

 Cycle  12  Pass 1  IDiag  1:
 RMSU=  2.04D-07    CP:  1.00D+00  1.06D+00  1.03D+00  1.41D+00  1.49D+00
 E= -2169.38156013935     Delta-E=       -0.000000030477 Rises=F Damp=F
 DIIS: error= 1.07D-06 at cycle   6 NSaved=   6.
 NSaved= 6 IEnMin= 6 EnMin= -2169.38156013935     IErMin= 6 ErrMin= 1.07D-06
 ErrMax= 1.07D-06  0.00D+00 EMaxC= 1.00D-01 BMatC= 5.70D-09 BMatP= 5.45D-08
 IDIUse=1 WtCom= 1.00D+00 WtEn= 0.00D+00
 Coeff-Com:  0.149D-02-0.284D-01-0.290D-01-0.487D-01 0.201D+00 0.903D+00
 Coeff:      0.149D-02-0.284D-01-0.290D-01-0.487D-01 0.201D+00 0.903D+00
 Gap=     0.361 Goal=   None    Shift=    0.000
 Gap=     0.361 Goal=   None    Shift=    0.000
 RMSDP=1.46D-07 MaxDP=1.09D-05 DE=-3.05D-08 OVMax= 3.15D-05

 Cycle  13  Pass 1  IDiag  1:
 RMSU=  7.37D-08    CP:  1.00D+00  1.06D+00  1.03D+00  1.42D+00  1.71D+00
                    CP:  1.16D+00
 E= -2169.38156014837     Delta-E=       -0.000000009026 Rises=F Damp=F
 DIIS: error= 6.74D-07 at cycle   7 NSaved=   7.
 NSaved= 7 IEnMin= 7 EnMin= -2169.38156014837     IErMin= 7 ErrMin= 6.74D-07
 ErrMax= 6.74D-07  0.00D+00 EMaxC= 1.00D-01 BMatC= 1.66D-09 BMatP= 5.70D-09
 IDIUse=1 WtCom= 1.00D+00 WtEn= 0.00D+00
 Coeff-Com: -0.132D-02 0.375D-01 0.297D-01-0.139D+00-0.114D+00 0.353D+00
 Coeff-Com:  0.834D+00
 Coeff:     -0.132D-02 0.375D-01 0.297D-01-0.139D+00-0.114D+00 0.353D+00
 Coeff:      0.834D+00
 Gap=     0.361 Goal=   None    Shift=    0.000
 Gap=     0.361 Goal=   None    Shift=    0.000
 RMSDP=7.06D-08 MaxDP=5.09D-06 DE=-9.03D-09 OVMax= 2.01D-05

 Cycle  14  Pass 1  IDiag  1:
 RMSU=  3.89D-08    CP:  1.00D+00  1.06D+00  1.03D+00  1.41D+00  1.79D+00
                    CP:  1.31D+00  1.25D+00
 E= -2169.38156014372     Delta-E=        0.000000004651 Rises=F Damp=F
 DIIS: error= 2.61D-07 at cycle   8 NSaved=   8.
 NSaved= 8 IEnMin= 7 EnMin= -2169.38156014837     IErMin= 8 ErrMin= 2.61D-07
 ErrMax= 2.61D-07  0.00D+00 EMaxC= 1.00D-01 BMatC= 2.24D-10 BMatP= 1.66D-09
 IDIUse=1 WtCom= 1.00D+00 WtEn= 0.00D+00
 Coeff-Com: -0.339D-03 0.740D-02 0.669D-02-0.101D-01-0.361D-01-0.143D+00
 Coeff-Com:  0.920D-01 0.108D+01
 Coeff:     -0.339D-03 0.740D-02 0.669D-02-0.101D-01-0.361D-01-0.143D+00
 Coeff:      0.920D-01 0.108D+01
 Gap=     0.361 Goal=   None    Shift=    0.000
 Gap=     0.361 Goal=   None    Shift=    0.000
 RMSDP=3.26D-08 MaxDP=2.96D-06 DE= 4.65D-09 OVMax= 9.08D-06

 Cycle  15  Pass 1  IDiag  1:
 RMSU=  1.40D-08    CP:  1.00D+00  1.06D+00  1.03D+00  1.41D+00  1.81D+00
                    CP:  1.35D+00  1.53D+00  1.34D+00
 E= -2169.38156014386     Delta-E=       -0.000000000139 Rises=F Damp=F
 DIIS: error= 6.38D-08 at cycle   9 NSaved=   9.
 NSaved= 9 IEnMin= 7 EnMin= -2169.38156014837     IErMin= 9 ErrMin= 6.38D-08
 ErrMax= 6.38D-08  0.00D+00 EMaxC= 1.00D-01 BMatC= 7.30D-11 BMatP= 2.24D-10
 IDIUse=1 WtCom= 1.00D+00 WtEn= 0.00D+00
 Coeff-Com:  0.102D-03-0.391D-02-0.280D-02 0.249D-01 0.109D-01-0.143D+00
 Coeff-Com: -0.134D+00 0.497D+00 0.751D+00
 Coeff:      0.102D-03-0.391D-02-0.280D-02 0.249D-01 0.109D-01-0.143D+00
 Coeff:     -0.134D+00 0.497D+00 0.751D+00
 Gap=     0.361 Goal=   None    Shift=    0.000
 Gap=     0.361 Goal=   None    Shift=    0.000
 RMSDP=1.27D-08 MaxDP=8.56D-07 DE=-1.39D-10 OVMax= 3.28D-06

 Cycle  16  Pass 1  IDiag  1:
 RMSU=  6.38D-09    CP:  1.00D+00  1.06D+00  1.03D+00  1.41D+00  1.81D+00
                    CP:  1.36D+00  1.62D+00  1.55D+00  1.11D+00
 E= -2169.38156014408     Delta-E=       -0.000000000220 Rises=F Damp=F
 DIIS: error= 2.69D-08 at cycle  10 NSaved=  10.
 NSaved=10 IEnMin= 7 EnMin= -2169.38156014837     IErMin=10 ErrMin= 2.69D-08
 ErrMax= 2.69D-08  0.00D+00 EMaxC= 1.00D-01 BMatC= 6.92D-12 BMatP= 7.30D-11
 IDIUse=1 WtCom= 1.00D+00 WtEn= 0.00D+00
 Coeff-Com:  0.797D-04-0.233D-02-0.203D-02 0.971D-02 0.957D-02-0.349D-01
 Coeff-Com: -0.585D-01 0.642D-01 0.258D+00 0.756D+00
 Coeff:      0.797D-04-0.233D-02-0.203D-02 0.971D-02 0.957D-02-0.349D-01
 Coeff:     -0.585D-01 0.642D-01 0.258D+00 0.756D+00
 Gap=     0.361 Goal=   None    Shift=    0.000
 Gap=     0.361 Goal=   None    Shift=    0.000
 RMSDP=3.43D-09 MaxDP=1.86D-07 DE=-2.20D-10 OVMax= 6.33D-07

 SCF Done:  E(ULC-wPBE) =  -2169.38156014     A.U. after   16 cycles
            NFock= 16  Conv=0.34D-08     -V/T= 2.0068
 <Sx>= 0.0000 <Sy>= 0.0000 <Sz>= 0.0000 <S**2>=-0.0000 S=-0.0000
 <L.S>= 0.000000000000E+00
 KE= 2.154669886727D+03 PE=-1.556451725816D+04 EE= 5.985744154559D+03
 Annihilation of the first spin contaminant:
 S**2 before annihilation    -0.0000,   after     0.0000
 Leave Link  502 at Thu Jul 23 10:12:51 2020, MaxMem=  4026531840 cpu:            4990.2 elap:             739.5
 (Enter /opt/ohpc/pub/libs/gaussian/g16-A.03/sandybridge/g16/l601.exe)
 Copying SCF densities to generalized density rwf, IOpCl= 1 IROHF=0.

 **********************************************************************

            Population analysis using the SCF density.

 **********************************************************************

 Orbital symmetries:
 Alpha Orbitals:
       Occupied  (A) (A) (A) (A) (A) (A) (A) (A) (A) (A) (A) (A)
                 (A) (A) (A) (A) (A) (A) (A) (A) (A) (A) (A) (A)
                 (A) (A) (A) (A) (A) (A) (A) (A) (A) (A) (A) (A)
                 (A) (A) (A) (A) (A) (A) (A) (A) (A) (A) (A) (A)
                 (A) (A) (A) (A) (A) (A) (A) (A) (A) (A) (A) (A)
                 (A) (A) (A) (A) (A) (A) (A) (A) (A) (A) (A) (A)
                 (A) (A) (A) (A) (A) (A) (A) (A) (A) (A) (A) (A)
                 (A) (A) (A) (A) (A) (A) (A) (A) (A) (A) (A) (A)
                 (A) (A) (A) (A) (A) (A) (A) (A) (A) (A) (A) (A)
                 (A) (A) (A) (A) (A) (A) (A) (A) (A) (A) (A) (A)
                 (A) (A) (A) (A) (A) (A) (A) (A) (A) (A) (A) (A)
                 (A) (A) (A) (A) (A) (A) (A) (A) (A) (A) (A) (A)
                 (A) (A) (A) (A) (A) (A) (A) (A) (A) (A) (A) (A)
                 (A) (A) (A) (A) (A) (A) (A) (A) (A) (A) (A) (A)
                 (A)
       Virtual   (A) (A) (A) (A) (A) (A) (A) (A) (A) (A) (A) (A)
                 (A) (A) (A) (A) (A) (A) (A) (A) (A) (A) (A) (A)
                 (A) (A) (A) (A) (A) (A) (A) (A) (A) (A) (A) (A)
                 (A) (A) (A) (A) (A) (A) (A) (A) (A) (A) (A) (A)
                 (A) (A) (A) (A) (A) (A) (A) (A) (A) (A) (A) (A)
                 (A) (A) (A) (A) (A) (A) (A) (A) (A) (A) (A) (A)
                 (A) (A) (A) (A) (A) (A) (A) (A) (A) (A) (A) (A)
                 (A) (A) (A) (A) (A) (A) (A) (A) (A) (A) (A) (A)
                 (A) (A) (A) (A) (A) (A) (A) (A) (A) (A) (A) (A)
                 (A) (A) (A) (A) (A) (A) (A) (A) (A) (A) (A) (A)
                 (A) (A) (A) (A) (A) (A) (A) (A) (A) (A) (A) (A)
                 (A) (A) (A) (A) (A) (A) (A) (A) (A) (A) (A) (A)
                 (A) (A) (A) (A) (A) (A) (A) (A) (A) (A) (A) (A)
                 (A) (A) (A) (A) (A) (A) (A) (A) (A) (A) (A) (A)
                 (A) (A) (A) (A) (A) (A) (A) (A) (A) (A) (A) (A)
                 (A) (A) (A) (A) (A) (A) (A) (A) (A) (A) (A) (A)
                 (A) (A) (A) (A) (A) (A) (A) (A) (A) (A) (A) (A)
                 (A) (A) (A) (A) (A) (A) (A) (A) (A) (A) (A) (A)
                 (A) (A) (A) (A) (A) (A) (A) (A) (A) (A) (A) (A)
                 (A) (A) (A) (A) (A) (A) (A) (A) (A) (A) (A) (A)
                 (A) (A) (A) (A) (A) (A) (A) (A) (A) (A) (A) (A)
                 (A) (A) (A) (A) (A) (A) (A) (A) (A) (A) (A) (A)
                 (A) (A) (A) (A) (A) (A) (A) (A) (A) (A) (A) (A)
                 (A) (A) (A) (A) (A) (A) (A) (A) (A) (A) (A) (A)
                 (A) (A) (A) (A) (A) (A) (A) (A) (A) (A) (A) (A)
                 (A) (A) (A) (A) (A) (A) (A) (A) (A) (A) (A) (A)
                 (A) (A) (A) (A) (A) (A) (A) (A) (A) (A) (A) (A)
                 (A) (A) (A) (A) (A) (A) (A) (A) (A) (A) (A) (A)
                 (A) (A) (A) (A) (A) (A) (A) (A) (A) (A) (A) (A)
                 (A) (A) (A) (A) (A) (A) (A) (A) (A) (A) (A) (A)
                 (A) (A) (A) (A) (A) (A) (A) (A) (A) (A) (A) (A)
                 (A) (A) (A) (A) (A) (A) (A) (A) (A) (A) (A) (A)
                 (A) (A) (A) (A) (A) (A) (A) (A) (A) (A) (A) (A)
                 (A) (A) (A) (A) (A) (A) (A) (A) (A) (A) (A) (A)
                 (A) (A) (A) (A) (A) (A) (A) (A) (A) (A) (A) (A)
                 (A) (A) (A) (A) (A) (A) (A) (A) (A) (A) (A) (A)
                 (A) (A) (A) (A) (A) (A) (A) (A) (A) (A) (A) (A)
                 (A) (A) (A) (A) (A) (A) (A) (A) (A) (A) (A) (A)
                 (A) (A) (A) (A) (A) (A) (A) (A) (A) (A) (A) (A)
                 (A) (A) (A) (A) (A) (A) (A) (A) (A) (A) (A) (A)
                 (A) (A) (A) (A) (A) (A) (A) (A) (A) (A) (A) (A)
                 (A) (A) (A) (A) (A) (A) (A) (A) (A) (A) (A) (A)
                 (A) (A) (A) (A) (A) (A) (A) (A) (A) (A) (A) (A)
                 (A) (A) (A) (A) (A) (A) (A) (A) (A) (A) (A) (A)
                 (A) (A) (A) (A) (A) (A) (A) (A) (A) (A) (A) (A)
                 (A) (A) (A) (A) (A) (A) (A) (A) (A) (A) (A) (A)
                 (A) (A) (A) (A) (A) (A) (A) (A) (A) (A) (A) (A)
                 (A) (A) (A) (A) (A) (A) (A) (A) (A) (A) (A) (A)
                 (A) (A) (A) (A) (A) (A) (A) (A) (A) (A) (A) (A)
                 (A) (A) (A) (A) (A) (A) (A) (A) (A) (A) (A) (A)
                 (A) (A) (A) (A) (A) (A) (A) (A) (A) (A) (A) (A)
                 (A) (A) (A) (A) (A) (A) (A) (A) (A) (A) (A) (A)
                 (A) (A) (A) (A) (A) (A) (A) (A) (A) (A) (A) (A)
                 (A) (A) (A) (A) (A) (A) (A) (A) (A) (A) (A) (A)
                 (A) (A) (A) (A) (A) (A) (A) (A) (A) (A) (A) (A)
                 (A) (A) (A)
 Beta  Orbitals:
       Occupied  (A) (A) (A) (A) (A) (A) (A) (A) (A) (A) (A) (A)
                 (A) (A) (A) (A) (A) (A) (A) (A) (A) (A) (A) (A)
                 (A) (A) (A) (A) (A) (A) (A) (A) (A) (A) (A) (A)
                 (A) (A) (A) (A) (A) (A) (A) (A) (A) (A) (A) (A)
                 (A) (A) (A) (A) (A) (A) (A) (A) (A) (A) (A) (A)
[...]
    20 O(17)  Bbb    -0.0000     0.000     0.000     0.000 -0.5337 -0.3007  0.7904
              Bcc     0.0000    -0.000    -0.000    -0.000  0.7587 -0.5831  0.2905
 
              Baa    -0.0000    -0.000    -0.000    -0.000 -0.2679  0.9578 -0.1041
    21 C(13)  Bbb     0.0000     0.000     0.000     0.000 -0.5257 -0.0548  0.8489
              Bcc     0.0000     0.000     0.000     0.000  0.8074  0.2822  0.5182
 
              Baa    -0.0000    -0.000    -0.000    -0.000  0.1954  0.9066 -0.3739
    22 C(13)  Bbb     0.0000     0.000     0.000     0.000  0.7859  0.0833  0.6127
              Bcc     0.0000     0.000     0.000     0.000 -0.5866  0.4136  0.6963
 
              Baa    -0.0000    -0.000    -0.000    -0.000  0.2911  0.3956  0.8711
    23 N(14)  Bbb     0.0000     0.000     0.000     0.000  0.8218  0.3628 -0.4394
              Bcc     0.0000     0.000     0.000     0.000 -0.4898  0.8438 -0.2195
 
              Baa    -0.0000    -0.000    -0.000    -0.000  0.9981 -0.0219  0.0568
    24 C(13)  Bbb    -0.0000    -0.000    -0.000    -0.000 -0.0462  0.3333  0.9417
              Bcc     0.0000     0.000     0.000     0.000  0.0396  0.9426 -0.3316
 
              Baa    -0.0000    -0.000    -0.000    -0.000  0.9780 -0.1023 -0.1816
    25 C(13)  Bbb    -0.0000    -0.000    -0.000    -0.000  0.1993  0.7144  0.6708
              Bcc     0.0000     0.000     0.000     0.000  0.0611 -0.6922  0.7191
 
              Baa    -0.0000    -0.000    -0.000    -0.000  0.3870  0.2825  0.8777
    26 N(14)  Bbb    -0.0000    -0.000    -0.000    -0.000  0.8920  0.1263 -0.4340
              Bcc     0.0000     0.000     0.000     0.000 -0.2335  0.9509 -0.2031
 
              Baa    -0.0000    -0.000    -0.000    -0.000  0.3342  0.7072 -0.6231
    27 C(13)  Bbb    -0.0000    -0.000    -0.000    -0.000  0.8386  0.0787  0.5391
              Bcc     0.0000     0.000     0.000     0.000 -0.4303  0.7026  0.5667
 
              Baa    -0.0000    -0.000    -0.000    -0.000  0.9283  0.0114  0.3717
    28 C(13)  Bbb     0.0000     0.000     0.000     0.000 -0.3314  0.4787  0.8130
              Bcc     0.0000     0.000     0.000     0.000  0.1686  0.8779 -0.4481
 
              Baa    -0.0000    -0.000    -0.000    -0.000  0.7573 -0.5199 -0.3953
    29 C(13)  Bbb    -0.0000    -0.000    -0.000    -0.000  0.1885 -0.4056  0.8944
              Bcc     0.0000     0.000     0.000     0.000  0.6253  0.7518  0.2092
 
              Baa    -0.0000    -0.000    -0.000    -0.000 -0.6044  0.4972  0.6225
    30 C(13)  Bbb     0.0000     0.000     0.000     0.000 -0.0691  0.7457 -0.6627
              Bcc     0.0000     0.000     0.000     0.000  0.7937  0.4435  0.4164
 
              Baa    -0.0000     0.000     0.000     0.000  0.8923  0.3881  0.2307
    31 O(17)  Bbb    -0.0000     0.000     0.000     0.000  0.1152 -0.6898  0.7147
              Bcc     0.0000    -0.000    -0.000    -0.000 -0.4365  0.6112  0.6602
 
              Baa    -0.0000    -0.000    -0.000    -0.000 -0.4959  0.6545 -0.5708
    32 C(13)  Bbb    -0.0000    -0.000    -0.000    -0.000  0.7494  0.6546  0.0995
              Bcc     0.0000     0.000     0.000     0.000 -0.4388  0.3784  0.8150
 
              Baa    -0.0000    -0.000    -0.000    -0.000  0.1183 -0.0717  0.9904
    33 C(13)  Bbb    -0.0000    -0.000    -0.000    -0.000 -0.6547  0.7442  0.1321
              Bcc     0.0000     0.000     0.000     0.000  0.7465  0.6641 -0.0411
 
              Baa    -0.0000    -0.000    -0.000    -0.000 -0.0676  0.0208  0.9975
    34 C(13)  Bbb     0.0000     0.000     0.000     0.000  0.2812  0.9597 -0.0010
              Bcc     0.0000     0.000     0.000     0.000  0.9573 -0.2804  0.0707
 
              Baa    -0.0000    -0.000    -0.000    -0.000 -0.0054 -0.0211  0.9998
    35 C(13)  Bbb    -0.0000    -0.000    -0.000    -0.000 -0.6761  0.7367  0.0119
              Bcc     0.0000     0.000     0.000     0.000  0.7368  0.6758  0.0182
 
              Baa    -0.0000     0.000     0.000     0.000  0.2964  0.9523 -0.0725
    36 O(17)  Bbb     0.0000    -0.000    -0.000    -0.000 -0.2955  0.1637  0.9412
              Bcc     0.0000    -0.000    -0.000    -0.000  0.9082 -0.2576  0.3299
 
              Baa    -0.0000    -0.000    -0.000    -0.000  0.7812  0.6079  0.1422
    37 C(13)  Bbb     0.0000     0.000     0.000     0.000 -0.6202  0.7298  0.2876
              Bcc     0.0000     0.000     0.000     0.000  0.0711 -0.3129  0.9471
 
              Baa    -0.0000    -0.000    -0.000    -0.000  0.0817 -0.5749  0.8141
    38 C(13)  Bbb    -0.0000    -0.000    -0.000    -0.000 -0.1640  0.7979  0.5800
              Bcc     0.0000     0.000     0.000     0.000  0.9831  0.1809  0.0291
 
              Baa    -0.0000    -0.000    -0.000    -0.000 -0.0700  0.1765  0.9818
    39 N(14)  Bbb    -0.0000    -0.000    -0.000    -0.000 -0.1137  0.9764 -0.1837
              Bcc     0.0000     0.000     0.000     0.000  0.9910  0.1245  0.0483
 
              Baa    -0.0000    -0.000    -0.000    -0.000 -0.1195  0.1144  0.9862
    40 C(13)  Bbb    -0.0000    -0.000    -0.000    -0.000  0.8466 -0.5071  0.1614
              Bcc     0.0000     0.000     0.000     0.000  0.5186  0.8543 -0.0362
 
              Baa    -0.0000    -0.000    -0.000    -0.000 -0.2713  0.8893 -0.3683
    41 C(13)  Bbb    -0.0000    -0.000    -0.000    -0.000  0.7970  0.4220  0.4320
              Bcc     0.0000     0.000     0.000     0.000 -0.5396  0.1763  0.8233
 
              Baa    -0.0000    -0.000    -0.000    -0.000  0.5289  0.7140 -0.4587
    42 N(14)  Bbb    -0.0000    -0.000    -0.000    -0.000  0.8305 -0.5468  0.1065
              Bcc     0.0000     0.000     0.000     0.000  0.1748  0.4373  0.8822
 
              Baa    -0.0000    -0.000    -0.000    -0.000  0.9879  0.1380  0.0710
    43 C(13)  Bbb     0.0000     0.000     0.000     0.000 -0.1224  0.4114  0.9032
              Bcc     0.0000     0.000     0.000     0.000 -0.0954  0.9009 -0.4233
 
              Baa    -0.0000    -0.000    -0.000    -0.000 -0.4410  0.7958 -0.4149
    44 C(13)  Bbb    -0.0000    -0.000    -0.000    -0.000  0.6622  0.6006  0.4481
              Bcc     0.0000     0.000     0.000     0.000 -0.6058  0.0771  0.7919
 
              Baa    -0.0000    -0.000    -0.000    -0.000 -0.3244  0.8229 -0.4664
    45 C(13)  Bbb     0.0000     0.000     0.000     0.000  0.9368  0.2112 -0.2790
              Bcc     0.0000     0.000     0.000     0.000  0.1311  0.5274  0.8394
 
              Baa    -0.0000    -0.000    -0.000    -0.000 -0.2919  0.9299  0.2236
    46 C(13)  Bbb     0.0000     0.000     0.000     0.000  0.2235 -0.1610  0.9613
              Bcc     0.0000     0.000     0.000     0.000  0.9300  0.3306 -0.1608
 
              Baa    -0.0000     0.000     0.000     0.000 -0.1404  0.9901 -0.0031
    47 O(17)  Bbb    -0.0000     0.000     0.000     0.000 -0.2874 -0.0377  0.9571
              Bcc     0.0000    -0.000    -0.000    -0.000  0.9475  0.1353  0.2898
 
              Baa    -0.0000    -0.000    -0.000    -0.000  0.2923 -0.2419  0.9252
    48 C(13)  Bbb    -0.0000    -0.000    -0.000    -0.000  0.4484  0.8892  0.0908
              Bcc     0.0000     0.000     0.000     0.000  0.8447 -0.3883 -0.3684
 
              Baa    -0.0000    -0.000    -0.000    -0.000  0.0709 -0.1212  0.9901
    49 H(1)   Bbb    -0.0000    -0.000    -0.000    -0.000 -0.0875  0.9880  0.1272
              Bcc     0.0000     0.000     0.000     0.000  0.9936  0.0956 -0.0595
 
              Baa    -0.0000    -0.000    -0.000    -0.000  0.1519 -0.0130  0.9883
    50 H(1)   Bbb    -0.0000    -0.000    -0.000    -0.000  0.9588 -0.2407 -0.1506
              Bcc     0.0000     0.000     0.000     0.000  0.2399  0.9705 -0.0241
 
              Baa    -0.0000    -0.000    -0.000    -0.000  0.2355  0.9249  0.2985
    51 H(1)   Bbb     0.0000     0.000     0.000     0.000  0.2384 -0.3528  0.9048
              Bcc     0.0000     0.000     0.000     0.000  0.9422 -0.1419 -0.3036
 
              Baa    -0.0000    -0.000    -0.000    -0.000 -0.6151  0.6431  0.4561
    52 H(1)   Bbb     0.0000     0.000     0.000     0.000  0.6309  0.7484 -0.2045
              Bcc     0.0000     0.000     0.000     0.000  0.4729 -0.1619  0.8661
 
              Baa    -0.0000    -0.000    -0.000    -0.000  0.7615 -0.4860  0.4289
    53 H(1)   Bbb     0.0000     0.000     0.000     0.000  0.3371  0.8620  0.3785
              Bcc     0.0000     0.000     0.000     0.000 -0.5537 -0.1437  0.8203
 
              Baa    -0.0000    -0.000    -0.000    -0.000 -0.0750 -0.0406  0.9964
    54 H(1)   Bbb    -0.0000    -0.000    -0.000    -0.000  0.8610 -0.5066  0.0442
              Bcc     0.0000     0.000     0.000     0.000  0.5030  0.8612  0.0729
 
              Baa    -0.0000    -0.000    -0.000    -0.000 -0.0964 -0.0730  0.9927
    55 H(1)   Bbb    -0.0000    -0.000    -0.000    -0.000  0.2623  0.9602  0.0961
              Bcc     0.0000     0.000     0.000     0.000  0.9602 -0.2696  0.0734
 
              Baa    -0.0000    -0.000    -0.000    -0.000  0.8170  0.2195 -0.5332
    56 H(1)   Bbb     0.0000     0.000     0.000     0.000 -0.3774  0.9027 -0.2065
              Bcc     0.0000     0.000     0.000     0.000  0.4360  0.3700  0.8204
 
              Baa    -0.0000    -0.000    -0.000    -0.000  0.4040 -0.4630  0.7889
    57 H(1)   Bbb     0.0000     0.000     0.000     0.000 -0.5468  0.5692  0.6140
              Bcc     0.0000     0.000     0.000     0.000  0.7333  0.6795  0.0233
 
              Baa    -0.0000    -0.000    -0.000    -0.000  0.3598  0.5349  0.7645
    58 H(1)   Bbb    -0.0000    -0.000    -0.000    -0.000  0.9325 -0.2343 -0.2749
              Bcc     0.0000     0.000     0.000     0.000  0.0321  0.8118 -0.5830
 
              Baa    -0.0000    -0.000    -0.000    -0.000 -0.6078  0.7576  0.2379
    59 H(1)   Bbb     0.0000     0.000     0.000     0.000  0.7724  0.6336 -0.0444
              Bcc     0.0000     0.000     0.000     0.000  0.1843 -0.1568  0.9703
 
              Baa    -0.0000    -0.000    -0.000    -0.000  0.7245 -0.6479 -0.2354
    60 H(1)   Bbb    -0.0000    -0.000    -0.000    -0.000  0.3925  0.1070  0.9135
              Bcc     0.0000     0.000     0.000     0.000  0.5666  0.7542 -0.3318
 
              Baa    -0.0000    -0.000    -0.000    -0.000 -0.6843  0.7011 -0.2006
    61 H(1)   Bbb    -0.0000    -0.000    -0.000    -0.000 -0.6145 -0.4062  0.6763
              Bcc     0.0000     0.000     0.000     0.000  0.3927  0.5861  0.7088
 
              Baa    -0.0000    -0.000    -0.000    -0.000  0.7012  0.7001 -0.1349
    62 H(1)   Bbb    -0.0000    -0.000    -0.000    -0.000  0.6934 -0.6257  0.3574
              Bcc     0.0000     0.000     0.000     0.000 -0.1658  0.3442  0.9241
 
              Baa    -0.0000    -0.000    -0.000    -0.000  0.6829  0.7224  0.1088
    63 H(1)   Bbb    -0.0000    -0.000    -0.000    -0.000 -0.4380  0.2857  0.8524
              Bcc     0.0000     0.000     0.000     0.000 -0.5846  0.6298 -0.5115
 
              Baa    -0.0000    -0.000    -0.000    -0.000  0.0789  0.3738  0.9242
    64 H(1)   Bbb    -0.0000    -0.000    -0.000    -0.000  0.8046  0.5234 -0.2804
              Bcc     0.0000     0.000     0.000     0.000 -0.5885  0.7657 -0.2594
 
              Baa    -0.0000    -0.000    -0.000    -0.000  0.8075 -0.1302 -0.5753
    65 H(1)   Bbb    -0.0000    -0.000    -0.000    -0.000 -0.2394  0.8191 -0.5214
              Bcc     0.0000     0.000     0.000     0.000  0.5391  0.5587  0.6302
 
              Baa    -0.0000    -0.000    -0.000    -0.000  0.7842 -0.4702 -0.4049
    66 H(1)   Bbb     0.0000     0.000     0.000     0.000  0.6186  0.5416  0.5692
              Bcc     0.0000     0.000     0.000     0.000 -0.0483 -0.6968  0.7156
 
              Baa    -0.0000    -0.000    -0.000    -0.000  0.6653 -0.3627  0.6525
    67 H(1)   Bbb     0.0000     0.000     0.000     0.000  0.4959  0.8681 -0.0231
              Bcc     0.0000     0.000     0.000     0.000 -0.5581  0.3389  0.7574
 
              Baa    -0.0000    -0.000    -0.000    -0.000  0.8577 -0.3393  0.3863
    68 H(1)   Bbb    -0.0000    -0.000    -0.000    -0.000 -0.4946 -0.3396  0.8000
              Bcc     0.0000     0.000     0.000     0.000  0.1403  0.8772  0.4591
 
              Baa    -0.0000    -0.000    -0.000    -0.000  0.6210 -0.5588  0.5496
    69 H(1)   Bbb    -0.0000    -0.000    -0.000    -0.000  0.2417  0.8036  0.5439
              Bcc     0.0000     0.000     0.000     0.000  0.7456  0.2049 -0.6341
 
              Baa    -0.0000    -0.000    -0.000    -0.000 -0.5686  0.2430  0.7859
    70 H(1)   Bbb    -0.0000    -0.000    -0.000    -0.000  0.7411 -0.2631  0.6176
              Bcc     0.0000     0.000     0.000     0.000  0.3569  0.9337 -0.0305
 
              Baa    -0.0000    -0.000    -0.000    -0.000  0.1518  0.3680  0.9174
    71 H(1)   Bbb     0.0000     0.000     0.000     0.000  0.8862  0.3603 -0.2912
              Bcc     0.0000     0.000     0.000     0.000 -0.4377  0.8572 -0.2714
 
              Baa    -0.0000    -0.000    -0.000    -0.000  0.0415 -0.3696  0.9283
    72 H(1)   Bbb     0.0000     0.000     0.000     0.000  0.4445  0.8389  0.3142
              Bcc     0.0000     0.000     0.000     0.000  0.8948 -0.3995 -0.1991
 
              Baa    -0.0000    -0.000    -0.000    -0.000 -0.3578  0.9029 -0.2381
    73 H(1)   Bbb     0.0000     0.000     0.000     0.000  0.7094  0.4286  0.5594
              Bcc     0.0000     0.000     0.000     0.000 -0.6072 -0.0312  0.7939
 
              Baa    -0.0000    -0.000    -0.000    -0.000  0.5100  0.6320 -0.5835
    74 H(1)   Bbb    -0.0000    -0.000    -0.000    -0.000  0.2849  0.5160  0.8078
              Bcc     0.0000     0.000     0.000     0.000  0.8116 -0.5783  0.0831
 
              Baa    -0.0000    -0.000    -0.000    -0.000  0.5783  0.4570  0.6759
    75 H(1)   Bbb     0.0000     0.000     0.000     0.000  0.8083 -0.2086 -0.5506
              Bcc     0.0000     0.000     0.000     0.000 -0.1107  0.8647 -0.4900
 
              Baa    -0.0000    -0.000    -0.000    -0.000 -0.2760  0.7532 -0.5971
    76 H(1)   Bbb    -0.0000    -0.000    -0.000    -0.000 -0.0348  0.6130  0.7893
              Bcc     0.0000     0.000     0.000     0.000  0.9605  0.2387 -0.1430
 
              Baa    -0.0000    -0.000    -0.000    -0.000 -0.3063  0.7395 -0.5994
    77 H(1)   Bbb    -0.0000    -0.000    -0.000    -0.000  0.5252  0.6565  0.5415
              Bcc     0.0000     0.000     0.000     0.000  0.7939 -0.1489 -0.5895
 
              Baa    -0.0000    -0.000    -0.000    -0.000  0.9187  0.0151 -0.3948
    78 H(1)   Bbb     0.0000     0.000     0.000     0.000  0.3782  0.2556  0.8897
              Bcc     0.0000     0.000     0.000     0.000 -0.1144  0.9667 -0.2291
 
              Baa    -0.0000    -0.000    -0.000    -0.000 -0.2600  0.0173  0.9655
    79 H(1)   Bbb    -0.0000    -0.000    -0.000    -0.000 -0.5113  0.8457 -0.1528
              Bcc     0.0000     0.000     0.000     0.000  0.8192  0.5333  0.2110
 
              Baa    -0.0000    -0.000    -0.000    -0.000  0.9214 -0.1876 -0.3403
    80 H(1)   Bbb     0.0000     0.000     0.000     0.000  0.3854  0.5533  0.7385
              Bcc     0.0000     0.000     0.000     0.000 -0.0498  0.8116 -0.5821
 

 ---------------------------------------------------------------------------------

 No NMR shielding tensors so no spin-rotation constants.
 Leave Link  601 at Thu Jul 23 13:33:38 2020, MaxMem=  4026531840 cpu:              11.0 elap:               1.9
 (Enter /opt/ohpc/pub/libs/gaussian/g16-A.03/sandybridge/g16/l9999.exe)

 Test job not archived.
 1\1\GINC-SKYLAKE046\FOpt\ULC-wPBE\CC-pVDZ\C36H32N6O6\RDU230\23-Jul-202
 0\0\\#P uLC-wPBE/cc-pVDZ iop(3/107=0443900000, 3/108=0443900000) opt\\
 H32 C36 N6 O6\\0,1\C,11.9076472746,0.3444200872,-0.343998646\C,11.3293
 338544,-0.91919113,-0.3476946309\C,9.9494194269,-1.0101529797,-0.29124
 60876\O,9.2441998019,-2.1601391665,-0.3089316418\C,9.9579626132,-3.367
 5281621,-0.3593715404\C,9.2038333705,0.1776283243,-0.2284715395\N,9.76
 28228533,1.3725388289,-0.2332708617\C,11.0908753536,1.4548287547,-0.28
 8990975\C,7.7121155202,0.126713343,-0.191259878\N,7.0657885105,0.62077
 69309,-1.2292383127\C,5.7365650237,0.6175711691,-1.2188939697\C,4.9802
 788451,0.1277687605,-0.1654866411\C,5.6627855624,-0.3915775855,0.93510
 37202\C,7.045329569,-0.3957620381,0.9276499996\O,7.8225982096,-0.84198
 1788,1.9352530558\C,7.1891853607,-1.4003794559,3.0569785373\C,3.501613
 7788,0.1519450772,-0.2040021573\C,2.812497788,1.2623878411,-0.69194625
 08\C,1.4300173969,1.2411309689,-0.7101737074\O,0.647942765,2.238039105
 2,-1.171901399\C,1.2769557665,3.3929294721,-1.6644217373\C,0.770087948
 6,0.1024728528,-0.2229229514\N,1.4231183882,-0.9517209164,0.2266099394
 \C,2.7518939992,-0.9288804605,0.234132748\C,-0.720392089,0.0277127464,
 -0.2309552372\N,-1.2736133612,-0.8879425742,-1.0019950332\C,-2.5980640
 605,-1.0024104328,-1.0170725399\C,-3.4416269741,-0.2079933922,-0.25598
 89612\C,-2.8575953091,0.7575886491,0.564728535\C,-1.4806722305,0.88013
 04502,0.5844285124\O,-0.7912416425,1.746641106,1.3553722473\C,-1.51996
 10333,2.6261539514,2.1702597755\C,-4.9102085915,-0.3787824906,-0.31023
 08574\C,-5.7621778426,0.7236700288,-0.3887431973\C,-7.1278991077,0.515
 7324313,-0.4386756327\O,-8.0564109262,1.4889183362,-0.5450817817\C,-7.
 6132788977,2.8196148296,-0.5826237101\C,-7.6067564051,-0.8029874835,-0
 .4048666421\N,-6.8003407346,-1.8437135645,-0.3344150449\C,-5.487411247
 3,-1.6387610328,-0.2858802523\C,-9.0717662363,-1.0790458991,-0.4905906
 874\N,-9.4999124774,-1.7082288454,-1.5680793512\C,-10.797126987,-1.991
 7941831,-1.6680724935\C,-11.7132306138,-1.6577010572,-0.6921646905\C,-
 11.2723382452,-1.0015435791,0.4507073406\C,-9.9247115044,-0.7056723845
 ,0.5597089813\O,-9.3458302499,-0.0934025715,1.6143382216\C,-10.1723727
 348,0.3018652181,2.6771531727\H,12.9900981872,0.4554076933,-0.38803008
 3\H,11.9554181595,-1.8071791015,-0.3998433474\H,9.2116438758,-4.166941
 3052,-0.3618358312\H,10.5636649234,-3.4425208287,-1.2747878952\H,10.61
 10941754,-3.4884674207,0.5178454644\H,11.5126135346,2.4614690927,-0.28
 83512167\H,5.2479396266,1.0107123142,-2.1126893504\H,5.1004854799,-0.7
 595222668,1.7905150347\H,7.9867066736,-1.7152835754,3.7357741222\H,6.5
 822638142,-2.2763888677,2.7839918748\H,6.5526519785,-0.6652426052,3.57
 14164474\H,3.3697177212,2.1312926113,-1.0350944152\H,1.8698759563,3.89
 45411118,-0.8852713816\H,1.9259970886,3.1657846836,-2.5230077876\H,0.4
 771700743,4.0631067662,-1.9917868175\H,3.2464981615,-1.8328945742,0.59
 51463579\H,-3.0104685448,-1.7578240631,-1.6883511426\H,-3.4890903826,1
 .3775080516,1.1979383625\H,-2.1751740324,3.2799761438,1.5752178523\H,-
 0.783874145,3.2416567156,2.6950656293\H,-2.12607304,2.0847412382,2.911
 8833543\H,-5.3408424863,1.7256402315,-0.4395779555\H,-7.072200392,3.09
 22908831,0.3360113369\H,-6.9666919733,3.0076981475,-1.4526765893\H,-8.
 5095169375,3.4408089471,-0.6660113484\H,-4.8617138345,-2.5294431234,-0
 .2048067716\H,-11.1091111323,-2.5106569785,-2.5761283049\H,-12.7662720
 026,-1.9076658518,-0.8128376842\H,-11.9774168805,-0.7374879556,1.23580
 23544\H,-10.9307991568,1.0295966682,2.351566516\H,-9.5194680059,0.7738
 129375,3.416890499\H,-10.6741769632,-0.5593758093,3.1430059696\\Versio
 n=EM64L-G16RevA.03\State=1-A\HF=-2169.5206556\S2=0.\S2-1=0.\S2A=0.\RMS
 D=9.787e-09\RMSF=1.980e-06\Dipole=-0.3556103,1.7558806,2.2124203\Quadr
 upole=29.7872714,-10.4303604,-19.356911,-47.8312098,-9.459974,-2.80905
 42\PG=C01 [X(C36H32N6O6)]\\@


 IT CANNOT BE MY BEAUTY, FOR I HAVE NONE; AND IT CANNOT BE MY WIT,
 FOR HE HAS NOT ENOUGH TO KNOW THAT I HAVE ANY.
 -- CATHARINE SEDLEY, PUZZLED ABOUT WHY SHE WAS MISTRESS TO JAMES II
 Job cpu time:       1 days  3 hours  6 minutes 22.9 seconds.
 Elapsed time:       0 days  3 hours 33 minutes 13.1 seconds.
 File lengths (MBytes):  RWF=    816 Int=      0 D2E=      0 Chk=     76 Scr=      8
 Normal termination of Gaussian 16 at Thu Jul 23 13:33:38 2020.
