 Entering Gaussian System, Link 0=g16
 Input=mols_55_1_06_CF-COC_opt_0.gjf
 Output=mols_55_1_06_CF-COC_opt_0.log
 Initial command:
 /opt/ohpc/pub/libs/gaussian/g16-A.03/sandybridge/g16/l1.exe "/mnt/gpfs2_4m/scratch/rdu230/ondemand/projects/dihedral_energies/7trial/wtuning/mols_55_1_06_CF-COC/Gau-351457.inp" -scrdir="/mnt/gpfs2_4m/scratch/rdu230/ondemand/projects/dihedral_energies/7trial/wtuning/mols_55_1_06_CF-COC/"
 Entering Link 1 = /opt/ohpc/pub/libs/gaussian/g16-A.03/sandybridge/g16/l1.exe PID=    351458.
  
 Copyright (c) 1988,1990,1992,1993,1995,1998,2003,2009,2016,
            Gaussian, Inc.  All Rights Reserved.
  
 This is part of the Gaussian(R) 16 program.  It is based on
 the Gaussian(R) 09 system (copyright 2009, Gaussian, Inc.),
 the Gaussian(R) 03 system (copyright 2003, Gaussian, Inc.),
 the Gaussian(R) 98 system (copyright 1998, Gaussian, Inc.),
 the Gaussian(R) 94 system (copyright 1995, Gaussian, Inc.),
 the Gaussian 92(TM) system (copyright 1992, Gaussian, Inc.),
 the Gaussian 90(TM) system (copyright 1990, Gaussian, Inc.),
 the Gaussian 88(TM) system (copyright 1988, Gaussian, Inc.),
 the Gaussian 86(TM) system (copyright 1986, Carnegie Mellon
 University), and the Gaussian 82(TM) system (copyright 1983,
 Carnegie Mellon University). Gaussian is a federally registered
 trademark of Gaussian, Inc.
  
 This software contains proprietary and confidential information,
 including trade secrets, belonging to Gaussian, Inc.
  
 This software is provided under written license and may be
 used, copied, transmitted, or stored only in accord with that
 written license.
  
 The following legend is applicable only to US Government
 contracts under FAR:
  
                    RESTRICTED RIGHTS LEGEND
  
 Use, reproduction and disclosure by the US Government is
 subject to restrictions as set forth in subparagraphs (a)
 and (c) of the Commercial Computer Software - Restricted
 Rights clause in FAR 52.227-19.
  
 Gaussian, Inc.
 340 Quinnipiac St., Bldg. 40, Wallingford CT 06492
  
  
 ---------------------------------------------------------------
 Warning -- This program may not be used in any manner that
 competes with the business of Gaussian, Inc. or will provide
 assistance to any competitor of Gaussian, Inc.  The licensee
 of this program is prohibited from giving any competitor of
 Gaussian, Inc. access to this program.  By using this program,
 the user acknowledges that Gaussian, Inc. is engaged in the
 business of creating and licensing software in the field of
 computational chemistry and represents and warrants to the
 licensee that it is not a competitor of Gaussian, Inc. and that
 it will not use this program in any manner prohibited above.
 ---------------------------------------------------------------
  

 Cite this work as:
 Gaussian 16, Revision A.03,
 M. J. Frisch, G. W. Trucks, H. B. Schlegel, G. E. Scuseria, 
 M. A. Robb, J. R. Cheeseman, G. Scalmani, V. Barone, 
 G. A. Petersson, H. Nakatsuji, X. Li, M. Caricato, A. V. Marenich, 
 J. Bloino, B. G. Janesko, R. Gomperts, B. Mennucci, H. P. Hratchian, 
 J. V. Ortiz, A. F. Izmaylov, J. L. Sonnenberg, D. Williams-Young, 
 F. Ding, F. Lipparini, F. Egidi, J. Goings, B. Peng, A. Petrone, 
 T. Henderson, D. Ranasinghe, V. G. Zakrzewski, J. Gao, N. Rega, 
 G. Zheng, W. Liang, M. Hada, M. Ehara, K. Toyota, R. Fukuda, 
 J. Hasegawa, M. Ishida, T. Nakajima, Y. Honda, O. Kitao, H. Nakai, 
 T. Vreven, K. Throssell, J. A. Montgomery, Jr., J. E. Peralta, 
 F. Ogliaro, M. J. Bearpark, J. J. Heyd, E. N. Brothers, K. N. Kudin, 
 V. N. Staroverov, T. A. Keith, R. Kobayashi, J. Normand, 
 K. Raghavachari, A. P. Rendell, J. C. Burant, S. S. Iyengar, 
 J. Tomasi, M. Cossi, J. M. Millam, M. Klene, C. Adamo, R. Cammi, 
 J. W. Ochterski, R. L. Martin, K. Morokuma, O. Farkas, 
 J. B. Foresman, and D. J. Fox, Gaussian, Inc., Wallingford CT, 2016.
 
 ******************************************
 Gaussian 16:  EM64L-G16RevA.03 25-Dec-2016
                24-Jul-2020 
 ******************************************
 %mem=30GB
 %nproc=8
 Will use up to    8 processors via shared memory.
 ---------------------------------------------------------------
 #P uLC-wPBE/cc-pVDZ iop(3/107=0294100000, 3/108=0294100000) opt
 ---------------------------------------------------------------
 1/18=20,19=15,26=3,38=1/1,3;
 2/9=110,12=2,17=6,18=5,40=1/2;
 3/5=16,11=2,25=1,30=1,71=1,74=-41,107=294100000,108=294100000,116=2/1,2,3;
 4//1;
 5/5=2,38=5/2;
 6/7=2,8=2,9=2,10=2,28=1/1;
 7//1,2,3,16;
 1/18=20,19=15,26=3/3(2);
 2/9=110/2;
 99//99;
 2/9=110/2;
 3/5=16,11=2,25=1,30=1,71=1,74=-41,107=294100000,108=294100000,116=2/1,2,3;
 4/5=5,16=3,69=1/1;
 5/5=2,38=5/2;
 7//1,2,3,16;
 1/18=20,19=15,26=3/3(-5);
 2/9=110/2;
 6/7=2,8=2,9=2,10=2,19=2,28=1/1;
 99/9=1/99;
 Leave Link    1 at Fri Jul 24 09:00:17 2020, MaxMem=  4026531840 cpu:               1.7 elap:               0.2
 (Enter /opt/ohpc/pub/libs/gaussian/g16-A.03/sandybridge/g16/l101.exe)
 --------------
 H7 C9 S2 O1 F1
 --------------
 Symbolic Z-matrix:
 Charge =  0 Multiplicity = 1
 C                     3.10963   0.94848  -0.36709 
 C                     3.15975  -0.11105   0.46677 
 C                     1.88255  -0.67803   0.57126 
 F                     1.74168  -1.77984   1.32811 
 C                     0.8976   -0.01176  -0.10879 
 S                     1.59077   1.28761  -0.8932 
 C                    -0.4613   -0.40438  -0.10903 
 C                    -1.54742   0.43543   0.10327 
 O                    -1.40722   1.75103   0.56811 
 C                    -2.61692   2.48352   0.72222 
 C                    -2.82556  -0.19025  -0.023 
 C                    -2.68259  -1.52731  -0.39784 
 S                    -0.94457  -1.96975  -0.55253 
 H                     3.94678   1.59479  -0.64235 
 H                     4.07049  -0.48354   0.864 
 H                    -2.27012   3.46551   1.03366 
 H                    -3.10606   2.57889  -0.18711 
 H                    -3.14758   2.12119   1.52014 
 H                    -3.77764   0.19034   0.14666 
 H                    -3.39701  -2.2422   -0.62096 
 
 ITRead=  0  0  0  0  0  0  0  0  0  0  0  0  0  0  0  0  0  0  0  0
 MicOpt= -1 -1 -1 -1 -1 -1 -1 -1 -1 -1 -1 -1 -1 -1 -1 -1 -1 -1 -1 -1
 NAtoms=     20 NQM=       20 NQMF=       0 NMMI=      0 NMMIF=      0
                NMic=       0 NMicF=      0.
                    Isotopes and Nuclear Properties:
 (Nuclear quadrupole moments (NQMom) in fm**2, nuclear magnetic moments (NMagM)
  in nuclear magnetons)

  Atom         1           2           3           4           5           6           7           8           9          10
 IAtWgt=          12          12          12          19          12          32          12          12          16          12
 AtmWgt=  12.0000000  12.0000000  12.0000000  18.9984033  12.0000000  31.9720718  12.0000000  12.0000000  15.9949146  12.0000000
 NucSpn=           0           0           0           1           0           0           0           0           0           0
 AtZEff=  -0.0000000  -0.0000000  -0.0000000  -0.0000000  -0.0000000  -0.0000000  -0.0000000  -0.0000000  -0.0000000  -0.0000000
 NQMom=    0.0000000   0.0000000   0.0000000   0.0000000   0.0000000   0.0000000   0.0000000   0.0000000   0.0000000   0.0000000
 NMagM=    0.0000000   0.0000000   0.0000000   2.6288670   0.0000000   0.0000000   0.0000000   0.0000000   0.0000000   0.0000000
 AtZNuc=   6.0000000   6.0000000   6.0000000   9.0000000   6.0000000  16.0000000   6.0000000   6.0000000   8.0000000   6.0000000

  Atom        11          12          13          14          15          16          17          18          19          20
 IAtWgt=          12          12          32           1           1           1           1           1           1           1
 AtmWgt=  12.0000000  12.0000000  31.9720718   1.0078250   1.0078250   1.0078250   1.0078250   1.0078250   1.0078250   1.0078250
 NucSpn=           0           0           0           1           1           1           1           1           1           1
 AtZEff=  -0.0000000  -0.0000000  -0.0000000  -0.0000000  -0.0000000  -0.0000000  -0.0000000  -0.0000000  -0.0000000  -0.0000000
 NQMom=    0.0000000   0.0000000   0.0000000   0.0000000   0.0000000   0.0000000   0.0000000   0.0000000   0.0000000   0.0000000
 NMagM=    0.0000000   0.0000000   0.0000000   2.7928460   2.7928460   2.7928460   2.7928460   2.7928460   2.7928460   2.7928460
 AtZNuc=   6.0000000   6.0000000  16.0000000   1.0000000   1.0000000   1.0000000   1.0000000   1.0000000   1.0000000   1.0000000
 Leave Link  101 at Fri Jul 24 09:00:17 2020, MaxMem=  4026531840 cpu:               3.1 elap:               0.4
 (Enter /opt/ohpc/pub/libs/gaussian/g16-A.03/sandybridge/g16/l103.exe)

 GradGradGradGradGradGradGradGradGradGradGradGradGradGradGradGradGradGrad
 Berny optimization.
 Initialization pass.
                           ----------------------------
                           !    Initial Parameters    !
                           ! (Angstroms and Degrees)  !
 --------------------------                            --------------------------
 ! Name  Definition              Value          Derivative Info.                !
 --------------------------------------------------------------------------------
 ! R1    R(1,2)                  1.3492         estimate D2E/DX2                !
 ! R2    R(1,6)                  1.6428         estimate D2E/DX2                !
 ! R3    R(1,14)                 1.0928         estimate D2E/DX2                !
 ! R4    R(2,3)                  1.4013         estimate D2E/DX2                !
 ! R5    R(2,15)                 1.0611         estimate D2E/DX2                !
 ! R6    R(3,4)                  1.3441         estimate D2E/DX2                !
 ! R7    R(3,5)                  1.3699         estimate D2E/DX2                !
 ! R8    R(5,6)                  1.6686         estimate D2E/DX2                !
 ! R9    R(5,7)                  1.4145         estimate D2E/DX2                !
 ! R10   R(7,8)                  1.3892         estimate D2E/DX2                !
 ! R11   R(7,13)                 1.6972         estimate D2E/DX2                !
 ! R12   R(8,9)                  1.4023         estimate D2E/DX2                !
 ! R13   R(8,11)                 1.4287         estimate D2E/DX2                !
 ! R14   R(9,10)                 1.4226         estimate D2E/DX2                !
 ! R15   R(10,16)                1.087          estimate D2E/DX2                !
 ! R16   R(10,17)                1.0369         estimate D2E/DX2                !
 ! R17   R(10,18)                1.0245         estimate D2E/DX2                !
 ! R18   R(11,12)                1.396          estimate D2E/DX2                !
 ! R19   R(11,19)                1.0393         estimate D2E/DX2                !
 ! R20   R(12,13)                1.8001         estimate D2E/DX2                !
 ! R21   R(12,20)                1.035          estimate D2E/DX2                !
 ! A1    A(2,1,6)              113.2275         estimate D2E/DX2                !
 ! A2    A(2,1,14)             126.2727         estimate D2E/DX2                !
 ! A3    A(6,1,14)             120.3638         estimate D2E/DX2                !
 ! A4    A(1,2,3)              109.2663         estimate D2E/DX2                !
 ! A5    A(1,2,15)             122.6087         estimate D2E/DX2                !
 ! A6    A(3,2,15)             127.7579         estimate D2E/DX2                !
 ! A7    A(2,3,4)              117.981          estimate D2E/DX2                !
 ! A8    A(2,3,5)              114.9313         estimate D2E/DX2                !
 ! A9    A(4,3,5)              127.0765         estimate D2E/DX2                !
 ! A10   A(3,5,6)              108.2665         estimate D2E/DX2                !
 ! A11   A(3,5,7)              123.769          estimate D2E/DX2                !
 ! A12   A(6,5,7)              127.9645         estimate D2E/DX2                !
 ! A13   A(1,6,5)               94.1735         estimate D2E/DX2                !
 ! A14   A(5,7,8)              125.6807         estimate D2E/DX2                !
 ! A15   A(5,7,13)             121.9781         estimate D2E/DX2                !
 ! A16   A(8,7,13)             112.0158         estimate D2E/DX2                !
 ! A17   A(7,8,9)              122.6573         estimate D2E/DX2                !
 ! A18   A(7,8,11)             114.9096         estimate D2E/DX2                !
 ! A19   A(9,8,11)             121.9786         estimate D2E/DX2                !
 ! A20   A(8,9,10)             115.7189         estimate D2E/DX2                !
 ! A21   A(9,10,16)            102.9969         estimate D2E/DX2                !
 ! A22   A(9,10,17)            110.7009         estimate D2E/DX2                !
 ! A23   A(9,10,18)            110.0439         estimate D2E/DX2                !
 ! A24   A(16,10,17)           108.5819         estimate D2E/DX2                !
 ! A25   A(16,10,18)           105.1659         estimate D2E/DX2                !
 ! A26   A(17,10,18)           118.1124         estimate D2E/DX2                !
 ! A27   A(8,11,12)            110.5839         estimate D2E/DX2                !
 ! A28   A(8,11,19)            130.1491         estimate D2E/DX2                !
 ! A29   A(12,11,19)           119.2366         estimate D2E/DX2                !
 ! A30   A(11,12,13)           110.9391         estimate D2E/DX2                !
 ! A31   A(11,12,20)           130.4487         estimate D2E/DX2                !
 ! A32   A(13,12,20)           118.5646         estimate D2E/DX2                !
 ! A33   A(7,13,12)             91.4769         estimate D2E/DX2                !
 ! D1    D(6,1,2,3)              3.9583         estimate D2E/DX2                !
 ! D2    D(6,1,2,15)           177.4956         estimate D2E/DX2                !
 ! D3    D(14,1,2,3)           179.6976         estimate D2E/DX2                !
 ! D4    D(14,1,2,15)           -6.7651         estimate D2E/DX2                !
 ! D5    D(2,1,6,5)             -2.9095         estimate D2E/DX2                !
 ! D6    D(14,1,6,5)          -178.9289         estimate D2E/DX2                !
 ! D7    D(1,2,3,4)            177.768          estimate D2E/DX2                !
 ! D8    D(1,2,3,5)             -3.364          estimate D2E/DX2                !
 ! D9    D(15,2,3,4)             4.6558         estimate D2E/DX2                !
 ! D10   D(15,2,3,5)          -176.4762         estimate D2E/DX2                !
 ! D11   D(2,3,5,6)              1.293          estimate D2E/DX2                !
 ! D12   D(2,3,5,7)           -178.6676         estimate D2E/DX2                !
 ! D13   D(4,3,5,6)           -179.96           estimate D2E/DX2                !
 ! D14   D(4,3,5,7)              0.0794         estimate D2E/DX2                !
 ! D15   D(3,5,6,1)              0.8687         estimate D2E/DX2                !
 ! D16   D(7,5,6,1)           -179.1728         estimate D2E/DX2                !
 ! D17   D(3,5,7,8)            132.4876         estimate D2E/DX2                !
 ! D18   D(3,5,7,13)           -54.5965         estimate D2E/DX2                !
 ! D19   D(6,5,7,8)            -47.465          estimate D2E/DX2                !
 ! D20   D(6,5,7,13)           125.4509         estimate D2E/DX2                !
 ! D21   D(5,7,8,9)            -11.0271         estimate D2E/DX2                !
 ! D22   D(5,7,8,11)           176.5754         estimate D2E/DX2                !
 ! D23   D(13,7,8,9)           175.4519         estimate D2E/DX2                !
 ! D24   D(13,7,8,11)            3.0544         estimate D2E/DX2                !
 ! D25   D(5,7,13,12)         -175.7926         estimate D2E/DX2                !
 ! D26   D(8,7,13,12)           -1.9958         estimate D2E/DX2                !
 ! D27   D(7,8,9,10)           179.4848         estimate D2E/DX2                !
 ! D28   D(11,8,9,10)           -8.6475         estimate D2E/DX2                !
 ! D29   D(7,8,11,12)           -2.6085         estimate D2E/DX2                !
 ! D30   D(7,8,11,19)          175.3302         estimate D2E/DX2                !
 ! D31   D(9,8,11,12)         -175.0631         estimate D2E/DX2                !
 ! D32   D(9,8,11,19)            2.8756         estimate D2E/DX2                !
 ! D33   D(8,9,10,16)         -177.1835         estimate D2E/DX2                !
 ! D34   D(8,9,10,17)          -61.2817         estimate D2E/DX2                !
 ! D35   D(8,9,10,18)           71.1002         estimate D2E/DX2                !
 ! D36   D(8,11,12,13)           1.0214         estimate D2E/DX2                !
 ! D37   D(8,11,12,20)        -176.382          estimate D2E/DX2                !
 ! D38   D(19,11,12,13)       -177.173          estimate D2E/DX2                !
 ! D39   D(19,11,12,20)          5.4235         estimate D2E/DX2                !
 ! D40   D(11,12,13,7)           0.5349         estimate D2E/DX2                !
 ! D41   D(20,12,13,7)         178.2853         estimate D2E/DX2                !
 --------------------------------------------------------------------------------
 Trust Radius=3.00D-01 FncErr=1.00D-07 GrdErr=1.00D-06 EigMax=2.50D+02 EigMin=1.00D-04
 Number of steps in this run=    105 maximum allowed number of steps=    120.
 GradGradGradGradGradGradGradGradGradGradGradGradGradGradGradGradGradGrad

 Leave Link  103 at Fri Jul 24 09:00:17 2020, MaxMem=  4026531840 cpu:               0.2 elap:               0.0
 (Enter /opt/ohpc/pub/libs/gaussian/g16-A.03/sandybridge/g16/l202.exe)
                          Input orientation:                          
 ---------------------------------------------------------------------
 Center     Atomic      Atomic             Coordinates (Angstroms)
 Number     Number       Type             X           Y           Z
 ---------------------------------------------------------------------
      1          6           0        3.109630    0.948477   -0.367094
      2          6           0        3.159752   -0.111050    0.466767
      3          6           0        1.882546   -0.678030    0.571260
      4          9           0        1.741681   -1.779843    1.328109
      5          6           0        0.897599   -0.011764   -0.108790
      6         16           0        1.590773    1.287611   -0.893199
      7          6           0       -0.461303   -0.404378   -0.109032
      8          6           0       -1.547422    0.435430    0.103273
      9          8           0       -1.407222    1.751033    0.568112
     10          6           0       -2.616921    2.483518    0.722222
     11          6           0       -2.825558   -0.190247   -0.022995
     12          6           0       -2.682588   -1.527308   -0.397836
     13         16           0       -0.944570   -1.969745   -0.552526
     14          1           0        3.946776    1.594791   -0.642354
     15          1           0        4.070486   -0.483535    0.863997
     16          1           0       -2.270117    3.465514    1.033664
     17          1           0       -3.106057    2.578894   -0.187113
     18          1           0       -3.147581    2.121185    1.520143
     19          1           0       -3.777644    0.190343    0.146662
     20          1           0       -3.397005   -2.242204   -0.620961
 ---------------------------------------------------------------------
                    Distance matrix (angstroms):
                    1          2          3          4          5
     1  C    0.000000
     2  C    1.349235   0.000000
     3  C    2.243160   1.401299   0.000000
     4  F    3.491236   2.353233   1.344119   0.000000
     5  C    2.425256   2.336335   1.369854   2.429662   0.000000
     6  S    1.642780   2.503489   2.468505   3.790284   1.668581
     7  C    3.827320   3.678264   2.455873   2.968235   1.414482
     8  C    4.708779   4.752710   3.636411   4.150404   2.494610
     9  O    4.681950   4.933039   4.089368   4.791688   2.979572
    10  C    6.027964   6.337743   5.501216   6.127051   4.389631
    11  C    6.053227   6.005837   4.770463   5.021152   3.728420
    12  C    6.299226   6.073406   4.743508   4.755714   3.898482
    13  S    4.998694   4.619433   3.305149   3.284630   2.724734
    14  H    1.092842   2.181616   3.301457   4.487017   3.487577
    15  H    2.118841   1.061119   2.215988   2.705392   3.352028
    16  H    6.102399   6.526612   5.884504   6.610219   4.840567
    17  H    6.428485   6.850089   6.005734   6.692910   4.769372
    18  H    6.640000   6.773103   5.834223   6.257778   4.854521
    19  H    6.947896   6.951314   5.742134   5.978327   4.686577
    20  H    7.251289   6.979687   5.633976   5.515319   4.866293
                    6          7          8          9         10
     6  S    0.000000
     7  C    2.772861   0.000000
     8  C    3.401093   1.389246   0.000000
     9  O    3.367219   2.449303   1.402335   0.000000
    10  C    4.663096   3.698326   2.391985   1.422553   0.000000
    11  C    4.737647   2.375491   1.428652   2.475814   2.783504
    12  C    5.141086   2.505691   2.322079   3.647894   4.164801
    13  S    4.141786   1.697235   2.564833   3.913319   4.924763
    14  H    2.389149   4.869525   5.664476   5.491351   6.762693
    15  H    3.517623   4.635748   5.743178   5.923354   7.317439
    16  H    4.833481   4.421948   3.251050   1.975037   1.087007
    17  H    4.922010   3.987572   2.666103   2.035131   1.036938
    18  H    5.382477   4.030976   2.722095   2.017975   1.024482
    19  H    5.577204   3.378933   2.244068   2.869194   2.633856
    20  H    6.116505   3.501146   3.333946   4.617258   4.974447
                   11         12         13         14         15
    11  C    0.000000
    12  C    1.395951   0.000000
    13  S    2.642940   1.800107   0.000000
    14  H    7.030965   7.331832   6.053037   0.000000
    15  H    6.959037   6.948791   5.419054   2.569793   0.000000
    16  H    3.845729   5.210336   5.815076   6.705102   7.471748
    17  H    2.788146   4.133355   5.049324   7.135696   7.873123
    18  H    2.797801   4.148055   5.087723   7.435280   7.701661
    19  H    1.039279   2.108542   3.630586   7.890607   7.909603
    20  H    2.212384   1.035013   2.468472   8.285777   7.814182
                   16         17         18         19         20
    16  H    0.000000
    17  H    1.724873   0.000000
    18  H    1.677446   1.768034   0.000000
    19  H    3.712971   2.503520   2.451852   0.000000
    20  H    6.048612   4.849315   4.866796   2.579034   0.000000
 Stoichiometry    C9H7FOS2
 Framework group  C1[X(C9H7FOS2)]
 Deg. of freedom    54
 Full point group                 C1      NOp   1
 Largest Abelian subgroup         C1      NOp   1
 Largest concise Abelian subgroup C1      NOp   1
                         Standard orientation:                         
 ---------------------------------------------------------------------
 Center     Atomic      Atomic             Coordinates (Angstroms)
 Number     Number       Type             X           Y           Z
 ---------------------------------------------------------------------
      1          6           0        3.094875    0.978755   -0.374862
      2          6           0        3.154132   -0.069983    0.471939
      3          6           0        1.882984   -0.649869    0.579429
      4          9           0        1.751980   -1.743949    1.349157
      5          6           0        0.892849   -0.002906   -0.111636
      6         16           0        1.574015    1.294538   -0.909644
      7          6           0       -0.461597   -0.410627   -0.111235
      8          6           0       -1.557652    0.419520    0.087573
      9          8           0       -1.433559    1.742131    0.536842
     10          6           0       -2.651808    2.462887    0.678387
     11          6           0       -2.828347   -0.221857   -0.034970
     12          6           0       -2.669335   -1.561676   -0.393129
     13         16           0       -0.926025   -1.986537   -0.537171
     14          1           0        3.925652    1.630990   -0.655402
     15          1           0        4.067688   -0.427454    0.876417
     16          1           0       -2.316930    3.452386    0.978944
     17          1           0       -3.139092    2.541795   -0.233516
     18          1           0       -3.180931    2.104336    1.479032
     19          1           0       -3.785138    0.150114    0.127171
     20          1           0       -3.375050   -2.287143   -0.609731
 ---------------------------------------------------------------------
 Rotational constants (GHZ):           0.9429940           0.5259628           0.3870979
 Leave Link  202 at Fri Jul 24 09:00:18 2020, MaxMem=  4026531840 cpu:               0.1 elap:               0.0
 (Enter /opt/ohpc/pub/libs/gaussian/g16-A.03/sandybridge/g16/l301.exe)
 Standard basis: CC-pVDZ (5D, 7F)
 Ernie: Thresh=  0.10000D-02 Tol=  0.10000D-05 Strict=F.
 Ernie:  42 primitive shells out of 377 were deleted.
 There are   238 symmetry adapted cartesian basis functions of A   symmetry.
 There are   225 symmetry adapted basis functions of A   symmetry.
   225 basis functions,   554 primitive gaussians,   238 cartesian basis functions
    55 alpha electrons       55 beta electrons
       nuclear repulsion energy       989.3812639095 Hartrees.
 IExCor=32609 DFT=T Ex+Corr=LC-wPBE ExCW=0 ScaHFX=  1.000000
 ScaDFX=  1.000000  0.000000  1.000000  1.000000 ScalE2=  1.000000  1.000000
 IRadAn=      5 IRanWt=     -1 IRanGd=            0 ICorTp=0 IEmpDi=  4
 HFx  wShort=  0.000000 wLong=  0.294100 cFull=  0.000000 cShort=  0.000000 cLong=  1.000000
 DFx  wShort=  0.000000 wLong=  0.294100 cFull=  0.000000 cShort=  0.000000 cLong=  1.000000
 NAtoms=   20 NActive=   20 NUniq=   20 SFac= 1.00D+00 NAtFMM=   60 NAOKFM=F Big=F
 Integral buffers will be    131072 words long.
 Raffenetti 2 integral format.
 Two-electron integral symmetry is turned on.
 Leave Link  301 at Fri Jul 24 09:00:18 2020, MaxMem=  4026531840 cpu:               0.5 elap:               0.1
 (Enter /opt/ohpc/pub/libs/gaussian/g16-A.03/sandybridge/g16/l302.exe)
 NPDir=0 NMtPBC=     1 NCelOv=     1 NCel=       1 NClECP=     1 NCelD=      1
         NCelK=      1 NCelE2=     1 NClLst=     1 CellRange=     0.0.
 One-electron integrals computed using PRISM.
 One-electron integral symmetry used in STVInt
 NBasis=   225 RedAO= T EigKep=  6.33D-04  NBF=   225
 NBsUse=   225 1.00D-06 EigRej= -1.00D+00 NBFU=   225
 Precomputing XC quadrature grid using
 IXCGrd= 4 IRadAn=           5 IRanWt=          -1 IRanGd=           0 AccXCQ= 0.00D+00.
 Generated NRdTot=       0 NPtTot=           0 NUsed=           0 NTot=          32
 NSgBfM=   238   238   238   238   238 MxSgAt=    20 MxSgA2=    20.
 Leave Link  302 at Fri Jul 24 09:00:18 2020, MaxMem=  4026531840 cpu:               2.0 elap:               0.3
 (Enter /opt/ohpc/pub/libs/gaussian/g16-A.03/sandybridge/g16/l303.exe)
 DipDrv:  MaxL=1.
 Leave Link  303 at Fri Jul 24 09:00:18 2020, MaxMem=  4026531840 cpu:               0.6 elap:               0.2
 (Enter /opt/ohpc/pub/libs/gaussian/g16-A.03/sandybridge/g16/l401.exe)
 ExpMin= 1.22D-01 ExpMax= 1.11D+05 ExpMxC= 1.07D+03 IAcc=3 IRadAn=         5 AccDes= 0.00D+00
 Harris functional with IExCor=32609 and IRadAn=       5 diagonalized for initial guess.
 HarFok:  IExCor=32609 AccDes= 0.00D+00 IRadAn=         5 IDoV= 1 UseB2=F ITyADJ=14
 ICtDFT=  3500011 ScaDFX=  1.000000  1.000000  1.000000  1.000000
 FoFCou: FMM=F IPFlag=           0 FMFlag=      100000 FMFlg1=           0
         NFxFlg=           0 DoJE=T BraDBF=F KetDBF=T FulRan=T
         wScrn=  0.000000 ICntrl=       500 IOpCl=  0 I1Cent=   200000004 NGrid=           0
         NMat0=    1 NMatS0=      1 NMatT0=    0 NMatD0=    1 NMtDS0=    0 NMtDT0=    0
 Petite list used in FoFCou.
 Harris En= -1317.82614040483    
 JPrj=0 DoOrth=F DoCkMO=F.
 Initial guess <Sx>= 0.0000 <Sy>= 0.0000 <Sz>= 0.0000 <S**2>=-0.0000 S=-0.0000
 Leave Link  401 at Fri Jul 24 09:00:20 2020, MaxMem=  4026531840 cpu:              10.1 elap:               1.3
 (Enter /opt/ohpc/pub/libs/gaussian/g16-A.03/sandybridge/g16/l502.exe)
 Integral symmetry usage will be decided dynamically.
 UHF open shell SCF:
 Using DIIS extrapolation, IDIIS=  1040.
 NGot=  4026531840 LenX=  4026414100 LenY=  4026357015
 Requested convergence on RMS density matrix=1.00D-08 within 128 cycles.
 Requested convergence on MAX density matrix=1.00D-06.
 Requested convergence on             energy=1.00D-06.
 No special actions if energy rises.
 Fock matrices will be formed incrementally for  20 cycles.
 Integral accuracy reduced to 1.0D-05 until final iterations.

 Cycle   1  Pass 0  IDiag  1:
 FoFJK:  IHMeth= 1 ICntrl=       0 DoSepK=T KAlg= 0 I1Cent=           0 FoldK=F
 IRaf=         1 NMat=       1 IRICut=       1 DoRegI=T DoRafI=F ISym2E= 0 IDoP0=0 IntGTp=1.
 FoFCou: FMM=F IPFlag=           0 FMFlag=      100000 FMFlg1=           0
         NFxFlg=           0 DoJE=T BraDBF=F KetDBF=F FulRan=T
         wScrn=  0.000000 ICntrl=       500 IOpCl=  0 I1Cent=           0 NGrid=           0
         NMat0=    1 NMatS0=      1 NMatT0=    0 NMatD0=    1 NMtDS0=    0 NMtDT0=    0
 Symmetry not used in FoFCou.
 E= -1317.58165441919    
 DIIS: error= 2.15D-02 at cycle   1 NSaved=   1.
 NSaved= 1 IEnMin= 1 EnMin= -1317.58165441919     IErMin= 1 ErrMin= 2.15D-02
 ErrMax= 2.15D-02  0.00D+00 EMaxC= 1.00D-01 BMatC= 1.22D+00 BMatP= 1.22D+00
 IDIUse=3 WtCom= 7.85D-01 WtEn= 2.15D-01
 Coeff-Com:  0.100D+01
 Coeff-En:   0.100D+01
 Coeff:      0.100D+01
 Gap=     0.315 Goal=   None    Shift=    0.000
 Gap=     0.315 Goal=   None    Shift=    0.000
 GapD=    0.315 DampG=1.000 DampE=0.500 DampFc=0.5000 IDamp=-1.
 Damping current iteration by 5.00D-01
 RMSDP=4.77D-03 MaxDP=1.38D-01              OVMax= 1.77D-01

 Cycle   2  Pass 0  IDiag  1:
 RMSU=  2.38D-03    CP:  9.93D-01
 E= -1317.75585012482     Delta-E=       -0.174195705629 Rises=F Damp=T
 DIIS: error= 4.40D-03 at cycle   2 NSaved=   2.
 NSaved= 2 IEnMin= 2 EnMin= -1317.75585012482     IErMin= 2 ErrMin= 4.40D-03
 ErrMax= 4.40D-03  0.00D+00 EMaxC= 1.00D-01 BMatC= 3.83D-02 BMatP= 1.22D+00
 IDIUse=3 WtCom= 9.56D-01 WtEn= 4.40D-02
 Coeff-Com: -0.362D-01 0.104D+01
 Coeff-En:   0.000D+00 0.100D+01
 Coeff:     -0.346D-01 0.103D+01
 Gap=     0.350 Goal=   None    Shift=    0.000
 Gap=     0.350 Goal=   None    Shift=    0.000
 RMSDP=1.05D-03 MaxDP=2.49D-02 DE=-1.74D-01 OVMax= 1.06D-01

 Cycle   3  Pass 0  IDiag  1:
 RMSU=  1.01D-03    CP:  9.89D-01  1.10D+00
 E= -1317.92245088446     Delta-E=       -0.166600759640 Rises=F Damp=F
 DIIS: error= 1.67D-03 at cycle   3 NSaved=   3.
 NSaved= 3 IEnMin= 3 EnMin= -1317.92245088446     IErMin= 3 ErrMin= 1.67D-03
 ErrMax= 1.67D-03  0.00D+00 EMaxC= 1.00D-01 BMatC= 7.10D-03 BMatP= 3.83D-02
 IDIUse=3 WtCom= 9.83D-01 WtEn= 1.67D-02
 Coeff-Com: -0.103D-01 0.244D+00 0.766D+00
 Coeff-En:   0.000D+00 0.000D+00 0.100D+01
 Coeff:     -0.101D-01 0.240D+00 0.770D+00
 Gap=     0.316 Goal=   None    Shift=    0.000
 Gap=     0.316 Goal=   None    Shift=    0.000
 RMSDP=2.94D-04 MaxDP=9.64D-03 DE=-1.67D-01 OVMax= 2.00D-02

 Cycle   4  Pass 0  IDiag  1:
 RMSU=  2.79D-04    CP:  9.89D-01  1.13D+00  9.34D-01
 E= -1317.92401921974     Delta-E=       -0.001568335286 Rises=F Damp=F
 DIIS: error= 8.93D-04 at cycle   4 NSaved=   4.
 NSaved= 4 IEnMin= 4 EnMin= -1317.92401921974     IErMin= 4 ErrMin= 8.93D-04
 ErrMax= 8.93D-04  0.00D+00 EMaxC= 1.00D-01 BMatC= 2.85D-03 BMatP= 7.10D-03
 IDIUse=3 WtCom= 9.91D-01 WtEn= 8.93D-03
 Coeff-Com:  0.635D-02-0.105D-01 0.362D+00 0.642D+00
 Coeff-En:   0.000D+00 0.000D+00 0.655D-01 0.935D+00
 Coeff:      0.629D-02-0.104D-01 0.360D+00 0.644D+00
 Gap=     0.317 Goal=   None    Shift=    0.000
 Gap=     0.317 Goal=   None    Shift=    0.000
 RMSDP=1.44D-04 MaxDP=4.85D-03 DE=-1.57D-03 OVMax= 8.77D-03

 Cycle   5  Pass 0  IDiag  1:
 RMSU=  1.11D-04    CP:  9.89D-01  1.12D+00  1.02D+00  8.83D-01
 E= -1317.92479681729     Delta-E=       -0.000777597545 Rises=F Damp=F
 DIIS: error= 3.28D-04 at cycle   5 NSaved=   5.
 NSaved= 5 IEnMin= 5 EnMin= -1317.92479681729     IErMin= 5 ErrMin= 3.28D-04
 ErrMax= 3.28D-04  0.00D+00 EMaxC= 1.00D-01 BMatC= 2.44D-04 BMatP= 2.85D-03
 IDIUse=3 WtCom= 9.97D-01 WtEn= 3.28D-03
 Coeff-Com:  0.689D-02-0.405D-01 0.215D-01 0.207D+00 0.805D+00
 Coeff-En:   0.000D+00 0.000D+00 0.000D+00 0.000D+00 0.100D+01
 Coeff:      0.686D-02-0.403D-01 0.214D-01 0.206D+00 0.806D+00
 Gap=     0.318 Goal=   None    Shift=    0.000
 Gap=     0.318 Goal=   None    Shift=    0.000
 RMSDP=6.73D-05 MaxDP=1.88D-03 DE=-7.78D-04 OVMax= 5.15D-03

 Cycle   6  Pass 0  IDiag  1:
 RMSU=  4.62D-05    CP:  9.89D-01  1.12D+00  1.04D+00  1.03D+00  1.07D+00
 E= -1317.92491461801     Delta-E=       -0.000117800721 Rises=F Damp=F
 DIIS: error= 2.01D-04 at cycle   6 NSaved=   6.
 NSaved= 6 IEnMin= 6 EnMin= -1317.92491461801     IErMin= 6 ErrMin= 2.01D-04
 ErrMax= 2.01D-04  0.00D+00 EMaxC= 1.00D-01 BMatC= 5.64D-05 BMatP= 2.44D-04
 IDIUse=3 WtCom= 9.98D-01 WtEn= 2.01D-03
 Coeff-Com:  0.280D-02-0.181D-01-0.446D-01-0.187D-01 0.324D+00 0.754D+00
 Coeff-En:   0.000D+00 0.000D+00 0.000D+00 0.000D+00 0.000D+00 0.100D+01
 Coeff:      0.280D-02-0.180D-01-0.445D-01-0.186D-01 0.324D+00 0.755D+00
 Gap=     0.318 Goal=   None    Shift=    0.000
 Gap=     0.318 Goal=   None    Shift=    0.000
 RMSDP=3.39D-05 MaxDP=1.03D-03 DE=-1.18D-04 OVMax= 2.60D-03

 Cycle   7  Pass 0  IDiag  1:
 RMSU=  2.16D-05    CP:  9.89D-01  1.12D+00  1.05D+00  1.07D+00  1.26D+00
                    CP:  1.10D+00
 E= -1317.92494627171     Delta-E=       -0.000031653700 Rises=F Damp=F
 DIIS: error= 7.06D-05 at cycle   7 NSaved=   7.
 NSaved= 7 IEnMin= 7 EnMin= -1317.92494627171     IErMin= 7 ErrMin= 7.06D-05
 ErrMax= 7.06D-05  0.00D+00 EMaxC= 1.00D-01 BMatC= 1.17D-05 BMatP= 5.64D-05
 IDIUse=1 WtCom= 1.00D+00 WtEn= 0.00D+00
 Coeff-Com: -0.379D-03 0.222D-02-0.160D-01-0.575D-01-0.861D-01 0.292D+00
 Coeff-Com:  0.866D+00
 Coeff:     -0.379D-03 0.222D-02-0.160D-01-0.575D-01-0.861D-01 0.292D+00
 Coeff:      0.866D+00
 Gap=     0.318 Goal=   None    Shift=    0.000
 Gap=     0.318 Goal=   None    Shift=    0.000
 RMSDP=2.06D-05 MaxDP=5.49D-04 DE=-3.17D-05 OVMax= 1.71D-03

 Cycle   8  Pass 0  IDiag  1:
 RMSU=  8.81D-06    CP:  9.89D-01  1.12D+00  1.06D+00  1.10D+00  1.33D+00
                    CP:  1.40D+00  1.14D+00
 E= -1317.92495386167     Delta-E=       -0.000007589961 Rises=F Damp=F
 DIIS: error= 3.55D-05 at cycle   8 NSaved=   8.
 NSaved= 8 IEnMin= 8 EnMin= -1317.92495386167     IErMin= 8 ErrMin= 3.55D-05
 ErrMax= 3.55D-05  0.00D+00 EMaxC= 1.00D-01 BMatC= 1.63D-06 BMatP= 1.17D-05
 IDIUse=1 WtCom= 1.00D+00 WtEn= 0.00D+00
 Coeff-Com: -0.477D-03 0.340D-02 0.140D-02-0.200D-01-0.828D-01-0.101D-01
 Coeff-Com:  0.324D+00 0.784D+00
 Coeff:     -0.477D-03 0.340D-02 0.140D-02-0.200D-01-0.828D-01-0.101D-01
 Coeff:      0.324D+00 0.784D+00
 Gap=     0.318 Goal=   None    Shift=    0.000
 Gap=     0.318 Goal=   None    Shift=    0.000
 RMSDP=7.25D-06 MaxDP=2.23D-04 DE=-7.59D-06 OVMax= 5.33D-04

 Initial convergence to 1.0D-05 achieved.  Increase integral accuracy.
 Cycle   9  Pass 1  IDiag  1:
 E= -1317.92480881340     Delta-E=        0.000145048276 Rises=F Damp=F
 DIIS: error= 4.35D-05 at cycle   1 NSaved=   1.
 NSaved= 1 IEnMin= 1 EnMin= -1317.92480881340     IErMin= 1 ErrMin= 4.35D-05
 ErrMax= 4.35D-05  0.00D+00 EMaxC= 1.00D-01 BMatC= 9.75D-07 BMatP= 9.75D-07
 IDIUse=1 WtCom= 1.00D+00 WtEn= 0.00D+00
 Coeff-Com:  0.100D+01
 Coeff:      0.100D+01
 Gap=     0.318 Goal=   None    Shift=    0.000
 Gap=     0.318 Goal=   None    Shift=    0.000
 RMSDP=7.25D-06 MaxDP=2.23D-04 DE= 1.45D-04 OVMax= 1.66D-04

 Cycle  10  Pass 1  IDiag  1:
 RMSU=  1.98D-05    CP:  1.00D+00
 E= -1317.92480908263     Delta-E=       -0.000000269235 Rises=F Damp=F
 DIIS: error= 6.70D-06 at cycle   2 NSaved=   2.
 NSaved= 2 IEnMin= 2 EnMin= -1317.92480908263     IErMin= 2 ErrMin= 6.70D-06
 ErrMax= 6.70D-06  0.00D+00 EMaxC= 1.00D-01 BMatC= 7.78D-08 BMatP= 9.75D-07
 IDIUse=1 WtCom= 1.00D+00 WtEn= 0.00D+00
 Coeff-Com:  0.739D-01 0.926D+00
 Coeff:      0.739D-01 0.926D+00
 Gap=     0.318 Goal=   None    Shift=    0.000
 Gap=     0.318 Goal=   None    Shift=    0.000
 RMSDP=1.72D-06 MaxDP=3.41D-05 DE=-2.69D-07 OVMax= 8.90D-05

 Cycle  11  Pass 1  IDiag  1:
 RMSU=  1.30D-06    CP:  1.00D+00  1.06D+00
 E= -1317.92480911397     Delta-E=       -0.000000031343 Rises=F Damp=F
 DIIS: error= 7.58D-06 at cycle   3 NSaved=   3.
 NSaved= 3 IEnMin= 3 EnMin= -1317.92480911397     IErMin= 2 ErrMin= 6.70D-06
 ErrMax= 7.58D-06  0.00D+00 EMaxC= 1.00D-01 BMatC= 6.08D-08 BMatP= 7.78D-08
 IDIUse=1 WtCom= 1.00D+00 WtEn= 0.00D+00
 Coeff-Com: -0.353D-01 0.470D+00 0.565D+00
 Coeff:     -0.353D-01 0.470D+00 0.565D+00
 Gap=     0.318 Goal=   None    Shift=    0.000
 Gap=     0.318 Goal=   None    Shift=    0.000
 RMSDP=6.51D-07 MaxDP=1.71D-05 DE=-3.13D-08 OVMax= 3.65D-05

 Cycle  12  Pass 1  IDiag  1:
 RMSU=  5.69D-07    CP:  1.00D+00  1.07D+00  8.41D-01
 E= -1317.92480913080     Delta-E=       -0.000000016827 Rises=F Damp=F
 DIIS: error= 1.10D-06 at cycle   4 NSaved=   4.
 NSaved= 4 IEnMin= 4 EnMin= -1317.92480913080     IErMin= 4 ErrMin= 1.10D-06
 ErrMax= 1.10D-06  0.00D+00 EMaxC= 1.00D-01 BMatC= 2.48D-09 BMatP= 6.08D-08
 IDIUse=1 WtCom= 1.00D+00 WtEn= 0.00D+00
 Coeff-Com: -0.669D-02-0.770D-01-0.146D-01 0.110D+01
 Coeff:     -0.669D-02-0.770D-01-0.146D-01 0.110D+01
 Gap=     0.318 Goal=   None    Shift=    0.000
 Gap=     0.318 Goal=   None    Shift=    0.000
 RMSDP=4.01D-07 MaxDP=1.25D-05 DE=-1.68D-08 OVMax= 3.80D-05

 Cycle  13  Pass 1  IDiag  1:
 RMSU=  1.69D-07    CP:  1.00D+00  1.07D+00  1.04D+00  1.44D+00
 E= -1317.92480913409     Delta-E=       -0.000000003291 Rises=F Damp=F
 DIIS: error= 7.49D-07 at cycle   5 NSaved=   5.
 NSaved= 5 IEnMin= 5 EnMin= -1317.92480913409     IErMin= 5 ErrMin= 7.49D-07
 ErrMax= 7.49D-07  0.00D+00 EMaxC= 1.00D-01 BMatC= 9.76D-10 BMatP= 2.48D-09
 IDIUse=1 WtCom= 1.00D+00 WtEn= 0.00D+00
 Coeff-Com:  0.933D-02-0.199D+00-0.212D+00 0.481D+00 0.921D+00
 Coeff:      0.933D-02-0.199D+00-0.212D+00 0.481D+00 0.921D+00
 Gap=     0.318 Goal=   None    Shift=    0.000
 Gap=     0.318 Goal=   None    Shift=    0.000
 RMSDP=2.71D-07 MaxDP=7.81D-06 DE=-3.29D-09 OVMax= 2.72D-05

 Cycle  14  Pass 1  IDiag  1:
 RMSU=  7.78D-08    CP:  1.00D+00  1.07D+00  1.14D+00  1.82D+00  1.23D+00
 E= -1317.92480913490     Delta-E=       -0.000000000806 Rises=F Damp=F
 DIIS: error= 1.21D-07 at cycle   6 NSaved=   6.
 NSaved= 6 IEnMin= 6 EnMin= -1317.92480913490     IErMin= 6 ErrMin= 1.21D-07
 ErrMax= 1.21D-07  0.00D+00 EMaxC= 1.00D-01 BMatC= 3.27D-11 BMatP= 9.76D-10
 IDIUse=1 WtCom= 1.00D+00 WtEn= 0.00D+00
 Coeff-Com:  0.237D-02-0.394D-01-0.482D-01 0.521D-01 0.217D+00 0.816D+00
 Coeff:      0.237D-02-0.394D-01-0.482D-01 0.521D-01 0.217D+00 0.816D+00
 Gap=     0.318 Goal=   None    Shift=    0.000
 Gap=     0.318 Goal=   None    Shift=    0.000
 RMSDP=3.12D-08 MaxDP=9.94D-07 DE=-8.06D-10 OVMax= 2.48D-06

 Cycle  15  Pass 1  IDiag  1:
 RMSU=  1.84D-08    CP:  1.00D+00  1.07D+00  1.15D+00  1.85D+00  1.31D+00
                    CP:  1.10D+00
 E= -1317.92480913491     Delta-E=       -0.000000000015 Rises=F Damp=F
 DIIS: error= 4.93D-08 at cycle   7 NSaved=   7.
 NSaved= 7 IEnMin= 7 EnMin= -1317.92480913491     IErMin= 7 ErrMin= 4.93D-08
 ErrMax= 4.93D-08  0.00D+00 EMaxC= 1.00D-01 BMatC= 8.61D-12 BMatP= 3.27D-11
 IDIUse=1 WtCom= 1.00D+00 WtEn= 0.00D+00
 Coeff-Com: -0.529D-03 0.158D-01 0.138D-01-0.556D-01-0.587D-01 0.326D+00
 Coeff-Com:  0.760D+00
 Coeff:     -0.529D-03 0.158D-01 0.138D-01-0.556D-01-0.587D-01 0.326D+00
 Coeff:      0.760D+00
 Gap=     0.318 Goal=   None    Shift=    0.000
 Gap=     0.318 Goal=   None    Shift=    0.000
 RMSDP=1.33D-08 MaxDP=3.59D-07 DE=-1.46D-11 OVMax= 1.05D-06

 Cycle  16  Pass 1  IDiag  1:
 RMSU=  7.55D-09    CP:  1.00D+00  1.07D+00  1.15D+00  1.86D+00  1.34D+00
                    CP:  1.20D+00  9.20D-01
 E= -1317.92480913493     Delta-E=       -0.000000000014 Rises=F Damp=F
 DIIS: error= 2.16D-08 at cycle   8 NSaved=   8.
 NSaved= 8 IEnMin= 8 EnMin= -1317.92480913493     IErMin= 8 ErrMin= 2.16D-08
 ErrMax= 2.16D-08  0.00D+00 EMaxC= 1.00D-01 BMatC= 7.51D-13 BMatP= 8.61D-12
 IDIUse=1 WtCom= 1.00D+00 WtEn= 0.00D+00
 Coeff-Com: -0.435D-03 0.967D-02 0.982D-02-0.256D-01-0.435D-01 0.259D-01
 Coeff-Com:  0.241D+00 0.784D+00
 Coeff:     -0.435D-03 0.967D-02 0.982D-02-0.256D-01-0.435D-01 0.259D-01
 Coeff:      0.241D+00 0.784D+00
 Gap=     0.318 Goal=   None    Shift=    0.000
 Gap=     0.318 Goal=   None    Shift=    0.000
 RMSDP=4.21D-09 MaxDP=1.30D-07 DE=-1.41D-11 OVMax= 2.26D-07

 SCF Done:  E(ULC-wPBE) =  -1317.92480913     A.U. after   16 cycles
            NFock= 16  Conv=0.42D-08     -V/T= 2.0033
 <Sx>= 0.0000 <Sy>= 0.0000 <Sz>= 0.0000 <S**2>=-0.0000 S=-0.0000
 <L.S>= 0.000000000000E+00
 KE= 1.313632669897D+03 PE=-5.092432885215D+03 EE= 1.471494142274D+03
 Annihilation of the first spin contaminant:
 S**2 before annihilation    -0.0000,   after    -0.0000
 Leave Link  502 at Fri Jul 24 09:01:19 2020, MaxMem=  4026531840 cpu:             476.3 elap:              59.8
 (Enter /opt/ohpc/pub/libs/gaussian/g16-A.03/sandybridge/g16/l601.exe)
 Copying SCF densities to generalized density rwf, IOpCl= 1 IROHF=0.

 **********************************************************************

            Population analysis using the SCF density.

 **********************************************************************

 Orbital symmetries:
 Alpha Orbitals:
       Occupied  (A) (A) (A) (A) (A) (A) (A) (A) (A) (A) (A) (A)
                 (A) (A) (A) (A) (A) (A) (A) (A) (A) (A) (A) (A)
                 (A) (A) (A) (A) (A) (A) (A) (A) (A) (A) (A) (A)
                 (A) (A) (A) (A) (A) (A) (A) (A) (A) (A) (A) (A)
                 (A) (A) (A) (A) (A) (A) (A)
       Virtual   (A) (A) (A) (A) (A) (A) (A) (A) (A) (A) (A) (A)
                 (A) (A) (A) (A) (A) (A) (A) (A) (A) (A) (A) (A)
                 (A) (A) (A) (A) (A) (A) (A) (A) (A) (A) (A) (A)
                 (A) (A) (A) (A) (A) (A) (A) (A) (A) (A) (A) (A)
                 (A) (A) (A) (A) (A) (A) (A) (A) (A) (A) (A) (A)
                 (A) (A) (A) (A) (A) (A) (A) (A) (A) (A) (A) (A)
                 (A) (A) (A) (A) (A) (A) (A) (A) (A) (A) (A) (A)
                 (A) (A) (A) (A) (A) (A) (A) (A) (A) (A) (A) (A)
                 (A) (A) (A) (A) (A) (A) (A) (A) (A) (A) (A) (A)
                 (A) (A) (A) (A) (A) (A) (A) (A) (A) (A) (A) (A)
                 (A) (A) (A) (A) (A) (A) (A) (A) (A) (A) (A) (A)
                 (A) (A) (A) (A) (A) (A) (A) (A) (A) (A) (A) (A)
                 (A) (A) (A) (A) (A) (A) (A) (A) (A) (A) (A) (A)
                 (A) (A) (A) (A) (A) (A) (A) (A) (A) (A) (A) (A)
                 (A) (A)
 Beta  Orbitals:
       Occupied  (A) (A) (A) (A) (A) (A) (A) (A) (A) (A) (A) (A)
                 (A) (A) (A) (A) (A) (A) (A) (A) (A) (A) (A) (A)
                 (A) (A) (A) (A) (A) (A) (A) (A) (A) (A) (A) (A)
                 (A) (A) (A) (A) (A) (A) (A) (A) (A) (A) (A) (A)
                 (A) (A) (A) (A) (A) (A) (A)
       Virtual   (A) (A) (A) (A) (A) (A) (A) (A) (A) (A) (A) (A)
                 (A) (A) (A) (A) (A) (A) (A) (A) (A) (A) (A) (A)
                 (A) (A) (A) (A) (A) (A) (A) (A) (A) (A) (A) (A)
                 (A) (A) (A) (A) (A) (A) (A) (A) (A) (A) (A) (A)
                 (A) (A) (A) (A) (A) (A) (A) (A) (A) (A) (A) (A)
                 (A) (A) (A) (A) (A) (A) (A) (A) (A) (A) (A) (A)
                 (A) (A) (A) (A) (A) (A) (A) (A) (A) (A) (A) (A)
                 (A) (A) (A) (A) (A) (A) (A) (A) (A) (A) (A) (A)
                 (A) (A) (A) (A) (A) (A) (A) (A) (A) (A) (A) (A)
                 (A) (A) (A) (A) (A) (A) (A) (A) (A) (A) (A) (A)
                 (A) (A) (A) (A) (A) (A) (A) (A) (A) (A) (A) (A)
                 (A) (A) (A) (A) (A) (A) (A) (A) (A) (A) (A) (A)
                 (A) (A) (A) (A) (A) (A) (A) (A) (A) (A) (A) (A)
                 (A) (A) (A) (A) (A) (A) (A) (A) (A) (A) (A) (A)
                 (A) (A)
 The electronic state is 1-A.
 Alpha  occ. eigenvalues --  -88.26311 -88.26191 -24.44179 -18.95173 -10.13535
 Alpha  occ. eigenvalues --  -10.12387 -10.10112 -10.09663 -10.09122 -10.08946
 Alpha  occ. eigenvalues --  -10.08533 -10.07190 -10.05904  -7.87047  -7.86762
 Alpha  occ. eigenvalues --   -5.88859  -5.88618  -5.88329  -5.88135  -5.88002
 Alpha  occ. eigenvalues --   -5.87706  -1.28316  -1.13228  -1.01208  -0.97370
 Alpha  occ. eigenvalues --   -0.87480  -0.84477  -0.83773  -0.81468  -0.77734
 Alpha  occ. eigenvalues --   -0.70134  -0.68414  -0.66273  -0.64655  -0.63272
 Alpha  occ. eigenvalues --   -0.58724  -0.57952  -0.55821  -0.55095  -0.53830
 Alpha  occ. eigenvalues --   -0.53638  -0.52359  -0.50206  -0.49917  -0.48243
 Alpha  occ. eigenvalues --   -0.47459  -0.45692  -0.43847  -0.42842  -0.42029
 Alpha  occ. eigenvalues --   -0.40969  -0.35873  -0.33433  -0.32150  -0.28178
 Alpha virt. eigenvalues --    0.03632   0.07698   0.10600   0.12546   0.14395
 Alpha virt. eigenvalues --    0.15295   0.15554   0.16718   0.17764   0.19446
 Alpha virt. eigenvalues --    0.20556   0.21304   0.22542   0.22608   0.23304
 Alpha virt. eigenvalues --    0.23840   0.26823   0.32116   0.33600   0.34947
 Alpha virt. eigenvalues --    0.37449   0.40117   0.42950   0.47264   0.49295
 Alpha virt. eigenvalues --    0.49859   0.51470   0.52124   0.53042   0.53512
 Alpha virt. eigenvalues --    0.54159   0.54766   0.55176   0.55885   0.56905
 Alpha virt. eigenvalues --    0.57364   0.57725   0.57911   0.58027   0.58752
 Alpha virt. eigenvalues --    0.59159   0.59327   0.62297   0.62936   0.65030
 Alpha virt. eigenvalues --    0.65303   0.66361   0.67129   0.68176   0.70377
 Alpha virt. eigenvalues --    0.71206   0.72604   0.73086   0.74514   0.75539
 Alpha virt. eigenvalues --    0.76212   0.77456   0.78363   0.79399   0.80290
 Alpha virt. eigenvalues --    0.81394   0.83367   0.84510   0.85395   0.86190
 Alpha virt. eigenvalues --    0.87794   0.92595   0.93154   0.93641   0.96148
 Alpha virt. eigenvalues --    0.98580   1.00345   1.01403   1.02791   1.03576
 Alpha virt. eigenvalues --    1.04861   1.06205   1.06893   1.07849   1.09065
 Alpha virt. eigenvalues --    1.09921   1.12832   1.15493   1.17495   1.18646
 Alpha virt. eigenvalues --    1.21350   1.24102   1.24193   1.28111   1.28990
 Alpha virt. eigenvalues --    1.30424   1.31601   1.34150   1.35005   1.36598
 Alpha virt. eigenvalues --    1.40297   1.41020   1.41864   1.44456   1.46449
 Alpha virt. eigenvalues --    1.47465   1.49354   1.50137   1.51870   1.55028
 Alpha virt. eigenvalues --    1.58594   1.60736   1.60971   1.62304   1.63611
 Alpha virt. eigenvalues --    1.64776   1.68094   1.68420   1.71176   1.72553
 Alpha virt. eigenvalues --    1.74063   1.75513   1.77605   1.78392   1.80591
 Alpha virt. eigenvalues --    1.80948   1.81830   1.82339   1.83486   1.85093
 Alpha virt. eigenvalues --    1.86101   1.89122   1.92829   1.93614   1.97505
 Alpha virt. eigenvalues --    1.99207   2.00778   2.01717   2.06239   2.08174
 Alpha virt. eigenvalues --    2.12648   2.13592   2.14334   2.15831   2.17586
 Alpha virt. eigenvalues --    2.20667   2.21608   2.23334   2.26451   2.32861
 Alpha virt. eigenvalues --    2.35175   2.39460   2.41210   2.51436   2.53593
 Alpha virt. eigenvalues --    2.54265   2.56504   2.59092   2.59970   2.62977
 Alpha virt. eigenvalues --    2.66472   2.68815   2.76284   2.95387   3.06941
 Alpha virt. eigenvalues --    3.09146   3.10282   3.11843   3.38338   3.51206
 Alpha virt. eigenvalues --    3.63345   3.65131   3.84115   4.03979   4.24254
  Beta  occ. eigenvalues --  -88.26311 -88.26191 -24.44179 -18.95173 -10.13535
  Beta  occ. eigenvalues --  -10.12387 -10.10112 -10.09663 -10.09122 -10.08946
  Beta  occ. eigenvalues --  -10.08533 -10.07190 -10.05904  -7.87047  -7.86762
  Beta  occ. eigenvalues --   -5.88859  -5.88618  -5.88329  -5.88135  -5.88002
  Beta  occ. eigenvalues --   -5.87706  -1.28316  -1.13228  -1.01208  -0.97370
  Beta  occ. eigenvalues --   -0.87480  -0.84477  -0.83773  -0.81468  -0.77734
  Beta  occ. eigenvalues --   -0.70134  -0.68414  -0.66273  -0.64655  -0.63272
  Beta  occ. eigenvalues --   -0.58724  -0.57952  -0.55821  -0.55095  -0.53830
  Beta  occ. eigenvalues --   -0.53638  -0.52359  -0.50206  -0.49917  -0.48243
  Beta  occ. eigenvalues --   -0.47459  -0.45692  -0.43847  -0.42842  -0.42029
  Beta  occ. eigenvalues --   -0.40969  -0.35873  -0.33433  -0.32150  -0.28178
  Beta virt. eigenvalues --    0.03632   0.07698   0.10600   0.12546   0.14395
  Beta virt. eigenvalues --    0.15295   0.15554   0.16718   0.17764   0.19446
  Beta virt. eigenvalues --    0.20556   0.21304   0.22542   0.22608   0.23304
  Beta virt. eigenvalues --    0.23840   0.26823   0.32116   0.33600   0.34947
  Beta virt. eigenvalues --    0.37449   0.40117   0.42950   0.47264   0.49295
  Beta virt. eigenvalues --    0.49859   0.51470   0.52124   0.53042   0.53512
  Beta virt. eigenvalues --    0.54159   0.54766   0.55176   0.55885   0.56905
  Beta virt. eigenvalues --    0.57364   0.57725   0.57911   0.58027   0.58752
  Beta virt. eigenvalues --    0.59159   0.59327   0.62297   0.62936   0.65030
  Beta virt. eigenvalues --    0.65303   0.66361   0.67129   0.68176   0.70377
  Beta virt. eigenvalues --    0.71206   0.72604   0.73086   0.74514   0.75539
  Beta virt. eigenvalues --    0.76212   0.77456   0.78363   0.79399   0.80290
  Beta virt. eigenvalues --    0.81394   0.83367   0.84510   0.85395   0.86190
  Beta virt. eigenvalues --    0.87794   0.92595   0.93154   0.93641   0.96148
  Beta virt. eigenvalues --    0.98580   1.00345   1.01403   1.02791   1.03576
  Beta virt. eigenvalues --    1.04861   1.06205   1.06893   1.07849   1.09065
  Beta virt. eigenvalues --    1.09921   1.12832   1.15493   1.17495   1.18646
  Beta virt. eigenvalues --    1.21350   1.24102   1.24193   1.28111   1.28990
  Beta virt. eigenvalues --    1.30424   1.31601   1.34150   1.35005   1.36598
  Beta virt. eigenvalues --    1.40297   1.41020   1.41864   1.44456   1.46449
  Beta virt. eigenvalues --    1.47465   1.49354   1.50137   1.51870   1.55028
  Beta virt. eigenvalues --    1.58594   1.60736   1.60971   1.62304   1.63611
  Beta virt. eigenvalues --    1.64776   1.68094   1.68420   1.71176   1.72553
  Beta virt. eigenvalues --    1.74063   1.75513   1.77605   1.78392   1.80591
  Beta virt. eigenvalues --    1.80948   1.81830   1.82339   1.83486   1.85093
  Beta virt. eigenvalues --    1.86101   1.89122   1.92829   1.93614   1.97505
  Beta virt. eigenvalues --    1.99207   2.00778   2.01717   2.06239   2.08174
  Beta virt. eigenvalues --    2.12648   2.13592   2.14334   2.15831   2.17586
  Beta virt. eigenvalues --    2.20667   2.21608   2.23334   2.26451   2.32861
  Beta virt. eigenvalues --    2.35175   2.39460   2.41210   2.51436   2.53593
  Beta virt. eigenvalues --    2.54265   2.56504   2.59092   2.59970   2.62977
  Beta virt. eigenvalues --    2.66472   2.68815   2.76284   2.95387   3.06941
  Beta virt. eigenvalues --    3.09146   3.10282   3.11843   3.38338   3.51206
  Beta virt. eigenvalues --    3.63345   3.65131   3.84115   4.03979   4.24254
          Condensed to atoms (all electrons):
               1          2          3          4          5          6
     1  C    4.974488   0.514463  -0.015621   0.004389  -0.093452   0.394734
     2  C    0.514463   4.830456   0.436595  -0.058294  -0.080888  -0.096801
     3  C   -0.015621   0.436595   4.809773   0.458234   0.349839  -0.081289
     4  F    0.004389  -0.058294   0.458234   8.786460  -0.080916   0.002974
     5  C   -0.093452  -0.080888   0.349839  -0.080916   5.612719   0.369273
     6  S    0.394734  -0.096801  -0.081289   0.002974   0.369273  15.307036
     7  C    0.002369   0.013657  -0.047813   0.007338   0.154898  -0.067834
     8  C    0.000255  -0.000223   0.004229   0.000136  -0.052666  -0.005175
     9  O    0.000073   0.000023  -0.000394   0.000000   0.005087   0.003823
    10  C   -0.000000  -0.000001   0.000023   0.000000  -0.000320  -0.000039
    11  C    0.000004   0.000006  -0.000593  -0.000005   0.013320   0.000295
    12  C   -0.000001   0.000004   0.000305   0.000039   0.003324  -0.000057
    13  S   -0.000131   0.000277  -0.006427   0.002429  -0.066467   0.002411
    14  H    0.396196  -0.017322   0.007386  -0.000040   0.001815  -0.042509
    15  H   -0.049610   0.403576  -0.037821  -0.000181   0.010396   0.008351
    16  H   -0.000001  -0.000000   0.000002  -0.000000  -0.000053   0.000036
    17  H   -0.000001   0.000000  -0.000003  -0.000000   0.000048  -0.000015
    18  H    0.000001  -0.000000  -0.000003   0.000000   0.000140   0.000029
    19  H   -0.000000   0.000000  -0.000000   0.000000  -0.000348   0.000002
    20  H   -0.000000  -0.000000  -0.000001   0.000000  -0.000347   0.000003
               7          8          9         10         11         12
     1  C    0.002369   0.000255   0.000073  -0.000000   0.000004  -0.000001
     2  C    0.013657  -0.000223   0.000023  -0.000001   0.000006   0.000004
     3  C   -0.047813   0.004229  -0.000394   0.000023  -0.000593   0.000305
     4  F    0.007338   0.000136   0.000000   0.000000  -0.000005   0.000039
     5  C    0.154898  -0.052666   0.005087  -0.000320   0.013320   0.003324
     6  S   -0.067834  -0.005175   0.003823  -0.000039   0.000295  -0.000057
     7  C    5.393220   0.528727  -0.067605   0.006193  -0.048886  -0.078243
     8  C    0.528727   4.829820   0.436438  -0.071624   0.360337  -0.028916
     9  O   -0.067605   0.436438   7.695813   0.350534  -0.066428   0.004100
    10  C    0.006193  -0.071624   0.350534   4.388153  -0.001065   0.000581
    11  C   -0.048886   0.360337  -0.066428  -0.001065   4.848096   0.526988
    12  C   -0.078243  -0.028916   0.004100   0.000581   0.526988   4.955999
    13  S    0.368998  -0.087386   0.002615  -0.000190  -0.088968   0.371222
    14  H   -0.000275  -0.000003   0.000001   0.000000  -0.000000  -0.000000
    15  H   -0.000460   0.000002   0.000000  -0.000000   0.000000  -0.000000
    16  H   -0.000355   0.004160  -0.019675   0.400133  -0.000097  -0.000035
    17  H    0.000882  -0.006027  -0.030119   0.399602   0.006901   0.000069
    18  H    0.000174  -0.008494  -0.029716   0.401217   0.009116   0.000077
    19  H    0.006141  -0.045515  -0.005547   0.005831   0.413999  -0.045918
    20  H   -0.000009   0.008280  -0.000053   0.000014  -0.020476   0.405338
              13         14         15         16         17         18
     1  C   -0.000131   0.396196  -0.049610  -0.000001  -0.000001   0.000001
     2  C    0.000277  -0.017322   0.403576  -0.000000   0.000000  -0.000000
     3  C   -0.006427   0.007386  -0.037821   0.000002  -0.000003  -0.000003
     4  F    0.002429  -0.000040  -0.000181  -0.000000  -0.000000   0.000000
     5  C   -0.066467   0.001815   0.010396  -0.000053   0.000048   0.000140
     6  S    0.002411  -0.042509   0.008351   0.000036  -0.000015   0.000029
     7  C    0.368998  -0.000275  -0.000460  -0.000355   0.000882   0.000174
     8  C   -0.087386  -0.000003   0.000002   0.004160  -0.006027  -0.008494
     9  O    0.002615   0.000001   0.000000  -0.019675  -0.030119  -0.029716
    10  C   -0.000190   0.000000  -0.000000   0.400133   0.399602   0.401217
    11  C   -0.088968  -0.000000   0.000000  -0.000097   0.006901   0.009116
    12  C    0.371222  -0.000000  -0.000000  -0.000035   0.000069   0.000077
    13  S   15.356639   0.000004   0.000003   0.000021  -0.000089  -0.000128
    14  H    0.000004   0.635462  -0.009461  -0.000000  -0.000000   0.000000
    15  H    0.000003  -0.009461   0.687226  -0.000000   0.000000  -0.000000
    16  H    0.000021  -0.000000  -0.000000   0.622432  -0.023341  -0.027069
    17  H   -0.000089  -0.000000   0.000000  -0.023341   0.662526  -0.042340
    18  H   -0.000128   0.000000  -0.000000  -0.027069  -0.042340   0.670308
    19  H    0.006786  -0.000000   0.000000  -0.000139   0.001165   0.000973
    20  H   -0.035684  -0.000000  -0.000000   0.000000   0.000007   0.000009
              19         20
     1  C   -0.000000  -0.000000
     2  C    0.000000  -0.000000
     3  C   -0.000000  -0.000001
     4  F    0.000000   0.000000
     5  C   -0.000348  -0.000347
     6  S    0.000002   0.000003
     7  C    0.006141  -0.000009
     8  C   -0.045515   0.008280
     9  O   -0.005547  -0.000053
    10  C    0.005831   0.000014
    11  C    0.413999  -0.020476
    12  C   -0.045918   0.405338
    13  S    0.006786  -0.035684
    14  H   -0.000000  -0.000000
    15  H    0.000000  -0.000000
    16  H   -0.000139   0.000000
    17  H    0.001165   0.000007
    18  H    0.000973   0.000009
    19  H    0.688087  -0.008507
    20  H   -0.008507   0.649406
          Atomic-Atomic Spin Densities.
               1          2          3          4          5          6
     1  C    0.000000  -0.000000   0.000000   0.000000   0.000000  -0.000000
     2  C   -0.000000   0.000000  -0.000000  -0.000000   0.000000   0.000000
     3  C    0.000000  -0.000000   0.000000   0.000000   0.000000  -0.000000
     4  F    0.000000  -0.000000   0.000000  -0.000000   0.000000  -0.000000
     5  C    0.000000   0.000000   0.000000   0.000000  -0.000000  -0.000000
     6  S   -0.000000   0.000000  -0.000000  -0.000000  -0.000000   0.000000
     7  C   -0.000000   0.000000  -0.000000  -0.000000  -0.000000   0.000000
     8  C   -0.000000  -0.000000   0.000000   0.000000   0.000000   0.000000
     9  O    0.000000   0.000000  -0.000000   0.000000   0.000000  -0.000000
    10  C    0.000000   0.000000   0.000000   0.000000  -0.000000  -0.000000
    11  C   -0.000000   0.000000  -0.000000  -0.000000   0.000000   0.000000
    12  C    0.000000   0.000000   0.000000   0.000000   0.000000   0.000000
    13  S   -0.000000   0.000000   0.000000   0.000000  -0.000000   0.000000
    14  H    0.000000  -0.000000   0.000000   0.000000  -0.000000  -0.000000
    15  H   -0.000000   0.000000  -0.000000  -0.000000   0.000000   0.000000
    16  H    0.000000  -0.000000   0.000000  -0.000000   0.000000  -0.000000
    17  H   -0.000000   0.000000  -0.000000   0.000000   0.000000   0.000000
    18  H    0.000000  -0.000000  -0.000000   0.000000   0.000000  -0.000000
    19  H   -0.000000   0.000000  -0.000000  -0.000000  -0.000000   0.000000
    20  H    0.000000  -0.000000   0.000000   0.000000  -0.000000   0.000000
               7          8          9         10         11         12
     1  C   -0.000000  -0.000000   0.000000   0.000000  -0.000000   0.000000
     2  C    0.000000  -0.000000   0.000000   0.000000   0.000000   0.000000
     3  C   -0.000000   0.000000  -0.000000   0.000000  -0.000000   0.000000
     4  F   -0.000000   0.000000   0.000000   0.000000  -0.000000   0.000000
     5  C   -0.000000   0.000000   0.000000  -0.000000   0.000000   0.000000
     6  S    0.000000   0.000000  -0.000000  -0.000000   0.000000   0.000000
     7  C    0.000000  -0.000000  -0.000000   0.000000   0.000000  -0.000000
     8  C   -0.000000   0.000000   0.000000   0.000000  -0.000000  -0.000000
     9  O   -0.000000   0.000000  -0.000000   0.000000  -0.000000  -0.000000
    10  C    0.000000   0.000000   0.000000  -0.000000  -0.000000  -0.000000
    11  C    0.000000  -0.000000  -0.000000  -0.000000   0.000000   0.000000
    12  C   -0.000000  -0.000000  -0.000000  -0.000000   0.000000  -0.000000
    13  S    0.000000  -0.000000   0.000000  -0.000000  -0.000000   0.000000
    14  H   -0.000000   0.000000   0.000000  -0.000000  -0.000000   0.000000
    15  H   -0.000000  -0.000000   0.000000  -0.000000   0.000000  -0.000000
    16  H   -0.000000  -0.000000   0.000000  -0.000000  -0.000000   0.000000
    17  H    0.000000  -0.000000  -0.000000  -0.000000   0.000000  -0.000000
    18  H    0.000000  -0.000000   0.000000  -0.000000   0.000000  -0.000000
    19  H    0.000000   0.000000  -0.000000   0.000000  -0.000000   0.000000
    20  H   -0.000000   0.000000   0.000000   0.000000  -0.000000  -0.000000
              13         14         15         16         17         18
     1  C   -0.000000   0.000000  -0.000000   0.000000  -0.000000   0.000000
     2  C    0.000000  -0.000000   0.000000  -0.000000   0.000000  -0.000000
     3  C    0.000000   0.000000  -0.000000   0.000000  -0.000000  -0.000000
     4  F    0.000000   0.000000  -0.000000  -0.000000   0.000000   0.000000
     5  C   -0.000000  -0.000000   0.000000   0.000000   0.000000   0.000000
     6  S    0.000000  -0.000000   0.000000  -0.000000   0.000000  -0.000000
     7  C    0.000000  -0.000000  -0.000000  -0.000000   0.000000   0.000000
     8  C   -0.000000   0.000000  -0.000000  -0.000000  -0.000000  -0.000000
     9  O    0.000000   0.000000   0.000000   0.000000  -0.000000   0.000000
    10  C   -0.000000  -0.000000  -0.000000  -0.000000  -0.000000  -0.000000
    11  C   -0.000000  -0.000000   0.000000  -0.000000   0.000000   0.000000
    12  C    0.000000   0.000000  -0.000000   0.000000  -0.000000  -0.000000
    13  S   -0.000000  -0.000000  -0.000000   0.000000  -0.000000  -0.000000
    14  H   -0.000000   0.000000  -0.000000   0.000000  -0.000000   0.000000
    15  H   -0.000000  -0.000000   0.000000  -0.000000   0.000000  -0.000000
    16  H    0.000000   0.000000  -0.000000   0.000000   0.000000  -0.000000
    17  H   -0.000000  -0.000000   0.000000   0.000000   0.000000  -0.000000
    18  H   -0.000000   0.000000  -0.000000  -0.000000  -0.000000   0.000000
    19  H   -0.000000  -0.000000   0.000000  -0.000000   0.000000   0.000000
    20  H    0.000000   0.000000  -0.000000   0.000000  -0.000000  -0.000000
              19         20
     1  C   -0.000000   0.000000
     2  C    0.000000  -0.000000
     3  C   -0.000000   0.000000
     4  F   -0.000000   0.000000
     5  C   -0.000000  -0.000000
     6  S    0.000000   0.000000
     7  C    0.000000  -0.000000
     8  C    0.000000   0.000000
     9  O   -0.000000   0.000000
    10  C    0.000000   0.000000
    11  C   -0.000000  -0.000000
    12  C    0.000000  -0.000000
    13  S   -0.000000   0.000000
    14  H   -0.000000   0.000000
    15  H    0.000000  -0.000000
    16  H   -0.000000   0.000000
    17  H    0.000000  -0.000000
    18  H    0.000000  -0.000000
    19  H   -0.000000   0.000000
    20  H    0.000000  -0.000000
 Mulliken charges and spin densities:
               1          2
     1  C   -0.128153  -0.000000
     2  C    0.054470  -0.000000
     3  C    0.123578   0.000000
     4  F   -0.122564  -0.000000
     5  C   -0.145402  -0.000000
     6  S    0.204753   0.000000
     7  C   -0.171117   0.000000
     8  C    0.133645  -0.000000
     9  O   -0.278969  -0.000000
    10  C    0.120959  -0.000000
    11  C    0.047457   0.000000
    12  C   -0.114878  -0.000000
    13  S    0.174065   0.000000
    14  H    0.028745   0.000000
    15  H   -0.012021   0.000000
    16  H    0.043980   0.000000
    17  H    0.030735   0.000000
    18  H    0.025707   0.000000
    19  H   -0.017009  -0.000000
    20  H    0.002018   0.000000
 Sum of Mulliken charges =  -0.00000  -0.00000
 Mulliken charges and spin densities with hydrogens summed into heavy atoms:
               1          2
     1  C   -0.099408   0.000000
     2  C    0.042449  -0.000000
     3  C    0.123578   0.000000
     4  F   -0.122564  -0.000000
     5  C   -0.145402  -0.000000
     6  S    0.204753   0.000000
     7  C   -0.171117   0.000000
     8  C    0.133645  -0.000000
     9  O   -0.278969  -0.000000
    10  C    0.221381   0.000000
    11  C    0.030448   0.000000
    12  C   -0.112859  -0.000000
    13  S    0.174065   0.000000
 Electronic spatial extent (au):  <R**2>=           2879.9403
 Charge=             -0.0000 electrons
 Dipole moment (field-independent basis, Debye):
    X=             -1.5105    Y=              1.5974    Z=             -0.4007  Tot=              2.2347
 Quadrupole moment (field-independent basis, Debye-Ang):
   XX=            -68.6591   YY=            -83.1743   ZZ=            -90.2486
   XY=              0.0745   XZ=             -1.5241   YZ=              1.5836
 Traceless Quadrupole moment (field-independent basis, Debye-Ang):
   XX=             12.0349   YY=             -2.4803   ZZ=             -9.5546
   XY=              0.0745   XZ=             -1.5241   YZ=              1.5836
 Octapole moment (field-independent basis, Debye-Ang**2):
  XXX=              1.3381  YYY=              7.4954  ZZZ=             13.5125  XYY=            -16.8060
  XXY=             15.7695  XXZ=              6.3662  XZZ=              1.2830  YZZ=              3.7123
  YYZ=             -0.3623  XYZ=             -9.9335
 Hexadecapole moment (field-independent basis, Debye-Ang**3):
 XXXX=          -2036.1446 YYYY=          -1079.6366 ZZZZ=           -306.5050 XXXY=             -9.1149
 XXXZ=             10.0319 YYYX=            -35.4175 YYYZ=              7.6860 ZZZX=              3.9029
 ZZZY=            -12.2149 XXYY=           -497.6596 XXZZ=           -446.8247 YYZZ=           -239.1007
 XXYZ=              0.5385 YYXZ=             -8.6254 ZZXY=            -16.8657
 N-N= 9.893812639095D+02 E-N=-5.092432878254D+03  KE= 1.313632669897D+03
                          Isotropic Fermi Contact Couplings
        Atom                 a.u.       MegaHertz       Gauss      10(-4) cm-1
     1  C(13)             -0.00000      -0.00000      -0.00000      -0.00000
     2  C(13)             -0.00000      -0.00000      -0.00000      -0.00000
     3  C(13)             -0.00000      -0.00000      -0.00000      -0.00000
     4  F(19)             -0.00000      -0.00000      -0.00000      -0.00000
     5  C(13)             -0.00000      -0.00000      -0.00000      -0.00000
     6  S(33)              0.00000       0.00000       0.00000       0.00000
     7  C(13)              0.00000       0.00000       0.00000       0.00000
     8  C(13)             -0.00000      -0.00000      -0.00000      -0.00000
     9  O(17)              0.00000      -0.00000      -0.00000      -0.00000
    10  C(13)             -0.00000      -0.00000      -0.00000      -0.00000
    11  C(13)              0.00000       0.00000       0.00000       0.00000
    12  C(13)             -0.00000      -0.00000      -0.00000      -0.00000
    13  S(33)              0.00000       0.00000       0.00000       0.00000
    14  H(1)               0.00000       0.00000       0.00000       0.00000
    15  H(1)              -0.00000      -0.00000      -0.00000      -0.00000
    16  H(1)               0.00000       0.00000       0.00000       0.00000
    17  H(1)               0.00000       0.00000       0.00000       0.00000
    18  H(1)               0.00000       0.00000       0.00000       0.00000
    19  H(1)               0.00000       0.00000       0.00000       0.00000
    20  H(1)               0.00000       0.00000       0.00000       0.00000
 --------------------------------------------------------
       Center         ----  Spin Dipole Couplings  ----
                      3XX-RR        3YY-RR        3ZZ-RR
 --------------------------------------------------------
     1   Atom       -0.000000      0.000000     -0.000000
     2   Atom        0.000000     -0.000000     -0.000000
     3   Atom       -0.000000      0.000000      0.000000
     4   Atom       -0.000000      0.000000     -0.000000
     5   Atom       -0.000000      0.000000      0.000000
     6   Atom        0.000000     -0.000000     -0.000000
     7   Atom       -0.000000      0.000000      0.000000
     8   Atom       -0.000000      0.000000     -0.000000
     9   Atom       -0.000000      0.000000      0.000000
    10   Atom       -0.000000      0.000000      0.000000
    11   Atom       -0.000000      0.000000     -0.000000
    12   Atom        0.000000     -0.000000     -0.000000
    13   Atom       -0.000000      0.000000      0.000000
    14   Atom        0.000000     -0.000000     -0.000000
    15   Atom        0.000000     -0.000000     -0.000000
    16   Atom        0.000000     -0.000000      0.000000
    17   Atom       -0.000000     -0.000000      0.000000
    18   Atom       -0.000000     -0.000000      0.000000
    19   Atom       -0.000000      0.000000      0.000000
    20   Atom       -0.000000      0.000000      0.000000
 --------------------------------------------------------
                        XY            XZ            YZ
 --------------------------------------------------------
     1   Atom       -0.000000     -0.000000     -0.000000
     2   Atom       -0.000000      0.000000     -0.000000
     3   Atom        0.000000     -0.000000     -0.000000
     4   Atom        0.000000     -0.000000     -0.000000
     5   Atom       -0.000000     -0.000000      0.000000
     6   Atom       -0.000000      0.000000      0.000000
     7   Atom        0.000000      0.000000     -0.000000
     8   Atom       -0.000000      0.000000      0.000000
     9   Atom        0.000000      0.000000     -0.000000
    10   Atom        0.000000     -0.000000      0.000000
    11   Atom       -0.000000     -0.000000      0.000000
    12   Atom        0.000000      0.000000     -0.000000
    13   Atom        0.000000     -0.000000      0.000000
    14   Atom        0.000000     -0.000000     -0.000000
    15   Atom       -0.000000      0.000000     -0.000000
    16   Atom        0.000000     -0.000000     -0.000000
    17   Atom       -0.000000     -0.000000     -0.000000
    18   Atom       -0.000000      0.000000     -0.000000
    19   Atom        0.000000      0.000000     -0.000000
    20   Atom       -0.000000      0.000000      0.000000
 --------------------------------------------------------


 ---------------------------------------------------------------------------------
              Anisotropic Spin Dipole Couplings in Principal Axis System
 ---------------------------------------------------------------------------------

       Atom             a.u.   MegaHertz   Gauss  10(-4) cm-1        Axes

              Baa    -0.0000    -0.000    -0.000    -0.000  0.5541  0.4881  0.6744
     1 C(13)  Bbb    -0.0000    -0.000    -0.000    -0.000  0.8295 -0.3914 -0.3984
              Bcc     0.0000     0.000     0.000     0.000  0.0695  0.7801 -0.6217
 
              Baa    -0.0000    -0.000    -0.000    -0.000  0.3559  0.8214 -0.4457
     2 C(13)  Bbb    -0.0000    -0.000    -0.000    -0.000 -0.1967  0.5321  0.8235
              Bcc     0.0000     0.000     0.000     0.000  0.9136 -0.2054  0.3510
 
              Baa    -0.0000    -0.000    -0.000    -0.000  0.8403 -0.4054  0.3599
     3 C(13)  Bbb    -0.0000    -0.000    -0.000    -0.000 -0.1161  0.5139  0.8500
              Bcc     0.0000     0.000     0.000     0.000  0.5295  0.7560 -0.3848
 
              Baa    -0.0000    -0.000    -0.000    -0.000  0.8347 -0.4365  0.3357
     4 F(19)  Bbb    -0.0000    -0.000    -0.000    -0.000 -0.1310  0.4347  0.8910
              Bcc     0.0000     0.000     0.000     0.000  0.5349  0.7877 -0.3057
 
              Baa    -0.0000    -0.000    -0.000    -0.000  0.8478  0.5205 -0.1017
     5 C(13)  Bbb     0.0000     0.000     0.000     0.000  0.4257 -0.5537  0.7157
              Bcc     0.0000     0.000     0.000     0.000 -0.3162  0.6501  0.6910
 
              Baa    -0.0000    -0.000    -0.000    -0.000  0.4016  0.6666 -0.6279
     6 S(33)  Bbb    -0.0000    -0.000    -0.000    -0.000 -0.0376  0.6971  0.7160
              Bcc     0.0000     0.000     0.000     0.000  0.9150 -0.2640  0.3050
 
              Baa    -0.0000    -0.000    -0.000    -0.000  0.9940 -0.1051 -0.0309
     7 C(13)  Bbb     0.0000     0.000     0.000     0.000  0.0339  0.0269  0.9991
              Bcc     0.0000     0.000     0.000     0.000  0.1041  0.9941 -0.0303
 
              Baa    -0.0000    -0.000    -0.000    -0.000  0.8565  0.4759 -0.1997
     8 C(13)  Bbb    -0.0000    -0.000    -0.000    -0.000  0.2119  0.0286  0.9769
              Bcc     0.0000     0.000     0.000     0.000 -0.4706  0.8790  0.0764
 
              Baa    -0.0000     0.000     0.000     0.000  0.9755 -0.1286 -0.1783
     9 O(17)  Bbb     0.0000    -0.000    -0.000    -0.000  0.2121  0.7646  0.6086
              Bcc     0.0000    -0.000    -0.000    -0.000  0.0581 -0.6316  0.7732
 
              Baa    -0.0000    -0.000    -0.000    -0.000  0.9576 -0.2078  0.1997
    10 C(13)  Bbb     0.0000     0.000     0.000     0.000 -0.2849 -0.5767  0.7657
              Bcc     0.0000     0.000     0.000     0.000  0.0440  0.7901  0.6115
 
              Baa    -0.0000    -0.000    -0.000    -0.000  0.8776  0.3944  0.2724
    11 C(13)  Bbb    -0.0000    -0.000    -0.000    -0.000 -0.2005 -0.2141  0.9560
              Bcc     0.0000     0.000     0.000     0.000 -0.4354  0.8936  0.1088
 
              Baa    -0.0000    -0.000    -0.000    -0.000 -0.5258  0.7586  0.3848
    12 C(13)  Bbb    -0.0000    -0.000    -0.000    -0.000  0.1687 -0.3504  0.9213
              Bcc     0.0000     0.000     0.000     0.000  0.8337  0.5493  0.0563
 
              Baa    -0.0000    -0.000    -0.000    -0.000  0.9820 -0.1590  0.1014
    13 S(33)  Bbb     0.0000     0.000     0.000     0.000 -0.1591 -0.4097  0.8982
              Bcc     0.0000     0.000     0.000     0.000  0.1013  0.8983  0.4276
 
              Baa    -0.0000    -0.000    -0.000    -0.000 -0.2171  0.7334  0.6442
    14 H(1)   Bbb    -0.0000    -0.000    -0.000    -0.000  0.8803 -0.1381  0.4539
              Bcc     0.0000     0.000     0.000     0.000  0.4218  0.6656 -0.6156
 
              Baa    -0.0000    -0.000    -0.000    -0.000  0.5174  0.8406  0.1602
    15 H(1)   Bbb    -0.0000    -0.000    -0.000    -0.000 -0.4589  0.1145  0.8811
              Bcc     0.0000     0.000     0.000     0.000  0.7223 -0.5294  0.4450
 
              Baa    -0.0000    -0.000    -0.000    -0.000 -0.2537  0.9185  0.3033
    16 H(1)   Bbb     0.0000     0.000     0.000     0.000  0.4989 -0.1444  0.8545
              Bcc     0.0000     0.000     0.000     0.000  0.8287  0.3682 -0.4216
 
              Baa    -0.0000    -0.000    -0.000    -0.000  0.6861  0.6475  0.3316
    17 H(1)   Bbb     0.0000     0.000     0.000     0.000 -0.6396  0.3197  0.6990
              Bcc     0.0000     0.000     0.000     0.000 -0.3466  0.6917 -0.6335
 
              Baa    -0.0000    -0.000    -0.000    -0.000  0.8876  0.4601 -0.0213
    18 H(1)   Bbb     0.0000     0.000     0.000     0.000 -0.4546  0.8824  0.1210
              Bcc     0.0000     0.000     0.000     0.000  0.0744 -0.0977  0.9924
 
              Baa    -0.0000    -0.000    -0.000    -0.000  0.8951 -0.3485 -0.2781
    19 H(1)   Bbb     0.0000     0.000     0.000     0.000  0.1986 -0.2468  0.9485
              Bcc     0.0000     0.000     0.000     0.000  0.3992  0.9042  0.1517
 
              Baa    -0.0000    -0.000    -0.000    -0.000  0.9017  0.3525 -0.2505
    20 H(1)   Bbb     0.0000     0.000     0.000     0.000  0.4253 -0.6179  0.6613
              Bcc     0.0000     0.000     0.000     0.000 -0.0783  0.7028  0.7071
 

 ---------------------------------------------------------------------------------

 No NMR shielding tensors so no spin-rotation constants.
 Leave Link  601 at Fri Jul 24 09:01:21 2020, MaxMem=  4026531840 cpu:               6.1 elap:               1.6
 (Enter /opt/ohpc/pub/libs/gaussian/g16-A.03/sandybridge/g16/l701.exe)
 ... and contract with generalized density number  0.
 Compute integral first derivatives.
 Leave Link  701 at Fri Jul 24 09:01:22 2020, MaxMem=  4026531840 cpu:               3.9 elap:               0.8
 (Enter /opt/ohpc/pub/libs/gaussian/g16-A.03/sandybridge/g16/l702.exe)
 L702 exits ... SP integral derivatives will be done elsewhere.
 Leave Link  702 at Fri Jul 24 09:01:22 2020, MaxMem=  4026531840 cpu:               0.2 elap:               0.1
 (Enter /opt/ohpc/pub/libs/gaussian/g16-A.03/sandybridge/g16/l703.exe)
 Integral derivatives from FoFJK, PRISM(SPDF).
 Compute integral first derivatives, UseDBF=F ICtDFT=           0.
 Calling FoFJK, ICntrl=      2127 FMM=F ISym2X=0 I1Cent= 0 IOpClX= 1 NMat=1 NMatS=1 NMatT=0.
 FoFJK:  IHMeth= 1 ICntrl=    2127 DoSepK=T KAlg= 0 I1Cent=           0 FoldK=F
 IRaf=         1 NMat=       1 IRICut=       1 DoRegI=T DoRafI=F ISym2E= 0 IDoP0=0 IntGTp=1.
 FoFCou: FMM=F IPFlag=           0 FMFlag=      100000 FMFlg1=         800
         NFxFlg=           0 DoJE=F BraDBF=F KetDBF=F FulRan=T
         wScrn=  0.000000 ICntrl=      2527 IOpCl=  0 I1Cent=           0 NGrid=           0
         NMat0=    1 NMatS0=      1 NMatT0=    0 NMatD0=    1 NMtDS0=    0 NMtDT0=    0
 Symmetry not used in FoFCou.
 Leave Link  703 at Fri Jul 24 09:01:36 2020, MaxMem=  4026531840 cpu:             115.1 elap:              14.5
 (Enter /opt/ohpc/pub/libs/gaussian/g16-A.03/sandybridge/g16/l716.exe)
 Dipole        =-5.94274096D-01 6.28483582D-01-1.57635207D-01
 ***** Axes restored to original set *****
 -------------------------------------------------------------------
 Center     Atomic                   Forces (Hartrees/Bohr)
 Number     Number              X              Y              Z
 -------------------------------------------------------------------
      1        6           0.043021118    0.018319718    0.003253869
      2        6          -0.003849680   -0.004311469   -0.009379838
      3        6           0.017273972   -0.010248834    0.015214098
      4        9          -0.013129113   -0.001564615   -0.001909055
      5        6           0.015838707   -0.028563751    0.026847707
      6       16          -0.031776861    0.041003465   -0.037743388
      7        6          -0.038540847    0.027915611   -0.005329875
      8        6          -0.010768426    0.024463104    0.023603603
      9        8           0.010303457   -0.029436287   -0.016232594
     10        6           0.071570163    0.017018103   -0.000304868
     11        6           0.045218299   -0.058772844   -0.020148191
     12        6           0.066512047    0.044694682    0.010290504
     13       16          -0.045125943   -0.007072509   -0.001959945
     14        1          -0.001130462   -0.000138898   -0.000922414
     15        1           0.016172805   -0.011020268    0.013366866
     16        1           0.001805741    0.012092977    0.000194433
     17        1          -0.032065384    0.001451482   -0.041466105
     18        1          -0.042505014   -0.026918157    0.042803919
     19        1          -0.035449069    0.022404849    0.006755308
     20        1          -0.033375507   -0.031316359   -0.006934035
 -------------------------------------------------------------------
 Cartesian Forces:  Max     0.071570163 RMS     0.027551067
 Leave Link  716 at Fri Jul 24 09:01:36 2020, MaxMem=  4026531840 cpu:               0.2 elap:               0.0
 (Enter /opt/ohpc/pub/libs/gaussian/g16-A.03/sandybridge/g16/l103.exe)

 GradGradGradGradGradGradGradGradGradGradGradGradGradGradGradGradGradGrad
 Berny optimization.
 FormGI is forming the generalized inverse of G from B-inverse, IUseBI=4.
 Internal  Forces:  Max     0.064874831 RMS     0.015800917
 Search for a local minimum.
 Step number   1 out of a maximum of  105
 All quantities printed in internal units (Hartrees-Bohrs-Radians)
 RMS Force = .15801D-01 SwitMx=.10000D-02 MixMth= 1
 Mixed Optimization -- RFO/linear search
 Second derivative matrix not updated -- first step.
 ITU=  0
     Eigenvalues ---    0.01393   0.01404   0.01661   0.01679   0.01885
     Eigenvalues ---    0.01897   0.01969   0.01983   0.02081   0.02130
     Eigenvalues ---    0.02275   0.02297   0.02438   0.02502   0.02679
     Eigenvalues ---    0.09856   0.11165   0.15844   0.15967   0.15982
     Eigenvalues ---    0.15990   0.16000   0.16000   0.16000   0.22533
     Eigenvalues ---    0.22551   0.24709   0.24717   0.24734   0.24865
     Eigenvalues ---    0.24993   0.25000   0.25000   0.25976   0.34486
     Eigenvalues ---    0.35043   0.35161   0.38282   0.38375   0.40082
     Eigenvalues ---    0.41204   0.41399   0.41742   0.42027   0.42078
[...]
     6  S   -0.000000   0.000000  -0.000000  -0.000000  -0.000000   0.000000
     7  C   -0.000000   0.000000   0.000000   0.000000  -0.000000   0.000000
     8  C    0.000000   0.000000  -0.000000   0.000000   0.000000  -0.000000
     9  O   -0.000000   0.000000  -0.000000   0.000000  -0.000000   0.000000
    10  C    0.000000   0.000000   0.000000   0.000000   0.000000  -0.000000
    11  C    0.000000  -0.000000  -0.000000  -0.000000  -0.000000   0.000000
    12  C    0.000000   0.000000   0.000000   0.000000  -0.000000  -0.000000
    13  S    0.000000  -0.000000   0.000000  -0.000000   0.000000   0.000000
    14  H   -0.000000   0.000000  -0.000000  -0.000000   0.000000  -0.000000
    15  H   -0.000000   0.000000  -0.000000  -0.000000   0.000000   0.000000
    16  H   -0.000000   0.000000   0.000000   0.000000  -0.000000  -0.000000
    17  H   -0.000000  -0.000000  -0.000000   0.000000  -0.000000   0.000000
    18  H   -0.000000   0.000000  -0.000000   0.000000  -0.000000   0.000000
    19  H    0.000000  -0.000000   0.000000  -0.000000   0.000000  -0.000000
    20  H   -0.000000   0.000000   0.000000   0.000000  -0.000000   0.000000
               7          8          9         10         11         12
     1  C   -0.000000   0.000000  -0.000000   0.000000   0.000000   0.000000
     2  C    0.000000   0.000000   0.000000   0.000000  -0.000000   0.000000
     3  C    0.000000  -0.000000  -0.000000   0.000000  -0.000000   0.000000
     4  F    0.000000   0.000000   0.000000   0.000000  -0.000000   0.000000
     5  C   -0.000000   0.000000  -0.000000   0.000000  -0.000000  -0.000000
     6  S    0.000000  -0.000000   0.000000  -0.000000   0.000000  -0.000000
     7  C   -0.000000   0.000000   0.000000  -0.000000   0.000000   0.000000
     8  C    0.000000  -0.000000  -0.000000   0.000000  -0.000000   0.000000
     9  O    0.000000  -0.000000   0.000000  -0.000000  -0.000000   0.000000
    10  C   -0.000000   0.000000  -0.000000   0.000000   0.000000   0.000000
    11  C    0.000000  -0.000000  -0.000000   0.000000   0.000000  -0.000000
    12  C    0.000000   0.000000   0.000000   0.000000  -0.000000  -0.000000
    13  S   -0.000000   0.000000  -0.000000  -0.000000  -0.000000   0.000000
    14  H    0.000000  -0.000000  -0.000000   0.000000  -0.000000   0.000000
    15  H   -0.000000  -0.000000  -0.000000  -0.000000   0.000000  -0.000000
    16  H    0.000000   0.000000  -0.000000  -0.000000  -0.000000   0.000000
    17  H   -0.000000  -0.000000   0.000000   0.000000  -0.000000   0.000000
    18  H    0.000000   0.000000  -0.000000  -0.000000  -0.000000  -0.000000
    19  H   -0.000000   0.000000  -0.000000  -0.000000  -0.000000   0.000000
    20  H   -0.000000   0.000000   0.000000   0.000000   0.000000  -0.000000
              13         14         15         16         17         18
     1  C    0.000000  -0.000000  -0.000000  -0.000000  -0.000000  -0.000000
     2  C   -0.000000   0.000000   0.000000   0.000000  -0.000000   0.000000
     3  C    0.000000  -0.000000  -0.000000   0.000000  -0.000000  -0.000000
     4  F   -0.000000  -0.000000  -0.000000   0.000000   0.000000   0.000000
     5  C    0.000000   0.000000   0.000000  -0.000000  -0.000000  -0.000000
     6  S    0.000000  -0.000000   0.000000  -0.000000   0.000000   0.000000
     7  C   -0.000000   0.000000  -0.000000   0.000000  -0.000000   0.000000
     8  C    0.000000  -0.000000  -0.000000   0.000000  -0.000000   0.000000
     9  O   -0.000000  -0.000000  -0.000000  -0.000000   0.000000  -0.000000
    10  C   -0.000000   0.000000  -0.000000  -0.000000   0.000000  -0.000000
    11  C   -0.000000  -0.000000   0.000000  -0.000000  -0.000000  -0.000000
    12  C    0.000000   0.000000  -0.000000   0.000000   0.000000  -0.000000
    13  S   -0.000000   0.000000   0.000000   0.000000   0.000000   0.000000
    14  H    0.000000   0.000000  -0.000000  -0.000000   0.000000  -0.000000
    15  H    0.000000  -0.000000   0.000000  -0.000000  -0.000000   0.000000
    16  H    0.000000  -0.000000  -0.000000   0.000000   0.000000  -0.000000
    17  H    0.000000   0.000000  -0.000000   0.000000  -0.000000   0.000000
    18  H    0.000000  -0.000000   0.000000  -0.000000   0.000000  -0.000000
    19  H   -0.000000   0.000000   0.000000   0.000000  -0.000000   0.000000
    20  H    0.000000  -0.000000  -0.000000   0.000000   0.000000  -0.000000
              19         20
     1  C    0.000000  -0.000000
     2  C   -0.000000   0.000000
     3  C    0.000000   0.000000
     4  F   -0.000000   0.000000
     5  C    0.000000  -0.000000
     6  S   -0.000000   0.000000
     7  C   -0.000000  -0.000000
     8  C    0.000000   0.000000
     9  O   -0.000000   0.000000
    10  C   -0.000000   0.000000
    11  C   -0.000000   0.000000
    12  C    0.000000  -0.000000
    13  S   -0.000000   0.000000
    14  H    0.000000  -0.000000
    15  H    0.000000  -0.000000
    16  H    0.000000   0.000000
    17  H   -0.000000   0.000000
    18  H    0.000000  -0.000000
    19  H   -0.000000   0.000000
    20  H    0.000000   0.000000
 Mulliken charges and spin densities:
               1          2
     1  C   -0.136266  -0.000000
     2  C    0.058078   0.000000
     3  C    0.092835  -0.000000
     4  F   -0.129581  -0.000000
     5  C   -0.129354   0.000000
     6  S    0.180222   0.000000
     7  C   -0.159352  -0.000000
     8  C    0.135414   0.000000
     9  O   -0.255586   0.000000
    10  C    0.056619   0.000000
    11  C    0.021217   0.000000
    12  C   -0.131515  -0.000000
    13  S    0.178430  -0.000000
    14  H    0.032082  -0.000000
    15  H    0.005810   0.000000
    16  H    0.057287  -0.000000
    17  H    0.046708  -0.000000
    18  H    0.046706  -0.000000
    19  H   -0.000478  -0.000000
    20  H    0.030725   0.000000
 Sum of Mulliken charges =  -0.00000   0.00000
 Mulliken charges and spin densities with hydrogens summed into heavy atoms:
               1          2
     1  C   -0.104184  -0.000000
     2  C    0.063888   0.000000
     3  C    0.092835  -0.000000
     4  F   -0.129581  -0.000000
     5  C   -0.129354   0.000000
     6  S    0.180222   0.000000
     7  C   -0.159352  -0.000000
     8  C    0.135414   0.000000
     9  O   -0.255586   0.000000
    10  C    0.207320   0.000000
    11  C    0.020738   0.000000
    12  C   -0.100790  -0.000000
    13  S    0.178430  -0.000000
 Electronic spatial extent (au):  <R**2>=           2927.0746
 Charge=             -0.0000 electrons
 Dipole moment (field-independent basis, Debye):
    X=             -1.7842    Y=              1.8125    Z=             -0.0002  Tot=              2.5433
 Quadrupole moment (field-independent basis, Debye-Ang):
   XX=            -69.4639   YY=            -81.7282   ZZ=            -91.7848
   XY=             -0.1991   XZ=              0.0014   YZ=             -0.0014
 Traceless Quadrupole moment (field-independent basis, Debye-Ang):
   XX=             11.5284   YY=             -0.7359   ZZ=            -10.7925
   XY=             -0.1991   XZ=              0.0014   YZ=             -0.0014
 Octapole moment (field-independent basis, Debye-Ang**2):
  XXX=              2.2951  YYY=             11.2212  ZZZ=             -0.0026  XYY=            -17.2784
  XXY=             13.4250  XXZ=              0.0008  XZZ=              0.7619  YZZ=             -1.4287
  YYZ=             -0.0015  XYZ=              0.0019
 Hexadecapole moment (field-independent basis, Debye-Ang**3):
 XXXX=          -2088.4718 YYYY=          -1276.1891 ZZZZ=           -107.0594 XXXY=            -26.9804
 XXXZ=              0.0097 YYYX=            -24.2174 YYYZ=             -0.0064 ZZZX=             -0.0018
 ZZZY=              0.0045 XXYY=           -523.6301 XXZZ=           -445.4258 YYZZ=           -252.4817
 XXYZ=             -0.0048 YYXZ=              0.0051 ZZXY=            -25.7812
 N-N= 9.870992257573D+02 E-N=-5.087240418234D+03  KE= 1.312915746128D+03
                          Isotropic Fermi Contact Couplings
        Atom                 a.u.       MegaHertz       Gauss      10(-4) cm-1
     1  C(13)             -0.00000      -0.00000      -0.00000      -0.00000
     2  C(13)             -0.00000      -0.00000      -0.00000      -0.00000
     3  C(13)             -0.00000      -0.00000      -0.00000      -0.00000
     4  F(19)              0.00000       0.00000       0.00000       0.00000
     5  C(13)              0.00000       0.00000       0.00000       0.00000
     6  S(33)             -0.00000      -0.00000      -0.00000      -0.00000
     7  C(13)             -0.00000      -0.00000      -0.00000      -0.00000
     8  C(13)              0.00000       0.00000       0.00000       0.00000
     9  O(17)              0.00000      -0.00000      -0.00000      -0.00000
    10  C(13)             -0.00000      -0.00000      -0.00000      -0.00000
    11  C(13)              0.00000       0.00000       0.00000       0.00000
    12  C(13)              0.00000       0.00000       0.00000       0.00000
    13  S(33)              0.00000       0.00000       0.00000       0.00000
    14  H(1)              -0.00000      -0.00000      -0.00000      -0.00000
    15  H(1)               0.00000       0.00000       0.00000       0.00000
    16  H(1)               0.00000       0.00000       0.00000       0.00000
    17  H(1)              -0.00000      -0.00000      -0.00000      -0.00000
    18  H(1)               0.00000       0.00000       0.00000       0.00000
    19  H(1)              -0.00000      -0.00000      -0.00000      -0.00000
    20  H(1)               0.00000       0.00000       0.00000       0.00000
 --------------------------------------------------------
       Center         ----  Spin Dipole Couplings  ----
                      3XX-RR        3YY-RR        3ZZ-RR
 --------------------------------------------------------
     1   Atom       -0.000000     -0.000000      0.000000
     2   Atom        0.000000     -0.000000      0.000000
     3   Atom        0.000000     -0.000000     -0.000000
     4   Atom        0.000000     -0.000000     -0.000000
     5   Atom       -0.000000      0.000000      0.000000
     6   Atom        0.000000      0.000000     -0.000000
     7   Atom       -0.000000      0.000000      0.000000
     8   Atom       -0.000000      0.000000      0.000000
     9   Atom       -0.000000      0.000000     -0.000000
    10   Atom        0.000000     -0.000000      0.000000
    11   Atom        0.000000     -0.000000      0.000000
    12   Atom       -0.000000      0.000000     -0.000000
    13   Atom        0.000000      0.000000     -0.000000
    14   Atom        0.000000     -0.000000     -0.000000
    15   Atom        0.000000      0.000000     -0.000000
    16   Atom       -0.000000      0.000000     -0.000000
    17   Atom       -0.000000     -0.000000      0.000000
    18   Atom       -0.000000     -0.000000      0.000000
    19   Atom       -0.000000      0.000000      0.000000
    20   Atom        0.000000     -0.000000     -0.000000
 --------------------------------------------------------
                        XY            XZ            YZ
 --------------------------------------------------------
     1   Atom       -0.000000     -0.000000     -0.000000
     2   Atom        0.000000     -0.000000      0.000000
     3   Atom       -0.000000     -0.000000      0.000000
     4   Atom       -0.000000      0.000000     -0.000000
     5   Atom       -0.000000      0.000000     -0.000000
     6   Atom       -0.000000      0.000000      0.000000
     7   Atom        0.000000      0.000000     -0.000000
     8   Atom        0.000000      0.000000     -0.000000
     9   Atom        0.000000      0.000000      0.000000
    10   Atom       -0.000000      0.000000     -0.000000
    11   Atom       -0.000000     -0.000000     -0.000000
    12   Atom       -0.000000     -0.000000     -0.000000
    13   Atom        0.000000     -0.000000     -0.000000
    14   Atom       -0.000000     -0.000000     -0.000000
    15   Atom       -0.000000     -0.000000      0.000000
    16   Atom        0.000000      0.000000      0.000000
    17   Atom        0.000000      0.000000      0.000000
    18   Atom       -0.000000     -0.000000     -0.000000
    19   Atom        0.000000     -0.000000     -0.000000
    20   Atom        0.000000      0.000000      0.000000
 --------------------------------------------------------


 ---------------------------------------------------------------------------------
              Anisotropic Spin Dipole Couplings in Principal Axis System
 ---------------------------------------------------------------------------------

       Atom             a.u.   MegaHertz   Gauss  10(-4) cm-1        Axes

              Baa    -0.0000    -0.000    -0.000    -0.000  0.5403  0.8410  0.0297
     1 C(13)  Bbb     0.0000     0.000     0.000     0.000  0.8408 -0.5382 -0.0581
              Bcc     0.0000     0.000     0.000     0.000  0.0328 -0.0564  0.9979
 
              Baa    -0.0000    -0.000    -0.000    -0.000 -0.2180  0.9757 -0.0217
     2 C(13)  Bbb     0.0000     0.000     0.000     0.000  0.0026  0.0228  0.9997
              Bcc     0.0000     0.000     0.000     0.000  0.9760  0.2178 -0.0075
 
              Baa    -0.0000    -0.000    -0.000    -0.000  0.3902  0.9207 -0.0083
     3 C(13)  Bbb    -0.0000    -0.000    -0.000    -0.000  0.0076  0.0058  1.0000
              Bcc     0.0000     0.000     0.000     0.000  0.9207 -0.3902 -0.0047
 
              Baa    -0.0000    -0.000    -0.000    -0.000  0.4960  0.8562  0.1448
     4 F(19)  Bbb    -0.0000    -0.000    -0.000    -0.000 -0.0841 -0.1186  0.9894
              Bcc     0.0000     0.000     0.000     0.000  0.8642 -0.5029  0.0132
 
              Baa    -0.0000    -0.000    -0.000    -0.000  0.9918  0.1266 -0.0173
     5 C(13)  Bbb     0.0000     0.000     0.000     0.000  0.0159  0.0118  0.9998
              Bcc     0.0000     0.000     0.000     0.000 -0.1268  0.9919 -0.0097
 
              Baa    -0.0000    -0.000    -0.000    -0.000  0.5893  0.7406 -0.3229
     6 S(33)  Bbb    -0.0000    -0.000    -0.000    -0.000  0.2004  0.2532  0.9464
              Bcc     0.0000     0.000     0.000     0.000  0.7827 -0.6224  0.0008
 
              Baa    -0.0000    -0.000    -0.000    -0.000  0.8646 -0.5020 -0.0228
     7 C(13)  Bbb     0.0000     0.000     0.000     0.000  0.3710  0.6071  0.7027
              Bcc     0.0000     0.000     0.000     0.000 -0.3389 -0.6160  0.7111
 
              Baa    -0.0000    -0.000    -0.000    -0.000  0.8896 -0.4546 -0.0443
     8 C(13)  Bbb     0.0000     0.000     0.000     0.000 -0.0494 -0.1921  0.9801
              Bcc     0.0000     0.000     0.000     0.000  0.4541  0.8697  0.1934
 
              Baa    -0.0000     0.000     0.000     0.000  0.9879 -0.0391 -0.1502
     9 O(17)  Bbb    -0.0000     0.000     0.000     0.000  0.1473 -0.0691  0.9867
              Bcc     0.0000    -0.000    -0.000    -0.000  0.0489  0.9968  0.0626
 
              Baa    -0.0000    -0.000    -0.000    -0.000  0.0386  0.9871  0.1553
    10 C(13)  Bbb    -0.0000    -0.000    -0.000    -0.000 -0.6054 -0.1005  0.7896
              Bcc     0.0000     0.000     0.000     0.000  0.7950 -0.1245  0.5937
 
              Baa    -0.0000    -0.000    -0.000    -0.000  0.0403  0.9985  0.0378
    11 C(13)  Bbb     0.0000     0.000     0.000     0.000  0.0891 -0.0413  0.9952
              Bcc     0.0000     0.000     0.000     0.000  0.9952 -0.0367 -0.0907
 
              Baa    -0.0000    -0.000    -0.000    -0.000  0.8168  0.5623  0.1287
    12 C(13)  Bbb    -0.0000    -0.000    -0.000    -0.000 -0.1102 -0.0668  0.9917
              Bcc     0.0000     0.000     0.000     0.000 -0.5662  0.8242 -0.0074
 
              Baa    -0.0000    -0.000    -0.000    -0.000  0.0983 -0.0389  0.9944
    13 S(33)  Bbb    -0.0000    -0.000    -0.000    -0.000  0.7327 -0.6734 -0.0988
              Bcc     0.0000     0.000     0.000     0.000  0.6734  0.7383 -0.0377
 
              Baa    -0.0000    -0.000    -0.000    -0.000  0.4028  0.9102  0.0964
    14 H(1)   Bbb    -0.0000    -0.000    -0.000    -0.000 -0.0290 -0.0926  0.9953
              Bcc     0.0000     0.000     0.000     0.000  0.9148 -0.4037 -0.0109
 
              Baa    -0.0000    -0.000    -0.000    -0.000  0.0126 -0.0045  0.9999
    15 H(1)   Bbb    -0.0000    -0.000    -0.000    -0.000  0.7563  0.6542 -0.0066
              Bcc     0.0000     0.000     0.000     0.000 -0.6541  0.7563  0.0116
 
              Baa    -0.0000    -0.000    -0.000    -0.000 -0.6114  0.0108  0.7912
    16 H(1)   Bbb    -0.0000    -0.000    -0.000    -0.000  0.7801 -0.1595  0.6050
              Bcc     0.0000     0.000     0.000     0.000  0.1327  0.9871  0.0891
 
              Baa    -0.0000    -0.000    -0.000    -0.000  0.8093 -0.4713 -0.3506
    17 H(1)   Bbb    -0.0000    -0.000    -0.000    -0.000  0.3707  0.8728 -0.3175
              Bcc     0.0000     0.000     0.000     0.000  0.4556  0.1270  0.8811
 
              Baa    -0.0000    -0.000    -0.000    -0.000  0.3314  0.9158  0.2268
    18 H(1)   Bbb    -0.0000    -0.000    -0.000    -0.000  0.8281 -0.3975  0.3953
              Bcc     0.0000     0.000     0.000     0.000 -0.4522 -0.0569  0.8901
 
              Baa    -0.0000    -0.000    -0.000    -0.000  0.8756 -0.4828 -0.0116
    19 H(1)   Bbb     0.0000     0.000     0.000     0.000  0.4808  0.8692  0.1149
              Bcc     0.0000     0.000     0.000     0.000 -0.0454 -0.1062  0.9933
 
              Baa    -0.0000    -0.000    -0.000    -0.000 -0.2259  0.8032 -0.5513
    20 H(1)   Bbb    -0.0000    -0.000    -0.000    -0.000 -0.1627  0.5269  0.8342
              Bcc     0.0000     0.000     0.000     0.000  0.9605  0.2781  0.0117
 

 ---------------------------------------------------------------------------------

 No NMR shielding tensors so no spin-rotation constants.
 Leave Link  601 at Fri Jul 24 09:18:36 2020, MaxMem=  4026531840 cpu:               2.5 elap:               0.4
 (Enter /opt/ohpc/pub/libs/gaussian/g16-A.03/sandybridge/g16/l9999.exe)

 Test job not archived.
 1\1\GINC-SKYLAKE048\FOpt\ULC-wPBE\CC-pVDZ\C9H7F1O1S2\RDU230\24-Jul-202
 0\0\\#P uLC-wPBE/cc-pVDZ iop(3/107=0294100000, 3/108=0294100000) opt\\
 H7 C9 S2 O1 F1\\0,1\C,3.1099026525,1.1418731114,0.2402229242\C,3.26199
 02526,-0.2119882686,0.134587298\C,1.9989771717,-0.8548412254,0.0810214
 921\F,1.8814583348,-2.1941358668,-0.0241244053\C,0.904294267,-0.025596
 4121,0.1431741959\S,1.4566733948,1.6199919594,0.2734216737\C,-0.502423
 7489,-0.399688677,0.1103615136\C,-1.6000669237,0.4390107238,0.17332018
 62\O,-1.412925172,1.7812034853,0.2787753571\C,-2.5726262154,2.59086012
 15,0.3388215634\C,-2.8493918493,-0.2508566455,0.1162851906\C,-2.673985
 3615,-1.6035724293,0.0110077044\S,-1.0204648342,-2.054030712,-0.020146
 8423\H,3.8933253675,1.8989768327,0.3013431636\H,4.2147091857,-0.743315
 2815,0.0956006676\H,-2.2184487701,3.6289201566,0.4206869295\H,-3.18648
 59366,2.4892173325,-0.5760843885\H,-3.1912483335,2.3489455587,1.223689
 1924\H,-3.8296413179,0.2275165762,0.1512423102\H,-3.4483671636,-2.3697
 983401,-0.0508967265\\Version=EM64L-G16RevA.03\State=1-A\HF=-1317.9634
 154\S2=0.\S2-1=0.\S2A=0.\RMSD=5.091e-09\RMSF=1.467e-05\Dipole=-0.68714
 96,0.7252892,0.0549185\Quadrupole=8.56105,-0.5823718,-7.9786782,-0.337
 6357,0.0162991,0.5800078\PG=C01 [X(C9H7F1O1S2)]\\@


 THE UNDERLYING PHYSICAL LAWS NECESSARY FOR THE 
 MATHEMATICAL THEORY OF A LARGE PART OF PHYSICS AND THE
 WHOLE OF CHEMISTRY ARE THUS COMPLETELY KNOWN, AND THE
 DIFFICULTY IS ONLY THAT THE EXACT APPLICATION OF THESE
 LAWS LEADS TO EQUATIONS MUCH TOO COMPLICATED 
 TO BE SOLUBLE.

                                        -- P. A. M. DIRAC, 1929
 Job cpu time:       0 days  2 hours 23 minutes 15.0 seconds.
 Elapsed time:       0 days  0 hours 18 minutes 18.2 seconds.
 File lengths (MBytes):  RWF=    112 Int=      0 D2E=      0 Chk=     12 Scr=      8
 Normal termination of Gaussian 16 at Fri Jul 24 09:18:36 2020.
