 Entering Gaussian System, Link 0=g16
 Input=mols_65_3_04_c-n-C_opt_0.gjf
 Output=mols_65_3_04_c-n-C_opt_0.log
 Initial command:
 /opt/ohpc/pub/libs/gaussian/g16-A.03/sandybridge/g16/l1.exe "/mnt/gpfs2_4m/scratch/rdu230/ondemand/projects/dihedral_energies/7trial/wtuning/mols_65_3_04_c-n-C/Gau-17690.inp" -scrdir="/mnt/gpfs2_4m/scratch/rdu230/ondemand/projects/dihedral_energies/7trial/wtuning/mols_65_3_04_c-n-C/"
 Entering Link 1 = /opt/ohpc/pub/libs/gaussian/g16-A.03/sandybridge/g16/l1.exe PID=     17691.
  
 Copyright (c) 1988,1990,1992,1993,1995,1998,2003,2009,2016,
            Gaussian, Inc.  All Rights Reserved.
  
 This is part of the Gaussian(R) 16 program.  It is based on
 the Gaussian(R) 09 system (copyright 2009, Gaussian, Inc.),
 the Gaussian(R) 03 system (copyright 2003, Gaussian, Inc.),
 the Gaussian(R) 98 system (copyright 1998, Gaussian, Inc.),
 the Gaussian(R) 94 system (copyright 1995, Gaussian, Inc.),
 the Gaussian 92(TM) system (copyright 1992, Gaussian, Inc.),
 the Gaussian 90(TM) system (copyright 1990, Gaussian, Inc.),
 the Gaussian 88(TM) system (copyright 1988, Gaussian, Inc.),
 the Gaussian 86(TM) system (copyright 1986, Carnegie Mellon
 University), and the Gaussian 82(TM) system (copyright 1983,
 Carnegie Mellon University). Gaussian is a federally registered
 trademark of Gaussian, Inc.
  
 This software contains proprietary and confidential information,
 including trade secrets, belonging to Gaussian, Inc.
  
 This software is provided under written license and may be
 used, copied, transmitted, or stored only in accord with that
 written license.
  
 The following legend is applicable only to US Government
 contracts under FAR:
  
                    RESTRICTED RIGHTS LEGEND
  
 Use, reproduction and disclosure by the US Government is
 subject to restrictions as set forth in subparagraphs (a)
 and (c) of the Commercial Computer Software - Restricted
 Rights clause in FAR 52.227-19.
  
 Gaussian, Inc.
 340 Quinnipiac St., Bldg. 40, Wallingford CT 06492
  
  
 ---------------------------------------------------------------
 Warning -- This program may not be used in any manner that
 competes with the business of Gaussian, Inc. or will provide
 assistance to any competitor of Gaussian, Inc.  The licensee
 of this program is prohibited from giving any competitor of
 Gaussian, Inc. access to this program.  By using this program,
 the user acknowledges that Gaussian, Inc. is engaged in the
 business of creating and licensing software in the field of
 computational chemistry and represents and warrants to the
 licensee that it is not a competitor of Gaussian, Inc. and that
 it will not use this program in any manner prohibited above.
 ---------------------------------------------------------------
  

 Cite this work as:
 Gaussian 16, Revision A.03,
 M. J. Frisch, G. W. Trucks, H. B. Schlegel, G. E. Scuseria, 
 M. A. Robb, J. R. Cheeseman, G. Scalmani, V. Barone, 
 G. A. Petersson, H. Nakatsuji, X. Li, M. Caricato, A. V. Marenich, 
 J. Bloino, B. G. Janesko, R. Gomperts, B. Mennucci, H. P. Hratchian, 
 J. V. Ortiz, A. F. Izmaylov, J. L. Sonnenberg, D. Williams-Young, 
 F. Ding, F. Lipparini, F. Egidi, J. Goings, B. Peng, A. Petrone, 
 T. Henderson, D. Ranasinghe, V. G. Zakrzewski, J. Gao, N. Rega, 
 G. Zheng, W. Liang, M. Hada, M. Ehara, K. Toyota, R. Fukuda, 
 J. Hasegawa, M. Ishida, T. Nakajima, Y. Honda, O. Kitao, H. Nakai, 
 T. Vreven, K. Throssell, J. A. Montgomery, Jr., J. E. Peralta, 
 F. Ogliaro, M. J. Bearpark, J. J. Heyd, E. N. Brothers, K. N. Kudin, 
 V. N. Staroverov, T. A. Keith, R. Kobayashi, J. Normand, 
 K. Raghavachari, A. P. Rendell, J. C. Burant, S. S. Iyengar, 
 J. Tomasi, M. Cossi, J. M. Millam, M. Klene, C. Adamo, R. Cammi, 
 J. W. Ochterski, R. L. Martin, K. Morokuma, O. Farkas, 
 J. B. Foresman, and D. J. Fox, Gaussian, Inc., Wallingford CT, 2016.
 
 ******************************************
 Gaussian 16:  EM64L-G16RevA.03 25-Dec-2016
                25-Jul-2020 
 ******************************************
 %mem=30GB
 %nproc=8
 Will use up to    8 processors via shared memory.
 ---------------------------------------------------------------
 #P uLC-wPBE/cc-pVDZ iop(3/107=0104900000, 3/108=0104900000) opt
 ---------------------------------------------------------------
 1/18=20,19=15,26=3,38=1/1,3;
 2/9=110,12=2,17=6,18=5,40=1/2;
 3/5=16,11=2,25=1,30=1,71=1,74=-41,107=104900000,108=104900000,116=2/1,2,3;
 4//1;
 5/5=2,38=5/2;
 6/7=2,8=2,9=2,10=2,28=1/1;
 7//1,2,3,16;
 1/18=20,19=15,26=3/3(2);
 2/9=110/2;
 99//99;
 2/9=110/2;
 3/5=16,11=2,25=1,30=1,71=1,74=-41,107=104900000,108=104900000,116=2/1,2,3;
 4/5=5,16=3,69=1/1;
 5/5=2,38=5/2;
 7//1,2,3,16;
 1/18=20,19=15,26=3/3(-5);
 2/9=110/2;
 6/7=2,8=2,9=2,10=2,19=2,28=1/1;
 99/9=1/99;
 Leave Link    1 at Sat Jul 25 07:14:03 2020, MaxMem=  4026531840 cpu:               2.0 elap:               0.3
 (Enter /opt/ohpc/pub/libs/gaussian/g16-A.03/sandybridge/g16/l101.exe)
 -------------
 H17 C27 S3 N3
 -------------
 Symbolic Z-matrix:
 Charge =  0 Multiplicity = 1
 C                     10.47832   2.74942  -0.23327 
 C                     10.73759   1.36154  -0.17299 
 C                     9.64221   0.40927  -0.01107 
 C                     8.37387   0.97958   0.0727 
 N                     8.05135   2.29129   0.10317 
 C                     9.10112   3.15459  -0.07562 
 C                     7.16816   0.08195   0.32291 
 C                     7.19013  -1.23816   0.85374 
 C                     5.87091  -1.73451   0.83989 
 C                     4.96273  -0.91624   0.30922 
 S                     5.6326    0.522    -0.17246 
 C                     3.43767  -1.11228   0.13001 
 C                     3.00669  -2.36617  -0.19173 
 C                     1.62135  -2.61892  -0.40931 
 C                     0.74231  -1.51392  -0.13711 
 N                     1.16948  -0.273     0.12576 
 C                     2.53073  -0.09334   0.28561 
 C                    -0.7208   -1.67606  -0.2808 
 C                    -1.41753  -2.7673   -0.7393 
 C                    -2.83167  -2.50895  -0.77189 
 C                    -3.21781  -1.29023  -0.33433 
 S                    -1.73498  -0.37113   0.01986 
 C                    -4.52595  -0.65552  -0.28539 
 C                    -4.79786   0.66424  -0.70988 
 C                    -6.10452   1.15398  -0.52686 
 C                    -7.05981   0.35988   0.01029 
 N                    -6.87117  -0.83343   0.40474 
 C                    -5.56612  -1.35689   0.34452 
 C                    -8.48764   0.82953   0.25554 
 C                    -9.51409   0.20856   0.81392 
 C                    -10.75997   0.91616   0.88118 
 C                    -10.62096   2.15905   0.27572 
 S                    -9.04437   2.4085   -0.2943 
 H                     11.2118   3.45225  -0.33893 
 H                     11.76033   1.00703  -0.35819 
 H                     9.83237  -0.61669  -0.07784 
 H                     8.90302   4.21009  -0.0478 
 H                     7.98545  -1.68991   1.27918 
 H                     5.63586  -2.74985   1.33259 
 H                     3.67711  -3.29004  -0.37365 
 H                     1.26237  -3.62018  -0.57917 
 H                     2.78824   0.84765   0.5419 
 H                    -1.01038  -3.76009  -1.00355 
 H                    -3.61771  -3.32341  -1.06005 
 H                    -3.95679   1.26551  -1.08307 
 H                    -6.22757   2.2438   -0.88695 
 H                    -5.41882  -2.36428   0.6412 
 H                    -9.32846  -0.83481   1.24663 
 H                    -11.64577   0.55162   1.32723 
 H                    -11.35882   2.82811   0.14645 
 
 ITRead=  0  0  0  0  0  0  0  0  0  0  0  0  0  0  0  0  0  0  0  0
 ITRead=  0  0  0  0  0  0  0  0  0  0  0  0  0  0  0  0  0  0  0  0
 ITRead=  0  0  0  0  0  0  0  0  0  0
 MicOpt= -1 -1 -1 -1 -1 -1 -1 -1 -1 -1 -1 -1 -1 -1 -1 -1 -1 -1 -1 -1
 MicOpt= -1 -1 -1 -1 -1 -1 -1 -1 -1 -1 -1 -1 -1 -1 -1 -1 -1 -1 -1 -1
 MicOpt= -1 -1 -1 -1 -1 -1 -1 -1 -1 -1
 NAtoms=     50 NQM=       50 NQMF=       0 NMMI=      0 NMMIF=      0
                NMic=       0 NMicF=      0.
                    Isotopes and Nuclear Properties:
 (Nuclear quadrupole moments (NQMom) in fm**2, nuclear magnetic moments (NMagM)
  in nuclear magnetons)

  Atom         1           2           3           4           5           6           7           8           9          10
 IAtWgt=          12          12          12          12          14          12          12          12          12          12
 AtmWgt=  12.0000000  12.0000000  12.0000000  12.0000000  14.0030740  12.0000000  12.0000000  12.0000000  12.0000000  12.0000000
 NucSpn=           0           0           0           0           2           0           0           0           0           0
 AtZEff=  -0.0000000  -0.0000000  -0.0000000  -0.0000000  -0.0000000  -0.0000000  -0.0000000  -0.0000000  -0.0000000  -0.0000000
 NQMom=    0.0000000   0.0000000   0.0000000   0.0000000   2.0440000   0.0000000   0.0000000   0.0000000   0.0000000   0.0000000
 NMagM=    0.0000000   0.0000000   0.0000000   0.0000000   0.4037610   0.0000000   0.0000000   0.0000000   0.0000000   0.0000000
 AtZNuc=   6.0000000   6.0000000   6.0000000   6.0000000   7.0000000   6.0000000   6.0000000   6.0000000   6.0000000   6.0000000

  Atom        11          12          13          14          15          16          17          18          19          20
 IAtWgt=          32          12          12          12          12          14          12          12          12          12
 AtmWgt=  31.9720718  12.0000000  12.0000000  12.0000000  12.0000000  14.0030740  12.0000000  12.0000000  12.0000000  12.0000000
 NucSpn=           0           0           0           0           0           2           0           0           0           0
 AtZEff=  -0.0000000  -0.0000000  -0.0000000  -0.0000000  -0.0000000  -0.0000000  -0.0000000  -0.0000000  -0.0000000  -0.0000000
 NQMom=    0.0000000   0.0000000   0.0000000   0.0000000   0.0000000   2.0440000   0.0000000   0.0000000   0.0000000   0.0000000
 NMagM=    0.0000000   0.0000000   0.0000000   0.0000000   0.0000000   0.4037610   0.0000000   0.0000000   0.0000000   0.0000000
 AtZNuc=  16.0000000   6.0000000   6.0000000   6.0000000   6.0000000   7.0000000   6.0000000   6.0000000   6.0000000   6.0000000

  Atom        21          22          23          24          25          26          27          28          29          30
 IAtWgt=          12          32          12          12          12          12          14          12          12          12
 AtmWgt=  12.0000000  31.9720718  12.0000000  12.0000000  12.0000000  12.0000000  14.0030740  12.0000000  12.0000000  12.0000000
 NucSpn=           0           0           0           0           0           0           2           0           0           0
 AtZEff=  -0.0000000  -0.0000000  -0.0000000  -0.0000000  -0.0000000  -0.0000000  -0.0000000  -0.0000000  -0.0000000  -0.0000000
 NQMom=    0.0000000   0.0000000   0.0000000   0.0000000   0.0000000   0.0000000   2.0440000   0.0000000   0.0000000   0.0000000
 NMagM=    0.0000000   0.0000000   0.0000000   0.0000000   0.0000000   0.0000000   0.4037610   0.0000000   0.0000000   0.0000000
 AtZNuc=   6.0000000  16.0000000   6.0000000   6.0000000   6.0000000   6.0000000   7.0000000   6.0000000   6.0000000   6.0000000

  Atom        31          32          33          34          35          36          37          38          39          40
 IAtWgt=          12          12          32           1           1           1           1           1           1           1
 AtmWgt=  12.0000000  12.0000000  31.9720718   1.0078250   1.0078250   1.0078250   1.0078250   1.0078250   1.0078250   1.0078250
 NucSpn=           0           0           0           1           1           1           1           1           1           1
 AtZEff=  -0.0000000  -0.0000000  -0.0000000  -0.0000000  -0.0000000  -0.0000000  -0.0000000  -0.0000000  -0.0000000  -0.0000000
 NQMom=    0.0000000   0.0000000   0.0000000   0.0000000   0.0000000   0.0000000   0.0000000   0.0000000   0.0000000   0.0000000
 NMagM=    0.0000000   0.0000000   0.0000000   2.7928460   2.7928460   2.7928460   2.7928460   2.7928460   2.7928460   2.7928460
 AtZNuc=   6.0000000   6.0000000  16.0000000   1.0000000   1.0000000   1.0000000   1.0000000   1.0000000   1.0000000   1.0000000

  Atom        41          42          43          44          45          46          47          48          49          50
 IAtWgt=           1           1           1           1           1           1           1           1           1           1
 AtmWgt=   1.0078250   1.0078250   1.0078250   1.0078250   1.0078250   1.0078250   1.0078250   1.0078250   1.0078250   1.0078250
 NucSpn=           1           1           1           1           1           1           1           1           1           1
 AtZEff=  -0.0000000  -0.0000000  -0.0000000  -0.0000000  -0.0000000  -0.0000000  -0.0000000  -0.0000000  -0.0000000  -0.0000000
 NQMom=    0.0000000   0.0000000   0.0000000   0.0000000   0.0000000   0.0000000   0.0000000   0.0000000   0.0000000   0.0000000
 NMagM=    2.7928460   2.7928460   2.7928460   2.7928460   2.7928460   2.7928460   2.7928460   2.7928460   2.7928460   2.7928460
 AtZNuc=   1.0000000   1.0000000   1.0000000   1.0000000   1.0000000   1.0000000   1.0000000   1.0000000   1.0000000   1.0000000
 Leave Link  101 at Sat Jul 25 07:14:03 2020, MaxMem=  4026531840 cpu:               3.4 elap:               0.4
 (Enter /opt/ohpc/pub/libs/gaussian/g16-A.03/sandybridge/g16/l103.exe)

 GradGradGradGradGradGradGradGradGradGradGradGradGradGradGradGradGradGrad
 Berny optimization.
 Initialization pass.
                           ----------------------------
                           !    Initial Parameters    !
                           ! (Angstroms and Degrees)  !
 --------------------------                            --------------------------
 ! Name  Definition              Value          Derivative Info.                !
 --------------------------------------------------------------------------------
 ! R1    R(1,2)                  1.4132         estimate D2E/DX2                !
 ! R2    R(1,6)                  1.4442         estimate D2E/DX2                !
 ! R3    R(1,34)                 1.0213         estimate D2E/DX2                !
 ! R4    R(2,3)                  1.4604         estimate D2E/DX2                !
 ! R5    R(2,35)                 1.0982         estimate D2E/DX2                !
 ! R6    R(3,4)                  1.3932         estimate D2E/DX2                !
 ! R7    R(3,36)                 1.0456         estimate D2E/DX2                !
 ! R8    R(4,5)                  1.3511         estimate D2E/DX2                !
 ! R9    R(4,7)                  1.5238         estimate D2E/DX2                !
 ! R10   R(5,6)                  1.3709         estimate D2E/DX2                !
 ! R11   R(6,37)                 1.0743         estimate D2E/DX2                !
 ! R12   R(7,8)                  1.423          estimate D2E/DX2                !
 ! R13   R(7,11)                 1.6724         estimate D2E/DX2                !
 ! R14   R(8,9)                  1.4096         estimate D2E/DX2                !
 ! R15   R(8,38)                 1.0088         estimate D2E/DX2                !
 ! R16   R(9,10)                 1.3327         estimate D2E/DX2                !
 ! R17   R(9,39)                 1.1528         estimate D2E/DX2                !
 ! R18   R(10,11)                1.6581         estimate D2E/DX2                !
 ! R19   R(10,12)                1.548          estimate D2E/DX2                !
 ! R20   R(12,13)                1.3644         estimate D2E/DX2                !
 ! R21   R(12,17)                1.3729         estimate D2E/DX2                !
 ! R22   R(13,14)                1.4249         estimate D2E/DX2                !
 ! R23   R(13,40)                1.1559         estimate D2E/DX2                !
 ! R24   R(14,15)                1.438          estimate D2E/DX2                !
 ! R25   R(14,41)                1.0771         estimate D2E/DX2                !
 ! R26   R(15,16)                1.3385         estimate D2E/DX2                !
 ! R27   R(15,18)                1.4791         estimate D2E/DX2                !
 ! R28   R(16,17)                1.3823         estimate D2E/DX2                !
 ! R29   R(17,42)                1.0087         estimate D2E/DX2                !
 ! R30   R(18,19)                1.3735         estimate D2E/DX2                !
 ! R31   R(18,22)                1.6798         estimate D2E/DX2                !
 ! R32   R(19,20)                1.4379         estimate D2E/DX2                !
 ! R33   R(19,43)                1.1051         estimate D2E/DX2                !
 ! R34   R(20,21)                1.3512         estimate D2E/DX2                !
 ! R35   R(20,44)                1.168          estimate D2E/DX2                !
 ! R36   R(21,22)                1.7802         estimate D2E/DX2                !
 ! R37   R(21,23)                1.4548         estimate D2E/DX2                !
 ! R38   R(23,24)                1.4128         estimate D2E/DX2                !
 ! R39   R(23,28)                1.4038         estimate D2E/DX2                !
 ! R40   R(24,25)                1.4074         estimate D2E/DX2                !
 ! R41   R(24,45)                1.0992         estimate D2E/DX2                !
 ! R42   R(25,26)                1.3534         estimate D2E/DX2                !
 ! R43   R(25,46)                1.1543         estimate D2E/DX2                !
 ! R44   R(26,27)                1.2709         estimate D2E/DX2                !
 ! R45   R(26,29)                1.523          estimate D2E/DX2                !
 ! R46   R(27,28)                1.4074         estimate D2E/DX2                !
 ! R47   R(28,47)                1.0604         estimate D2E/DX2                !
 ! R48   R(29,30)                1.3233         estimate D2E/DX2                !
 ! R49   R(29,33)                1.7622         estimate D2E/DX2                !
 ! R50   R(30,31)                1.4344         estimate D2E/DX2                !
 ! R51   R(30,48)                1.1447         estimate D2E/DX2                !
 ! R52   R(31,32)                1.3895         estimate D2E/DX2                !
 ! R53   R(31,49)                1.0566         estimate D2E/DX2                !
 ! R54   R(32,33)                1.6949         estimate D2E/DX2                !
 ! R55   R(32,50)                1.0044         estimate D2E/DX2                !
 ! A1    A(2,1,6)              116.4762         estimate D2E/DX2                !
 ! A2    A(2,1,34)             123.2636         estimate D2E/DX2                !
 ! A3    A(6,1,34)             120.2034         estimate D2E/DX2                !
 ! A4    A(1,2,3)              120.4974         estimate D2E/DX2                !
 ! A5    A(1,2,35)             118.732          estimate D2E/DX2                !
 ! A6    A(3,2,35)             120.4454         estimate D2E/DX2                !
 ! A7    A(2,3,4)              114.9969         estimate D2E/DX2                !
 ! A8    A(2,3,36)             119.7574         estimate D2E/DX2                !
 ! A9    A(4,3,36)             124.8264         estimate D2E/DX2                !
 ! A10   A(3,4,5)              128.0309         estimate D2E/DX2                !
 ! A11   A(3,4,7)              119.2795         estimate D2E/DX2                !
 ! A12   A(5,4,7)              112.2903         estimate D2E/DX2                !
 ! A13   A(4,5,6)              115.1911         estimate D2E/DX2                !
 ! A14   A(1,6,5)              124.5979         estimate D2E/DX2                !
 ! A15   A(1,6,37)             117.0213         estimate D2E/DX2                !
 ! A16   A(5,6,37)             118.3033         estimate D2E/DX2                !
 ! A17   A(4,7,8)              126.5481         estimate D2E/DX2                !
 ! A18   A(4,7,11)             121.524          estimate D2E/DX2                !
 ! A19   A(8,7,11)             111.6394         estimate D2E/DX2                !
 ! A20   A(7,8,9)              107.972          estimate D2E/DX2                !
 ! A21   A(7,8,38)             125.7987         estimate D2E/DX2                !
 ! A22   A(9,8,38)             125.7551         estimate D2E/DX2                !
 ! A23   A(8,9,10)             115.1822         estimate D2E/DX2                !
 ! A24   A(8,9,39)             119.7868         estimate D2E/DX2                !
 ! A25   A(10,9,39)            124.893          estimate D2E/DX2                !
 ! A26   A(9,10,11)            111.8981         estimate D2E/DX2                !
 ! A27   A(9,10,12)            129.7708         estimate D2E/DX2                !
 ! A28   A(11,10,12)           118.3091         estimate D2E/DX2                !
 ! A29   A(7,11,10)             93.2484         estimate D2E/DX2                !
 ! A30   A(10,12,13)           117.0571         estimate D2E/DX2                !
 ! A31   A(10,12,17)           122.9341         estimate D2E/DX2                !
 ! A32   A(13,12,17)           120.0083         estimate D2E/DX2                !
 ! A33   A(12,13,14)           120.4066         estimate D2E/DX2                !
 ! A34   A(12,13,40)           126.0472         estimate D2E/DX2                !
 ! A35   A(14,13,40)           113.4585         estimate D2E/DX2                !
 ! A36   A(13,14,15)           115.411          estimate D2E/DX2                !
 ! A37   A(13,14,41)           120.8623         estimate D2E/DX2                !
 ! A38   A(15,14,41)           122.712          estimate D2E/DX2                !
 ! A39   A(14,15,16)           123.6773         estimate D2E/DX2                !
 ! A40   A(14,15,18)           120.1374         estimate D2E/DX2                !
 ! A41   A(16,15,18)           115.876          estimate D2E/DX2                !
 ! A42   A(15,16,17)           117.2257         estimate D2E/DX2                !
 ! A43   A(12,17,16)           122.7474         estimate D2E/DX2                !
 ! A44   A(12,17,42)           123.5388         estimate D2E/DX2                !
 ! A45   A(16,17,42)           113.7051         estimate D2E/DX2                !
 ! A46   A(15,18,19)           128.4132         estimate D2E/DX2                !
 ! A47   A(15,18,22)           119.6489         estimate D2E/DX2                !
 ! A48   A(19,18,22)           111.7575         estimate D2E/DX2                !
 ! A49   A(18,19,20)           111.328          estimate D2E/DX2                !
 ! A50   A(18,19,43)           127.3509         estimate D2E/DX2                !
 ! A51   A(20,19,43)           121.22           estimate D2E/DX2                !
 ! A52   A(19,20,21)           115.8328         estimate D2E/DX2                !
 ! A53   A(19,20,44)           122.8306         estimate D2E/DX2                !
 ! A54   A(21,20,44)           121.0978         estimate D2E/DX2                !
 ! A55   A(20,21,22)           106.9817         estimate D2E/DX2                !
 ! A56   A(20,21,23)           131.4026         estimate D2E/DX2                !
 ! A57   A(22,21,23)           121.134          estimate D2E/DX2                !
 ! A58   A(18,22,21)            93.7963         estimate D2E/DX2                !
 ! A59   A(21,23,24)           124.7867         estimate D2E/DX2                !
 ! A60   A(21,23,28)           117.6055         estimate D2E/DX2                !
 ! A61   A(24,23,28)           117.3188         estimate D2E/DX2                !
 ! A62   A(23,24,25)           117.6904         estimate D2E/DX2                !
 ! A63   A(23,24,45)           117.7581         estimate D2E/DX2                !
 ! A64   A(25,24,45)           124.3489         estimate D2E/DX2                !
 ! A65   A(24,25,26)           120.1836         estimate D2E/DX2                !
 ! A66   A(24,25,46)           112.7631         estimate D2E/DX2                !
 ! A67   A(26,25,46)           127.0503         estimate D2E/DX2                !
 ! A68   A(25,26,27)           124.7044         estimate D2E/DX2                !
 ! A69   A(25,26,29)           123.0059         estimate D2E/DX2                !
 ! A70   A(27,26,29)           112.2549         estimate D2E/DX2                !
 ! A71   A(26,27,28)           118.267          estimate D2E/DX2                !
 ! A72   A(23,28,27)           121.3625         estimate D2E/DX2                !
 ! A73   A(23,28,47)           119.8177         estimate D2E/DX2                !
 ! A74   A(27,28,47)           118.0441         estimate D2E/DX2                !
 ! A75   A(26,29,30)           130.5783         estimate D2E/DX2                !
 ! A76   A(26,29,33)           121.4837         estimate D2E/DX2                !
 ! A77   A(30,29,33)           107.8831         estimate D2E/DX2                !
 ! A78   A(29,30,31)           117.5194         estimate D2E/DX2                !
 ! A79   A(29,30,48)           117.4811         estimate D2E/DX2                !
 ! A80   A(31,30,48)           124.9445         estimate D2E/DX2                !
 ! A81   A(30,31,32)           109.5083         estimate D2E/DX2                !
 ! A82   A(30,31,49)           125.2925         estimate D2E/DX2                !
 ! A83   A(32,31,49)           125.1982         estimate D2E/DX2                !
 ! A84   A(31,32,33)           111.7925         estimate D2E/DX2                !
 ! A85   A(31,32,50)           125.341          estimate D2E/DX2                !
 ! A86   A(33,32,50)           122.8218         estimate D2E/DX2                !
 ! A87   A(29,33,32)            93.2713         estimate D2E/DX2                !
 ! D1    D(6,1,2,3)              2.291          estimate D2E/DX2                !
 ! D2    D(6,1,2,35)           175.7722         estimate D2E/DX2                !
 ! D3    D(34,1,2,3)           179.5505         estimate D2E/DX2                !
 ! D4    D(34,1,2,35)           -6.9683         estimate D2E/DX2                !
 ! D5    D(2,1,6,5)             -1.0929         estimate D2E/DX2                !
 ! D6    D(2,1,6,37)           175.6429         estimate D2E/DX2                !
 ! D7    D(34,1,6,5)          -178.4415         estimate D2E/DX2                !
 ! D8    D(34,1,6,37)           -1.7057         estimate D2E/DX2                !
 ! D9    D(1,2,3,4)              0.0665         estimate D2E/DX2                !
 ! D10   D(1,2,3,36)           172.9911         estimate D2E/DX2                !
 ! D11   D(35,2,3,4)          -173.3026         estimate D2E/DX2                !
 ! D12   D(35,2,3,36)           -0.378          estimate D2E/DX2                !
 ! D13   D(2,3,4,5)             -4.3644         estimate D2E/DX2                !
 ! D14   D(2,3,4,7)           -176.5144         estimate D2E/DX2                !
 ! D15   D(36,3,4,5)          -176.8796         estimate D2E/DX2                !
 ! D16   D(36,3,4,7)            10.9705         estimate D2E/DX2                !
 ! D17   D(3,4,5,6)              5.5377         estimate D2E/DX2                !
 ! D18   D(7,4,5,6)            178.1402         estimate D2E/DX2                !
 ! D19   D(3,4,7,8)             18.9812         estimate D2E/DX2                !
 ! D20   D(3,4,7,11)          -154.3199         estimate D2E/DX2                !
 ! D21   D(5,4,7,8)           -154.3419         estimate D2E/DX2                !
 ! D22   D(5,4,7,11)            32.357          estimate D2E/DX2                !
 ! D23   D(4,5,6,1)             -2.5262         estimate D2E/DX2                !
 ! D24   D(4,5,6,37)          -179.2235         estimate D2E/DX2                !
 ! D25   D(4,7,8,9)           -176.3205         estimate D2E/DX2                !
 ! D26   D(4,7,8,38)            11.234          estimate D2E/DX2                !
 ! D27   D(11,7,8,9)            -2.4615         estimate D2E/DX2                !
 ! D28   D(11,7,8,38)         -174.907          estimate D2E/DX2                !
 ! D29   D(4,7,11,10)          175.7258         estimate D2E/DX2                !
 ! D30   D(8,7,11,10)            1.5121         estimate D2E/DX2                !
 ! D31   D(7,8,9,10)             2.5227         estimate D2E/DX2                !
 ! D32   D(7,8,9,39)          -173.4143         estimate D2E/DX2                !
 ! D33   D(38,8,9,10)          174.9723         estimate D2E/DX2                !
 ! D34   D(38,8,9,39)           -0.9647         estimate D2E/DX2                !
 ! D35   D(8,9,10,11)           -1.4821         estimate D2E/DX2                !
 ! D36   D(8,9,10,12)         -179.7172         estimate D2E/DX2                !
 ! D37   D(39,9,10,11)         174.2184         estimate D2E/DX2                !
 ! D38   D(39,9,10,12)          -4.0166         estimate D2E/DX2                !
 ! D39   D(9,10,11,7)           -0.0483         estimate D2E/DX2                !
 ! D40   D(12,10,11,7)         178.411          estimate D2E/DX2                !
 ! D41   D(9,10,12,13)         -37.0747         estimate D2E/DX2                !
 ! D42   D(9,10,12,17)         142.6685         estimate D2E/DX2                !
 ! D43   D(11,10,12,13)        144.7853         estimate D2E/DX2                !
 ! D44   D(11,10,12,17)        -35.4714         estimate D2E/DX2                !
 ! D45   D(10,12,13,14)       -178.2827         estimate D2E/DX2                !
 ! D46   D(10,12,13,40)         -1.9198         estimate D2E/DX2                !
 ! D47   D(17,12,13,14)          1.9662         estimate D2E/DX2                !
 ! D48   D(17,12,13,40)        178.3291         estimate D2E/DX2                !
 ! D49   D(10,12,17,16)       -179.943          estimate D2E/DX2                !
 ! D50   D(10,12,17,42)         -1.0862         estimate D2E/DX2                !
 ! D51   D(13,12,17,16)         -0.207          estimate D2E/DX2                !
 ! D52   D(13,12,17,42)        178.6497         estimate D2E/DX2                !
 ! D53   D(12,13,14,15)         -5.8668         estimate D2E/DX2                !
 ! D54   D(12,13,14,41)       -174.6483         estimate D2E/DX2                !
 ! D55   D(40,13,14,15)        177.3384         estimate D2E/DX2                !
 ! D56   D(40,13,14,41)          8.5569         estimate D2E/DX2                !
 ! D57   D(13,14,15,16)          8.8678         estimate D2E/DX2                !
 ! D58   D(13,14,15,18)       -177.7878         estimate D2E/DX2                !
 ! D59   D(41,14,15,16)        177.4195         estimate D2E/DX2                !
 ! D60   D(41,14,15,18)         -9.236          estimate D2E/DX2                !
 ! D61   D(14,15,16,17)         -7.3483         estimate D2E/DX2                !
 ! D62   D(18,15,16,17)        179.0478         estimate D2E/DX2                !
 ! D63   D(14,15,18,19)         -4.4715         estimate D2E/DX2                !
 ! D64   D(14,15,18,22)       -179.1607         estimate D2E/DX2                !
 ! D65   D(16,15,18,19)        169.3748         estimate D2E/DX2                !
 ! D66   D(16,15,18,22)         -5.3144         estimate D2E/DX2                !
 ! D67   D(15,16,17,12)          2.8036         estimate D2E/DX2                !
 ! D68   D(15,16,17,42)       -176.1557         estimate D2E/DX2                !
 ! D69   D(15,18,19,20)       -177.8712         estimate D2E/DX2                !
 ! D70   D(15,18,19,43)          5.7871         estimate D2E/DX2                !
 ! D71   D(22,18,19,20)         -2.8397         estimate D2E/DX2                !
 ! D72   D(22,18,19,43)       -179.1815         estimate D2E/DX2                !
 ! D73   D(15,18,22,21)       -179.8582         estimate D2E/DX2                !
 ! D74   D(19,18,22,21)          4.6204         estimate D2E/DX2                !
 ! D75   D(18,19,20,21)         -1.3041         estimate D2E/DX2                !
 ! D76   D(18,19,20,44)       -175.7404         estimate D2E/DX2                !
 ! D77   D(43,19,20,21)        175.2957         estimate D2E/DX2                !
 ! D78   D(43,19,20,44)          0.8593         estimate D2E/DX2                !
 ! D79   D(19,20,21,22)          4.4632         estimate D2E/DX2                !
 ! D80   D(19,20,21,23)        176.3519         estimate D2E/DX2                !
 ! D81   D(44,20,21,22)        179.0039         estimate D2E/DX2                !
 ! D82   D(44,20,21,23)         -9.1074         estimate D2E/DX2                !
 ! D83   D(20,21,22,18)         -5.136          estimate D2E/DX2                !
 ! D84   D(23,21,22,18)       -178.0335         estimate D2E/DX2                !
 ! D85   D(20,21,23,24)       -133.3594         estimate D2E/DX2                !
 ! D86   D(20,21,23,28)         52.9985         estimate D2E/DX2                !
 ! D87   D(22,21,23,24)         37.5699         estimate D2E/DX2                !
 ! D88   D(22,21,23,28)       -136.0722         estimate D2E/DX2                !
 ! D89   D(21,23,24,25)       -176.5551         estimate D2E/DX2                !
 ! D90   D(21,23,24,45)         -1.4991         estimate D2E/DX2                !
 ! D91   D(28,23,24,25)         -2.8964         estimate D2E/DX2                !
 ! D92   D(28,23,24,45)        172.1597         estimate D2E/DX2                !
 ! D93   D(21,23,28,27)       -178.2379         estimate D2E/DX2                !
 ! D94   D(21,23,28,47)         -8.5235         estimate D2E/DX2                !
 ! D95   D(24,23,28,27)          7.6374         estimate D2E/DX2                !
 ! D96   D(24,23,28,47)        177.3518         estimate D2E/DX2                !
 ! D97   D(23,24,25,26)         -1.5177         estimate D2E/DX2                !
 ! D98   D(23,24,25,46)        179.0703         estimate D2E/DX2                !
 ! D99   D(45,24,25,26)       -176.2176         estimate D2E/DX2                !
 ! D100  D(45,24,25,46)          4.3703         estimate D2E/DX2                !
 ! D101  D(24,25,26,27)          1.3975         estimate D2E/DX2                !
 ! D102  D(24,25,26,29)        179.0843         estimate D2E/DX2                !
 ! D103  D(46,25,26,27)       -179.2818         estimate D2E/DX2                !
 ! D104  D(46,25,26,29)         -1.595          estimate D2E/DX2                !
 ! D105  D(25,26,27,28)          3.2634         estimate D2E/DX2                !
 ! D106  D(29,26,27,28)       -174.6407         estimate D2E/DX2                !
 ! D107  D(25,26,29,30)       -176.8986         estimate D2E/DX2                !
 ! D108  D(25,26,29,33)          6.1418         estimate D2E/DX2                !
 ! D109  D(27,26,29,30)          1.0468         estimate D2E/DX2                !
 ! D110  D(27,26,29,33)       -175.9128         estimate D2E/DX2                !
 ! D111  D(26,27,28,23)         -7.9212         estimate D2E/DX2                !
 ! D112  D(26,27,28,47)       -177.812          estimate D2E/DX2                !
 ! D113  D(26,29,30,31)       -178.8703         estimate D2E/DX2                !
 ! D114  D(26,29,30,48)          3.6896         estimate D2E/DX2                !
 ! D115  D(33,29,30,31)         -1.5945         estimate D2E/DX2                !
 ! D116  D(33,29,30,48)       -179.0346         estimate D2E/DX2                !
 ! D117  D(26,29,33,32)        178.3504         estimate D2E/DX2                !
 ! D118  D(30,29,33,32)          0.7765         estimate D2E/DX2                !
 ! D119  D(29,30,31,32)          1.7835         estimate D2E/DX2                !
 ! D120  D(29,30,31,49)       -177.8819         estimate D2E/DX2                !
 ! D121  D(48,30,31,32)        179.0128         estimate D2E/DX2                !
 ! D122  D(48,30,31,49)         -0.6526         estimate D2E/DX2                !
 ! D123  D(30,31,32,33)         -1.0531         estimate D2E/DX2                !
 ! D124  D(30,31,32,50)        176.564          estimate D2E/DX2                !
 ! D125  D(49,31,32,33)        178.6128         estimate D2E/DX2                !
 ! D126  D(49,31,32,50)         -3.7702         estimate D2E/DX2                !
 ! D127  D(31,32,33,29)          0.1994         estimate D2E/DX2                !
 ! D128  D(50,32,33,29)       -177.4876         estimate D2E/DX2                !
 --------------------------------------------------------------------------------
 Trust Radius=3.00D-01 FncErr=1.00D-07 GrdErr=1.00D-06 EigMax=2.50D+02 EigMin=1.00D-04
 Number of steps in this run=    280 maximum allowed number of steps=    300.
 GradGradGradGradGradGradGradGradGradGradGradGradGradGradGradGradGradGrad

 Leave Link  103 at Sat Jul 25 07:14:03 2020, MaxMem=  4026531840 cpu:               0.2 elap:               0.1
 (Enter /opt/ohpc/pub/libs/gaussian/g16-A.03/sandybridge/g16/l202.exe)
                          Input orientation:                          
 ---------------------------------------------------------------------
 Center     Atomic      Atomic             Coordinates (Angstroms)
 Number     Number       Type             X           Y           Z
 ---------------------------------------------------------------------
      1          6           0       10.478325    2.749419   -0.233267
      2          6           0       10.737590    1.361541   -0.172994
      3          6           0        9.642214    0.409268   -0.011074
      4          6           0        8.373868    0.979577    0.072695
      5          7           0        8.051346    2.291293    0.103165
      6          6           0        9.101123    3.154589   -0.075620
      7          6           0        7.168159    0.081950    0.322910
      8          6           0        7.190130   -1.238157    0.853743
      9          6           0        5.870908   -1.734514    0.839889
     10          6           0        4.962726   -0.916243    0.309220
     11         16           0        5.632601    0.521997   -0.172455
     12          6           0        3.437666   -1.112279    0.130013
     13          6           0        3.006689   -2.366167   -0.191732
     14          6           0        1.621351   -2.618919   -0.409312
     15          6           0        0.742309   -1.513921   -0.137110
     16          7           0        1.169477   -0.273003    0.125764
     17          6           0        2.530735   -0.093338    0.285613
     18          6           0       -0.720798   -1.676062   -0.280795
     19          6           0       -1.417526   -2.767295   -0.739296
     20          6           0       -2.831672   -2.508949   -0.771887
     21          6           0       -3.217805   -1.290233   -0.334333
     22         16           0       -1.734979   -0.371126    0.019859
     23          6           0       -4.525945   -0.655519   -0.285389
     24          6           0       -4.797864    0.664243   -0.709882
     25          6           0       -6.104523    1.153977   -0.526857
     26          6           0       -7.059807    0.359882    0.010291
     27          7           0       -6.871173   -0.833428    0.404741
     28          6           0       -5.566119   -1.356892    0.344522
     29          6           0       -8.487636    0.829532    0.255542
     30          6           0       -9.514094    0.208557    0.813917
     31          6           0      -10.759967    0.916158    0.881175
     32          6           0      -10.620960    2.159049    0.275718
     33         16           0       -9.044365    2.408498   -0.294303
     34          1           0       11.211797    3.452249   -0.338931
     35          1           0       11.760330    1.007028   -0.358185
     36          1           0        9.832372   -0.616691   -0.077837
     37          1           0        8.903018    4.210085   -0.047801
     38          1           0        7.985451   -1.689907    1.279184
     39          1           0        5.635857   -2.749854    1.332589
     40          1           0        3.677107   -3.290035   -0.373646
     41          1           0        1.262370   -3.620182   -0.579166
     42          1           0        2.788244    0.847646    0.541904
     43          1           0       -1.010377   -3.760090   -1.003547
     44          1           0       -3.617708   -3.323405   -1.060046
     45          1           0       -3.956786    1.265512   -1.083069
     46          1           0       -6.227565    2.243801   -0.886950
     47          1           0       -5.418824   -2.364283    0.641203
     48          1           0       -9.328462   -0.834814    1.246627
     49          1           0      -11.645769    0.551621    1.327225
     50          1           0      -11.358823    2.828107    0.146452
 ---------------------------------------------------------------------
                    Distance matrix (angstroms):
                    1          2          3          4          5
     1  C    0.000000
     2  C    1.413173   0.000000
     3  C    2.494946   1.460442   0.000000
     4  C    2.766712   2.406957   1.393187   0.000000
     5  N    2.492648   2.855978   2.466968   1.351128   0.000000
     6  C    1.444196   2.429512   2.798881   2.298168   1.370867
     7  C    4.287414   3.824148   2.517862   1.523836   2.389457
     8  C    5.281532   4.516314   3.078089   2.632416   3.709727
     9  C    6.518099   5.856286   4.420711   3.770900   4.637261
    10  C    6.644788   6.226547   4.874133   3.909727   4.457614
    11  S    5.333493   5.173562   4.014442   2.789986   3.009436
    12  C    8.038381   7.713656   6.389947   5.361458   5.733329
    13  C    9.055180   8.582715   7.194850   6.330129   6.872224
    14  C   10.358380   9.950162   8.582701   7.666681   8.106642
    15  C   10.628985  10.400731   9.106198   8.031329   8.243750
    16  N    9.793804   9.711322   8.501264   7.312662   7.344130
    17  C    8.456636   8.347422   7.135389   5.944635   6.016386
    18  C   12.041906  11.854675  10.574184   9.481051   9.635240
    19  C   13.122556  12.849702  11.529905  10.515216  10.768407
    20  C   14.321193  14.123181  12.833264  11.766361  11.926782
    21  C   14.279810  14.206019  12.975858  11.818824  11.832688
    22  S   12.608198  12.593820  11.403968  10.198822  10.142365
    23  C   15.385852  15.396645  14.210762  13.007957  12.923735
    24  C   15.425209  15.560360  14.459225  13.198727  12.977308
    25  C   16.662007  16.847109  15.772772  14.491849  14.215451
    26  C   17.701844  17.826504  16.702108  15.446237  15.234366
    27  N   17.727068  17.754442  16.565299  15.356058  15.249144
    28  C   16.571657  16.536887  15.314671  14.137051  14.099747
    29  C   19.069152  19.237359  18.136680  16.863163  16.604153
    30  C   20.180421  20.308473  19.175115  17.919907  17.702758
    31  C   21.346378  21.527996  20.427972  19.151013  18.877547
    32  C   21.113679  21.378144  20.340605  19.032495  18.673572
    33  S   19.525762  19.810012  18.795355  17.480599  17.100733
    34  H    1.021331   2.150225   3.439595   3.786474   3.395838
    35  H    2.166810   1.098168   2.228053   3.413874   3.952056
    36  H    3.431051   2.177585   1.045566   2.167479   3.414848
    37  H    2.156278   3.390506   3.872205   3.275775   2.104732
    38  H    5.311266   4.358259   2.969203   2.955102   4.151785
    39  H    7.492890   6.722948   5.276019   4.795070   5.723568
    40  H    9.096773   8.457413   7.028428   6.363047   7.107217
    41  H   11.208269  10.712718   9.315631   8.494475   9.027807
    42  H    7.959584   7.997954   6.890201   5.606849   5.475112
    43  H   13.227143  12.842728  11.482432  10.568197  10.952574
    44  H   15.370781  15.126472  13.815163  12.790491  13.001720
    45  H   14.536044  14.722844  13.668033  12.388001  12.110104
    46  H   16.726318  17.003076  15.999455  14.687445  14.313276
    47  H   16.722260  16.600434  15.328174  14.203625  14.262165
    48  H   20.182805  20.235754  19.052981  17.833749  17.695699
    49  H   22.287687  22.448193  21.330484  20.063471  19.811641
    50  H   21.840591  22.147332  21.140462  19.819223  19.417639
                    6          7          8          9         10
     6  C    0.000000
     7  C    3.651888   0.000000
     8  C    4.879736   1.423007   0.000000
     9  C    5.930917   2.291216   1.409578   0.000000
    10  C    5.817741   2.420849   2.315483   1.332656   0.000000
    11  S    4.355521   1.672413   2.564590   2.484647   1.658095
    12  C    7.093884   3.921731   3.823691   2.609936   1.548016
    13  C    8.224011   4.855509   4.457197   3.109176   2.485822
    14  C    9.454720   6.212723   5.874786   4.516792   3.818400
    15  C    9.574369   6.637015   6.529336   5.225487   4.285831
    16  N    8.642913   6.012407   6.140826   4.974881   3.851773
    17  C    7.338223   4.640886   4.831495   3.762637   2.567549
    18  C   10.947485   8.104980   8.003857   6.686549   5.764364
    19  C   12.089299   9.108264   8.886382   7.528727   6.725578
    20  C   13.226944  10.387876  10.232014   8.884395   8.028583
    21  C   13.098831  10.496814  10.475655   9.175014   8.214324
    22  S   11.395652   8.919809   9.005813   7.770508   6.726079
    23  C   14.151251  11.733114  11.785733  10.513089   9.510858
    24  C   14.134566  12.024618  12.238303  11.044389   9.940102
    25  C   15.343329  13.342992  13.578518  12.394447  11.290210
    26  C   16.401019  14.234114  14.364047  13.125476  12.093765
    27  N   16.469647  14.069380  14.074290  12.781312  11.834574
    28  C   15.351155  12.815326  12.766961  11.453976  10.538121
    29  C   17.744858  15.673779  15.824839  14.597383  13.563291
    30  C   18.867874  16.689958  16.766803  15.507240  14.529219
    31  C   20.009721  17.956204  18.078933  16.840836  15.839441
    32  C   19.750319  17.910034  18.141390  16.954640  15.884263
    33  S   18.162137  16.390232  16.678577  15.521479  14.408912
    34  H    2.147761   5.305465   6.292550   7.537720   7.652105
    35  H    3.429758   4.733677   5.234153   6.605810   7.095902
    36  H    3.841521   2.783295   2.869757   4.217220   4.894180
    37  H    1.074286   4.493179   5.781878   6.732009   6.475539
    38  H    5.152607   2.172994   1.008768   2.160153   3.267454
    39  H    6.989533   3.374391   2.220425   1.152787   2.205112
    40  H    8.428639   4.903358   4.249473   2.950437   2.784602
    41  H   10.372904   7.028362   6.547183   5.177652   4.668313
    42  H    6.749501   4.451730   4.881026   4.032265   2.809594
    43  H   12.284798   9.132864   8.778268   7.406301   6.744537
    44  H   14.307416  11.394908  11.172297   9.806537   9.016272
    45  H   13.232254  11.275726  11.587637  10.453779   9.287423
    46  H   15.377141  13.622877  13.970991  12.852315  11.689282
    47  H   15.549940  12.826438  12.660926  11.309029  10.487307
    48  H   18.902732  16.547876  16.528186  15.231407  14.322130
    49  H   20.956549  18.846568  18.926663  17.671952  16.704283
    50  H   20.463756  18.730232  19.002590  17.837096  16.746331
                   11         12         13         14         15
    11  S    0.000000
    12  C    2.753195   0.000000
    13  C    3.903495   1.364367   0.000000
    14  C    5.100155   2.420710   1.424916   0.000000
    15  C    5.297279   2.738178   2.420067   1.437995   0.000000
    16  N    4.543175   2.418488   2.803121   2.448228   1.338452
    17  C    3.195315   1.372944   2.370684   2.772807   2.322761
    18  C    6.723755   4.216567   3.791878   2.528074   1.479060
    19  C    7.800323   5.202659   4.475981   3.060340   2.568747
    20  C    9.010542   6.486040   5.868852   4.469113   3.763823
    21  C    9.035489   6.674023   6.318409   5.018811   3.971327
    22  S    7.424008   5.226634   5.148628   4.062230   2.732687
    23  C   10.227187   7.987508   7.725002   6.454421   5.339788
    24  C   10.445270   8.466724   8.388260   7.216358   5.980467
    25  C   11.759468   9.829586   9.773326   8.598703   7.358579
    26  C   12.694759  10.600874  10.431035   9.187591   8.025327
    27  N   12.590262  10.316268  10.013852   8.716285   7.663014
    28  C   11.367006   9.009661   8.648655   7.336259   6.328735
    29  C   14.130069  12.083014  11.938679  10.701657   9.530888
    30  C   15.182014  13.036887  12.822267  11.553746  10.443428
    31  C   16.431122  14.361462  14.193153  12.940601  11.800192
    32  C   16.341941  14.434950  14.366938  13.159499  11.949269
    33  S   14.798212  12.976017  12.962864  11.791762  10.544623
    34  H    6.304087   9.027288  10.059793  11.350801  11.589381
    35  H    6.149700   8.602124   9.382557  10.767962  11.304904
    36  H    4.352429   6.417248   7.047240   8.458112   9.134428
    37  H    4.930838   7.630809   8.833714   9.989427   9.968420
    38  H    3.540576   4.726161   5.235360   6.649500   7.382409
    39  H    3.601413   2.993307   3.063216   4.378084   5.256839
    40  H    4.289058   2.248027   1.155891   2.162823   3.438542
    41  H    6.035063   3.394764   2.182958   1.077147   2.214094
    42  H    2.950716   2.105400   3.303715   3.779355   3.197485
    43  H    7.947084   5.299146   4.328843   2.929399   2.977901
    44  H   10.056995   7.488900   6.749290   5.326114   4.809968
    45  H    9.661179   7.861512   7.904022   6.830693   5.540901
    46  H   12.005776  10.281740  10.344398   9.245521   7.953734
    47  H   11.451054   8.959143   8.466585   7.122674   6.268050
    48  H   15.089338  12.817872  12.512788  11.217111  10.188049
    49  H   17.343356  15.222086  15.017165  13.750795  12.644177
    50  H   17.150170  15.312185  15.279489  14.087721  12.859666
                   16         17         18         19         20
    16  N    0.000000
    17  C    1.382337   0.000000
    18  C    2.388934   3.660369   0.000000
    19  C    3.696269   4.877422   1.373478   0.000000
    20  C    4.670592   5.975692   2.321780   1.437920   0.000000
    21  C    4.527106   5.904456   2.527207   2.363623   1.351229
    22  S    2.908042   4.283002   1.679826   2.533519   2.529799
    23  C    5.723041   7.102030   3.939629   3.785221   2.557820
    24  C    6.098024   7.434602   4.720552   4.816950   3.733484
    25  C    7.441321   8.762624   6.087213   6.114691   4.918193
    26  C    8.254392   9.605192   6.664295   6.494340   5.169054
    27  N    8.064983   9.431744   6.245567   5.898383   4.528730
    28  C    6.825754   8.195065   4.895919   4.513837   3.170300
    29  C    9.720713  11.056993   8.178596   7.994581   6.647631
    30  C   10.716536  12.060189   9.059373   8.764849   7.386093
    31  C   12.012343  13.342284  10.433345  10.172264   8.793283
    32  C   12.039592  13.343179  10.631603  10.488199   9.141154
    33  S   10.568324  11.856577   9.271763   9.227975   7.937690
    34  H   10.721084   9.397983  12.988063  14.083424  15.262449
    35  H   10.678898   9.317226  12.766500  13.713010  15.015318
    36  H    8.672100   7.329386  10.608150  11.472699  12.823430
    37  H    8.940686   7.696532  11.283565  12.477004  13.541516
    38  H    7.056592   5.769761   8.844914   9.677345  11.040284
    39  H    5.247835   4.218414   6.645532   7.351410   8.728454
    40  H    3.954757   3.459431   4.685627   5.134417   6.567564
    41  H    3.421865   3.846456   2.793131   2.816896   4.246547
    42  H    2.012320   1.008686   4.399922   5.691904   6.676543
    43  H    4.264608   5.257992   2.224725   1.105098   2.221742
    44  H    5.798986   7.074425   3.422435   2.291929   1.168001
    45  H    5.486973   6.768138   4.446135   4.778028   3.950857
    46  H    7.878840   9.140292   6.786548   6.947615   5.842428
    47  H    6.931438   8.275211   4.836856   4.251892   2.951458
    48  H   10.572544  11.921153   8.782516   8.382200   7.006098
    49  H   12.897831  14.229343  11.265136  10.950008   9.563559
    50  H   12.906417  14.194155  11.560175  11.442135  10.101476
                   21         22         23         24         25
    21  C    0.000000
    22  S    1.780164   0.000000
    23  C    1.454815   2.821976   0.000000
    24  C    2.541181   3.314480   1.412765   0.000000
    25  C    3.787396   4.660231   2.413398   1.407372   0.000000
    26  C    4.195548   5.374780   2.745710   2.393255   1.353397
    27  N    3.755263   5.171300   2.451127   2.789984   2.324953
    28  C    2.445376   3.969228   1.403807   2.405612   2.711760
    29  C    5.710733   6.862616   4.265323   3.817562   2.529158
    30  C    6.573287   7.840994   5.180418   4.977192   3.783737
    31  C    7.951719   9.156930   6.534070   6.175888   4.869525
    32  C    8.190019   9.242722   6.736902   6.092151   4.696009
    33  S    6.901523   7.826374   5.459341   4.609545   3.204774
    34  H   15.188962  13.504293  16.265090  16.254840  17.469182
    35  H   15.153300  13.570762  16.371076  16.565476  17.866254
    36  H   13.070064  11.570370  14.359870  14.699799  16.041244
    37  H   13.313525  11.582705  14.285223  14.167763  15.323041
    38  H   11.325905   9.889987  12.651201  13.149584  14.487126
    39  H    9.126689   7.855624  10.500777  11.166480  12.511353
    40  H    7.179176   6.161619   8.616178   9.358125  10.744906
    41  H    5.055747   4.460863   6.510002   7.422925   8.778750
    42  H    6.435133   4.713542   7.512741   7.690880   8.961997
    43  H    3.379464   3.613514   4.744821   5.831468   7.094055
    44  H    2.195534   3.664262   2.922773   4.173334   5.149319
    45  H    2.763789   2.971777   2.156524   1.099184   2.221393
    46  H    4.674766   5.276692   3.415178   2.137850   1.154349
    47  H    2.636236   4.234319   2.139084   3.373869   3.769974
    48  H    6.328268   7.705904   5.044144   5.157656   4.182621
    49  H    8.785430  10.039145   7.399298   7.145369   5.874169
    50  H    9.136085  10.142460   7.681820   6.961451   5.555513
                   26         27         28         29         30
    26  C    0.000000
    27  N    1.270890   0.000000
    28  C    2.300028   1.407411   0.000000
    29  C    1.522963   2.323930   3.650155   0.000000
    30  C    2.586936   2.870225   4.272876   1.323257   0.000000
    31  C    3.841753   4.290776   5.694806   2.358476   1.434372
    32  C    3.998658   4.799215   6.157759   2.513781   2.306345
    33  S    2.868462   3.965036   5.165700   1.762217   2.507696
    34  H   18.534730  18.598760  17.466923  19.882145  21.009835
    35  H   18.834865  18.737722  17.501079  20.258043  21.321644
    36  H   16.920614  16.711920  15.422056  18.380027  19.384582
    37  H   16.420695  16.567043  15.508097  17.718775  18.866499
    38  H   15.237175  14.906961  13.587845  16.696048  17.608371
    39  H   13.137687  12.686977  11.331411  14.609760  15.444812
    40  H   11.346833  10.858500   9.470482  12.858759  13.698841
    41  H    9.243755   8.653820   7.252858  10.749852  11.520942
    42  H    9.874444   9.805568   8.642588  11.279530  12.321929
    43  H    7.389022   6.700564   5.324231   8.863371   9.558584
    44  H    5.153666   4.350933   3.104237   6.534054   7.124174
    45  H    3.412381   3.887516   3.391898   4.744529   5.966522
    46  H    2.246513   3.398829   3.862515   2.900580   4.223321
    47  H    3.242214   2.123381   1.060449   4.445986   4.839481
    48  H    2.846510   2.597507   3.904047   2.111702   1.144692
    49  H    4.775157   5.056294   6.447501   3.346572   2.219283
    50  H    4.959054   5.797634   7.149047   3.499988   3.272702
                   31         32         33         34         35
    31  C    0.000000
    32  C    1.389489   0.000000
    33  S    2.559710   1.694934   0.000000
    34  H   22.151272  21.879658  20.283084   0.000000
    35  H   22.554557  22.419882  20.851943   2.506066   0.000000
    36  H   20.671569  20.643850  19.118834   4.304330   2.536155
    37  H   19.958605  19.634081  18.039264   2.447352   4.303504
    38  H   18.929889  19.026822  17.586569   6.282466   4.919771
    39  H   16.806739  17.014653  15.644945   8.505949   7.381196
    40  H   15.089590  15.314990  13.939707  10.110942   9.154424
    41  H   12.932423  13.241747  11.943823  12.209344  11.474627
    42  H   13.552631  13.475807  11.964369   8.860930   9.018530
    43  H   10.976064  11.359403  10.153791  14.207079  13.646716
    44  H    8.529601   8.993726   7.930301  16.320040  15.991539
    45  H    7.089681   6.859732   5.273711  15.343450  15.735946
    46  H    5.042972   4.545426   2.883178  17.489769  18.038114
    47  H    6.272694   6.903356   6.066231  17.645687  17.535331
    48  H    2.290996   3.402415   3.601978  21.042698  21.229813
    49  H    1.056642   2.177091   3.583943  23.101040  23.471120
    50  H    2.134009   1.004385   2.393126  22.584465  23.196254
                   36         37         38         39         40
    36  H    0.000000
    37  H    4.915523   0.000000
    38  H    2.530695   6.116594   0.000000
    39  H    4.914308   7.811566   2.578164   0.000000
    40  H    6.717258   9.147028   4.884064   2.653250   0.000000
    41  H    9.094901  10.953307   7.237351   4.851769   2.445852
    42  H    7.221364   7.003157   5.830413   4.655759   4.329978
    43  H   11.327096  12.755883   9.509019   7.116919   4.752918
    44  H   13.754842  14.647412  11.948791   9.575078   7.327113
    45  H   13.953281  13.233172  12.527241  10.676018   8.918106
    46  H   16.332748  15.280870  14.905570  13.061536  11.357348
    47  H   15.367826  15.773782  13.436383  11.082989   9.199070
    48  H   19.207794  18.960839  17.335046  15.086604  13.334100
    49  H   21.555735  20.917163  19.758835  17.594157  15.888418
    50  H   21.470531  20.309845  19.897147  17.925951  16.241347
                   41         42         43         44         45
    41  H    0.000000
    42  H    4.852481   0.000000
    43  H    2.316258   6.168401   0.000000
    44  H    4.912686   7.810258   2.644251   0.000000
    45  H    7.166834   6.950581   5.826176   4.601485   0.000000
    46  H    9.517361   9.234483   7.954832   6.151024   2.480312
    47  H    6.906876   8.813757   4.907941   2.656724   4.276223
    48  H   11.102140  12.253239   9.100058   6.642781   6.220431
    49  H   13.698844  14.458392  11.710462   9.228470   8.089476
    50  H   14.191598  14.290490  12.321411   9.961004   7.664436
                   46         47         48         49         50
    46  H    0.000000
    47  H    4.921763   0.000000
    48  H    4.862672   4.241590   0.000000
    49  H    6.092863   6.909990   2.701594   0.000000
    50  H    5.266796   7.905016   4.330097   2.580494   0.000000
 Stoichiometry    C27H17N3S3
 Framework group  C1[X(C27H17N3S3)]
 Deg. of freedom   144
 Full point group                 C1      NOp   1
 Largest Abelian subgroup         C1      NOp   1
 Largest concise Abelian subgroup C1      NOp   1
                         Standard orientation:                         
 ---------------------------------------------------------------------
 Center     Atomic      Atomic             Coordinates (Angstroms)
 Number     Number       Type             X           Y           Z
 ---------------------------------------------------------------------
      1          6           0       10.477146    2.742736   -0.246695
      2          6           0       10.736983    1.355305   -0.179055
      3          6           0        9.641940    0.403411   -0.012717
      4          6           0        8.373304    0.973595    0.067443
      5          7           0        8.050197    2.285311    0.090909
      6          6           0        9.099689    3.148121   -0.091852
      7          6           0        7.167860    0.076758    0.321734
      8          6           0        7.190138   -1.240553    0.859456
      9          6           0        5.871139   -1.737552    0.847532
     10          6           0        4.962868   -0.922456    0.312149
     11         16           0        5.632360    0.513544   -0.176687
     12          6           0        3.437983   -1.120091    0.133205
     13          6           0        3.007713   -2.375828   -0.182211
     14          6           0        1.622594   -2.630317   -0.399162
     15          6           0        0.742936   -1.524299   -0.133166
     16          7           0        1.169432   -0.281840    0.123445
     17          6           0        2.530532   -0.100749    0.283035
     18          6           0       -0.720029   -1.687826   -0.276734
     19          6           0       -1.416052   -2.781740   -0.729885
     20          6           0       -2.830294   -2.524186   -0.764530
     21          6           0       -3.217176   -1.303373   -0.333531
     22         16           0       -1.734927   -0.381783    0.016603
     23          6           0       -4.525616   -0.668984   -0.288552
     24          6           0       -4.797895    0.648427   -0.720058
     25          6           0       -6.104858    1.138538   -0.540243
     26          6           0       -7.060067    0.346838    0.000562
     27          7           0       -6.871112   -0.844316    0.401325
     28          6           0       -5.565801   -1.367517    0.344489
     29          6           0       -8.488222    0.817137    0.242647
     30          6           0       -9.514691    0.198634    0.803741
     31          6           0      -10.760905    0.906031    0.866685
     32          6           0      -10.622134    2.145808    0.254823
     33         16           0       -9.045361    2.392970   -0.315704
     34          1           0       11.210365    3.445326   -0.355657
     35          1           0       11.759970    1.000278   -0.361883
     36          1           0        9.832577   -0.622799   -0.074033
     37          1           0        8.901111    4.203661   -0.069637
     38          1           0        7.985442   -1.689730    1.287645
     39          1           0        5.636282   -2.750411    1.345404
     40          1           0        3.678623   -3.300339   -0.358969
     41          1           0        1.264133   -3.632609   -0.563970
     42          1           0        2.787504    0.841672    0.534543
     43          1           0       -1.008340   -3.775722   -0.988751
     44          1           0       -3.615831   -3.340477   -1.048829
     45          1           0       -3.956891    1.248109   -1.095956
     46          1           0       -6.228193    2.226415   -0.906077
     47          1           0       -5.418217   -2.373282    0.646494
     48          1           0       -9.328823   -0.842385    1.241980
     49          1           0      -11.646772    0.543439    1.314187
     50          1           0      -11.360222    2.813860    0.121700
 ---------------------------------------------------------------------
 Rotational constants (GHZ):           0.3786780           0.0237637           0.0225401
 Leave Link  202 at Sat Jul 25 07:14:04 2020, MaxMem=  4026531840 cpu:               0.3 elap:               0.1
 (Enter /opt/ohpc/pub/libs/gaussian/g16-A.03/sandybridge/g16/l301.exe)
 Standard basis: CC-pVDZ (5D, 7F)
 Ernie: Thresh=  0.10000D-02 Tol=  0.10000D-05 Strict=F.
 Ernie:  90 primitive shells out of 895 were deleted.
 There are   592 symmetry adapted cartesian basis functions of A   symmetry.
 There are   559 symmetry adapted basis functions of A   symmetry.
   559 basis functions,  1322 primitive gaussians,   592 cartesian basis functions
   124 alpha electrons      124 beta electrons
       nuclear repulsion energy      3097.0114475412 Hartrees.
 IExCor=32609 DFT=T Ex+Corr=LC-wPBE ExCW=0 ScaHFX=  1.000000
 ScaDFX=  1.000000  0.000000  1.000000  1.000000 ScalE2=  1.000000  1.000000
 IRadAn=      5 IRanWt=     -1 IRanGd=            0 ICorTp=0 IEmpDi=  4
 HFx  wShort=  0.000000 wLong=  0.104900 cFull=  0.000000 cShort=  0.000000 cLong=  1.000000
 DFx  wShort=  0.000000 wLong=  0.104900 cFull=  0.000000 cShort=  0.000000 cLong=  1.000000
 NAtoms=   50 NActive=   50 NUniq=   50 SFac= 1.00D+00 NAtFMM=   60 NAOKFM=F Big=F
 Integral buffers will be    131072 words long.
 Raffenetti 2 integral format.
 Two-electron integral symmetry is turned on.
 Leave Link  301 at Sat Jul 25 07:14:04 2020, MaxMem=  4026531840 cpu:               0.5 elap:               0.1
 (Enter /opt/ohpc/pub/libs/gaussian/g16-A.03/sandybridge/g16/l302.exe)
 NPDir=0 NMtPBC=     1 NCelOv=     1 NCel=       1 NClECP=     1 NCelD=      1
         NCelK=      1 NCelE2=     1 NClLst=     1 CellRange=     0.0.
 One-electron integrals computed using PRISM.
 One-electron integral symmetry used in STVInt
 NBasis=   559 RedAO= T EigKep=  3.37D-04  NBF=   559
 NBsUse=   559 1.00D-06 EigRej= -1.00D+00 NBFU=   559
 Precomputing XC quadrature grid using
 IXCGrd= 4 IRadAn=           5 IRanWt=          -1 IRanGd=           0 AccXCQ= 0.00D+00.
 Generated NRdTot=       0 NPtTot=           0 NUsed=           0 NTot=          32
 NSgBfM=   509   509   509   509   509 MxSgAt=    50 MxSgA2=    50.
 Leave Link  302 at Sat Jul 25 07:14:05 2020, MaxMem=  4026531840 cpu:              13.7 elap:               1.7
 (Enter /opt/ohpc/pub/libs/gaussian/g16-A.03/sandybridge/g16/l303.exe)
 DipDrv:  MaxL=1.
 Leave Link  303 at Sat Jul 25 07:14:06 2020, MaxMem=  4026531840 cpu:               1.2 elap:               0.2
 (Enter /opt/ohpc/pub/libs/gaussian/g16-A.03/sandybridge/g16/l401.exe)
 ExpMin= 1.22D-01 ExpMax= 1.11D+05 ExpMxC= 1.07D+03 IAcc=3 IRadAn=         5 AccDes= 0.00D+00
 Harris functional with IExCor=32609 and IRadAn=       5 diagonalized for initial guess.
 HarFok:  IExCor=32609 AccDes= 0.00D+00 IRadAn=         5 IDoV= 1 UseB2=F ITyADJ=14
 ICtDFT=  3500011 ScaDFX=  1.000000  1.000000  1.000000  1.000000
 FoFCou: FMM=F IPFlag=           0 FMFlag=      100000 FMFlg1=           0
         NFxFlg=           0 DoJE=T BraDBF=F KetDBF=T FulRan=T
         wScrn=  0.000000 ICntrl=       500 IOpCl=  0 I1Cent=   200000004 NGrid=           0
         NMat0=    1 NMatS0=      1 NMatT0=    0 NMatD0=    1 NMtDS0=    0 NMtDT0=    0
 Petite list used in FoFCou.
 Harris En= -2396.37505527020    
 JPrj=0 DoOrth=F DoCkMO=F.
 Initial guess <Sx>= 0.0000 <Sy>= 0.0000 <Sz>= 0.0000 <S**2>= 0.0000 S= 0.0000
 Leave Link  401 at Sat Jul 25 07:14:14 2020, MaxMem=  4026531840 cpu:              63.0 elap:               7.9
 (Enter /opt/ohpc/pub/libs/gaussian/g16-A.03/sandybridge/g16/l502.exe)
 Integral symmetry usage will be decided dynamically.
 UHF open shell SCF:
 Using DIIS extrapolation, IDIIS=  1040.
 NGot=  4026531840 LenX=  4025820188 LenY=  4025469132
 Requested convergence on RMS density matrix=1.00D-08 within 128 cycles.
 Requested convergence on MAX density matrix=1.00D-06.
 Requested convergence on             energy=1.00D-06.
 No special actions if energy rises.
 Fock matrices will be formed incrementally for  20 cycles.
 Integral accuracy reduced to 1.0D-05 until final iterations.

 Cycle   1  Pass 0  IDiag  1:
 FoFJK:  IHMeth= 1 ICntrl=       0 DoSepK=T KAlg= 0 I1Cent=           0 FoldK=F
 IRaf=         1 NMat=       1 IRICut=       1 DoRegI=T DoRafI=F ISym2E= 0 IDoP0=0 IntGTp=1.
 FoFCou: FMM=F IPFlag=           0 FMFlag=      100000 FMFlg1=           0
         NFxFlg=           0 DoJE=T BraDBF=F KetDBF=F FulRan=T
         wScrn=  0.000000 ICntrl=       500 IOpCl=  0 I1Cent=           0 NGrid=           0
         NMat0=    1 NMatS0=      1 NMatT0=    0 NMatD0=    1 NMtDS0=    0 NMtDT0=    0
 Symmetry not used in FoFCou.
 E= -2395.58041469234    
 DIIS: error= 2.06D-02 at cycle   1 NSaved=   1.
 NSaved= 1 IEnMin= 1 EnMin= -2395.58041469234     IErMin= 1 ErrMin= 2.06D-02
 ErrMax= 2.06D-02  0.00D+00 EMaxC= 1.00D-01 BMatC= 2.30D+00 BMatP= 2.30D+00
 IDIUse=3 WtCom= 7.94D-01 WtEn= 2.06D-01
 Coeff-Com:  0.100D+01
 Coeff-En:   0.100D+01
 Coeff:      0.100D+01
 Gap=     0.255 Goal=   None    Shift=    0.000
 Gap=     0.255 Goal=   None    Shift=    0.000
 GapD=    0.255 DampG=1.000 DampE=0.500 DampFc=0.5000 IDamp=-1.
 Damping current iteration by 5.00D-01
 RMSDP=3.68D-03 MaxDP=1.74D-01              OVMax= 2.66D-01

 Cycle   2  Pass 0  IDiag  1:
 RMSU=  1.83D-03    CP:  9.87D-01
 E= -2395.81243650415     Delta-E=       -0.232021811804 Rises=F Damp=T
 DIIS: error= 8.40D-03 at cycle   2 NSaved=   2.
 NSaved= 2 IEnMin= 2 EnMin= -2395.81243650415     IErMin= 2 ErrMin= 8.40D-03
 ErrMax= 8.40D-03  0.00D+00 EMaxC= 1.00D-01 BMatC= 2.26D-01 BMatP= 2.30D+00
 IDIUse=3 WtCom= 9.16D-01 WtEn= 8.40D-02
 Coeff-Com:  0.177D+00 0.823D+00
 Coeff-En:   0.288D+00 0.712D+00
 Coeff:      0.186D+00 0.814D+00
 Gap=     0.202 Goal=   None    Shift=    0.000
 Gap=     0.202 Goal=   None    Shift=    0.000
 RMSDP=1.07D-03 MaxDP=3.72D-02 DE=-2.32D-01 OVMax= 2.44D-01

 Cycle   3  Pass 0  IDiag  1:
 RMSU=  9.89D-04    CP:  9.83D-01  7.80D-01
 E= -2396.22640716555     Delta-E=       -0.413970661404 Rises=F Damp=F
 DIIS: error= 5.07D-03 at cycle   3 NSaved=   3.
 NSaved= 3 IEnMin= 3 EnMin= -2396.22640716555     IErMin= 3 ErrMin= 5.07D-03
 ErrMax= 5.07D-03  0.00D+00 EMaxC= 1.00D-01 BMatC= 1.33D-01 BMatP= 2.26D-01
 IDIUse=3 WtCom= 9.49D-01 WtEn= 5.07D-02
 Coeff-Com:  0.631D-01 0.437D+00 0.500D+00
 Coeff-En:   0.000D+00 0.000D+00 0.100D+01
 Coeff:      0.599D-01 0.415D+00 0.525D+00
 Gap=     0.198 Goal=   None    Shift=    0.000
 Gap=     0.198 Goal=   None    Shift=    0.000
 RMSDP=5.11D-04 MaxDP=2.37D-02 DE=-4.14D-01 OVMax= 5.18D-02

 Cycle   4  Pass 0  IDiag  1:
 RMSU=  3.32D-04    CP:  9.85D-01  8.31D-01  6.19D-01
 E= -2396.25906808979     Delta-E=       -0.032660924235 Rises=F Damp=F
 DIIS: error= 2.26D-03 at cycle   4 NSaved=   4.
 NSaved= 4 IEnMin= 4 EnMin= -2396.25906808979     IErMin= 4 ErrMin= 2.26D-03
 ErrMax= 2.26D-03  0.00D+00 EMaxC= 1.00D-01 BMatC= 2.16D-02 BMatP= 1.33D-01
 IDIUse=3 WtCom= 9.77D-01 WtEn= 2.26D-02
 Coeff-Com:  0.183D-01 0.115D+00 0.298D+00 0.569D+00
 Coeff-En:   0.000D+00 0.000D+00 0.111D+00 0.889D+00
 Coeff:      0.179D-01 0.112D+00 0.294D+00 0.576D+00
 Gap=     0.199 Goal=   None    Shift=    0.000
 Gap=     0.199 Goal=   None    Shift=    0.000
 RMSDP=1.57D-04 MaxDP=1.18D-02 DE=-3.27D-02 OVMax= 1.64D-02

 Cycle   5  Pass 0  IDiag  1:
 RMSU=  1.05D-04    CP:  9.85D-01  8.23D-01  6.88D-01  7.17D-01
 E= -2396.26397278954     Delta-E=       -0.004904699750 Rises=F Damp=F
 DIIS: error= 8.29D-04 at cycle   5 NSaved=   5.
 NSaved= 5 IEnMin= 5 EnMin= -2396.26397278954     IErMin= 5 ErrMin= 8.29D-04
 ErrMax= 8.29D-04  0.00D+00 EMaxC= 1.00D-01 BMatC= 2.62D-03 BMatP= 2.16D-02
 IDIUse=3 WtCom= 9.92D-01 WtEn= 8.29D-03
 Coeff-Com:  0.626D-02 0.120D-01 0.110D+00 0.332D+00 0.540D+00
 Coeff-En:   0.000D+00 0.000D+00 0.000D+00 0.252D-01 0.975D+00
 Coeff:      0.621D-02 0.119D-01 0.109D+00 0.329D+00 0.543D+00
 Gap=     0.200 Goal=   None    Shift=    0.000
 Gap=     0.200 Goal=   None    Shift=    0.000
 RMSDP=5.82D-05 MaxDP=3.95D-03 DE=-4.90D-03 OVMax= 5.22D-03

 Cycle   6  Pass 0  IDiag  1:
 RMSU=  4.26D-05    CP:  9.85D-01  8.18D-01  6.91D-01  7.72D-01  6.77D-01
 E= -2396.26456351837     Delta-E=       -0.000590728836 Rises=F Damp=F
 DIIS: error= 3.44D-04 at cycle   6 NSaved=   6.
 NSaved= 6 IEnMin= 6 EnMin= -2396.26456351837     IErMin= 6 ErrMin= 3.44D-04
 ErrMax= 3.44D-04  0.00D+00 EMaxC= 1.00D-01 BMatC= 2.98D-04 BMatP= 2.62D-03
 IDIUse=3 WtCom= 9.97D-01 WtEn= 3.44D-03
 Coeff-Com:  0.200D-02-0.121D-01 0.199D-01 0.106D+00 0.301D+00 0.583D+00
 Coeff-En:   0.000D+00 0.000D+00 0.000D+00 0.000D+00 0.155D-01 0.985D+00
 Coeff:      0.199D-02-0.121D-01 0.198D-01 0.106D+00 0.300D+00 0.585D+00
 Gap=     0.200 Goal=   None    Shift=    0.000
 Gap=     0.200 Goal=   None    Shift=    0.000
 RMSDP=2.12D-05 MaxDP=1.05D-03 DE=-5.91D-04 OVMax= 1.64D-03

 Cycle   7  Pass 0  IDiag  1:
 RMSU=  1.47D-05    CP:  9.85D-01  8.15D-01  6.98D-01  7.81D-01  7.46D-01
                    CP:  7.66D-01
 E= -2396.26463513347     Delta-E=       -0.000071615093 Rises=F Damp=F
 DIIS: error= 1.23D-04 at cycle   7 NSaved=   7.
 NSaved= 7 IEnMin= 7 EnMin= -2396.26463513347     IErMin= 7 ErrMin= 1.23D-04
 ErrMax= 1.23D-04  0.00D+00 EMaxC= 1.00D-01 BMatC= 3.66D-05 BMatP= 2.98D-04
 IDIUse=3 WtCom= 9.99D-01 WtEn= 1.23D-03
 Coeff-Com:  0.823D-03-0.835D-02 0.110D-02 0.272D-01 0.108D+00 0.319D+00
 Coeff-Com:  0.552D+00
 Coeff-En:   0.000D+00 0.000D+00 0.000D+00 0.000D+00 0.000D+00 0.000D+00
 Coeff-En:   0.100D+01
 Coeff:      0.822D-03-0.834D-02 0.109D-02 0.272D-01 0.108D+00 0.319D+00
 Coeff:      0.553D+00
 Gap=     0.200 Goal=   None    Shift=    0.000
 Gap=     0.200 Goal=   None    Shift=    0.000
 RMSDP=7.63D-06 MaxDP=4.39D-04 DE=-7.16D-05 OVMax= 6.86D-04

 Initial convergence to 1.0D-05 achieved.  Increase integral accuracy.
 Cycle   8  Pass 1  IDiag  1:
 E= -2396.26420334194     Delta-E=        0.000431791525 Rises=F Damp=F
 DIIS: error= 8.90D-05 at cycle   1 NSaved=   1.
 NSaved= 1 IEnMin= 1 EnMin= -2396.26420334194     IErMin= 1 ErrMin= 8.90D-05
 ErrMax= 8.90D-05  0.00D+00 EMaxC= 1.00D-01 BMatC= 2.69D-05 BMatP= 2.69D-05
 IDIUse=1 WtCom= 1.00D+00 WtEn= 0.00D+00
 Coeff-Com:  0.100D+01
 Coeff:      0.100D+01
 Gap=     0.200 Goal=   None    Shift=    0.000
 Gap=     0.200 Goal=   None    Shift=    0.000
 RMSDP=7.63D-06 MaxDP=4.39D-04 DE= 4.32D-04 OVMax= 6.91D-04

 Cycle   9  Pass 1  IDiag  1:
 RMSU=  6.99D-05    CP:  1.00D+00
 E= -2396.26420394514     Delta-E=       -0.000000603196 Rises=F Damp=F
 DIIS: error= 9.77D-05 at cycle   2 NSaved=   2.
 NSaved= 2 IEnMin= 2 EnMin= -2396.26420394514     IErMin= 1 ErrMin= 8.90D-05
 ErrMax= 9.77D-05  0.00D+00 EMaxC= 1.00D-01 BMatC= 2.17D-05 BMatP= 2.69D-05
 IDIUse=1 WtCom= 1.00D+00 WtEn= 0.00D+00
 Coeff-Com:  0.462D+00 0.538D+00
 Coeff:      0.462D+00 0.538D+00
 Gap=     0.200 Goal=   None    Shift=    0.000
 Gap=     0.200 Goal=   None    Shift=    0.000
 RMSDP=7.14D-06 MaxDP=4.30D-04 DE=-6.03D-07 OVMax= 7.43D-04

 Cycle  10  Pass 1  IDiag  1:
 RMSU=  7.05D-06    CP:  1.00D+00  1.02D+00
 E= -2396.26420730449     Delta-E=       -0.000003359350 Rises=F Damp=F
 DIIS: error= 6.72D-05 at cycle   3 NSaved=   3.
 NSaved= 3 IEnMin= 3 EnMin= -2396.26420730449     IErMin= 3 ErrMin= 6.72D-05
 ErrMax= 6.72D-05  0.00D+00 EMaxC= 1.00D-01 BMatC= 9.06D-06 BMatP= 2.17D-05
 IDIUse=1 WtCom= 1.00D+00 WtEn= 0.00D+00
 Coeff-Com: -0.280D-02 0.392D+00 0.611D+00
 Coeff:     -0.280D-02 0.392D+00 0.611D+00
 Gap=     0.200 Goal=   None    Shift=    0.000
 Gap=     0.200 Goal=   None    Shift=    0.000
 RMSDP=3.43D-06 MaxDP=1.94D-04 DE=-3.36D-06 OVMax= 3.10D-04

 Cycle  11  Pass 1  IDiag  1:
 RMSU=  1.31D-06    CP:  1.00D+00  1.04D+00  6.39D-01
 E= -2396.26420957864     Delta-E=       -0.000002274155 Rises=F Damp=F
 DIIS: error= 1.01D-05 at cycle   4 NSaved=   4.
 NSaved= 4 IEnMin= 4 EnMin= -2396.26420957864     IErMin= 4 ErrMin= 1.01D-05
 ErrMax= 1.01D-05  0.00D+00 EMaxC= 1.00D-01 BMatC= 4.69D-07 BMatP= 9.06D-06
 IDIUse=1 WtCom= 1.00D+00 WtEn= 0.00D+00
 Coeff-Com: -0.147D-01 0.234D+00 0.387D+00 0.393D+00
 Coeff:     -0.147D-01 0.234D+00 0.387D+00 0.393D+00
 Gap=     0.200 Goal=   None    Shift=    0.000
 Gap=     0.200 Goal=   None    Shift=    0.000
 RMSDP=6.67D-07 MaxDP=3.47D-05 DE=-2.27D-06 OVMax= 6.10D-05

 Cycle  12  Pass 1  IDiag  1:
 RMSU=  4.62D-07    CP:  1.00D+00  1.04D+00  6.51D-01  6.42D-01
 E= -2396.26420972585     Delta-E=       -0.000000147208 Rises=F Damp=F
 DIIS: error= 9.54D-07 at cycle   5 NSaved=   5.
 NSaved= 5 IEnMin= 5 EnMin= -2396.26420972585     IErMin= 5 ErrMin= 9.54D-07
 ErrMax= 9.54D-07  0.00D+00 EMaxC= 1.00D-01 BMatC= 6.44D-09 BMatP= 4.69D-07
 IDIUse=1 WtCom= 1.00D+00 WtEn= 0.00D+00
 Coeff-Com: -0.539D-02 0.675D-01 0.112D+00 0.141D+00 0.685D+00
 Coeff:     -0.539D-02 0.675D-01 0.112D+00 0.141D+00 0.685D+00
 Gap=     0.200 Goal=   None    Shift=    0.000
 Gap=     0.200 Goal=   None    Shift=    0.000
 RMSDP=1.41D-07 MaxDP=7.43D-06 DE=-1.47D-07 OVMax= 2.44D-05

 Cycle  13  Pass 1  IDiag  1:
 RMSU=  1.23D-07    CP:  1.00D+00  1.05D+00  6.52D-01  6.86D-01  1.03D+00
 E= -2396.26420973350     Delta-E=       -0.000000007652 Rises=F Damp=F
 DIIS: error= 6.91D-07 at cycle   6 NSaved=   6.
 NSaved= 6 IEnMin= 6 EnMin= -2396.26420973350     IErMin= 6 ErrMin= 6.91D-07
 ErrMax= 6.91D-07  0.00D+00 EMaxC= 1.00D-01 BMatC= 3.52D-09 BMatP= 6.44D-09
 IDIUse=1 WtCom= 1.00D+00 WtEn= 0.00D+00
 Coeff-Com:  0.730D-03-0.224D-01-0.380D-01-0.250D-01 0.439D+00 0.645D+00
 Coeff:      0.730D-03-0.224D-01-0.380D-01-0.250D-01 0.439D+00 0.645D+00
 Gap=     0.200 Goal=   None    Shift=    0.000
 Gap=     0.200 Goal=   None    Shift=    0.000
 RMSDP=9.80D-08 MaxDP=5.04D-06 DE=-7.65D-09 OVMax= 1.69D-05

 Cycle  14  Pass 1  IDiag  1:
 RMSU=  6.99D-08    CP:  1.00D+00  1.05D+00  6.52D-01  7.07D-01  1.15D+00
                    CP:  8.06D-01
 E= -2396.26420972449     Delta-E=        0.000000009013 Rises=F Damp=F
 DIIS: error= 2.32D-07 at cycle   7 NSaved=   7.
 NSaved= 7 IEnMin= 6 EnMin= -2396.26420973350     IErMin= 7 ErrMin= 2.32D-07
 ErrMax= 2.32D-07  0.00D+00 EMaxC= 1.00D-01 BMatC= 4.90D-10 BMatP= 3.52D-09
 IDIUse=1 WtCom= 1.00D+00 WtEn= 0.00D+00
 Coeff-Com:  0.134D-02-0.249D-01-0.420D-01-0.404D-01 0.137D+00 0.368D+00
 Coeff-Com:  0.602D+00
 Coeff:      0.134D-02-0.249D-01-0.420D-01-0.404D-01 0.137D+00 0.368D+00
 Coeff:      0.602D+00
 Gap=     0.200 Goal=   None    Shift=    0.000
 Gap=     0.200 Goal=   None    Shift=    0.000
 RMSDP=3.88D-08 MaxDP=1.55D-06 DE= 9.01D-09 OVMax= 5.79D-06

 Cycle  15  Pass 1  IDiag  1:
 RMSU=  2.90D-08    CP:  1.00D+00  1.05D+00  6.52D-01  7.15D-01  1.18D+00
                    CP:  9.34D-01  9.36D-01
 E= -2396.26420972464     Delta-E=       -0.000000000153 Rises=F Damp=F
 DIIS: error= 8.03D-08 at cycle   8 NSaved=   8.
 NSaved= 8 IEnMin= 6 EnMin= -2396.26420973350     IErMin= 8 ErrMin= 8.03D-08
 ErrMax= 8.03D-08  0.00D+00 EMaxC= 1.00D-01 BMatC= 6.72D-11 BMatP= 4.90D-10
 IDIUse=1 WtCom= 1.00D+00 WtEn= 0.00D+00
 Coeff-Com:  0.620D-03-0.103D-01-0.174D-01-0.183D-01 0.214D-01 0.122D+00
 Coeff-Com:  0.335D+00 0.567D+00
 Coeff:      0.620D-03-0.103D-01-0.174D-01-0.183D-01 0.214D-01 0.122D+00
 Coeff:      0.335D+00 0.567D+00
 Gap=     0.200 Goal=   None    Shift=    0.000
 Gap=     0.200 Goal=   None    Shift=    0.000
 RMSDP=1.09D-08 MaxDP=5.27D-07 DE=-1.53D-10 OVMax= 1.92D-06

 Cycle  16  Pass 1  IDiag  1:
 RMSU=  7.99D-09    CP:  1.00D+00  1.05D+00  6.52D-01  7.16D-01  1.19D+00
                    CP:  9.56D-01  1.02D+00  8.95D-01
 E= -2396.26420972456     Delta-E=        0.000000000078 Rises=F Damp=F
 DIIS: error= 3.53D-08 at cycle   9 NSaved=   9.
 NSaved= 9 IEnMin= 6 EnMin= -2396.26420973350     IErMin= 9 ErrMin= 3.53D-08
 ErrMax= 3.53D-08  0.00D+00 EMaxC= 1.00D-01 BMatC= 7.30D-12 BMatP= 6.72D-11
 IDIUse=1 WtCom= 1.00D+00 WtEn= 0.00D+00
 Coeff-Com:  0.103D-03-0.131D-02-0.223D-02-0.286D-02-0.857D-02 0.535D-02
 Coeff-Com:  0.740D-01 0.276D+00 0.659D+00
 Coeff:      0.103D-03-0.131D-02-0.223D-02-0.286D-02-0.857D-02 0.535D-02
 Coeff:      0.740D-01 0.276D+00 0.659D+00
 Gap=     0.200 Goal=   None    Shift=    0.000
 Gap=     0.200 Goal=   None    Shift=    0.000
 RMSDP=4.76D-09 MaxDP=2.54D-07 DE= 7.82D-11 OVMax= 6.57D-07

 SCF Done:  E(ULC-wPBE) =  -2396.26420972     A.U. after   16 cycles
            NFock= 16  Conv=0.48D-08     -V/T= 2.0041
 <Sx>= 0.0000 <Sy>= 0.0000 <Sz>= 0.0000 <S**2>=-0.0000 S=-0.0000
 <L.S>= 0.000000000000E+00
 KE= 2.386596490001D+03 PE=-1.182503860699D+04 EE= 3.945166459718D+03
 Annihilation of the first spin contaminant:
 S**2 before annihilation    -0.0000,   after    -0.0000
 Leave Link  502 at Sat Jul 25 07:24:01 2020, MaxMem=  4026531840 cpu:            4683.2 elap:             587.4
 (Enter /opt/ohpc/pub/libs/gaussian/g16-A.03/sandybridge/g16/l601.exe)
 Copying SCF densities to generalized density rwf, IOpCl= 1 IROHF=0.

 **********************************************************************

            Population analysis using the SCF density.

 **********************************************************************

 Orbital symmetries:
 Alpha Orbitals:
       Occupied  (A) (A) (A) (A) (A) (A) (A) (A) (A) (A) (A) (A)
                 (A) (A) (A) (A) (A) (A) (A) (A) (A) (A) (A) (A)
                 (A) (A) (A) (A) (A) (A) (A) (A) (A) (A) (A) (A)
                 (A) (A) (A) (A) (A) (A) (A) (A) (A) (A) (A) (A)
[...]
    40   Atom        0.000000      0.000000     -0.000000
    41   Atom        0.000000     -0.000000      0.000000
    42   Atom        0.000000     -0.000000      0.000000
    43   Atom       -0.000000     -0.000000      0.000000
    44   Atom       -0.000000      0.000000      0.000000
    45   Atom       -0.000000     -0.000000      0.000000
    46   Atom        0.000000     -0.000000      0.000000
    47   Atom        0.000000     -0.000000      0.000000
    48   Atom        0.000000      0.000000     -0.000000
    49   Atom        0.000000     -0.000000     -0.000000
    50   Atom       -0.000000      0.000000      0.000000
 --------------------------------------------------------
                        XY            XZ            YZ
 --------------------------------------------------------
     1   Atom       -0.000000      0.000000     -0.000000
     2   Atom        0.000000      0.000000     -0.000000
     3   Atom       -0.000000     -0.000000     -0.000000
     4   Atom       -0.000000      0.000000      0.000000
     5   Atom       -0.000000     -0.000000     -0.000000
     6   Atom        0.000000     -0.000000      0.000000
     7   Atom        0.000000     -0.000000     -0.000000
     8   Atom       -0.000000      0.000000     -0.000000
     9   Atom       -0.000000      0.000000      0.000000
    10   Atom        0.000000     -0.000000     -0.000000
    11   Atom        0.000000     -0.000000     -0.000000
    12   Atom        0.000000     -0.000000     -0.000000
    13   Atom       -0.000000     -0.000000     -0.000000
    14   Atom       -0.000000     -0.000000      0.000000
    15   Atom        0.000000     -0.000000     -0.000000
    16   Atom        0.000000     -0.000000     -0.000000
    17   Atom        0.000000      0.000000     -0.000000
    18   Atom       -0.000000      0.000000     -0.000000
    19   Atom       -0.000000     -0.000000     -0.000000
    20   Atom        0.000000      0.000000     -0.000000
    21   Atom       -0.000000      0.000000     -0.000000
    22   Atom       -0.000000     -0.000000      0.000000
    23   Atom        0.000000      0.000000      0.000000
    24   Atom       -0.000000      0.000000     -0.000000
    25   Atom        0.000000      0.000000      0.000000
    26   Atom        0.000000      0.000000      0.000000
    27   Atom        0.000000      0.000000      0.000000
    28   Atom       -0.000000      0.000000      0.000000
    29   Atom       -0.000000      0.000000     -0.000000
    30   Atom       -0.000000      0.000000     -0.000000
    31   Atom        0.000000     -0.000000     -0.000000
    32   Atom        0.000000     -0.000000      0.000000
    33   Atom        0.000000     -0.000000      0.000000
    34   Atom        0.000000      0.000000      0.000000
    35   Atom        0.000000      0.000000     -0.000000
    36   Atom       -0.000000      0.000000     -0.000000
    37   Atom       -0.000000     -0.000000      0.000000
    38   Atom        0.000000     -0.000000      0.000000
    39   Atom        0.000000     -0.000000      0.000000
    40   Atom       -0.000000      0.000000      0.000000
    41   Atom        0.000000      0.000000     -0.000000
    42   Atom       -0.000000     -0.000000     -0.000000
    43   Atom        0.000000      0.000000     -0.000000
    44   Atom       -0.000000     -0.000000     -0.000000
    45   Atom       -0.000000      0.000000      0.000000
    46   Atom        0.000000     -0.000000      0.000000
    47   Atom        0.000000     -0.000000      0.000000
    48   Atom       -0.000000     -0.000000      0.000000
    49   Atom        0.000000     -0.000000     -0.000000
    50   Atom        0.000000     -0.000000     -0.000000
 --------------------------------------------------------


 ---------------------------------------------------------------------------------
              Anisotropic Spin Dipole Couplings in Principal Axis System
 ---------------------------------------------------------------------------------

       Atom             a.u.   MegaHertz   Gauss  10(-4) cm-1        Axes

              Baa    -0.0000    -0.000    -0.000    -0.000  0.9418  0.3299 -0.0649
     1 C(13)  Bbb     0.0000     0.000     0.000     0.000 -0.1686  0.6304  0.7577
              Bcc     0.0000     0.000     0.000     0.000 -0.2909  0.7026 -0.6494
 
              Baa    -0.0000    -0.000    -0.000    -0.000 -0.1341  0.2243  0.9653
     2 C(13)  Bbb     0.0000     0.000     0.000     0.000 -0.3101  0.9156 -0.2558
              Bcc     0.0000     0.000     0.000     0.000  0.9412  0.3336  0.0532
 
              Baa    -0.0000    -0.000    -0.000    -0.000  0.9804  0.1711  0.0980
     3 C(13)  Bbb     0.0000     0.000     0.000     0.000 -0.1356  0.2240  0.9651
              Bcc     0.0000     0.000     0.000     0.000 -0.1431  0.9595 -0.2428
 
              Baa    -0.0000    -0.000    -0.000    -0.000  0.9932  0.1159 -0.0103
     4 C(13)  Bbb     0.0000     0.000     0.000     0.000 -0.1161  0.9930 -0.0222
              Bcc     0.0000     0.000     0.000     0.000  0.0077  0.0232  0.9997
 
              Baa    -0.0000    -0.000    -0.000    -0.000  0.9958  0.0262  0.0878
     5 N(14)  Bbb     0.0000     0.000     0.000     0.000 -0.0915  0.2471  0.9647
              Bcc     0.0000     0.000     0.000     0.000 -0.0036  0.9686 -0.2485
 
              Baa    -0.0000    -0.000    -0.000    -0.000  0.8199 -0.5514  0.1543
     6 C(13)  Bbb     0.0000     0.000     0.000     0.000 -0.0491  0.2008  0.9784
              Bcc     0.0000     0.000     0.000     0.000  0.5705  0.8097 -0.1375
 
              Baa    -0.0000    -0.000    -0.000    -0.000  0.1440 -0.0161  0.9894
     7 C(13)  Bbb    -0.0000    -0.000    -0.000    -0.000 -0.1817  0.9824  0.0424
              Bcc     0.0000     0.000     0.000     0.000  0.9728  0.1859 -0.1385
 
              Baa    -0.0000    -0.000    -0.000    -0.000  0.2096  0.9711  0.1142
     8 C(13)  Bbb    -0.0000    -0.000    -0.000    -0.000  0.9709 -0.1928 -0.1424
              Bcc     0.0000     0.000     0.000     0.000  0.1163 -0.1407  0.9832
 
              Baa    -0.0000    -0.000    -0.000    -0.000  0.6925  0.5795 -0.4296
     9 C(13)  Bbb     0.0000     0.000     0.000     0.000  0.1833  0.4346  0.8818
              Bcc     0.0000     0.000     0.000     0.000  0.6977 -0.6894  0.1948
 
              Baa    -0.0000    -0.000    -0.000    -0.000 -0.2359  0.7971  0.5559
    10 C(13)  Bbb    -0.0000    -0.000    -0.000    -0.000  0.2188 -0.5138  0.8295
              Bcc     0.0000     0.000     0.000     0.000  0.9468  0.3173 -0.0532
 
              Baa    -0.0000    -0.000    -0.000    -0.000 -0.0019  0.1617  0.9868
    11 S(33)  Bbb    -0.0000    -0.000    -0.000    -0.000 -0.0854  0.9832 -0.1613
              Bcc     0.0000     0.000     0.000     0.000  0.9963  0.0846 -0.0119
 
              Baa    -0.0000    -0.000    -0.000    -0.000  0.9986 -0.0309  0.0418
    12 C(13)  Bbb     0.0000     0.000     0.000     0.000  0.0192  0.9664  0.2564
              Bcc     0.0000     0.000     0.000     0.000 -0.0483 -0.2553  0.9657
 
              Baa    -0.0000    -0.000    -0.000    -0.000  0.9848  0.1566  0.0748
    13 C(13)  Bbb     0.0000     0.000     0.000     0.000 -0.1693  0.9617  0.2157
              Bcc     0.0000     0.000     0.000     0.000 -0.0381 -0.2251  0.9736
 
              Baa    -0.0000    -0.000    -0.000    -0.000  0.9728  0.2139  0.0884
    14 C(13)  Bbb    -0.0000    -0.000    -0.000    -0.000 -0.0654 -0.1125  0.9915
              Bcc     0.0000     0.000     0.000     0.000 -0.2220  0.9704  0.0954
 
              Baa    -0.0000    -0.000    -0.000    -0.000  0.8569 -0.5141 -0.0384
    15 C(13)  Bbb    -0.0000    -0.000    -0.000    -0.000  0.5150  0.8499  0.1117
              Bcc     0.0000     0.000     0.000     0.000 -0.0248 -0.1155  0.9930
 
              Baa    -0.0000    -0.000    -0.000    -0.000 -0.0198  0.9930  0.1162
    16 N(14)  Bbb     0.0000     0.000     0.000     0.000  0.9925  0.0056  0.1218
              Bcc     0.0000     0.000     0.000     0.000 -0.1203 -0.1177  0.9857
 
              Baa    -0.0000    -0.000    -0.000    -0.000  0.7539 -0.6404 -0.1468
    17 C(13)  Bbb     0.0000     0.000     0.000     0.000 -0.0708 -0.3013  0.9509
              Bcc     0.0000     0.000     0.000     0.000  0.6532  0.7064  0.2725
 
              Baa    -0.0000    -0.000    -0.000    -0.000  0.0012  0.1593  0.9872
    18 C(13)  Bbb    -0.0000    -0.000    -0.000    -0.000  0.1609  0.9743 -0.1574
              Bcc     0.0000     0.000     0.000     0.000  0.9870 -0.1591  0.0245
 
              Baa    -0.0000    -0.000    -0.000    -0.000  0.6378  0.7504  0.1737
    19 C(13)  Bbb     0.0000     0.000     0.000     0.000  0.7384 -0.6598  0.1391
              Bcc     0.0000     0.000     0.000     0.000 -0.2190 -0.0395  0.9749
 
              Baa    -0.0000    -0.000    -0.000    -0.000 -0.2140  0.9637  0.1595
    20 C(13)  Bbb     0.0000     0.000     0.000     0.000 -0.0894 -0.1819  0.9792
              Bcc     0.0000     0.000     0.000     0.000  0.9727  0.1953  0.1251
 
              Baa    -0.0000    -0.000    -0.000    -0.000  0.0547  0.9780  0.2012
    21 C(13)  Bbb     0.0000     0.000     0.000     0.000  0.8259  0.0689 -0.5595
              Bcc     0.0000     0.000     0.000     0.000  0.5611 -0.1968  0.8040
 
              Baa    -0.0000    -0.000    -0.000    -0.000  0.8504  0.4322  0.3001
    22 S(33)  Bbb     0.0000     0.000     0.000     0.000 -0.0693 -0.4734  0.8781
              Bcc     0.0000     0.000     0.000     0.000 -0.5216  0.7675  0.3727
 
              Baa    -0.0000    -0.000    -0.000    -0.000  0.8988 -0.4334 -0.0657
    23 C(13)  Bbb    -0.0000    -0.000    -0.000    -0.000  0.4035  0.8765 -0.2624
              Bcc     0.0000     0.000     0.000     0.000  0.1713  0.2094  0.9627
 
              Baa    -0.0000    -0.000    -0.000    -0.000  0.7534  0.6559 -0.0460
    24 C(13)  Bbb    -0.0000    -0.000    -0.000    -0.000 -0.0111  0.0827  0.9965
              Bcc     0.0000     0.000     0.000     0.000 -0.6574  0.7503 -0.0696
 
              Baa    -0.0000    -0.000    -0.000    -0.000 -0.4427  0.8923 -0.0889
    25 C(13)  Bbb     0.0000     0.000     0.000     0.000  0.8932  0.4301 -0.1309
              Bcc     0.0000     0.000     0.000     0.000  0.0786  0.1374  0.9874
 
              Baa    -0.0000    -0.000    -0.000    -0.000  0.0103  0.9628 -0.2700
    26 C(13)  Bbb     0.0000     0.000     0.000     0.000  0.9842 -0.0574 -0.1673
              Bcc     0.0000     0.000     0.000     0.000  0.1765  0.2640  0.9482
 
              Baa    -0.0000    -0.000    -0.000    -0.000  0.9914  0.0046 -0.1306
    27 N(14)  Bbb     0.0000     0.000     0.000     0.000 -0.0714  0.8559 -0.5122
              Bcc     0.0000     0.000     0.000     0.000  0.1094  0.5171  0.8489
 
              Baa    -0.0000    -0.000    -0.000    -0.000  0.3894  0.8967 -0.2103
    28 C(13)  Bbb    -0.0000    -0.000    -0.000    -0.000  0.9094 -0.4105 -0.0665
              Bcc     0.0000     0.000     0.000     0.000  0.1460  0.1654  0.9754
 
              Baa    -0.0000    -0.000    -0.000    -0.000  0.9855  0.0218 -0.1682
    29 C(13)  Bbb     0.0000     0.000     0.000     0.000  0.0218  0.9671  0.2534
              Bcc     0.0000     0.000     0.000     0.000  0.1682 -0.2534  0.9526
 
              Baa    -0.0000    -0.000    -0.000    -0.000  0.7446  0.0328 -0.6667
    30 C(13)  Bbb     0.0000     0.000     0.000     0.000  0.3971  0.7811  0.4819
              Bcc     0.0000     0.000     0.000     0.000 -0.5366  0.6236 -0.5686
 
              Baa    -0.0000    -0.000    -0.000    -0.000  0.1108  0.2046  0.9726
    31 C(13)  Bbb    -0.0000    -0.000    -0.000    -0.000 -0.3411  0.9270 -0.1561
              Bcc     0.0000     0.000     0.000     0.000  0.9335  0.3144 -0.1725
 
              Baa    -0.0000    -0.000    -0.000    -0.000  0.2197 -0.2801  0.9345
    32 C(13)  Bbb    -0.0000    -0.000    -0.000    -0.000 -0.3477  0.8725  0.3433
              Bcc     0.0000     0.000     0.000     0.000  0.9115  0.4003 -0.0943
 
              Baa    -0.0000    -0.000    -0.000    -0.000 -0.1483  0.9734 -0.1744
    33 S(33)  Bbb    -0.0000    -0.000    -0.000    -0.000  0.1261  0.1935  0.9730
              Bcc     0.0000     0.000     0.000     0.000  0.9809  0.1223 -0.1514
 
              Baa    -0.0000    -0.000    -0.000    -0.000  0.1613 -0.3634  0.9176
    34 H(1)   Bbb    -0.0000    -0.000    -0.000    -0.000 -0.5942  0.7066  0.3842
              Bcc     0.0000     0.000     0.000     0.000  0.7880  0.6072  0.1020
 
              Baa    -0.0000    -0.000    -0.000    -0.000 -0.4594  0.1956  0.8664
    35 H(1)   Bbb     0.0000     0.000     0.000     0.000 -0.4307  0.8041 -0.4098
              Bcc     0.0000     0.000     0.000     0.000  0.7768  0.5614  0.2852
 
              Baa    -0.0000    -0.000    -0.000    -0.000 -0.1906  0.2117  0.9586
    36 H(1)   Bbb    -0.0000    -0.000    -0.000    -0.000  0.9788  0.1150  0.1693
              Bcc     0.0000     0.000     0.000     0.000 -0.0744  0.9705 -0.2291
 
              Baa    -0.0000    -0.000    -0.000    -0.000 -0.5088 -0.5557  0.6575
    37 H(1)   Bbb    -0.0000    -0.000    -0.000    -0.000  0.4919  0.4391  0.7518
              Bcc     0.0000     0.000     0.000     0.000  0.7065 -0.7059 -0.0500
 
              Baa    -0.0000    -0.000    -0.000    -0.000  0.5183 -0.2507  0.8177
    38 H(1)   Bbb     0.0000     0.000     0.000     0.000 -0.3383  0.8180  0.4652
              Bcc     0.0000     0.000     0.000     0.000  0.7855  0.5177 -0.3391
 
              Baa    -0.0000    -0.000    -0.000    -0.000  0.6871 -0.6043  0.4034
    39 H(1)   Bbb     0.0000     0.000     0.000     0.000  0.0178  0.5691  0.8221
              Bcc     0.0000     0.000     0.000     0.000  0.7264  0.5576 -0.4018
 
              Baa    -0.0000    -0.000    -0.000    -0.000 -0.1484 -0.2783  0.9490
    40 H(1)   Bbb    -0.0000    -0.000    -0.000    -0.000  0.7296  0.6170  0.2950
              Bcc     0.0000     0.000     0.000     0.000 -0.6676  0.7361  0.1115
 
              Baa    -0.0000    -0.000    -0.000    -0.000 -0.3235  0.9460  0.0178
    41 H(1)   Bbb     0.0000     0.000     0.000     0.000  0.0019 -0.0181  0.9998
              Bcc     0.0000     0.000     0.000     0.000  0.9462  0.3235  0.0040
 
              Baa    -0.0000    -0.000    -0.000    -0.000  0.4778  0.8619  0.1697
    42 H(1)   Bbb     0.0000     0.000     0.000     0.000  0.6869 -0.4870  0.5395
              Bcc     0.0000     0.000     0.000     0.000 -0.5477  0.1412  0.8247
 
              Baa    -0.0000    -0.000    -0.000    -0.000  0.7785 -0.6176 -0.1122
    43 H(1)   Bbb     0.0000     0.000     0.000     0.000  0.6275  0.7611  0.1640
              Bcc     0.0000     0.000     0.000     0.000 -0.0159 -0.1981  0.9801
 
              Baa    -0.0000    -0.000    -0.000    -0.000  0.7922  0.5874  0.1653
    44 H(1)   Bbb     0.0000     0.000     0.000     0.000  0.0259 -0.3030  0.9526
              Bcc     0.0000     0.000     0.000     0.000 -0.6097  0.7504  0.2553
 
              Baa    -0.0000    -0.000    -0.000    -0.000  0.6588  0.6712 -0.3399
    45 H(1)   Bbb     0.0000     0.000     0.000     0.000  0.7082 -0.7057 -0.0209
              Bcc     0.0000     0.000     0.000     0.000  0.2539  0.2269  0.9402
 
              Baa    -0.0000    -0.000    -0.000    -0.000 -0.3284  0.9336 -0.1437
    46 H(1)   Bbb     0.0000     0.000     0.000     0.000  0.9260  0.2881 -0.2440
              Bcc     0.0000     0.000     0.000     0.000  0.1864  0.2132  0.9591
 
              Baa    -0.0000    -0.000    -0.000    -0.000 -0.3045  0.9308 -0.2019
    47 H(1)   Bbb     0.0000     0.000     0.000     0.000  0.2110  0.2727  0.9387
              Bcc     0.0000     0.000     0.000     0.000  0.9288  0.2433 -0.2794
 
              Baa    -0.0000    -0.000    -0.000    -0.000 -0.0032 -0.1200  0.9928
    48 H(1)   Bbb    -0.0000    -0.000    -0.000    -0.000  0.7149  0.6939  0.0862
              Bcc     0.0000     0.000     0.000     0.000 -0.6992  0.7100  0.0836
 
              Baa    -0.0000    -0.000    -0.000    -0.000  0.3297 -0.6471  0.6874
    49 H(1)   Bbb    -0.0000    -0.000    -0.000    -0.000  0.0291  0.7348  0.6777
              Bcc     0.0000     0.000     0.000     0.000  0.9436  0.2034 -0.2611
 
              Baa    -0.0000    -0.000    -0.000    -0.000  0.7798 -0.6260 -0.0043
    50 H(1)   Bbb     0.0000     0.000     0.000     0.000  0.0083  0.0034  1.0000
              Bcc     0.0000     0.000     0.000     0.000  0.6259  0.7798 -0.0078
 

 ---------------------------------------------------------------------------------

 No NMR shielding tensors so no spin-rotation constants.
 Leave Link  601 at Sat Jul 25 09:23:40 2020, MaxMem=  4026531840 cpu:               7.9 elap:               1.1
 (Enter /opt/ohpc/pub/libs/gaussian/g16-A.03/sandybridge/g16/l9999.exe)

 Test job not archived.
 1\1\GINC-SKYLAKE050\FOpt\ULC-wPBE\CC-pVDZ\C27H17N3S3\RDU230\25-Jul-202
 0\0\\#P uLC-wPBE/cc-pVDZ iop(3/107=0104900000, 3/108=0104900000) opt\\
 H17 C27 S3 N3\\0,1\C,10.2689006771,2.946866557,-0.1346895516\C,10.6523
 785173,1.6298584847,0.1571703957\C,9.6696953906,0.6412673621,0.2530605
 585\C,8.3183875276,1.0031768201,0.0533553548\N,7.9427752634,2.27519026
 06,-0.2291571059\C,8.9029269237,3.2081872795,-0.3177397964\C,7.2276590
 533,0.0279209881,0.1358310613\C,7.2489489167,-1.3340868261,0.407603976
 2\C,5.960355925,-1.9273167265,0.392825641\C,4.9402948313,-1.0227002638
 ,0.1116500301\S,5.5926280663,0.5849158822,-0.1472071907\C,3.5017908816
 ,-1.2842907688,0.0229449916\C,2.9937923384,-2.5811837257,-0.2195080229
 \C,1.6181834651,-2.7889647731,-0.2827848319\C,0.746511494,-1.68870234,
 -0.1164866951\N,1.2162175375,-0.4370625189,0.1133125124\C,2.5385869087
 ,-0.259218444,0.1834321769\C,-0.7083029669,-1.8210966709,-0.1807604421
 \C,-1.5065987913,-2.9361666162,-0.4065323604\C,-2.8944667644,-2.643741
 295,-0.3918954547\C,-3.1720013581,-1.3000921146,-0.1546367012\S,-1.687
 9744855,-0.3898533275,0.0599025837\C,-4.479983847,-0.6458292385,-0.072
 7111234\C,-4.6619572539,0.7365699203,-0.2954997475\C,-5.9373669595,1.2
 909707807,-0.2071361777\C,-7.0367278862,0.4566412455,0.09382322\N,-6.8
 797323492,-0.8726886076,0.3192193444\C,-5.6478464209,-1.3834828853,0.2
 432391799\C,-8.414199067,0.9558285163,0.1877037343\C,-9.5499432524,0.2
 165303839,0.486261015\C,-10.741500922,0.9954217587,0.5003318396\C,-10.
 511862545,2.3263513827,0.2124471374\S,-8.8305221207,2.6389635751,-0.07
 91428381\H,11.0087477297,3.7545063913,-0.2191244268\H,11.7109123195,1.
 3737983467,0.3089429765\H,9.9434829892,-0.3981770808,0.4789937408\H,8.
 5563523742,4.229163183,-0.5494250112\H,8.1691727953,-1.8921832285,0.62
 07801651\H,5.7788990356,-2.987180093,0.6116875794\H,3.6825706582,-3.42
 32469388,-0.3767300608\H,1.2207879057,-3.7950235407,-0.4729491883\H,2.
 8702301405,0.7723493188,0.3932279229\H,-1.1020148675,-3.9396915609,-0.
 588353217\H,-3.6742191185,-3.3922406436,-0.5799598132\H,-3.802089664,1
 .3726795418,-0.5528806909\H,-6.0829694961,2.3666847344,-0.3820989302\H
 ,-5.5667129547,-2.4610034379,0.464129837\H,-9.4865316724,-0.8592721119
 ,0.685271323\H,-11.7388816159,0.5919936115,0.7155337335\H,-11.23256728
 62,3.1489324534,0.1532043467\\Version=EM64L-G16RevA.03\State=1-A\HF=-2
 396.3716681\S2=0.\S2-1=0.\S2A=0.\RMSD=5.584e-09\RMSF=5.509e-06\Dipole=
 1.5385515,-0.5810792,-0.0828629\Quadrupole=25.9967858,-0.5810307,-25.4
 157551,-6.5203089,2.7023348,-0.5669457\PG=C01 [X(C27H17N3S3)]\\@


 THE FIRST AND LAST THING REQUIRED OF GENIUS IS THE LOVE OF TRUTH.

                          -- GOETHE
 Job cpu time:       0 days 17 hours 11 minutes  6.1 seconds.
 Elapsed time:       0 days  2 hours  9 minutes 35.4 seconds.
 File lengths (MBytes):  RWF=    404 Int=      0 D2E=      0 Chk=     36 Scr=      8
 Normal termination of Gaussian 16 at Sat Jul 25 09:23:40 2020.
