 Entering Gaussian System, Link 0=g16
 Input=mols_65_7_02_c-c-CF_opt_0.gjf
 Output=mols_65_7_02_c-c-CF_opt_0.log
 Initial command:
 /opt/ohpc/pub/libs/gaussian/g16-A.03/sandybridge/g16/l1.exe "/mnt/gpfs2_4m/scratch/rdu230/ondemand/projects/dihedral_energies/7trial/wtuning/mols_65_7_02_c-c-CF/Gau-50609.inp" -scrdir="/mnt/gpfs2_4m/scratch/rdu230/ondemand/projects/dihedral_energies/7trial/wtuning/mols_65_7_02_c-c-CF/"
 Entering Link 1 = /opt/ohpc/pub/libs/gaussian/g16-A.03/sandybridge/g16/l1.exe PID=     50610.
  
 Copyright (c) 1988,1990,1992,1993,1995,1998,2003,2009,2016,
            Gaussian, Inc.  All Rights Reserved.
  
 This is part of the Gaussian(R) 16 program.  It is based on
 the Gaussian(R) 09 system (copyright 2009, Gaussian, Inc.),
 the Gaussian(R) 03 system (copyright 2003, Gaussian, Inc.),
 the Gaussian(R) 98 system (copyright 1998, Gaussian, Inc.),
 the Gaussian(R) 94 system (copyright 1995, Gaussian, Inc.),
 the Gaussian 92(TM) system (copyright 1992, Gaussian, Inc.),
 the Gaussian 90(TM) system (copyright 1990, Gaussian, Inc.),
 the Gaussian 88(TM) system (copyright 1988, Gaussian, Inc.),
 the Gaussian 86(TM) system (copyright 1986, Carnegie Mellon
 University), and the Gaussian 82(TM) system (copyright 1983,
 Carnegie Mellon University). Gaussian is a federally registered
 trademark of Gaussian, Inc.
  
 This software contains proprietary and confidential information,
 including trade secrets, belonging to Gaussian, Inc.
  
 This software is provided under written license and may be
 used, copied, transmitted, or stored only in accord with that
 written license.
  
 The following legend is applicable only to US Government
 contracts under FAR:
  
                    RESTRICTED RIGHTS LEGEND
  
 Use, reproduction and disclosure by the US Government is
 subject to restrictions as set forth in subparagraphs (a)
 and (c) of the Commercial Computer Software - Restricted
 Rights clause in FAR 52.227-19.
  
 Gaussian, Inc.
 340 Quinnipiac St., Bldg. 40, Wallingford CT 06492
  
  
 ---------------------------------------------------------------
 Warning -- This program may not be used in any manner that
 competes with the business of Gaussian, Inc. or will provide
 assistance to any competitor of Gaussian, Inc.  The licensee
 of this program is prohibited from giving any competitor of
 Gaussian, Inc. access to this program.  By using this program,
 the user acknowledges that Gaussian, Inc. is engaged in the
 business of creating and licensing software in the field of
 computational chemistry and represents and warrants to the
 licensee that it is not a competitor of Gaussian, Inc. and that
 it will not use this program in any manner prohibited above.
 ---------------------------------------------------------------
  

 Cite this work as:
 Gaussian 16, Revision A.03,
 M. J. Frisch, G. W. Trucks, H. B. Schlegel, G. E. Scuseria, 
 M. A. Robb, J. R. Cheeseman, G. Scalmani, V. Barone, 
 G. A. Petersson, H. Nakatsuji, X. Li, M. Caricato, A. V. Marenich, 
 J. Bloino, B. G. Janesko, R. Gomperts, B. Mennucci, H. P. Hratchian, 
 J. V. Ortiz, A. F. Izmaylov, J. L. Sonnenberg, D. Williams-Young, 
 F. Ding, F. Lipparini, F. Egidi, J. Goings, B. Peng, A. Petrone, 
 T. Henderson, D. Ranasinghe, V. G. Zakrzewski, J. Gao, N. Rega, 
 G. Zheng, W. Liang, M. Hada, M. Ehara, K. Toyota, R. Fukuda, 
 J. Hasegawa, M. Ishida, T. Nakajima, Y. Honda, O. Kitao, H. Nakai, 
 T. Vreven, K. Throssell, J. A. Montgomery, Jr., J. E. Peralta, 
 F. Ogliaro, M. J. Bearpark, J. J. Heyd, E. N. Brothers, K. N. Kudin, 
 V. N. Staroverov, T. A. Keith, R. Kobayashi, J. Normand, 
 K. Raghavachari, A. P. Rendell, J. C. Burant, S. S. Iyengar, 
 J. Tomasi, M. Cossi, J. M. Millam, M. Klene, C. Adamo, R. Cammi, 
 J. W. Ochterski, R. L. Martin, K. Morokuma, O. Farkas, 
 J. B. Foresman, and D. J. Fox, Gaussian, Inc., Wallingford CT, 2016.
 
 ******************************************
 Gaussian 16:  EM64L-G16RevA.03 25-Dec-2016
                25-Jul-2020 
 ******************************************
 %mem=30GB
 %nproc=8
 Will use up to    8 processors via shared memory.
 ---------------------------------------------------------------
 #P uLC-wPBE/cc-pVDZ iop(3/107=0406500000, 3/108=0406500000) opt
 ---------------------------------------------------------------
 1/18=20,19=15,26=3,38=1/1,3;
 2/9=110,12=2,17=6,18=5,40=1/2;
 3/5=16,11=2,25=1,30=1,71=1,74=-41,107=406500000,108=406500000,116=2/1,2,3;
 4//1;
 5/5=2,38=5/2;
 6/7=2,8=2,9=2,10=2,28=1/1;
 7//1,2,3,16;
 1/18=20,19=15,26=3/3(2);
 2/9=110/2;
 99//99;
 2/9=110/2;
 3/5=16,11=2,25=1,30=1,71=1,74=-41,107=406500000,108=406500000,116=2/1,2,3;
 4/5=5,16=3,69=1/1;
 5/5=2,38=5/2;
 7//1,2,3,16;
 1/18=20,19=15,26=3/3(-5);
 2/9=110/2;
 6/7=2,8=2,9=2,10=2,19=2,28=1/1;
 99/9=1/99;
 Leave Link    1 at Sat Jul 25 11:15:05 2020, MaxMem=  4026531840 cpu:               1.2 elap:               0.2
 (Enter /opt/ohpc/pub/libs/gaussian/g16-A.03/sandybridge/g16/l101.exe)
 -------------
 H37 C70 S7 F7
 -------------
 Symbolic Z-matrix:
 Charge =  0 Multiplicity = 1
 C                    -25.4901   5.3295    0.75474 
 C                    -24.21078   5.66515   1.21809 
 C                    -23.09922   4.76195   0.93466 
 C                    -23.30061   3.56807   0.22938 
 C                    -24.68661   3.29412  -0.19345 
 C                    -25.70786   4.13686   0.04773 
 C                    -22.24855   2.66901  -0.05765 
 C                    -22.10128   1.7733   -1.07292 
 F                    -22.95904   1.71054  -2.09259 
 C                    -20.93108   0.93837  -1.08237 
 C                    -20.11975   1.2312    0.04925 
 S                    -20.86891   2.41528   1.02475 
 C                    -18.88571   0.65097   0.44718 
 C                    -17.9137   0.31906  -0.5408 
 C                    -16.74499  -0.33728  -0.15611 
 C                    -16.40886  -0.69841   1.10366 
 C                    -17.32652  -0.3073    2.11518 
 C                    -18.62182   0.31427   1.76077 
 C                    -15.20969  -1.34627   1.51939 
 C                    -14.93584  -2.25359   2.42017 
 F                    -15.91661  -2.76141   3.31089 
 C                    -13.58392  -2.77769   2.54898 
 C                    -12.79951  -2.12651   1.64544 
 S                    -13.68823  -0.90686   0.72511 
 C                    -11.34022  -2.2458    1.33599 
 C                    -10.73685  -2.04889   0.07531 
 C                    -9.35679  -2.23037  -0.01991 
 C                    -8.48715  -2.65342   0.98969 
 C                    -9.15966  -2.9209    2.25078 
 C                    -10.47323  -2.74959   2.42986 
 C                    -7.08441  -2.79723   0.76352 
 C                    -6.25812  -3.73173   1.32481 
 F                    -6.7087   -4.74276   2.12553 
 C                    -4.84104  -3.62886   0.99301 
 C                    -4.72641  -2.51635   0.17013 
 S                    -6.2008   -1.72255  -0.13532 
 C                    -3.38869  -2.07088  -0.443 
 C                    -2.50681  -2.94944  -0.85805 
 C                    -1.22002  -2.52445  -1.36514 
 C                    -0.983    -1.16722  -1.44418 
 C                    -1.90915  -0.28002  -1.04189 
 C                    -3.1631   -0.69082  -0.46503 
 C                     0.3893   -0.71069  -1.96475 
 C                     0.56184   0.36883  -2.86207 
 F                    -0.33412   1.09101  -3.34226 
 C                     2.01506   0.5406   -3.09712 
 C                     2.7604   -0.32419  -2.38234 
 S                     1.80797  -1.46083  -1.53898 
 C                     4.25082  -0.43149  -2.45646 
 C                     4.88438  -1.6523   -2.62034 
 C                     6.3059   -1.64123  -2.61916 
 C                     7.11763  -0.50237  -2.45167 
 C                     6.42953   0.67338  -2.29107 
 C                     5.01679   0.73282  -2.20241 
 C                     8.50443  -0.61137  -2.49452 
 C                     9.29348  -1.27532  -3.37091 
 F                     8.90117  -2.09545  -4.36122 
 C                     10.68743  -1.08463  -3.16075 
 C                     10.94145  -0.19119  -2.12129 
 S                     9.51319   0.24774  -1.41942 
 C                     12.32753   0.24517  -1.60825 
 C                     12.43411   1.51053  -1.11111 
 C                     13.74386   1.95071  -0.623 
 C                     14.88056   1.11573  -0.69443 
 C                     14.67877  -0.23959  -1.214 
 C                     13.37035  -0.68202  -1.64873 
 C                     16.21409   1.5877   -0.29869 
 C                     16.73946   2.81153  -0.47288 
 F                     16.05477   3.84473  -0.98784 
 C                     18.04045   2.94353   0.07743 
 C                     18.51804   1.70492   0.61002 
 S                     17.33371   0.53455   0.4895 
 C                     19.8274   1.43344   1.08389 
 C                     20.50378   2.31886   1.95913 
 C                     21.78796   2.06642   2.49652 
 C                     22.48453   0.83911   2.12232 
 C                     21.85195  -0.06372   1.24776 
 C                     20.51238   0.27257   0.76162 
 C                     23.79275   0.67398   2.59466 
 C                     24.33881   0.8711    3.91279 
 F                     23.56286   1.35459   4.87567 
 C                     25.73265   0.53709   3.96588 
 C                     26.2598   0.02768   2.80914 
 S                     25.03519   0.06776   1.57775 
 H                    -26.29483   6.07053   0.98015 
 H                    -23.99584   6.54465   1.85318 
 H                    -22.15617   4.99226   1.3083 
 H                    -24.82786   2.38372  -0.76302 
 H                    -26.65246   3.94683  -0.25136 
 H                    -20.658    0.32214  -1.84094 
 H                    -18.17926   0.49737  -1.56872 
 H                    -16.05685  -0.62798  -1.03177 
 H                    -17.2159  -0.5524    3.18531 
 H                    -19.2785   0.50403   2.62667 
 H                    -13.27062  -3.44546   3.22954 
 H                    -11.31515  -1.7641   -0.74828 
 H                    -8.97765  -1.98232  -1.05728 
 H                    -8.54431  -3.18667   3.03741 
 H                    -10.92711  -2.86542   3.39568 
 H                    -4.12502  -4.2758    1.30486 
 H                    -2.64094  -4.02735  -0.82774 
 H                    -0.56178  -3.26284  -1.73137 
 H                    -1.71847   0.77894  -1.04809 
 H                    -3.82154   0.0689   -0.15323 
 H                     2.30873   1.36875  -3.75229 
 H                     4.32299  -2.57688  -2.75879 
 H                     6.78887  -2.67021  -2.78511 
 H                     6.93123   1.66992  -2.12597 
 H                     4.55693   1.69828  -2.12477 
 H                     11.47708  -1.48201  -3.84666 
 H                     11.70118   2.22732  -1.06171 
 H                     13.82519   2.94746  -0.34909 
 H                     15.48386  -0.92926  -1.19966 
 H                     13.30289  -1.6726   -2.02796 
 H                     18.63872   3.85127   0.00573 
 H                     19.92506   3.21057   2.32001 
 H                     22.24032   2.73571   3.19655 
 H                     22.3401  -0.96236   0.96388 
 H                     20.13517  -0.46385   0.06326 
 H                     26.23191   0.65953   4.89527 
 H                     27.19946  -0.23115   2.63078 
 
 ITRead=  0  0  0  0  0  0  0  0  0  0  0  0  0  0  0  0  0  0  0  0
 ITRead=  0  0  0  0  0  0  0  0  0  0  0  0  0  0  0  0  0  0  0  0
 ITRead=  0  0  0  0  0  0  0  0  0  0  0  0  0  0  0  0  0  0  0  0
 ITRead=  0  0  0  0  0  0  0  0  0  0  0  0  0  0  0  0  0  0  0  0
 ITRead=  0  0  0  0  0  0  0  0  0  0  0  0  0  0  0  0  0  0  0  0
 ITRead=  0  0  0  0  0  0  0  0  0  0  0  0  0  0  0  0  0  0  0  0
 ITRead=  0
 MicOpt= -1 -1 -1 -1 -1 -1 -1 -1 -1 -1 -1 -1 -1 -1 -1 -1 -1 -1 -1 -1
 MicOpt= -1 -1 -1 -1 -1 -1 -1 -1 -1 -1 -1 -1 -1 -1 -1 -1 -1 -1 -1 -1
 MicOpt= -1 -1 -1 -1 -1 -1 -1 -1 -1 -1 -1 -1 -1 -1 -1 -1 -1 -1 -1 -1
 MicOpt= -1 -1 -1 -1 -1 -1 -1 -1 -1 -1 -1 -1 -1 -1 -1 -1 -1 -1 -1 -1
 MicOpt= -1 -1 -1 -1 -1 -1 -1 -1 -1 -1 -1 -1 -1 -1 -1 -1 -1 -1 -1 -1
 MicOpt= -1 -1 -1 -1 -1 -1 -1 -1 -1 -1 -1 -1 -1 -1 -1 -1 -1 -1 -1 -1
 MicOpt= -1
 NAtoms=    121 NQM=      121 NQMF=       0 NMMI=      0 NMMIF=      0
                NMic=       0 NMicF=      0.
                    Isotopes and Nuclear Properties:
 (Nuclear quadrupole moments (NQMom) in fm**2, nuclear magnetic moments (NMagM)
  in nuclear magnetons)

  Atom         1           2           3           4           5           6           7           8           9          10
 IAtWgt=          12          12          12          12          12          12          12          12          19          12
 AtmWgt=  12.0000000  12.0000000  12.0000000  12.0000000  12.0000000  12.0000000  12.0000000  12.0000000  18.9984033  12.0000000
 NucSpn=           0           0           0           0           0           0           0           0           1           0
 AtZEff=  -0.0000000  -0.0000000  -0.0000000  -0.0000000  -0.0000000  -0.0000000  -0.0000000  -0.0000000  -0.0000000  -0.0000000
 NQMom=    0.0000000   0.0000000   0.0000000   0.0000000   0.0000000   0.0000000   0.0000000   0.0000000   0.0000000   0.0000000
 NMagM=    0.0000000   0.0000000   0.0000000   0.0000000   0.0000000   0.0000000   0.0000000   0.0000000   2.6288670   0.0000000
 AtZNuc=   6.0000000   6.0000000   6.0000000   6.0000000   6.0000000   6.0000000   6.0000000   6.0000000   9.0000000   6.0000000

  Atom        11          12          13          14          15          16          17          18          19          20
 IAtWgt=          12          32          12          12          12          12          12          12          12          12
 AtmWgt=  12.0000000  31.9720718  12.0000000  12.0000000  12.0000000  12.0000000  12.0000000  12.0000000  12.0000000  12.0000000
 NucSpn=           0           0           0           0           0           0           0           0           0           0
 AtZEff=  -0.0000000  -0.0000000  -0.0000000  -0.0000000  -0.0000000  -0.0000000  -0.0000000  -0.0000000  -0.0000000  -0.0000000
 NQMom=    0.0000000   0.0000000   0.0000000   0.0000000   0.0000000   0.0000000   0.0000000   0.0000000   0.0000000   0.0000000
 NMagM=    0.0000000   0.0000000   0.0000000   0.0000000   0.0000000   0.0000000   0.0000000   0.0000000   0.0000000   0.0000000
 AtZNuc=   6.0000000  16.0000000   6.0000000   6.0000000   6.0000000   6.0000000   6.0000000   6.0000000   6.0000000   6.0000000

  Atom        21          22          23          24          25          26          27          28          29          30
 IAtWgt=          19          12          12          32          12          12          12          12          12          12
 AtmWgt=  18.9984033  12.0000000  12.0000000  31.9720718  12.0000000  12.0000000  12.0000000  12.0000000  12.0000000  12.0000000
 NucSpn=           1           0           0           0           0           0           0           0           0           0
 AtZEff=  -0.0000000  -0.0000000  -0.0000000  -0.0000000  -0.0000000  -0.0000000  -0.0000000  -0.0000000  -0.0000000  -0.0000000
 NQMom=    0.0000000   0.0000000   0.0000000   0.0000000   0.0000000   0.0000000   0.0000000   0.0000000   0.0000000   0.0000000
 NMagM=    2.6288670   0.0000000   0.0000000   0.0000000   0.0000000   0.0000000   0.0000000   0.0000000   0.0000000   0.0000000
 AtZNuc=   9.0000000   6.0000000   6.0000000  16.0000000   6.0000000   6.0000000   6.0000000   6.0000000   6.0000000   6.0000000

  Atom        31          32          33          34          35          36          37          38          39          40
 IAtWgt=          12          12          19          12          12          32          12          12          12          12
 AtmWgt=  12.0000000  12.0000000  18.9984033  12.0000000  12.0000000  31.9720718  12.0000000  12.0000000  12.0000000  12.0000000
 NucSpn=           0           0           1           0           0           0           0           0           0           0
 AtZEff=  -0.0000000  -0.0000000  -0.0000000  -0.0000000  -0.0000000  -0.0000000  -0.0000000  -0.0000000  -0.0000000  -0.0000000
 NQMom=    0.0000000   0.0000000   0.0000000   0.0000000   0.0000000   0.0000000   0.0000000   0.0000000   0.0000000   0.0000000
 NMagM=    0.0000000   0.0000000   2.6288670   0.0000000   0.0000000   0.0000000   0.0000000   0.0000000   0.0000000   0.0000000
 AtZNuc=   6.0000000   6.0000000   9.0000000   6.0000000   6.0000000  16.0000000   6.0000000   6.0000000   6.0000000   6.0000000

  Atom        41          42          43          44          45          46          47          48          49          50
 IAtWgt=          12          12          12          12          19          12          12          32          12          12
 AtmWgt=  12.0000000  12.0000000  12.0000000  12.0000000  18.9984033  12.0000000  12.0000000  31.9720718  12.0000000  12.0000000
 NucSpn=           0           0           0           0           1           0           0           0           0           0
 AtZEff=  -0.0000000  -0.0000000  -0.0000000  -0.0000000  -0.0000000  -0.0000000  -0.0000000  -0.0000000  -0.0000000  -0.0000000
 NQMom=    0.0000000   0.0000000   0.0000000   0.0000000   0.0000000   0.0000000   0.0000000   0.0000000   0.0000000   0.0000000
 NMagM=    0.0000000   0.0000000   0.0000000   0.0000000   2.6288670   0.0000000   0.0000000   0.0000000   0.0000000   0.0000000
 AtZNuc=   6.0000000   6.0000000   6.0000000   6.0000000   9.0000000   6.0000000   6.0000000  16.0000000   6.0000000   6.0000000

  Atom        51          52          53          54          55          56          57          58          59          60
 IAtWgt=          12          12          12          12          12          12          19          12          12          32
 AtmWgt=  12.0000000  12.0000000  12.0000000  12.0000000  12.0000000  12.0000000  18.9984033  12.0000000  12.0000000  31.9720718
 NucSpn=           0           0           0           0           0           0           1           0           0           0
 AtZEff=  -0.0000000  -0.0000000  -0.0000000  -0.0000000  -0.0000000  -0.0000000  -0.0000000  -0.0000000  -0.0000000  -0.0000000
 NQMom=    0.0000000   0.0000000   0.0000000   0.0000000   0.0000000   0.0000000   0.0000000   0.0000000   0.0000000   0.0000000
 NMagM=    0.0000000   0.0000000   0.0000000   0.0000000   0.0000000   0.0000000   2.6288670   0.0000000   0.0000000   0.0000000
 AtZNuc=   6.0000000   6.0000000   6.0000000   6.0000000   6.0000000   6.0000000   9.0000000   6.0000000   6.0000000  16.0000000

  Atom        61          62          63          64          65          66          67          68          69          70
 IAtWgt=          12          12          12          12          12          12          12          12          19          12
 AtmWgt=  12.0000000  12.0000000  12.0000000  12.0000000  12.0000000  12.0000000  12.0000000  12.0000000  18.9984033  12.0000000
 NucSpn=           0           0           0           0           0           0           0           0           1           0
 AtZEff=  -0.0000000  -0.0000000  -0.0000000  -0.0000000  -0.0000000  -0.0000000  -0.0000000  -0.0000000  -0.0000000  -0.0000000
 NQMom=    0.0000000   0.0000000   0.0000000   0.0000000   0.0000000   0.0000000   0.0000000   0.0000000   0.0000000   0.0000000
 NMagM=    0.0000000   0.0000000   0.0000000   0.0000000   0.0000000   0.0000000   0.0000000   0.0000000   2.6288670   0.0000000
 AtZNuc=   6.0000000   6.0000000   6.0000000   6.0000000   6.0000000   6.0000000   6.0000000   6.0000000   9.0000000   6.0000000

  Atom        71          72          73          74          75          76          77          78          79          80
 IAtWgt=          12          32          12          12          12          12          12          12          12          12
 AtmWgt=  12.0000000  31.9720718  12.0000000  12.0000000  12.0000000  12.0000000  12.0000000  12.0000000  12.0000000  12.0000000
 NucSpn=           0           0           0           0           0           0           0           0           0           0
 AtZEff=  -0.0000000  -0.0000000  -0.0000000  -0.0000000  -0.0000000  -0.0000000  -0.0000000  -0.0000000  -0.0000000  -0.0000000
 NQMom=    0.0000000   0.0000000   0.0000000   0.0000000   0.0000000   0.0000000   0.0000000   0.0000000   0.0000000   0.0000000
 NMagM=    0.0000000   0.0000000   0.0000000   0.0000000   0.0000000   0.0000000   0.0000000   0.0000000   0.0000000   0.0000000
 AtZNuc=   6.0000000  16.0000000   6.0000000   6.0000000   6.0000000   6.0000000   6.0000000   6.0000000   6.0000000   6.0000000

  Atom        81          82          83          84          85          86          87          88          89          90
 IAtWgt=          19          12          12          32           1           1           1           1           1           1
 AtmWgt=  18.9984033  12.0000000  12.0000000  31.9720718   1.0078250   1.0078250   1.0078250   1.0078250   1.0078250   1.0078250
 NucSpn=           1           0           0           0           1           1           1           1           1           1
 AtZEff=  -0.0000000  -0.0000000  -0.0000000  -0.0000000  -0.0000000  -0.0000000  -0.0000000  -0.0000000  -0.0000000  -0.0000000
 NQMom=    0.0000000   0.0000000   0.0000000   0.0000000   0.0000000   0.0000000   0.0000000   0.0000000   0.0000000   0.0000000
 NMagM=    2.6288670   0.0000000   0.0000000   0.0000000   2.7928460   2.7928460   2.7928460   2.7928460   2.7928460   2.7928460
 AtZNuc=   9.0000000   6.0000000   6.0000000  16.0000000   1.0000000   1.0000000   1.0000000   1.0000000   1.0000000   1.0000000

  Atom        91          92          93          94          95          96          97          98          99         100
 IAtWgt=           1           1           1           1           1           1           1           1           1           1
 AtmWgt=   1.0078250   1.0078250   1.0078250   1.0078250   1.0078250   1.0078250   1.0078250   1.0078250   1.0078250   1.0078250
 NucSpn=           1           1           1           1           1           1           1           1           1           1
 AtZEff=  -0.0000000  -0.0000000  -0.0000000  -0.0000000  -0.0000000  -0.0000000  -0.0000000  -0.0000000  -0.0000000  -0.0000000
 NQMom=    0.0000000   0.0000000   0.0000000   0.0000000   0.0000000   0.0000000   0.0000000   0.0000000   0.0000000   0.0000000
 NMagM=    2.7928460   2.7928460   2.7928460   2.7928460   2.7928460   2.7928460   2.7928460   2.7928460   2.7928460   2.7928460
 AtZNuc=   1.0000000   1.0000000   1.0000000   1.0000000   1.0000000   1.0000000   1.0000000   1.0000000   1.0000000   1.0000000

  Atom       101         102         103         104         105         106         107         108         109         110
 IAtWgt=           1           1           1           1           1           1           1           1           1           1
 AtmWgt=   1.0078250   1.0078250   1.0078250   1.0078250   1.0078250   1.0078250   1.0078250   1.0078250   1.0078250   1.0078250
 NucSpn=           1           1           1           1           1           1           1           1           1           1
 AtZEff=  -0.0000000  -0.0000000  -0.0000000  -0.0000000  -0.0000000  -0.0000000  -0.0000000  -0.0000000  -0.0000000  -0.0000000
 NQMom=    0.0000000   0.0000000   0.0000000   0.0000000   0.0000000   0.0000000   0.0000000   0.0000000   0.0000000   0.0000000
 NMagM=    2.7928460   2.7928460   2.7928460   2.7928460   2.7928460   2.7928460   2.7928460   2.7928460   2.7928460   2.7928460
 AtZNuc=   1.0000000   1.0000000   1.0000000   1.0000000   1.0000000   1.0000000   1.0000000   1.0000000   1.0000000   1.0000000

  Atom       111         112         113         114         115         116         117         118         119         120
 IAtWgt=           1           1           1           1           1           1           1           1           1           1
 AtmWgt=   1.0078250   1.0078250   1.0078250   1.0078250   1.0078250   1.0078250   1.0078250   1.0078250   1.0078250   1.0078250
 NucSpn=           1           1           1           1           1           1           1           1           1           1
 AtZEff=  -0.0000000  -0.0000000  -0.0000000  -0.0000000  -0.0000000  -0.0000000  -0.0000000  -0.0000000  -0.0000000  -0.0000000
 NQMom=    0.0000000   0.0000000   0.0000000   0.0000000   0.0000000   0.0000000   0.0000000   0.0000000   0.0000000   0.0000000
 NMagM=    2.7928460   2.7928460   2.7928460   2.7928460   2.7928460   2.7928460   2.7928460   2.7928460   2.7928460   2.7928460
 AtZNuc=   1.0000000   1.0000000   1.0000000   1.0000000   1.0000000   1.0000000   1.0000000   1.0000000   1.0000000   1.0000000

  Atom       121
 IAtWgt=           1
 AtmWgt=   1.0078250
 NucSpn=           1
 AtZEff=  -0.0000000
 NQMom=    0.0000000
 NMagM=    2.7928460
 AtZNuc=   1.0000000
 Leave Link  101 at Sat Jul 25 11:15:05 2020, MaxMem=  4026531840 cpu:               3.2 elap:               0.4
 (Enter /opt/ohpc/pub/libs/gaussian/g16-A.03/sandybridge/g16/l103.exe)

 GradGradGradGradGradGradGradGradGradGradGradGradGradGradGradGradGradGrad
 Berny optimization.
 Initialization pass.
                           ----------------------------
                           !    Initial Parameters    !
                           ! (Angstroms and Degrees)  !
 --------------------------                            --------------------------
 ! Name  Definition              Value          Derivative Info.                !
 --------------------------------------------------------------------------------
 ! R1    R(1,2)                  1.4014         estimate D2E/DX2                !
 ! R2    R(1,6)                  1.4035         estimate D2E/DX2                !
 ! R3    R(1,85)                 1.1169         estimate D2E/DX2                !
 ! R4    R(2,3)                  1.46           estimate D2E/DX2                !
 ! R5    R(2,86)                 1.1059         estimate D2E/DX2                !
 ! R6    R(3,4)                  1.4012         estimate D2E/DX2                !
 ! R7    R(3,87)                 1.0402         estimate D2E/DX2                !
 ! R8    R(4,5)                  1.4747         estimate D2E/DX2                !
 ! R9    R(4,7)                  1.4133         estimate D2E/DX2                !
 ! R10   R(5,6)                  1.3459         estimate D2E/DX2                !
 ! R11   R(5,88)                 1.0831         estimate D2E/DX2                !
 ! R12   R(6,89)                 1.0089         estimate D2E/DX2                !
 ! R13   R(7,8)                  1.3619         estimate D2E/DX2                !
 ! R14   R(7,12)                 1.7718         estimate D2E/DX2                !
 ! R15   R(8,9)                  1.3339         estimate D2E/DX2                !
 ! R16   R(8,10)                 1.4376         estimate D2E/DX2                !
 ! R17   R(10,11)                1.4229         estimate D2E/DX2                !
 ! R18   R(10,90)                1.0148         estimate D2E/DX2                !
 ! R19   R(11,12)                1.7073         estimate D2E/DX2                !
 ! R20   R(11,13)                1.4205         estimate D2E/DX2                !
 ! R21   R(13,14)                1.4252         estimate D2E/DX2                !
 ! R22   R(13,18)                1.3815         estimate D2E/DX2                !
 ! R23   R(14,15)                1.3945         estimate D2E/DX2                !
 ! R24   R(14,91)                1.0765         estimate D2E/DX2                !
 ! R25   R(15,16)                1.3529         estimate D2E/DX2                !
 ! R26   R(15,92)                1.151          estimate D2E/DX2                !
 ! R27   R(16,17)                1.4206         estimate D2E/DX2                !
 ! R28   R(16,19)                1.425          estimate D2E/DX2                !
 ! R29   R(17,18)                1.4798         estimate D2E/DX2                !
 ! R30   R(17,93)                1.1034         estimate D2E/DX2                !
 ! R31   R(18,94)                1.1032         estimate D2E/DX2                !
 ! R32   R(19,20)                1.3075         estimate D2E/DX2                !
 ! R33   R(19,24)                1.7717         estimate D2E/DX2                !
 ! R34   R(20,21)                1.4189         estimate D2E/DX2                !
 ! R35   R(20,22)                1.4557         estimate D2E/DX2                !
 ! R36   R(22,23)                1.3623         estimate D2E/DX2                !
 ! R37   R(22,95)                1.0036         estimate D2E/DX2                !
 ! R38   R(23,24)                1.7676         estimate D2E/DX2                !
 ! R39   R(23,25)                1.4965         estimate D2E/DX2                !
 ! R40   R(25,26)                1.4114         estimate D2E/DX2                !
 ! R41   R(25,30)                1.4839         estimate D2E/DX2                !
 ! R42   R(26,27)                1.3952         estimate D2E/DX2                !
 ! R43   R(26,96)                1.0459         estimate D2E/DX2                !
 ! R44   R(27,28)                1.398          estimate D2E/DX2                !
 ! R45   R(27,97)                1.132          estimate D2E/DX2                !
 ! R46   R(28,29)                1.454          estimate D2E/DX2                !
 ! R47   R(28,31)                1.4281         estimate D2E/DX2                !
 ! R48   R(29,30)                1.3367         estimate D2E/DX2                !
 ! R49   R(29,98)                1.0335         estimate D2E/DX2                !
 ! R50   R(30,99)                1.0734         estimate D2E/DX2                !
 ! R51   R(31,32)                1.3679         estimate D2E/DX2                !
 ! R52   R(31,36)                1.6564         estimate D2E/DX2                !
 ! R53   R(32,33)                1.3661         estimate D2E/DX2                !
 ! R54   R(32,34)                1.459          estimate D2E/DX2                !
 ! R55   R(34,35)                1.3885         estimate D2E/DX2                !
 ! R56   R(34,100)               1.0141         estimate D2E/DX2                !
 ! R57   R(35,36)                1.7021         estimate D2E/DX2                !
 ! R58   R(35,37)                1.5375         estimate D2E/DX2                !
 ! R59   R(37,38)                1.3122         estimate D2E/DX2                !
 ! R60   R(37,42)                1.3986         estimate D2E/DX2                !
 ! R61   R(38,39)                1.4469         estimate D2E/DX2                !
 ! R62   R(38,101)               1.0867         estimate D2E/DX2                !
 ! R63   R(39,40)                1.38           estimate D2E/DX2                !
 ! R64   R(39,102)               1.0548         estimate D2E/DX2                !
 ! R65   R(40,41)                1.3441         estimate D2E/DX2                !
 ! R66   R(40,43)                1.5371         estimate D2E/DX2                !
 ! R67   R(41,42)                1.4401         estimate D2E/DX2                !
 ! R68   R(41,103)               1.076          estimate D2E/DX2                !
 ! R69   R(42,104)               1.0526         estimate D2E/DX2                !
 ! R70   R(43,44)                1.4143         estimate D2E/DX2                !
 ! R71   R(43,48)                1.6603         estimate D2E/DX2                !
 ! R72   R(44,45)                1.2469         estimate D2E/DX2                !
 ! R73   R(44,46)                1.4821         estimate D2E/DX2                !
 ! R74   R(46,47)                1.347          estimate D2E/DX2                !
 ! R75   R(46,105)               1.096          estimate D2E/DX2                !
 ! R76   R(47,48)                1.706          estimate D2E/DX2                !
 ! R77   R(47,49)                1.4961         estimate D2E/DX2                !
 ! R78   R(49,50)                1.3851         estimate D2E/DX2                !
 ! R79   R(49,54)                1.4166         estimate D2E/DX2                !
 ! R80   R(50,51)                1.4216         estimate D2E/DX2                !
 ! R81   R(50,106)               1.0905         estimate D2E/DX2                !
 ! R82   R(51,52)                1.4085         estimate D2E/DX2                !
 ! R83   R(51,107)               1.1487         estimate D2E/DX2                !
 ! R84   R(52,53)                1.3717         estimate D2E/DX2                !
 ! R85   R(52,55)                1.3917         estimate D2E/DX2                !
 ! R86   R(53,54)                1.4168         estimate D2E/DX2                !
 ! R87   R(53,108)               1.1279         estimate D2E/DX2                !
 ! R88   R(54,109)               1.0722         estimate D2E/DX2                !
 ! R89   R(55,56)                1.3533         estimate D2E/DX2                !
 ! R90   R(55,60)                1.7063         estimate D2E/DX2                !
 ! R91   R(56,57)                1.3443         estimate D2E/DX2                !
 ! R92   R(56,58)                1.4225         estimate D2E/DX2                !
 ! R93   R(58,59)                1.394          estimate D2E/DX2                !
 ! R94   R(58,110)               1.1189         estimate D2E/DX2                !
 ! R95   R(59,60)                1.6508         estimate D2E/DX2                !
 ! R96   R(59,61)                1.541          estimate D2E/DX2                !
 ! R97   R(61,62)                1.3637         estimate D2E/DX2                !
 ! R98   R(61,66)                1.396          estimate D2E/DX2                !
 ! R99   R(62,63)                1.4654         estimate D2E/DX2                !
 ! R100  R(62,111)               1.0264         estimate D2E/DX2                !
 ! R101  R(63,64)                1.4122         estimate D2E/DX2                !
 ! R102  R(63,112)               1.0369         estimate D2E/DX2                !
 ! R103  R(64,65)                1.4655         estimate D2E/DX2                !
 ! R104  R(64,67)                1.4689         estimate D2E/DX2                !
 ! R105  R(65,66)                1.448          estimate D2E/DX2                !
 ! R106  R(65,113)               1.0602         estimate D2E/DX2                !
 ! R107  R(66,114)               1.0628         estimate D2E/DX2                !
 ! R108  R(67,68)                1.3432         estimate D2E/DX2                !
 ! R109  R(67,72)                1.7274         estimate D2E/DX2                !
 ! R110  R(68,69)                1.3422         estimate D2E/DX2                !
 ! R111  R(68,70)                1.4187         estimate D2E/DX2                !
 ! R112  R(70,71)                1.4304         estimate D2E/DX2                !
 ! R113  R(70,115)               1.0895         estimate D2E/DX2                !
 ! R114  R(71,72)                1.6694         estimate D2E/DX2                !
 ! R115  R(71,73)                1.4187         estimate D2E/DX2                !
 ! R116  R(73,74)                1.4169         estimate D2E/DX2                !
 ! R117  R(73,78)                1.3859         estimate D2E/DX2                !
 ! R118  R(74,75)                1.4148         estimate D2E/DX2                !
 ! R119  R(74,116)               1.1226         estimate D2E/DX2                !
 ! R120  R(75,76)                1.46           estimate D2E/DX2                !
 ! R121  R(75,117)               1.0689         estimate D2E/DX2                !
 ! R122  R(76,77)                1.4072         estimate D2E/DX2                !
 ! R123  R(76,79)                1.4006         estimate D2E/DX2                !
 ! R124  R(77,78)                1.4642         estimate D2E/DX2                !
 ! R125  R(77,118)               1.0613         estimate D2E/DX2                !
 ! R126  R(78,119)               1.0827         estimate D2E/DX2                !
 ! R127  R(79,80)                1.4403         estimate D2E/DX2                !
 ! R128  R(79,84)                1.7162         estimate D2E/DX2                !
 ! R129  R(80,81)                1.3278         estimate D2E/DX2                !
 ! R130  R(80,82)                1.4343         estimate D2E/DX2                !
 ! R131  R(82,83)                1.3695         estimate D2E/DX2                !
 ! R132  R(82,120)               1.0621         estimate D2E/DX2                !
 ! R133  R(83,84)                1.7371         estimate D2E/DX2                !
 ! R134  R(83,121)               0.9908         estimate D2E/DX2                !
 ! A1    A(2,1,6)              120.7788         estimate D2E/DX2                !
 ! A2    A(2,1,85)             115.6002         estimate D2E/DX2                !
 ! A3    A(6,1,85)             123.6191         estimate D2E/DX2                !
 ! A4    A(1,2,3)              118.8585         estimate D2E/DX2                !
 ! A5    A(1,2,86)             123.9005         estimate D2E/DX2                !
 ! A6    A(3,2,86)             117.096          estimate D2E/DX2                !
 ! A7    A(2,3,4)              121.023          estimate D2E/DX2                !
 ! A8    A(2,3,87)             118.9166         estimate D2E/DX2                !
 ! A9    A(4,3,87)             119.984          estimate D2E/DX2                !
 ! A10   A(3,4,5)              115.9557         estimate D2E/DX2                !
 ! A11   A(3,4,7)              122.4961         estimate D2E/DX2                !
 ! A12   A(5,4,7)              121.547          estimate D2E/DX2                !
 ! A13   A(4,5,6)              123.0556         estimate D2E/DX2                !
 ! A14   A(4,5,88)             115.4339         estimate D2E/DX2                !
 ! A15   A(6,5,88)             121.4392         estimate D2E/DX2                !
 ! A16   A(1,6,5)              120.3087         estimate D2E/DX2                !
 ! A17   A(1,6,89)             117.0444         estimate D2E/DX2                !
 ! A18   A(5,6,89)             122.6424         estimate D2E/DX2                !
 ! A19   A(4,7,8)              130.5614         estimate D2E/DX2                !
 ! A20   A(4,7,12)             123.1373         estimate D2E/DX2                !
 ! A21   A(8,7,12)             106.083          estimate D2E/DX2                !
 ! A22   A(7,8,9)              122.0908         estimate D2E/DX2                !
 ! A23   A(7,8,10)             118.3533         estimate D2E/DX2                !
 ! A24   A(9,8,10)             119.4118         estimate D2E/DX2                !
 ! A25   A(8,10,11)            109.8404         estimate D2E/DX2                !
 ! A26   A(8,10,90)            125.2161         estimate D2E/DX2                !
 ! A27   A(11,10,90)           124.4759         estimate D2E/DX2                !
 ! A28   A(10,11,12)           110.3004         estimate D2E/DX2                !
 ! A29   A(10,11,13)           129.3513         estimate D2E/DX2                !
 ! A30   A(12,11,13)           120.2933         estimate D2E/DX2                !
 ! A31   A(7,12,11)             95.2754         estimate D2E/DX2                !
 ! A32   A(11,13,14)           119.5672         estimate D2E/DX2                !
 ! A33   A(11,13,18)           122.1308         estimate D2E/DX2                !
 ! A34   A(14,13,18)           118.1717         estimate D2E/DX2                !
 ! A35   A(13,14,15)           119.3398         estimate D2E/DX2                !
 ! A36   A(13,14,91)           117.0717         estimate D2E/DX2                !
 ! A37   A(15,14,91)           123.2365         estimate D2E/DX2                !
 ! A38   A(14,15,16)           126.2073         estimate D2E/DX2                !
 ! A39   A(14,15,92)           114.2088         estimate D2E/DX2                !
 ! A40   A(16,15,92)           119.501          estimate D2E/DX2                !
 ! A41   A(15,16,17)           115.4052         estimate D2E/DX2                !
 ! A42   A(15,16,19)           127.0192         estimate D2E/DX2                !
 ! A43   A(17,16,19)           117.4538         estimate D2E/DX2                !
 ! A44   A(16,17,18)           120.6992         estimate D2E/DX2                !
 ! A45   A(16,17,93)           124.3762         estimate D2E/DX2                !
 ! A46   A(18,17,93)           114.4152         estimate D2E/DX2                !
 ! A47   A(13,18,17)           119.8222         estimate D2E/DX2                !
 ! A48   A(13,18,94)           126.2067         estimate D2E/DX2                !
 ! A49   A(17,18,94)           113.9105         estimate D2E/DX2                !
 ! A50   A(16,19,20)           133.8465         estimate D2E/DX2                !
 ! A51   A(16,19,24)           118.6287         estimate D2E/DX2                !
 ! A52   A(20,19,24)           107.5237         estimate D2E/DX2                !
 ! A53   A(19,20,21)           122.4162         estimate D2E/DX2                !
 ! A54   A(19,20,22)           120.3525         estimate D2E/DX2                !
 ! A55   A(21,20,22)           117.2298         estimate D2E/DX2                !
 ! A56   A(20,22,23)           107.697          estimate D2E/DX2                !
 ! A57   A(20,22,95)           126.1208         estimate D2E/DX2                !
 ! A58   A(23,22,95)           126.0204         estimate D2E/DX2                !
 ! A59   A(22,23,24)           112.685          estimate D2E/DX2                !
 ! A60   A(22,23,25)           131.342          estimate D2E/DX2                !
 ! A61   A(24,23,25)           115.9522         estimate D2E/DX2                !
 ! A62   A(19,24,23)            91.5595         estimate D2E/DX2                !
 ! A63   A(23,25,26)           126.1879         estimate D2E/DX2                !
 ! A64   A(23,25,30)           116.3825         estimate D2E/DX2                !
 ! A65   A(26,25,30)           117.1301         estimate D2E/DX2                !
 ! A66   A(25,26,27)           117.7534         estimate D2E/DX2                !
 ! A67   A(25,26,96)           120.3294         estimate D2E/DX2                !
 ! A68   A(27,26,96)           121.9121         estimate D2E/DX2                !
 ! A69   A(26,27,28)           127.255          estimate D2E/DX2                !
 ! A70   A(26,27,97)           111.4282         estimate D2E/DX2                !
 ! A71   A(28,27,97)           121.316          estimate D2E/DX2                !
 ! A72   A(27,28,29)           113.2218         estimate D2E/DX2                !
 ! A73   A(27,28,31)           121.809          estimate D2E/DX2                !
 ! A74   A(29,28,31)           124.9692         estimate D2E/DX2                !
 ! A75   A(28,29,30)           123.1698         estimate D2E/DX2                !
 ! A76   A(28,29,98)           115.5987         estimate D2E/DX2                !
 ! A77   A(30,29,98)           121.0699         estimate D2E/DX2                !
 ! A78   A(25,30,29)           121.2571         estimate D2E/DX2                !
 ! A79   A(25,30,99)           116.9259         estimate D2E/DX2                !
 ! A80   A(29,30,99)           121.4815         estimate D2E/DX2                !
 ! A81   A(28,31,32)           126.6656         estimate D2E/DX2                !
 ! A82   A(28,31,36)           122.996          estimate D2E/DX2                !
 ! A83   A(32,31,36)           110.1011         estimate D2E/DX2                !
 ! A84   A(31,32,33)           123.152          estimate D2E/DX2                !
 ! A85   A(31,32,34)           116.437          estimate D2E/DX2                !
 ! A86   A(33,32,34)           120.3846         estimate D2E/DX2                !
 ! A87   A(32,34,35)           105.7504         estimate D2E/DX2                !
 ! A88   A(32,34,100)          124.8084         estimate D2E/DX2                !
 ! A89   A(35,34,100)          129.425          estimate D2E/DX2                !
 ! A90   A(34,35,36)           114.11           estimate D2E/DX2                !
 ! A91   A(34,35,37)           122.7052         estimate D2E/DX2                !
 ! A92   A(36,35,37)           123.1597         estimate D2E/DX2                !
 ! A93   A(31,36,35)            93.562          estimate D2E/DX2                !
 ! A94   A(35,37,38)           121.1243         estimate D2E/DX2                !
 ! A95   A(35,37,42)           115.6285         estimate D2E/DX2                !
 ! A96   A(38,37,42)           123.1813         estimate D2E/DX2                !
 ! A97   A(37,38,39)           120.7895         estimate D2E/DX2                !
 ! A98   A(37,38,101)          124.9158         estimate D2E/DX2                !
 ! A99   A(39,38,101)          114.2619         estimate D2E/DX2                !
 ! A100  A(38,39,40)           117.4956         estimate D2E/DX2                !
 ! A101  A(38,39,102)          118.1018         estimate D2E/DX2                !
 ! A102  A(40,39,102)          124.1522         estimate D2E/DX2                !
 ! A103  A(39,40,41)           120.9081         estimate D2E/DX2                !
 ! A104  A(39,40,43)           117.6994         estimate D2E/DX2                !
 ! A105  A(41,40,43)           121.3646         estimate D2E/DX2                !
 ! A106  A(40,41,42)           122.1109         estimate D2E/DX2                !
 ! A107  A(40,41,103)          121.7202         estimate D2E/DX2                !
 ! A108  A(42,41,103)          115.9346         estimate D2E/DX2                !
 ! A109  A(37,42,41)           115.3565         estimate D2E/DX2                !
 ! A110  A(37,42,104)          127.3477         estimate D2E/DX2                !
 ! A111  A(41,42,104)          117.2229         estimate D2E/DX2                !
 ! A112  A(40,43,44)           123.4006         estimate D2E/DX2                !
 ! A113  A(40,43,48)           122.8079         estimate D2E/DX2                !
 ! A114  A(44,43,48)           113.7852         estimate D2E/DX2                !
 ! A115  A(43,44,45)           126.7784         estimate D2E/DX2                !
 ! A116  A(43,44,46)           107.981          estimate D2E/DX2                !
 ! A117  A(45,44,46)           125.1929         estimate D2E/DX2                !
 ! A118  A(44,46,47)           112.5817         estimate D2E/DX2                !
 ! A119  A(44,46,105)          116.4286         estimate D2E/DX2                !
 ! A120  A(47,46,105)          130.8477         estimate D2E/DX2                !
 ! A121  A(46,47,48)           112.4064         estimate D2E/DX2                !
 ! A122  A(46,47,49)           124.8198         estimate D2E/DX2                !
 ! A123  A(48,47,49)           122.1998         estimate D2E/DX2                !
 ! A124  A(43,48,47)            92.8223         estimate D2E/DX2                !
 ! A125  A(47,49,50)           121.6498         estimate D2E/DX2                !
 ! A126  A(47,49,54)           118.087          estimate D2E/DX2                !
 ! A127  A(50,49,54)           119.8858         estimate D2E/DX2                !
 ! A128  A(49,50,51)           116.7708         estimate D2E/DX2                !
 ! A129  A(49,50,106)          121.7912         estimate D2E/DX2                !
 ! A130  A(51,50,106)          121.4318         estimate D2E/DX2                !
 ! A131  A(50,51,52)           125.6386         estimate D2E/DX2                !
 ! A132  A(50,51,107)          114.4141         estimate D2E/DX2                !
 ! A133  A(52,51,107)          119.9429         estimate D2E/DX2                !
 ! A134  A(51,52,53)           114.6991         estimate D2E/DX2                !
 ! A135  A(51,52,55)           120.4818         estimate D2E/DX2                !
 ! A136  A(53,52,55)           124.7912         estimate D2E/DX2                !
 ! A137  A(52,53,54)           122.9218         estimate D2E/DX2                !
 ! A138  A(52,53,108)          123.4581         estimate D2E/DX2                !
 ! A139  A(54,53,108)          113.4116         estimate D2E/DX2                !
 ! A140  A(49,54,53)           119.5682         estimate D2E/DX2                !
 ! A141  A(49,54,109)          121.4091         estimate D2E/DX2                !
 ! A142  A(53,54,109)          118.033          estimate D2E/DX2                !
 ! A143  A(52,55,56)           129.7425         estimate D2E/DX2                !
 ! A144  A(52,55,60)           122.0232         estimate D2E/DX2                !
 ! A145  A(56,55,60)           108.0803         estimate D2E/DX2                !
 ! A146  A(55,56,57)           127.3153         estimate D2E/DX2                !
 ! A147  A(55,56,58)           114.1979         estimate D2E/DX2                !
 ! A148  A(57,56,58)           118.4615         estimate D2E/DX2                !
 ! A149  A(56,58,59)           112.0018         estimate D2E/DX2                !
 ! A150  A(56,58,110)          123.5991         estimate D2E/DX2                !
 ! A151  A(59,58,110)          123.789          estimate D2E/DX2                !
 ! A152  A(58,59,60)           109.2558         estimate D2E/DX2                !
 ! A153  A(58,59,61)           126.4145         estimate D2E/DX2                !
 ! A154  A(60,59,61)           124.149          estimate D2E/DX2                !
 ! A155  A(55,60,59)            96.2999         estimate D2E/DX2                !
 ! A156  A(59,61,62)           117.0267         estimate D2E/DX2                !
 ! A157  A(59,61,66)           118.3052         estimate D2E/DX2                !
 ! A158  A(62,61,66)           124.644          estimate D2E/DX2                !
 ! A159  A(61,62,63)           118.0345         estimate D2E/DX2                !
 ! A160  A(61,62,111)          127.572          estimate D2E/DX2                !
 ! A161  A(63,62,111)          114.3581         estimate D2E/DX2                !
 ! A162  A(62,63,64)           121.6649         estimate D2E/DX2                !
 ! A163  A(62,63,112)          116.541          estimate D2E/DX2                !
 ! A164  A(64,63,112)          121.2378         estimate D2E/DX2                !
 ! A165  A(63,64,65)           116.9952         estimate D2E/DX2                !
 ! A166  A(63,64,67)           121.8112         estimate D2E/DX2                !
 ! A167  A(65,64,67)           121.1771         estimate D2E/DX2                !
 ! A168  A(64,65,66)           120.894          estimate D2E/DX2                !
 ! A169  A(64,65,113)          119.4895         estimate D2E/DX2                !
 ! A170  A(66,65,113)          119.4375         estimate D2E/DX2                !
 ! A171  A(61,66,65)           117.604          estimate D2E/DX2                !
 ! A172  A(61,66,114)          125.5885         estimate D2E/DX2                !
 ! A173  A(65,66,114)          116.6958         estimate D2E/DX2                !
 ! A174  A(64,67,68)           127.801          estimate D2E/DX2                !
 ! A175  A(64,67,72)           121.028          estimate D2E/DX2                !
 ! A176  A(68,67,72)           111.1708         estimate D2E/DX2                !
 ! A177  A(67,68,69)           123.4775         estimate D2E/DX2                !
 ! A178  A(67,68,70)           113.151          estimate D2E/DX2                !
 ! A179  A(69,68,70)           123.0233         estimate D2E/DX2                !
 ! A180  A(68,70,71)           111.7179         estimate D2E/DX2                !
 ! A181  A(68,70,115)          123.7475         estimate D2E/DX2                !
 ! A182  A(71,70,115)          124.2375         estimate D2E/DX2                !
 ! A183  A(70,71,72)           110.0804         estimate D2E/DX2                !
 ! A184  A(70,71,73)           126.7441         estimate D2E/DX2                !
 ! A185  A(72,71,73)           123.0052         estimate D2E/DX2                !
 ! A186  A(67,72,71)            93.7462         estimate D2E/DX2                !
 ! A187  A(71,73,74)           121.8258         estimate D2E/DX2                !
 ! A188  A(71,73,78)           122.6008         estimate D2E/DX2                !
 ! A189  A(74,73,78)           115.541          estimate D2E/DX2                !
 ! A190  A(73,74,75)           123.8097         estimate D2E/DX2                !
 ! A191  A(73,74,116)          116.6707         estimate D2E/DX2                !
 ! A192  A(75,74,116)          119.179          estimate D2E/DX2                !
 ! A193  A(74,75,76)           119.0589         estimate D2E/DX2                !
 ! A194  A(74,75,117)          121.4093         estimate D2E/DX2                !
 ! A195  A(76,75,117)          119.4912         estimate D2E/DX2                !
 ! A196  A(75,76,77)           118.9575         estimate D2E/DX2                !
 ! A197  A(75,76,79)           117.2773         estimate D2E/DX2                !
 ! A198  A(77,76,79)           123.6303         estimate D2E/DX2                !
 ! A199  A(76,77,78)           118.052          estimate D2E/DX2                !
 ! A200  A(76,77,118)          120.1797         estimate D2E/DX2                !
 ! A201  A(78,77,118)          121.7663         estimate D2E/DX2                !
 ! A202  A(73,78,77)           124.5666         estimate D2E/DX2                !
 ! A203  A(73,78,119)          123.197          estimate D2E/DX2                !
 ! A204  A(77,78,119)          112.1273         estimate D2E/DX2                !
 ! A205  A(76,79,80)           130.2853         estimate D2E/DX2                !
 ! A206  A(76,79,84)           121.1984         estimate D2E/DX2                !
 ! A207  A(80,79,84)           108.4305         estimate D2E/DX2                !
 ! A208  A(79,80,81)           119.4682         estimate D2E/DX2                !
 ! A209  A(79,80,82)           111.7426         estimate D2E/DX2                !
 ! A210  A(81,80,82)           128.7462         estimate D2E/DX2                !
 ! A211  A(80,82,83)           115.4315         estimate D2E/DX2                !
 ! A212  A(80,82,120)          117.5397         estimate D2E/DX2                !
 ! A213  A(83,82,120)          126.9472         estimate D2E/DX2                !
 ! A214  A(82,83,84)           108.5914         estimate D2E/DX2                !
 ! A215  A(82,83,121)          127.8982         estimate D2E/DX2                !
 ! A216  A(84,83,121)          123.1595         estimate D2E/DX2                !
 ! A217  A(79,84,83)            95.6513         estimate D2E/DX2                !
 ! D1    D(6,1,2,3)              0.9656         estimate D2E/DX2                !
 ! D2    D(6,1,2,86)          -174.5232         estimate D2E/DX2                !
 ! D3    D(85,1,2,3)          -178.5527         estimate D2E/DX2                !
 ! D4    D(85,1,2,86)            5.9585         estimate D2E/DX2                !
 ! D5    D(2,1,6,5)              0.1417         estimate D2E/DX2                !
 ! D6    D(2,1,6,89)           179.3938         estimate D2E/DX2                !
 ! D7    D(85,1,6,5)           179.6201         estimate D2E/DX2                !
 ! D8    D(85,1,6,89)           -1.1278         estimate D2E/DX2                !
 ! D9    D(1,2,3,4)             -0.9282         estimate D2E/DX2                !
 ! D10   D(1,2,3,87)          -177.7497         estimate D2E/DX2                !
 ! D11   D(86,2,3,4)           174.8664         estimate D2E/DX2                !
 ! D12   D(86,2,3,87)           -1.9551         estimate D2E/DX2                !
 ! D13   D(2,3,4,5)             -0.1542         estimate D2E/DX2                !
 ! D14   D(2,3,4,7)           -179.7568         estimate D2E/DX2                !
 ! D15   D(87,3,4,5)           176.6337         estimate D2E/DX2                !
 ! D16   D(87,3,4,7)            -2.9689         estimate D2E/DX2                !
 ! D17   D(3,4,5,6)              1.3132         estimate D2E/DX2                !
 ! D18   D(3,4,5,88)           178.2775         estimate D2E/DX2                !
 ! D19   D(7,4,5,6)           -179.0801         estimate D2E/DX2                !
 ! D20   D(7,4,5,88)            -2.1158         estimate D2E/DX2                !
 ! D21   D(3,4,7,8)           -152.9626         estimate D2E/DX2                !
 ! D22   D(3,4,7,12)            33.1852         estimate D2E/DX2                !
 ! D23   D(5,4,7,8)             27.4567         estimate D2E/DX2                !
 ! D24   D(5,4,7,12)          -146.3956         estimate D2E/DX2                !
 ! D25   D(4,5,6,1)             -1.3287         estimate D2E/DX2                !
 ! D26   D(4,5,6,89)           179.4624         estimate D2E/DX2                !
 ! D27   D(88,5,6,1)          -178.1153         estimate D2E/DX2                !
 ! D28   D(88,5,6,89)            2.6758         estimate D2E/DX2                !
 ! D29   D(4,7,8,9)              6.9179         estimate D2E/DX2                !
 ! D30   D(4,7,8,10)          -177.4726         estimate D2E/DX2                !
 ! D31   D(12,7,8,9)          -178.4372         estimate D2E/DX2                !
 ! D32   D(12,7,8,10)           -2.8278         estimate D2E/DX2                !
 ! D33   D(4,7,12,11)          178.6486         estimate D2E/DX2                !
 ! D34   D(8,7,12,11)            3.5059         estimate D2E/DX2                !
 ! D35   D(7,8,10,11)            0.4619         estimate D2E/DX2                !
 ! D36   D(7,8,10,90)         -171.9615         estimate D2E/DX2                !
 ! D37   D(9,8,10,11)          176.192          estimate D2E/DX2                !
 ! D38   D(9,8,10,90)            3.7686         estimate D2E/DX2                !
 ! D39   D(8,10,11,12)           2.3026         estimate D2E/DX2                !
 ! D40   D(8,10,11,13)         179.5617         estimate D2E/DX2                !
 ! D41   D(90,10,11,12)        174.7943         estimate D2E/DX2                !
 ! D42   D(90,10,11,13)         -7.9467         estimate D2E/DX2                !
 ! D43   D(10,11,12,7)          -3.4043         estimate D2E/DX2                !
 ! D44   D(13,11,12,7)         179.0501         estimate D2E/DX2                !
 ! D45   D(10,11,13,14)         38.9247         estimate D2E/DX2                !
 ! D46   D(10,11,13,18)       -136.8498         estimate D2E/DX2                !
 ! D47   D(12,11,13,14)       -144.0527         estimate D2E/DX2                !
 ! D48   D(12,11,13,18)         40.1728         estimate D2E/DX2                !
 ! D49   D(11,13,14,15)       -175.4355         estimate D2E/DX2                !
 ! D50   D(11,13,14,91)         -2.0251         estimate D2E/DX2                !
 ! D51   D(18,13,14,15)          0.5056         estimate D2E/DX2                !
 ! D52   D(18,13,14,91)        173.916          estimate D2E/DX2                !
 ! D53   D(11,13,18,17)        179.0436         estimate D2E/DX2                !
 ! D54   D(11,13,18,94)         -3.967          estimate D2E/DX2                !
 ! D55   D(14,13,18,17)          3.2126         estimate D2E/DX2                !
 ! D56   D(14,13,18,94)       -179.7981         estimate D2E/DX2                !
 ! D57   D(13,14,15,16)         -0.7233         estimate D2E/DX2                !
 ! D58   D(13,14,15,92)        175.9248         estimate D2E/DX2                !
 ! D59   D(91,14,15,16)       -173.706          estimate D2E/DX2                !
 ! D60   D(91,14,15,92)          2.9421         estimate D2E/DX2                !
 ! D61   D(14,15,16,17)         -2.8684         estimate D2E/DX2                !
 ! D62   D(14,15,16,19)       -178.7237         estimate D2E/DX2                !
 ! D63   D(92,15,16,17)       -179.3556         estimate D2E/DX2                !
 ! D64   D(92,15,16,19)          4.7891         estimate D2E/DX2                !
 ! D65   D(15,16,17,18)          6.5585         estimate D2E/DX2                !
 ! D66   D(15,16,17,93)        177.9043         estimate D2E/DX2                !
 ! D67   D(19,16,17,18)       -177.1701         estimate D2E/DX2                !
 ! D68   D(19,16,17,93)         -5.8243         estimate D2E/DX2                !
 ! D69   D(15,16,19,20)       -143.296          estimate D2E/DX2                !
 ! D70   D(15,16,19,24)         37.1252         estimate D2E/DX2                !
 ! D71   D(17,16,19,20)         40.9232         estimate D2E/DX2                !
 ! D72   D(17,16,19,24)       -138.6557         estimate D2E/DX2                !
 ! D73   D(16,17,18,13)         -7.0085         estimate D2E/DX2                !
 ! D74   D(16,17,18,94)        175.6485         estimate D2E/DX2                !
 ! D75   D(93,17,18,13)       -179.1696         estimate D2E/DX2                !
 ! D76   D(93,17,18,94)          3.4874         estimate D2E/DX2                !
 ! D77   D(16,19,20,21)         -4.2024         estimate D2E/DX2                !
 ! D78   D(16,19,20,22)        176.2584         estimate D2E/DX2                !
 ! D79   D(24,19,20,21)        175.4099         estimate D2E/DX2                !
 ! D80   D(24,19,20,22)         -4.1293         estimate D2E/DX2                !
 ! D81   D(16,19,24,23)       -176.3972         estimate D2E/DX2                !
 ! D82   D(20,19,24,23)          3.9213         estimate D2E/DX2                !
 ! D83   D(19,20,22,23)          1.8836         estimate D2E/DX2                !
 ! D84   D(19,20,22,95)        177.4706         estimate D2E/DX2                !
 ! D85   D(21,20,22,23)       -177.679          estimate D2E/DX2                !
 ! D86   D(21,20,22,95)         -2.092          estimate D2E/DX2                !
 ! D87   D(20,22,23,24)          1.4541         estimate D2E/DX2                !
 ! D88   D(20,22,23,25)        179.6965         estimate D2E/DX2                !
 ! D89   D(95,22,23,24)       -174.1386         estimate D2E/DX2                !
 ! D90   D(95,22,23,25)          4.1038         estimate D2E/DX2                !
 ! D91   D(22,23,24,19)         -3.1377         estimate D2E/DX2                !
 ! D92   D(25,23,24,19)        178.3298         estimate D2E/DX2                !
 ! D93   D(22,23,25,26)        148.2491         estimate D2E/DX2                !
 ! D94   D(22,23,25,30)        -25.2521         estimate D2E/DX2                !
 ! D95   D(24,23,25,26)        -33.5544         estimate D2E/DX2                !
 ! D96   D(24,23,25,30)        152.9444         estimate D2E/DX2                !
 ! D97   D(23,25,26,27)       -178.8412         estimate D2E/DX2                !
 ! D98   D(23,25,26,96)          1.9594         estimate D2E/DX2                !
 ! D99   D(30,25,26,27)         -5.3831         estimate D2E/DX2                !
 ! D100  D(30,25,26,96)        175.4176         estimate D2E/DX2                !
 ! D101  D(23,25,30,29)        178.5792         estimate D2E/DX2                !
 ! D102  D(23,25,30,99)         -7.9764         estimate D2E/DX2                !
 ! D103  D(26,25,30,29)          4.4704         estimate D2E/DX2                !
 ! D104  D(26,25,30,99)        177.9149         estimate D2E/DX2                !
 ! D105  D(25,26,27,28)          3.2973         estimate D2E/DX2                !
 ! D106  D(25,26,27,97)       -176.3888         estimate D2E/DX2                !
 ! D107  D(96,26,27,28)       -177.5168         estimate D2E/DX2                !
 ! D108  D(96,26,27,97)          2.7971         estimate D2E/DX2                !
 ! D109  D(26,27,28,29)          0.2188         estimate D2E/DX2                !
 ! D110  D(26,27,28,31)       -179.8516         estimate D2E/DX2                !
 ! D111  D(97,27,28,29)        179.8768         estimate D2E/DX2                !
 ! D112  D(97,27,28,31)         -0.1937         estimate D2E/DX2                !
 ! D113  D(27,28,29,30)         -1.3911         estimate D2E/DX2                !
 ! D114  D(27,28,29,98)       -176.8071         estimate D2E/DX2                !
 ! D115  D(31,28,29,30)        178.6819         estimate D2E/DX2                !
 ! D116  D(31,28,29,98)          3.266          estimate D2E/DX2                !
 ! D117  D(27,28,31,32)       -145.8404         estimate D2E/DX2                !
 ! D118  D(27,28,31,36)         40.3213         estimate D2E/DX2                !
 ! D119  D(29,28,31,32)         34.0806         estimate D2E/DX2                !
 ! D120  D(29,28,31,36)       -139.7577         estimate D2E/DX2                !
 ! D121  D(28,29,30,25)         -0.9626         estimate D2E/DX2                !
 ! D122  D(28,29,30,99)       -174.1075         estimate D2E/DX2                !
 ! D123  D(98,29,30,25)        174.2103         estimate D2E/DX2                !
 ! D124  D(98,29,30,99)          1.0654         estimate D2E/DX2                !
 ! D125  D(28,31,32,33)          5.1901         estimate D2E/DX2                !
 ! D126  D(28,31,32,34)       -176.6789         estimate D2E/DX2                !
 ! D127  D(36,31,32,33)        179.6891         estimate D2E/DX2                !
 ! D128  D(36,31,32,34)         -2.1799         estimate D2E/DX2                !
 ! D129  D(28,31,36,35)        176.4952         estimate D2E/DX2                !
 ! D130  D(32,31,36,35)          1.7556         estimate D2E/DX2                !
 ! D131  D(31,32,34,35)          1.4206         estimate D2E/DX2                !
 ! D132  D(31,32,34,100)      -177.2347         estimate D2E/DX2                !
 ! D133  D(33,32,34,35)        179.6067         estimate D2E/DX2                !
 ! D134  D(33,32,34,100)         0.9514         estimate D2E/DX2                !
 ! D135  D(32,34,35,36)         -0.0374         estimate D2E/DX2                !
 ! D136  D(32,34,35,37)       -178.2664         estimate D2E/DX2                !
 ! D137  D(100,34,35,36)       178.5333         estimate D2E/DX2                !
 ! D138  D(100,34,35,37)         0.3043         estimate D2E/DX2                !
 ! D139  D(34,35,36,31)         -1.0            estimate D2E/DX2                !
 ! D140  D(37,35,36,31)        177.2199         estimate D2E/DX2                !
 ! D141  D(34,35,37,38)         37.3266         estimate D2E/DX2                !
 ! D142  D(34,35,37,42)       -139.8129         estimate D2E/DX2                !
 ! D143  D(36,35,37,38)       -140.7424         estimate D2E/DX2                !
 ! D144  D(36,35,37,42)         42.1181         estimate D2E/DX2                !
 ! D145  D(35,37,38,39)       -176.5351         estimate D2E/DX2                !
 ! D146  D(35,37,38,101)         1.2615         estimate D2E/DX2                !
 ! D147  D(42,37,38,39)          0.3832         estimate D2E/DX2                !
 ! D148  D(42,37,38,101)       178.1798         estimate D2E/DX2                !
 ! D149  D(35,37,42,41)       -179.9331         estimate D2E/DX2                !
 ! D150  D(35,37,42,104)        -3.1485         estimate D2E/DX2                !
 ! D151  D(38,37,42,41)          2.9927         estimate D2E/DX2                !
 ! D152  D(38,37,42,104)       179.7773         estimate D2E/DX2                !
 ! D153  D(37,38,39,40)         -2.5693         estimate D2E/DX2                !
 ! D154  D(37,38,39,102)      -177.0624         estimate D2E/DX2                !
 ! D155  D(101,38,39,40)       179.4124         estimate D2E/DX2                !
 ! D156  D(101,38,39,102)        4.9193         estimate D2E/DX2                !
 ! D157  D(38,39,40,41)          1.1048         estimate D2E/DX2                !
 ! D158  D(38,39,40,43)        179.2104         estimate D2E/DX2                !
 ! D159  D(102,39,40,41)       175.2336         estimate D2E/DX2                !
 ! D160  D(102,39,40,43)        -6.6609         estimate D2E/DX2                !
 ! D161  D(39,40,41,42)          2.4472         estimate D2E/DX2                !
 ! D162  D(39,40,41,103)       176.6577         estimate D2E/DX2                !
 ! D163  D(43,40,41,42)       -175.5884         estimate D2E/DX2                !
 ! D164  D(43,40,41,103)        -1.3779         estimate D2E/DX2                !
 ! D165  D(39,40,43,44)        138.3202         estimate D2E/DX2                !
 ! D166  D(39,40,43,48)        -40.7053         estimate D2E/DX2                !
 ! D167  D(41,40,43,44)        -43.5833         estimate D2E/DX2                !
 ! D168  D(41,40,43,48)        137.3911         estimate D2E/DX2                !
 ! D169  D(40,41,42,37)         -4.4551         estimate D2E/DX2                !
 ! D170  D(40,41,42,104)       178.4191         estimate D2E/DX2                !
 ! D171  D(103,41,42,37)      -178.9799         estimate D2E/DX2                !
 ! D172  D(103,41,42,104)        3.8943         estimate D2E/DX2                !
 ! D173  D(40,43,44,45)          0.4566         estimate D2E/DX2                !
 ! D174  D(40,43,44,46)        178.0347         estimate D2E/DX2                !
 ! D175  D(48,43,44,45)        179.5615         estimate D2E/DX2                !
 ! D176  D(48,43,44,46)         -2.8603         estimate D2E/DX2                !
 ! D177  D(40,43,48,47)       -175.6695         estimate D2E/DX2                !
 ! D178  D(44,43,48,47)          5.2195         estimate D2E/DX2                !
 ! D179  D(43,44,46,47)         -1.8899         estimate D2E/DX2                !
 ! D180  D(43,44,46,105)      -178.0322         estimate D2E/DX2                !
 ! D181  D(45,44,46,47)        175.7365         estimate D2E/DX2                !
 ! D182  D(45,44,46,105)        -0.4058         estimate D2E/DX2                !
 ! D183  D(44,46,47,48)          5.698          estimate D2E/DX2                !
 ! D184  D(44,46,47,49)        177.1406         estimate D2E/DX2                !
 ! D185  D(105,46,47,48)      -178.8702         estimate D2E/DX2                !
 ! D186  D(105,46,47,49)        -7.4276         estimate D2E/DX2                !
 ! D187  D(46,47,48,43)         -6.336          estimate D2E/DX2                !
 ! D188  D(49,47,48,43)       -178.0357         estimate D2E/DX2                !
 ! D189  D(46,47,49,50)       -130.7902         estimate D2E/DX2                !
 ! D190  D(46,47,49,54)         56.2732         estimate D2E/DX2                !
 ! D191  D(48,47,49,50)         39.8537         estimate D2E/DX2                !
 ! D192  D(48,47,49,54)       -133.0829         estimate D2E/DX2                !
 ! D193  D(47,49,50,51)       -177.35           estimate D2E/DX2                !
 ! D194  D(47,49,50,106)         3.5425         estimate D2E/DX2                !
 ! D195  D(54,49,50,51)         -4.538          estimate D2E/DX2                !
 ! D196  D(54,49,50,106)       176.3544         estimate D2E/DX2                !
 ! D197  D(47,49,54,53)       -178.7107         estimate D2E/DX2                !
 ! D198  D(47,49,54,109)       -10.3161         estimate D2E/DX2                !
 ! D199  D(50,49,54,53)          8.2237         estimate D2E/DX2                !
 ! D200  D(50,49,54,109)       176.6184         estimate D2E/DX2                !
 ! D201  D(49,50,51,52)          0.7397         estimate D2E/DX2                !
 ! D202  D(49,50,51,107)      -178.4887         estimate D2E/DX2                !
 ! D203  D(106,50,51,52)       179.8507         estimate D2E/DX2                !
 ! D204  D(106,50,51,107)        0.6223         estimate D2E/DX2                !
 ! D205  D(50,51,52,53)         -0.582          estimate D2E/DX2                !
 ! D206  D(50,51,52,55)       -178.7543         estimate D2E/DX2                !
 ! D207  D(107,51,52,53)       178.6072         estimate D2E/DX2                !
 ! D208  D(107,51,52,55)         0.4349         estimate D2E/DX2                !
 ! D209  D(51,52,53,54)          4.3765         estimate D2E/DX2                !
 ! D210  D(51,52,53,108)       178.7805         estimate D2E/DX2                !
 ! D211  D(55,52,53,54)       -177.5415         estimate D2E/DX2                !
 ! D212  D(55,52,53,108)        -3.1374         estimate D2E/DX2                !
 ! D213  D(51,52,55,56)         45.7988         estimate D2E/DX2                !
 ! D214  D(51,52,55,60)       -139.2758         estimate D2E/DX2                !
 ! D215  D(53,52,55,56)       -132.1793         estimate D2E/DX2                !
 ! D216  D(53,52,55,60)         42.7462         estimate D2E/DX2                !
 ! D217  D(52,53,54,49)         -8.3238         estimate D2E/DX2                !
 ! D218  D(52,53,54,109)      -177.1075         estimate D2E/DX2                !
 ! D219  D(108,53,54,49)       176.7623         estimate D2E/DX2                !
 ! D220  D(108,53,54,109)        7.9785         estimate D2E/DX2                !
 ! D221  D(52,55,56,57)         -6.2546         estimate D2E/DX2                !
 ! D222  D(52,55,56,58)        175.624          estimate D2E/DX2                !
 ! D223  D(60,55,56,57)        178.27           estimate D2E/DX2                !
 ! D224  D(60,55,56,58)          0.1486         estimate D2E/DX2                !
 ! D225  D(52,55,60,59)       -173.835          estimate D2E/DX2                !
 ! D226  D(56,55,60,59)          2.0623         estimate D2E/DX2                !
 ! D227  D(55,56,58,59)         -2.8837         estimate D2E/DX2                !
 ! D228  D(55,56,58,110)      -174.2176         estimate D2E/DX2                !
 ! D229  D(57,56,58,59)        178.8158         estimate D2E/DX2                !
 ! D230  D(57,56,58,110)         7.4818         estimate D2E/DX2                !
 ! D231  D(56,58,59,60)          4.2556         estimate D2E/DX2                !
 ! D232  D(56,58,59,61)        179.5075         estimate D2E/DX2                !
 ! D233  D(110,58,59,60)       175.5702         estimate D2E/DX2                !
 ! D234  D(110,58,59,61)        -9.1779         estimate D2E/DX2                !
 ! D235  D(58,59,60,55)         -3.6639         estimate D2E/DX2                !
 ! D236  D(61,59,60,55)       -179.0472         estimate D2E/DX2                !
 ! D237  D(58,59,61,62)        148.4717         estimate D2E/DX2                !
 ! D238  D(58,59,61,66)        -33.2309         estimate D2E/DX2                !
 ! D239  D(60,59,61,62)        -36.9465         estimate D2E/DX2                !
 ! D240  D(60,59,61,66)        141.3509         estimate D2E/DX2                !
 ! D241  D(59,61,62,63)       -179.7163         estimate D2E/DX2                !
 ! D242  D(59,61,62,111)        -2.0167         estimate D2E/DX2                !
 ! D243  D(66,61,62,63)          2.1058         estimate D2E/DX2                !
 ! D244  D(66,61,62,111)       179.8054         estimate D2E/DX2                !
 ! D245  D(59,61,66,65)        177.5406         estimate D2E/DX2                !
 ! D246  D(59,61,66,114)         1.5233         estimate D2E/DX2                !
 ! D247  D(62,61,66,65)         -4.3029         estimate D2E/DX2                !
 ! D248  D(62,61,66,114)       179.6798         estimate D2E/DX2                !
 ! D249  D(61,62,63,64)          1.8405         estimate D2E/DX2                !
 ! D250  D(61,62,63,112)       173.3845         estimate D2E/DX2                !
 ! D251  D(111,62,63,64)      -176.1582         estimate D2E/DX2                !
 ! D252  D(111,62,63,112)       -4.6142         estimate D2E/DX2                !
 ! D253  D(62,63,64,65)         -3.1524         estimate D2E/DX2                !
 ! D254  D(62,63,64,67)        175.3877         estimate D2E/DX2                !
 ! D255  D(112,63,64,65)      -174.3018         estimate D2E/DX2                !
 ! D256  D(112,63,64,67)         4.2383         estimate D2E/DX2                !
 ! D257  D(63,64,65,66)          0.8585         estimate D2E/DX2                !
 ! D258  D(63,64,65,113)      -174.2522         estimate D2E/DX2                !
 ! D259  D(67,64,65,66)       -177.6914         estimate D2E/DX2                !
 ! D260  D(67,64,65,113)         7.1978         estimate D2E/DX2                !
 ! D261  D(63,64,67,68)        -36.4062         estimate D2E/DX2                !
 ! D262  D(63,64,67,72)        143.7672         estimate D2E/DX2                !
 ! D263  D(65,64,67,68)        142.0733         estimate D2E/DX2                !
 ! D264  D(65,64,67,72)        -37.7532         estimate D2E/DX2                !
 ! D265  D(64,65,66,61)          2.7003         estimate D2E/DX2                !
 ! D266  D(64,65,66,114)       179.0756         estimate D2E/DX2                !
 ! D267  D(113,65,66,61)       177.8136         estimate D2E/DX2                !
 ! D268  D(113,65,66,114)       -5.8112         estimate D2E/DX2                !
 ! D269  D(64,67,68,69)          4.2713         estimate D2E/DX2                !
 ! D270  D(64,67,68,70)        177.6684         estimate D2E/DX2                !
 ! D271  D(72,67,68,69)       -175.8881         estimate D2E/DX2                !
 ! D272  D(72,67,68,70)         -2.491          estimate D2E/DX2                !
 ! D273  D(64,67,72,71)       -179.8358         estimate D2E/DX2                !
 ! D274  D(68,67,72,71)          0.3111         estimate D2E/DX2                !
 ! D275  D(67,68,70,71)          3.9502         estimate D2E/DX2                !
 ! D276  D(67,68,70,115)       177.9161         estimate D2E/DX2                !
 ! D277  D(69,68,70,71)        177.3816         estimate D2E/DX2                !
 ! D278  D(69,68,70,115)        -8.6525         estimate D2E/DX2                !
 ! D279  D(68,70,71,72)         -3.5959         estimate D2E/DX2                !
 ! D280  D(68,70,71,73)        171.7419         estimate D2E/DX2                !
 ! D281  D(115,70,71,72)      -177.5267         estimate D2E/DX2                !
 ! D282  D(115,70,71,73)        -2.1889         estimate D2E/DX2                !
 ! D283  D(70,71,72,67)          1.8989         estimate D2E/DX2                !
 ! D284  D(73,71,72,67)       -173.6467         estimate D2E/DX2                !
 ! D285  D(70,71,73,74)         46.6671         estimate D2E/DX2                !
 ! D286  D(70,71,73,78)       -135.4985         estimate D2E/DX2                !
 ! D287  D(72,71,73,74)       -138.5558         estimate D2E/DX2                !
 ! D288  D(72,71,73,78)         39.2786         estimate D2E/DX2                !
 ! D289  D(71,73,74,75)        177.5413         estimate D2E/DX2                !
 ! D290  D(71,73,74,116)         4.3136         estimate D2E/DX2                !
 ! D291  D(78,73,74,75)         -0.4368         estimate D2E/DX2                !
 ! D292  D(78,73,74,116)      -173.6645         estimate D2E/DX2                !
 ! D293  D(71,73,78,77)       -178.6946         estimate D2E/DX2                !
 ! D294  D(71,73,78,119)         5.4053         estimate D2E/DX2                !
 ! D295  D(74,73,78,77)         -0.7339         estimate D2E/DX2                !
 ! D296  D(74,73,78,119)      -176.6339         estimate D2E/DX2                !
 ! D297  D(73,74,75,76)          1.1144         estimate D2E/DX2                !
 ! D298  D(73,74,75,117)      -176.5546         estimate D2E/DX2                !
 ! D299  D(116,74,75,76)       174.1823         estimate D2E/DX2                !
 ! D300  D(116,74,75,117)       -3.4867         estimate D2E/DX2                !
 ! D301  D(74,75,76,77)         -0.6229         estimate D2E/DX2                !
 ! D302  D(74,75,76,79)        175.3085         estimate D2E/DX2                !
 ! D303  D(117,75,76,77)       177.0916         estimate D2E/DX2                !
 ! D304  D(117,75,76,79)        -6.977          estimate D2E/DX2                !
 ! D305  D(75,76,77,78)         -0.4354         estimate D2E/DX2                !
 ! D306  D(75,76,77,118)      -179.9241         estimate D2E/DX2                !
 ! D307  D(79,76,77,78)       -176.0918         estimate D2E/DX2                !
 ! D308  D(79,76,77,118)         4.4195         estimate D2E/DX2                !
 ! D309  D(75,76,79,80)         46.6917         estimate D2E/DX2                !
 ! D310  D(75,76,79,84)       -137.0892         estimate D2E/DX2                !
[...]
  Beta virt. eigenvalues --    1.88791   1.88898   1.88941   1.89092   1.89295
  Beta virt. eigenvalues --    1.89563   1.89655   1.89736   1.89896   1.90041
  Beta virt. eigenvalues --    1.90175   1.90429   1.90500   1.90979   1.91333
  Beta virt. eigenvalues --    1.91764   1.92365   1.92537   1.92779   1.93109
  Beta virt. eigenvalues --    1.93411   1.93506   1.93708   1.94111   1.94416
  Beta virt. eigenvalues --    1.94745   1.95094   1.95417   1.95536   1.95674
  Beta virt. eigenvalues --    1.95931   1.96301   1.96599   1.96832   1.97045
  Beta virt. eigenvalues --    1.97380   1.97475   1.97624   1.97672   1.97852
  Beta virt. eigenvalues --    1.97887   1.98333   1.98685   1.98754   1.98925
  Beta virt. eigenvalues --    1.99052   1.99255   1.99527   1.99730   2.00132
  Beta virt. eigenvalues --    2.00278   2.00578   2.00780   2.00923   2.01284
  Beta virt. eigenvalues --    2.01320   2.01608   2.01852   2.01910   2.01998
  Beta virt. eigenvalues --    2.02327   2.02792   2.02858   2.03645   2.03784
  Beta virt. eigenvalues --    2.04298   2.04605   2.04908   2.05100   2.05251
  Beta virt. eigenvalues --    2.06172   2.06493   2.06616   2.07008   2.07280
  Beta virt. eigenvalues --    2.07457   2.07564   2.08044   2.08305   2.08649
  Beta virt. eigenvalues --    2.09188   2.09262   2.09456   2.09590   2.09694
  Beta virt. eigenvalues --    2.09833   2.10009   2.10113   2.10255   2.10475
  Beta virt. eigenvalues --    2.10733   2.11375   2.12063   2.12397   2.12523
  Beta virt. eigenvalues --    2.12889   2.13045   2.13412   2.13581   2.14830
  Beta virt. eigenvalues --    2.14962   2.15636   2.17047   2.17303   2.17487
  Beta virt. eigenvalues --    2.17662   2.18005   2.18506   2.18559   2.18823
  Beta virt. eigenvalues --    2.18875   2.19032   2.19102   2.19157   2.19476
  Beta virt. eigenvalues --    2.20120   2.20272   2.20323   2.20716   2.20883
  Beta virt. eigenvalues --    2.21015   2.21049   2.21136   2.21685   2.22154
  Beta virt. eigenvalues --    2.22920   2.23088   2.24507   2.25170   2.25632
  Beta virt. eigenvalues --    2.25938   2.26237   2.26597   2.26878   2.27209
  Beta virt. eigenvalues --    2.27305   2.27455   2.27556   2.27879   2.28195
  Beta virt. eigenvalues --    2.28234   2.34530   2.34706   2.34792   2.35816
  Beta virt. eigenvalues --    2.35950   2.36149   2.36183   2.36433   2.36507
  Beta virt. eigenvalues --    2.36580   2.36758   2.36945   2.37181   2.38933
  Beta virt. eigenvalues --    2.39371   2.39637   2.39776   2.40229   2.40504
  Beta virt. eigenvalues --    2.40947   2.41199   2.44177   2.44964   2.45049
  Beta virt. eigenvalues --    2.45112   2.45243   2.45440   2.50099   2.50203
  Beta virt. eigenvalues --    2.50623   2.51078   2.51474   2.51569   2.51730
  Beta virt. eigenvalues --    2.51925   2.51995   2.52169   2.52271   2.52455
  Beta virt. eigenvalues --    2.52983   2.53489   2.54452   2.55316   2.55585
  Beta virt. eigenvalues --    2.55665   2.55809   2.55939   2.56037   2.56260
  Beta virt. eigenvalues --    2.56495   2.56583   2.56631   2.56719   2.56772
  Beta virt. eigenvalues --    2.56859   2.57367   2.58641   2.58947   2.62676
  Beta virt. eigenvalues --    2.63109   2.63262   2.63854   2.64414   2.64821
  Beta virt. eigenvalues --    2.66631   2.67089   2.67566   2.68060   2.68482
  Beta virt. eigenvalues --    2.68893   2.69800   2.77252   2.77670   2.77927
  Beta virt. eigenvalues --    2.78138   2.78335   2.78440   2.78832   2.79989
  Beta virt. eigenvalues --    2.80956   2.81377   2.82192   2.82665   2.82967
  Beta virt. eigenvalues --    2.83523   2.83988   2.84134   2.84267   2.84569
  Beta virt. eigenvalues --    2.84730   2.84899   2.85193   2.85569   2.85958
  Beta virt. eigenvalues --    2.86104   2.86190   2.86536   2.86793   2.90340
  Beta virt. eigenvalues --    2.91141   2.92116   2.93026   2.93848   2.94277
  Beta virt. eigenvalues --    2.94701   2.95409   3.02368   3.02555   3.02999
  Beta virt. eigenvalues --    3.03352   3.04171   3.04992   3.05765   3.09105
  Beta virt. eigenvalues --    3.10416   3.10995   3.12432   3.13230   3.13551
  Beta virt. eigenvalues --    3.13652   3.60907   3.61268   3.61663   3.62149
  Beta virt. eigenvalues --    3.62602   3.62877   3.66941   3.66971   3.66989
  Beta virt. eigenvalues --    3.67057   3.67149   3.67302   3.67714   3.69452
  Beta virt. eigenvalues --    3.69801   3.69869   3.69961   3.70081   3.70157
  Beta virt. eigenvalues --    3.70214   3.71112   3.87524   3.87571   3.87611
  Beta virt. eigenvalues --    3.87689   3.87711   3.87915   3.88356   4.07553
  Beta virt. eigenvalues --    4.07959   4.08021   4.08070   4.08189   4.08311
  Beta virt. eigenvalues --    4.08643   4.28117   4.28977   4.29013   4.29043
  Beta virt. eigenvalues --    4.29144   4.29409   4.29640
          Condensed to atoms (all electrons):
          Atomic-Atomic Spin Densities.
 Mulliken charges and spin densities:
               1          2
     1  C   -0.001744   0.000000
     2  C    0.009478  -0.000000
     3  C   -0.023826  -0.000000
     4  C    0.035640   0.000000
     5  C   -0.016888  -0.000000
     6  C    0.011030  -0.000000
     7  C   -0.180281  -0.000000
     8  C    0.125154  -0.000000
     9  F   -0.127808   0.000000
    10  C    0.020919   0.000000
    11  C   -0.149979   0.000000
    12  S    0.170443   0.000000
    13  C    0.037866  -0.000000
    14  C   -0.003157   0.000000
    15  C   -0.007342  -0.000000
    16  C    0.050416  -0.000000
    17  C   -0.002844   0.000000
    18  C   -0.000857  -0.000000
    19  C   -0.183358  -0.000000
    20  C    0.120789   0.000000
    21  F   -0.126436  -0.000000
    22  C    0.022913  -0.000000
    23  C   -0.151899   0.000000
    24  S    0.174500  -0.000000
    25  C    0.041871  -0.000000
    26  C   -0.001596  -0.000000
    27  C   -0.011466   0.000000
    28  C    0.050608   0.000000
    29  C   -0.003386  -0.000000
    30  C   -0.000465   0.000000
    31  C   -0.181526   0.000000
    32  C    0.121306   0.000000
    33  F   -0.126766  -0.000000
    34  C    0.024329  -0.000000
    35  C   -0.149645   0.000000
    36  S    0.171636   0.000000
    37  C    0.039570  -0.000000
    38  C   -0.003992   0.000000
    39  C   -0.007514  -0.000000
    40  C    0.052874   0.000000
    41  C   -0.003946  -0.000000
    42  C   -0.001017  -0.000000
    43  C   -0.183925  -0.000000
    44  C    0.120576  -0.000000
    45  F   -0.126286  -0.000000
    46  C    0.023649   0.000000
    47  C   -0.151057   0.000000
    48  S    0.175811   0.000000
    49  C    0.039241  -0.000000
    50  C    0.000772   0.000000
    51  C   -0.003874   0.000000
    52  C    0.051255  -0.000000
    53  C   -0.007005  -0.000000
    54  C   -0.002962   0.000000
    55  C   -0.183279   0.000000
    56  C    0.120360  -0.000000
    57  F   -0.126396   0.000000
    58  C    0.023909  -0.000000
    59  C   -0.150976   0.000000
    60  S    0.175884  -0.000000
    61  C    0.038908   0.000000
    62  C    0.000906  -0.000000
    63  C   -0.003512   0.000000
    64  C    0.051024  -0.000000
    65  C   -0.006737   0.000000
    66  C   -0.002829  -0.000000
    67  C   -0.183674   0.000000
    68  C    0.120816  -0.000000
    69  F   -0.126199   0.000000
    70  C    0.023881  -0.000000
    71  C   -0.150767   0.000000
    72  S    0.175228   0.000000
    73  C    0.038669  -0.000000
    74  C   -0.000887   0.000000
    75  C    0.000200   0.000000
    76  C    0.053297  -0.000000
    77  C   -0.006158   0.000000
    78  C   -0.003043   0.000000
    79  C   -0.187911  -0.000000
    80  C    0.102519   0.000000
    81  F   -0.127543  -0.000000
    82  C    0.042123  -0.000000
    83  C   -0.135096   0.000000
    84  S    0.171077   0.000000
    85  H    0.007308   0.000000
    86  H    0.008644  -0.000000
    87  H    0.010686   0.000000
    88  H    0.008464   0.000000
    89  H    0.009305   0.000000
    90  H    0.020157  -0.000000
    91  H    0.003815   0.000000
    92  H    0.011505   0.000000
    93  H    0.011775   0.000000
    94  H    0.013869   0.000000
    95  H    0.022139  -0.000000
    96  H    0.011081  -0.000000
    97  H    0.015159  -0.000000
    98  H    0.012153  -0.000000
    99  H    0.004511   0.000000
   100  H    0.021801   0.000000
   101  H    0.004299  -0.000000
   102  H    0.012455  -0.000000
   103  H    0.012348   0.000000
   104  H    0.014059   0.000000
   105  H    0.022015  -0.000000
   106  H    0.011692   0.000000
   107  H    0.012397  -0.000000
   108  H    0.012761   0.000000
   109  H    0.004314  -0.000000
   110  H    0.021907  -0.000000
   111  H    0.011762   0.000000
   112  H    0.012614   0.000000
   113  H    0.012349   0.000000
   114  H    0.004214  -0.000000
   115  H    0.022385   0.000000
   116  H    0.005082   0.000000
   117  H    0.012920   0.000000
   118  H    0.013269   0.000000
   119  H    0.011286   0.000000
   120  H    0.027377   0.000000
   121  H    0.052528  -0.000000
 Sum of Mulliken charges =  -0.00000   0.00000
 Mulliken charges and spin densities with hydrogens summed into heavy atoms:
               1          2
     1  C    0.005564   0.000000
     2  C    0.018122  -0.000000
     3  C   -0.013140  -0.000000
     4  C    0.035640   0.000000
     5  C   -0.008423   0.000000
     6  C    0.020334  -0.000000
     7  C   -0.180281  -0.000000
     8  C    0.125154  -0.000000
     9  F   -0.127808   0.000000
    10  C    0.041076   0.000000
    11  C   -0.149979   0.000000
    12  S    0.170443   0.000000
    13  C    0.037866  -0.000000
    14  C    0.000658   0.000000
    15  C    0.004164  -0.000000
    16  C    0.050416  -0.000000
    17  C    0.008931   0.000000
    18  C    0.013012  -0.000000
    19  C   -0.183358  -0.000000
    20  C    0.120789   0.000000
    21  F   -0.126436  -0.000000
    22  C    0.045052  -0.000000
    23  C   -0.151899   0.000000
    24  S    0.174500  -0.000000
    25  C    0.041871  -0.000000
    26  C    0.009485  -0.000000
    27  C    0.003693   0.000000
    28  C    0.050608   0.000000
    29  C    0.008766  -0.000000
    30  C    0.004047   0.000000
    31  C   -0.181526   0.000000
    32  C    0.121306   0.000000
    33  F   -0.126766  -0.000000
    34  C    0.046130  -0.000000
    35  C   -0.149645   0.000000
    36  S    0.171636   0.000000
    37  C    0.039570  -0.000000
    38  C    0.000307   0.000000
    39  C    0.004941  -0.000000
    40  C    0.052874   0.000000
    41  C    0.008402  -0.000000
    42  C    0.013041  -0.000000
    43  C   -0.183925  -0.000000
    44  C    0.120576  -0.000000
    45  F   -0.126286  -0.000000
    46  C    0.045664   0.000000
    47  C   -0.151057   0.000000
    48  S    0.175811   0.000000
    49  C    0.039241  -0.000000
    50  C    0.012464   0.000000
    51  C    0.008523   0.000000
    52  C    0.051255  -0.000000
    53  C    0.005756  -0.000000
    54  C    0.001351  -0.000000
    55  C   -0.183279   0.000000
    56  C    0.120360  -0.000000
    57  F   -0.126396   0.000000
    58  C    0.045816  -0.000000
    59  C   -0.150976   0.000000
    60  S    0.175884  -0.000000
    61  C    0.038908   0.000000
    62  C    0.012668  -0.000000
    63  C    0.009102   0.000000
    64  C    0.051024  -0.000000
    65  C    0.005612   0.000000
    66  C    0.001386  -0.000000
    67  C   -0.183674   0.000000
    68  C    0.120816  -0.000000
    69  F   -0.126199   0.000000
    70  C    0.046266  -0.000000
    71  C   -0.150767   0.000000
    72  S    0.175228   0.000000
    73  C    0.038669  -0.000000
    74  C    0.004195   0.000000
    75  C    0.013120   0.000000
    76  C    0.053297  -0.000000
    77  C    0.007111   0.000000
    78  C    0.008242   0.000000
    79  C   -0.187911  -0.000000
    80  C    0.102519   0.000000
    81  F   -0.127543  -0.000000
    82  C    0.069501  -0.000000
    83  C   -0.082568   0.000000
    84  S    0.171077   0.000000
 Electronic spatial extent (au):  <R**2>=         577854.5477
 Charge=              0.0000 electrons
 Dipole moment (field-independent basis, Debye):
    X=              8.5560    Y=             -0.7323    Z=              0.6681  Tot=              8.6133
 Quadrupole moment (field-independent basis, Debye-Ang):
   XX=           -404.7720   YY=           -503.0637   ZZ=           -524.3667
   XY=            -20.1834   XZ=              2.5827   YZ=             -0.6994
 Traceless Quadrupole moment (field-independent basis, Debye-Ang):
   XX=             72.6288   YY=            -25.6629   ZZ=            -46.9659
   XY=            -20.1834   XZ=              2.5827   YZ=             -0.6994
 Octapole moment (field-independent basis, Debye-Ang**2):
  XXX=           5520.0113  YYY=            -33.2990  ZZZ=             36.6709  XYY=            248.2054
  XXY=           -246.8618  XXZ=            791.8707  XZZ=           -179.7536  YZZ=              6.7815
  YYZ=             21.3482  XYZ=             74.1278
 Hexadecapole moment (field-independent basis, Debye-Ang**3):
 XXXX=        -622515.3120 YYYY=         -14003.9048 ZZZZ=          -6781.9536 XXXY=         -17336.8732
 XXXZ=           8013.7818 YYYX=           1749.0559 YYYZ=            -95.8216 ZZZX=            270.9536
 ZZZY=            -34.4533 XXYY=        -128624.9541 XXZZ=        -127118.8396 YYZZ=          -3370.6333
 XXYZ=           1010.3127 YYXZ=           -299.4828 ZZXY=           -283.1943
 N-N= 1.138671110993D+04 E-N=-3.729467011839D+04  KE= 6.145562674765D+03
 Leave Link  601 at Sat Jul 25 17:58:39 2020, MaxMem=  4026531840 cpu:              11.1 elap:               1.5
 (Enter /opt/ohpc/pub/libs/gaussian/g16-A.03/sandybridge/g16/l9999.exe)

 Test job not archived.
 1\1\GINC-SKYLAKE005\FOpt\ULC-wPBE\CC-pVDZ\C70H37F7S7\RDU230\25-Jul-202
 0\0\\#P uLC-wPBE/cc-pVDZ iop(3/107=0406500000, 3/108=0406500000) opt\\
 H37 C70 S7 F7\\0,1\C,-26.0200893272,4.5521809146,0.9631069573\C,-24.99
 04144979,4.3688370934,1.8766981166\C,-23.7929568779,3.7970019514,1.473
 7304797\C,-23.6051024163,3.3902245778,0.1505769471\C,-24.6474648734,3.
 5772986531,-0.7613803283\C,-25.8413188233,4.1553405413,-0.3558659854\C
 ,-22.3376607339,2.7746492722,-0.2736014768\C,-21.7572713738,2.74830760
 72,-1.5075897056\F,-22.302043498,3.3145791159,-2.5924766454\C,-20.5140
 552007,2.0749505266,-1.5853099215\C,-20.1379361267,1.5705047037,-0.374
 8002513\S,-21.3118227452,1.933964705,0.8351631081\C,-18.920461071,0.81
 05486453,-0.0493499239\C,-17.7346409264,1.0464326772,-0.7463824207\C,-
 16.5888391032,0.3249347281,-0.461020476\C,-16.5798623404,-0.6472847846
 ,0.5424282416\C,-17.7652309499,-0.8774812459,1.245788792\C,-18.9140670
 208,-0.1638855582,0.9495581817\C,-15.3569830099,-1.400404255,0.8526274
 571\C,-15.2175925466,-2.6243221903,1.4398568317\F,-16.2529532677,-3.37
 30217089,1.840878814\C,-13.8872281667,-3.0840953355,1.5888051709\C,-12
 .9855201326,-2.182726177,1.1028733121\S,-13.7834402073,-0.7837422564,0
 .4866717122\C,-11.518559841,-2.2922415891,1.0796666332\C,-10.760320025
 6,-1.7048412102,0.0664385947\C,-9.3814329483,-1.8253966043,0.051472611
 3\C,-8.7093213567,-2.5361451334,1.0483892274\C,-9.4695141638,-3.124057
 092,2.0639249875\C,-10.847799088,-3.0005078138,2.0781755226\C,-7.24507
 53868,-2.657134634,1.0330371815\C,-6.4473369789,-3.6035906967,1.607615
 8152\F,-6.9194020396,-4.6295677101,2.3273988587\C,-5.0570288958,-3.442
 4287149,1.3971587919\C,-4.786813019,-2.3385415705,0.6420613277\S,-6.24
 01173595,-1.5225397081,0.2006388486\C,-3.4723347303,-1.8351521859,0.21
 31620852\C,-2.4198433485,-2.7218995114,-0.0184685976\C,-1.1762150369,-
 2.2587735369,-0.4102038114\C,-0.9377603299,-0.8932683967,-0.5864768742
 \C,-1.9937873041,-0.0063003397,-0.3604761314\C,-3.2369826227,-0.471568
 091,0.0327798548\C,0.3862474375,-0.4056342543,-0.9955098301\C,0.725900
 7697,0.7566863269,-1.6247404797\F,-0.1665309528,1.6846522999,-1.992777
 861\C,2.1049382982,0.9263400401,-1.894315396\C,2.8384615484,-0.1371925
 493,-1.4551854958\S,1.827224892,-1.3170863094,-0.7079254307\C,4.293968
 2406,-0.3327084067,-1.5450273206\C,4.8517020618,-1.6053594204,-1.67365
 36661\C,6.2221649301,-1.7803078633,-1.7621346552\C,7.085777521,-0.6819
 199882,-1.7354640935\C,6.5255741495,0.5922538838,-1.612064989\C,5.1563
 863177,0.7639842354,-1.5102490693\C,8.5411424932,-0.8603770811,-1.8277
 417527\C,9.2563779022,-1.8953633058,-2.3566270688\F,8.6920783479,-2.97
 37990066,-2.9150682254\C,10.6639567676,-1.7577404436,-2.3022223368\C,1
 1.0327217174,-0.5840289211,-1.7121052582\S,9.64928558,0.3211813083,-1.
 2225445459\C,12.3938280035,-0.0817079952,-1.4673592327\C,12.6787423961
 ,1.2843100799,-1.474996432\C,13.9633124633,1.7483916255,-1.248904241\C
 ,15.0143044036,0.8571038335,-1.0165696927\C,14.7285007229,-0.510669234
 3,-1.0142379396\C,13.4414502402,-0.9719297523,-1.2271841275\C,16.37962
 95531,1.3430115105,-0.7752200679\C,16.9563427124,2.5250457492,-1.13930
 03843\F,16.3146233669,3.4790914489,-1.8256479607\C,18.3109020142,2.687
 1523915,-0.7622340747\C,18.7799109195,1.5972403207,-0.0886100259\S,17.
 5492744614,0.401680062,0.082728701\C,20.1259376848,1.3864147023,0.4672
 456055\C,20.8759437471,2.4690959042,0.9295200736\C,22.1504795318,2.289
 737494,1.4383483955\C,22.7161750969,1.0139549792,1.5156784896\C,21.960
 2359851,-0.0697427266,1.0642101292\C,20.6908805323,0.1130689838,0.5428
 577036\C,24.0698396863,0.8183468382,2.055532545\C,24.7703448458,1.5952
 154111,2.9322774678\F,24.2897610585,2.7269052233,3.4630798743\C,26.064
 2541411,1.1208353341,3.268351536\C,26.3368686226,-0.0413201239,2.62063
 82412\S,25.0435138576,-0.5420502699,1.6191481779\H,-26.9612463904,5.00
 46826486,1.278801572\H,-25.1162927046,4.6800917171,2.9148179006\H,-22.
 9854146785,3.674913424,2.1982390757\H,-24.5205964921,3.2627599093,-1.7
 961483656\H,-26.6444511707,4.2923937242,-1.0816746212\H,-19.954117301,
 1.9608940794,-2.5109105042\H,-17.7048893653,1.8170086559,-1.5176987942
 \H,-15.6810054365,0.523626962,-1.0335075979\H,-17.7894939541,-1.628928
 2365,2.0329632183\H,-19.8304505267,-0.3787967116,1.5023179935\H,-13.63
 48343673,-4.0550610977,2.0091385191\H,-11.257718358,-1.1619225753,-0.7
 392068034\H,-8.8190696161,-1.3709451448,-0.7661315558\H,-8.9726017291,
 -3.6737518147,2.8612961413\H,-11.414593931,-3.4448605045,2.8973727972\
 H,-4.3086106187,-4.1112521667,1.8162803451\H,-2.5838828052,-3.79519847
 45,0.0850302141\H,-0.3788825482,-2.9788026511,-0.6027512619\H,-1.83640
 95969,1.0638421061,-0.4825785246\H,-4.0365412696,0.2464207434,0.224382
 5839\H,2.5085109957,1.7889602701,-2.4198196097\H,4.2005641141,-2.48033
 85626,-1.7170513976\H,6.628711388,-2.7854417594,-1.8579481683\H,7.1724
 114747,1.4712328723,-1.5952338805\H,4.749647707,1.7686674987,-1.388814
 6698\H,11.3516604281,-2.4913789238,-2.7169170635\H,11.8813715815,2.002
 8980702,-1.6731556985\H,14.154977655,2.8198346555,-1.2571077144\H,15.5
 286503936,-1.2328781993,-0.8426175236\H,13.2436687215,-2.0440179707,-1
 .1940170573\H,18.9003526498,3.5650845207,-1.0170173645\H,20.4480469556
 ,3.4720863992,0.9033157461\H,22.7146132965,3.1525427292,1.7882211062\H
 ,22.3691141557,-1.0800120568,1.1224289432\H,20.133040456,-0.7515931808
 ,0.1789492982\H,26.7326825472,1.6315347882,3.9577665959\H,27.245771982
 9,-0.6355927401,2.6745009269\\Version=EM64L-G16RevA.03\State=1-A\HF=-6
 172.9259224\S2=0.\S2-1=0.\S2A=0.\RMSD=6.608e-09\RMSF=1.737e-06\Dipole=
 3.366222,-0.2404322,0.3068877\Quadrupole=53.9792389,-19.7214894,-34.25
 77494,-14.5024048,4.4557516,-3.2160392\PG=C01 [X(C70H37F7S7)]\\@


 AND HERE I AM, FOR ALL MY LORE,
 THE WRETCHED FOOL I WAS BEFORE.
 CALLED MASTER OF ARTS, AND DOCTOR TO BOOT,
 FOR TEN YEARS ALMOST I CONFUTE
 AND UP AND DOWN, WHEREVER IT GOES
 I DRAG MY STUDENTS BY THE NOSE --
 AND SEE THAT FOR ALL OUR SCIENCE AND ART
 WE CAN KNOW NOTHING.  IT BURNS MY HEART.

                                       -- FAUST
 Job cpu time:       2 days  4 hours 49 minutes 48.0 seconds.
 Elapsed time:       0 days  6 hours 43 minutes 30.8 seconds.
 File lengths (MBytes):  RWF=   2156 Int=      0 D2E=      0 Chk=    196 Scr=      8
 Normal termination of Gaussian 16 at Sat Jul 25 17:58:39 2020.
