 Entering Gaussian System, Link 0=g16
 Input=mols_55_1_07_N-N_opt_0.gjf
 Output=mols_55_1_07_N-N_opt_0.log
 Initial command:
 /opt/ohpc/pub/libs/gaussian/g16-A.03/sandybridge/g16/l1.exe "/mnt/gpfs2_4m/scratch/rdu230/ondemand/projects/dihedral_energies/7trial/wtuning/mols_55_1_07_N-N/Gau-344207.inp" -scrdir="/mnt/gpfs2_4m/scratch/rdu230/ondemand/projects/dihedral_energies/7trial/wtuning/mols_55_1_07_N-N/"
 Entering Link 1 = /opt/ohpc/pub/libs/gaussian/g16-A.03/sandybridge/g16/l1.exe PID=    344208.
  
 Copyright (c) 1988,1990,1992,1993,1995,1998,2003,2009,2016,
            Gaussian, Inc.  All Rights Reserved.
  
 This is part of the Gaussian(R) 16 program.  It is based on
 the Gaussian(R) 09 system (copyright 2009, Gaussian, Inc.),
 the Gaussian(R) 03 system (copyright 2003, Gaussian, Inc.),
 the Gaussian(R) 98 system (copyright 1998, Gaussian, Inc.),
 the Gaussian(R) 94 system (copyright 1995, Gaussian, Inc.),
 the Gaussian 92(TM) system (copyright 1992, Gaussian, Inc.),
 the Gaussian 90(TM) system (copyright 1990, Gaussian, Inc.),
 the Gaussian 88(TM) system (copyright 1988, Gaussian, Inc.),
 the Gaussian 86(TM) system (copyright 1986, Carnegie Mellon
 University), and the Gaussian 82(TM) system (copyright 1983,
 Carnegie Mellon University). Gaussian is a federally registered
 trademark of Gaussian, Inc.
  
 This software contains proprietary and confidential information,
 including trade secrets, belonging to Gaussian, Inc.
  
 This software is provided under written license and may be
 used, copied, transmitted, or stored only in accord with that
 written license.
  
 The following legend is applicable only to US Government
 contracts under FAR:
  
                    RESTRICTED RIGHTS LEGEND
  
 Use, reproduction and disclosure by the US Government is
 subject to restrictions as set forth in subparagraphs (a)
 and (c) of the Commercial Computer Software - Restricted
 Rights clause in FAR 52.227-19.
  
 Gaussian, Inc.
 340 Quinnipiac St., Bldg. 40, Wallingford CT 06492
  
  
 ---------------------------------------------------------------
 Warning -- This program may not be used in any manner that
 competes with the business of Gaussian, Inc. or will provide
 assistance to any competitor of Gaussian, Inc.  The licensee
 of this program is prohibited from giving any competitor of
 Gaussian, Inc. access to this program.  By using this program,
 the user acknowledges that Gaussian, Inc. is engaged in the
 business of creating and licensing software in the field of
 computational chemistry and represents and warrants to the
 licensee that it is not a competitor of Gaussian, Inc. and that
 it will not use this program in any manner prohibited above.
 ---------------------------------------------------------------
  

 Cite this work as:
 Gaussian 16, Revision A.03,
 M. J. Frisch, G. W. Trucks, H. B. Schlegel, G. E. Scuseria, 
 M. A. Robb, J. R. Cheeseman, G. Scalmani, V. Barone, 
 G. A. Petersson, H. Nakatsuji, X. Li, M. Caricato, A. V. Marenich, 
 J. Bloino, B. G. Janesko, R. Gomperts, B. Mennucci, H. P. Hratchian, 
 J. V. Ortiz, A. F. Izmaylov, J. L. Sonnenberg, D. Williams-Young, 
 F. Ding, F. Lipparini, F. Egidi, J. Goings, B. Peng, A. Petrone, 
 T. Henderson, D. Ranasinghe, V. G. Zakrzewski, J. Gao, N. Rega, 
 G. Zheng, W. Liang, M. Hada, M. Ehara, K. Toyota, R. Fukuda, 
 J. Hasegawa, M. Ishida, T. Nakajima, Y. Honda, O. Kitao, H. Nakai, 
 T. Vreven, K. Throssell, J. A. Montgomery, Jr., J. E. Peralta, 
 F. Ogliaro, M. J. Bearpark, J. J. Heyd, E. N. Brothers, K. N. Kudin, 
 V. N. Staroverov, T. A. Keith, R. Kobayashi, J. Normand, 
 K. Raghavachari, A. P. Rendell, J. C. Burant, S. S. Iyengar, 
 J. Tomasi, M. Cossi, J. M. Millam, M. Klene, C. Adamo, R. Cammi, 
 J. W. Ochterski, R. L. Martin, K. Morokuma, O. Farkas, 
 J. B. Foresman, and D. J. Fox, Gaussian, Inc., Wallingford CT, 2016.
 
 ******************************************
 Gaussian 16:  EM64L-G16RevA.03 25-Dec-2016
                24-Jul-2020 
 ******************************************
 %mem=30GB
 %nproc=8
 Will use up to    8 processors via shared memory.
 ---------------------------------------------------------------
 #P uLC-wPBE/cc-pVDZ iop(3/107=0416800000, 3/108=0416800000) opt
 ---------------------------------------------------------------
 1/18=20,19=15,26=3,38=1/1,3;
 2/9=110,12=2,17=6,18=5,40=1/2;
 3/5=16,11=2,25=1,30=1,71=1,74=-41,107=416800000,108=416800000,116=2/1,2,3;
 4//1;
 5/5=2,38=5/2;
 6/7=2,8=2,9=2,10=2,28=1/1;
 7//1,2,3,16;
 1/18=20,19=15,26=3/3(2);
 2/9=110/2;
 99//99;
 2/9=110/2;
 3/5=16,11=2,25=1,30=1,71=1,74=-41,107=416800000,108=416800000,116=2/1,2,3;
 4/5=5,16=3,69=1/1;
 5/5=2,38=5/2;
 7//1,2,3,16;
 1/18=20,19=15,26=3/3(-5);
 2/9=110/2;
 6/7=2,8=2,9=2,10=2,19=2,28=1/1;
 99/9=1/99;
 Leave Link    1 at Fri Jul 24 08:40:17 2020, MaxMem=  4026531840 cpu:               1.7 elap:               0.2
 (Enter /opt/ohpc/pub/libs/gaussian/g16-A.03/sandybridge/g16/l101.exe)
 -----------
 H4 C6 S2 N2
 -----------
 Symbolic Z-matrix:
 Charge =  0 Multiplicity = 1
 C                    -3.16501   0.10449  -0.02634 
 C                    -2.59498  -1.19462   0.01601 
 N                    -1.29811  -1.34826  -0.01718 
 C                    -0.74346  -0.08466  -0.0271 
 S                    -1.88505   1.20561  -0.01971 
 C                     0.69972   0.15866   0.01894 
 N                     1.30751   1.33257  -0.01634 
 C                     2.60387   1.20356  -0.03431 
 C                     3.14693  -0.12168  -0.00276 
 S                     1.82843  -1.22441   0.03651 
 H                    -4.13769   0.36896  -0.02882 
 H                    -3.26255  -2.06837   0.00675 
 H                     3.19575   2.13029   0.01477 
 H                     4.15838  -0.36208  -0.03438 
 
 ITRead=  0  0  0  0  0  0  0  0  0  0  0  0  0  0
 MicOpt= -1 -1 -1 -1 -1 -1 -1 -1 -1 -1 -1 -1 -1 -1
 NAtoms=     14 NQM=       14 NQMF=       0 NMMI=      0 NMMIF=      0
                NMic=       0 NMicF=      0.
                    Isotopes and Nuclear Properties:
 (Nuclear quadrupole moments (NQMom) in fm**2, nuclear magnetic moments (NMagM)
  in nuclear magnetons)

  Atom         1           2           3           4           5           6           7           8           9          10
 IAtWgt=          12          12          14          12          32          12          14          12          12          32
 AtmWgt=  12.0000000  12.0000000  14.0030740  12.0000000  31.9720718  12.0000000  14.0030740  12.0000000  12.0000000  31.9720718
 NucSpn=           0           0           2           0           0           0           2           0           0           0
 AtZEff=  -0.0000000  -0.0000000  -0.0000000  -0.0000000  -0.0000000  -0.0000000  -0.0000000  -0.0000000  -0.0000000  -0.0000000
 NQMom=    0.0000000   0.0000000   2.0440000   0.0000000   0.0000000   0.0000000   2.0440000   0.0000000   0.0000000   0.0000000
 NMagM=    0.0000000   0.0000000   0.4037610   0.0000000   0.0000000   0.0000000   0.4037610   0.0000000   0.0000000   0.0000000
 AtZNuc=   6.0000000   6.0000000   7.0000000   6.0000000  16.0000000   6.0000000   7.0000000   6.0000000   6.0000000  16.0000000

  Atom        11          12          13          14
 IAtWgt=           1           1           1           1
 AtmWgt=   1.0078250   1.0078250   1.0078250   1.0078250
 NucSpn=           1           1           1           1
 AtZEff=  -0.0000000  -0.0000000  -0.0000000  -0.0000000
 NQMom=    0.0000000   0.0000000   0.0000000   0.0000000
 NMagM=    2.7928460   2.7928460   2.7928460   2.7928460
 AtZNuc=   1.0000000   1.0000000   1.0000000   1.0000000
 Leave Link  101 at Fri Jul 24 08:40:17 2020, MaxMem=  4026531840 cpu:               2.7 elap:               0.4
 (Enter /opt/ohpc/pub/libs/gaussian/g16-A.03/sandybridge/g16/l103.exe)

 GradGradGradGradGradGradGradGradGradGradGradGradGradGradGradGradGradGrad
 Berny optimization.
 Initialization pass.
                           ----------------------------
                           !    Initial Parameters    !
                           ! (Angstroms and Degrees)  !
 --------------------------                            --------------------------
 ! Name  Definition              Value          Derivative Info.                !
 --------------------------------------------------------------------------------
 ! R1    R(1,2)                  1.4193         estimate D2E/DX2                !
 ! R2    R(1,5)                  1.6884         estimate D2E/DX2                !
 ! R3    R(1,11)                 1.008          estimate D2E/DX2                !
 ! R4    R(2,3)                  1.3064         estimate D2E/DX2                !
 ! R5    R(2,12)                 1.0996         estimate D2E/DX2                !
 ! R6    R(3,4)                  1.38           estimate D2E/DX2                !
 ! R7    R(4,5)                  1.7228         estimate D2E/DX2                !
 ! R8    R(4,6)                  1.4643         estimate D2E/DX2                !
 ! R9    R(6,7)                  1.3224         estimate D2E/DX2                !
 ! R10   R(6,10)                 1.7853         estimate D2E/DX2                !
 ! R11   R(7,8)                  1.3029         estimate D2E/DX2                !
 ! R12   R(8,9)                  1.4325         estimate D2E/DX2                !
 ! R13   R(8,13)                 1.1007         estimate D2E/DX2                !
 ! R14   R(9,10)                 1.7193         estimate D2E/DX2                !
 ! R15   R(9,14)                 1.0401         estimate D2E/DX2                !
 ! A1    A(2,1,5)              106.9984         estimate D2E/DX2                !
 ! A2    A(2,1,11)             128.887          estimate D2E/DX2                !
 ! A3    A(5,1,11)             124.0846         estimate D2E/DX2                !
 ! A4    A(1,2,3)              120.3714         estimate D2E/DX2                !
 ! A5    A(1,2,12)             118.896          estimate D2E/DX2                !
 ! A6    A(3,2,12)             120.5984         estimate D2E/DX2                !
 ! A7    A(2,3,4)              106.9474         estimate D2E/DX2                !
 ! A8    A(3,4,5)              114.7972         estimate D2E/DX2                !
 ! A9    A(3,4,6)              123.2339         estimate D2E/DX2                !
 ! A10   A(5,4,6)              121.9039         estimate D2E/DX2                !
 ! A11   A(1,5,4)               90.7954         estimate D2E/DX2                !
 ! A12   A(4,6,7)              126.8464         estimate D2E/DX2                !
 ! A13   A(4,6,10)             119.6503         estimate D2E/DX2                !
 ! A14   A(7,6,10)             113.4157         estimate D2E/DX2                !
 ! A15   A(6,7,8)              111.7023         estimate D2E/DX2                !
 ! A16   A(7,8,9)              117.936          estimate D2E/DX2                !
 ! A17   A(7,8,13)             116.811          estimate D2E/DX2                !
 ! A18   A(9,8,13)             125.0332         estimate D2E/DX2                !
 ! A19   A(8,9,10)             107.6456         estimate D2E/DX2                !
 ! A20   A(8,9,14)             125.5766         estimate D2E/DX2                !
 ! A21   A(10,9,14)            126.7415         estimate D2E/DX2                !
 ! A22   A(6,10,9)              89.2976         estimate D2E/DX2                !
 ! D1    D(5,1,2,3)             -3.4491         estimate D2E/DX2                !
 ! D2    D(5,1,2,12)          -179.2623         estimate D2E/DX2                !
 ! D3    D(11,1,2,3)           178.5065         estimate D2E/DX2                !
 ! D4    D(11,1,2,12)            2.6933         estimate D2E/DX2                !
 ! D5    D(2,1,5,4)              2.1053         estimate D2E/DX2                !
 ! D6    D(11,1,5,4)          -179.7327         estimate D2E/DX2                !
 ! D7    D(1,2,3,4)              2.8496         estimate D2E/DX2                !
 ! D8    D(12,2,3,4)           178.591          estimate D2E/DX2                !
 ! D9    D(2,3,4,5)             -0.9357         estimate D2E/DX2                !
 ! D10   D(2,3,4,6)            176.1791         estimate D2E/DX2                !
 ! D11   D(3,4,5,1)             -0.7952         estimate D2E/DX2                !
 ! D12   D(6,4,5,1)           -177.9525         estimate D2E/DX2                !
 ! D13   D(3,4,6,7)            178.4104         estimate D2E/DX2                !
 ! D14   D(3,4,6,10)             2.0503         estimate D2E/DX2                !
 ! D15   D(5,4,6,7)             -4.675          estimate D2E/DX2                !
 ! D16   D(5,4,6,10)           178.9649         estimate D2E/DX2                !
 ! D17   D(4,6,7,8)           -176.3579         estimate D2E/DX2                !
 ! D18   D(10,6,7,8)             0.1951         estimate D2E/DX2                !
 ! D19   D(4,6,10,9)           176.9457         estimate D2E/DX2                !
 ! D20   D(7,6,10,9)             0.1194         estimate D2E/DX2                !
 ! D21   D(6,7,8,9)             -0.5172         estimate D2E/DX2                !
 ! D22   D(6,7,8,13)          -175.405          estimate D2E/DX2                !
 ! D23   D(7,8,9,10)             0.5921         estimate D2E/DX2                !
 ! D24   D(7,8,9,14)           178.5178         estimate D2E/DX2                !
 ! D25   D(13,8,9,10)          175.0184         estimate D2E/DX2                !
 ! D26   D(13,8,9,14)           -7.0558         estimate D2E/DX2                !
 ! D27   D(8,9,10,6)            -0.36           estimate D2E/DX2                !
 ! D28   D(14,9,10,6)         -178.2547         estimate D2E/DX2                !
 --------------------------------------------------------------------------------
 Trust Radius=3.00D-01 FncErr=1.00D-07 GrdErr=1.00D-06 EigMax=2.50D+02 EigMin=1.00D-04
 Number of steps in this run=     75 maximum allowed number of steps=    100.
 GradGradGradGradGradGradGradGradGradGradGradGradGradGradGradGradGradGrad

 Leave Link  103 at Fri Jul 24 08:40:17 2020, MaxMem=  4026531840 cpu:               0.2 elap:               0.0
 (Enter /opt/ohpc/pub/libs/gaussian/g16-A.03/sandybridge/g16/l202.exe)
                          Input orientation:                          
 ---------------------------------------------------------------------
 Center     Atomic      Atomic             Coordinates (Angstroms)
 Number     Number       Type             X           Y           Z
 ---------------------------------------------------------------------
      1          6           0       -3.165011    0.104487   -0.026335
      2          6           0       -2.594979   -1.194618    0.016008
      3          7           0       -1.298112   -1.348257   -0.017184
      4          6           0       -0.743464   -0.084663   -0.027101
      5         16           0       -1.885046    1.205612   -0.019714
      6          6           0        0.699716    0.158657    0.018938
      7          7           0        1.307513    1.332570   -0.016339
      8          6           0        2.603874    1.203562   -0.034311
      9          6           0        3.146933   -0.121678   -0.002760
     10         16           0        1.828428   -1.224410    0.036513
     11          1           0       -4.137686    0.368957   -0.028820
     12          1           0       -3.262555   -2.068369    0.006746
     13          1           0        3.195748    2.130289    0.014773
     14          1           0        4.158379   -0.362075   -0.034381
 ---------------------------------------------------------------------
                    Distance matrix (angstroms):
                    1          2          3          4          5
     1  C    0.000000
     2  C    1.419297   0.000000
     3  N    2.365557   1.306358   0.000000
     4  C    2.428923   2.159159   1.380001   0.000000
     5  S    1.688440   2.503275   2.620447   1.722810   0.000000
     6  C    3.865372   3.561794   2.502681   1.464272   2.789015
     7  N    4.638077   4.649427   3.738464   2.493025   3.195084
     8  C    5.872654   5.725546   4.662357   3.586676   4.488944
     9  C    6.316039   5.841327   4.611196   3.890649   5.204114
    10  S    5.167625   4.423555   3.129453   2.813841   4.438249
    11  H    1.007992   2.196980   3.318454   3.424400   2.403011
    12  H    2.175296   1.099629   2.092408   3.206564   3.552067
    13  H    6.675689   6.677389   5.682964   4.519420   5.164367
    14  H    7.338241   6.804668   5.544921   4.909692   6.243464
                    6          7          8          9         10
     6  C    0.000000
     7  N    1.322397   0.000000
     8  C    2.172666   1.302888   0.000000
     9  C    2.463317   2.344885   1.432540   0.000000
    10  S    1.785266   2.610037   2.549780   1.719307   0.000000
    11  H    4.842207   5.529819   6.793028   7.301169   6.175565
    12  H    4.545260   5.696704   6.717307   6.698599   5.160548
    13  H    3.180806   2.050062   1.100703   2.252564   3.622712
    14  H    3.498050   3.316562   2.206288   1.040103   2.485421
                   11         12         13         14
    11  H    0.000000
    12  H    2.589918   0.000000
    13  H    7.542111   7.703147   0.000000
    14  H    8.328213   7.614683   2.672256   0.000000
 Stoichiometry    C6H4N2S2
 Framework group  C1[X(C6H4N2S2)]
 Deg. of freedom    36
 Full point group                 C1      NOp   1
 Largest Abelian subgroup         C1      NOp   1
 Largest concise Abelian subgroup C1      NOp   1
                         Standard orientation:                         
 ---------------------------------------------------------------------
 Center     Atomic      Atomic             Coordinates (Angstroms)
 Number     Number       Type             X           Y           Z
 ---------------------------------------------------------------------
      1          6           0       -3.151977   -0.071670    0.009082
      2          6           0       -2.568483    1.221954   -0.012759
      3          7           0       -1.270247    1.361724    0.027465
      4          6           0       -0.728638    0.092462    0.021603
      5         16           0       -1.883362   -1.185737   -0.008299
      6          6           0        0.712138   -0.165059   -0.022456
      7          7           0        1.307715   -1.345560   -0.001494
      8          6           0        2.605252   -1.230198    0.023162
      9          6           0        3.162000    0.089683    0.012380
     10         16           0        1.855043    1.206401   -0.016250
     11          1           0       -4.127317   -0.326101    0.004181
     12          1           0       -3.227089    2.102327    0.006346
     13          1           0        3.187772   -2.162197   -0.036794
     14          1           0        4.175728    0.319164    0.051188
 ---------------------------------------------------------------------
 Rotational constants (GHZ):           2.6784727           0.6848178           0.5454350
 Leave Link  202 at Fri Jul 24 08:40:17 2020, MaxMem=  4026531840 cpu:               0.1 elap:               0.0
 (Enter /opt/ohpc/pub/libs/gaussian/g16-A.03/sandybridge/g16/l301.exe)
 Standard basis: CC-pVDZ (5D, 7F)
 Ernie: Thresh=  0.10000D-02 Tol=  0.10000D-05 Strict=F.
 Ernie:  36 primitive shells out of 296 were deleted.
 There are   178 symmetry adapted cartesian basis functions of A   symmetry.
 There are   168 symmetry adapted basis functions of A   symmetry.
   168 basis functions,   434 primitive gaussians,   178 cartesian basis functions
    43 alpha electrons       43 beta electrons
       nuclear repulsion energy       640.5119640326 Hartrees.
 IExCor=32609 DFT=T Ex+Corr=LC-wPBE ExCW=0 ScaHFX=  1.000000
 ScaDFX=  1.000000  0.000000  1.000000  1.000000 ScalE2=  1.000000  1.000000
 IRadAn=      5 IRanWt=     -1 IRanGd=            0 ICorTp=0 IEmpDi=  4
 HFx  wShort=  0.000000 wLong=  0.416800 cFull=  0.000000 cShort=  0.000000 cLong=  1.000000
 DFx  wShort=  0.000000 wLong=  0.416800 cFull=  0.000000 cShort=  0.000000 cLong=  1.000000
 NAtoms=   14 NActive=   14 NUniq=   14 SFac= 1.00D+00 NAtFMM=   60 NAOKFM=F Big=F
 Integral buffers will be    131072 words long.
 Raffenetti 2 integral format.
 Two-electron integral symmetry is turned on.
 Leave Link  301 at Fri Jul 24 08:40:18 2020, MaxMem=  4026531840 cpu:               0.4 elap:               0.1
 (Enter /opt/ohpc/pub/libs/gaussian/g16-A.03/sandybridge/g16/l302.exe)
 NPDir=0 NMtPBC=     1 NCelOv=     1 NCel=       1 NClECP=     1 NCelD=      1
         NCelK=      1 NCelE2=     1 NClLst=     1 CellRange=     0.0.
 One-electron integrals computed using PRISM.
 One-electron integral symmetry used in STVInt
 NBasis=   168 RedAO= T EigKep=  9.82D-04  NBF=   168
 NBsUse=   168 1.00D-06 EigRej= -1.00D+00 NBFU=   168
 Precomputing XC quadrature grid using
 IXCGrd= 4 IRadAn=           5 IRanWt=          -1 IRanGd=           0 AccXCQ= 0.00D+00.
 Generated NRdTot=       0 NPtTot=           0 NUsed=           0 NTot=          32
 NSgBfM=   178   178   178   178   178 MxSgAt=    14 MxSgA2=    14.
 Leave Link  302 at Fri Jul 24 08:40:18 2020, MaxMem=  4026531840 cpu:               1.4 elap:               0.2
 (Enter /opt/ohpc/pub/libs/gaussian/g16-A.03/sandybridge/g16/l303.exe)
 DipDrv:  MaxL=1.
 Leave Link  303 at Fri Jul 24 08:40:18 2020, MaxMem=  4026531840 cpu:               0.3 elap:               0.1
 (Enter /opt/ohpc/pub/libs/gaussian/g16-A.03/sandybridge/g16/l401.exe)
 ExpMin= 1.22D-01 ExpMax= 1.11D+05 ExpMxC= 1.07D+03 IAcc=3 IRadAn=         5 AccDes= 0.00D+00
 Harris functional with IExCor=32609 and IRadAn=       5 diagonalized for initial guess.
 HarFok:  IExCor=32609 AccDes= 0.00D+00 IRadAn=         5 IDoV= 1 UseB2=F ITyADJ=14
 ICtDFT=  3500011 ScaDFX=  1.000000  1.000000  1.000000  1.000000
 FoFCou: FMM=F IPFlag=           0 FMFlag=      100000 FMFlg1=           0
         NFxFlg=           0 DoJE=T BraDBF=F KetDBF=T FulRan=T
         wScrn=  0.000000 ICntrl=       500 IOpCl=  0 I1Cent=   200000004 NGrid=           0
         NMat0=    1 NMatS0=      1 NMatT0=    0 NMatD0=    1 NMtDS0=    0 NMtDT0=    0
 Petite list used in FoFCou.
 Harris En= -1136.27303818801    
 JPrj=0 DoOrth=F DoCkMO=F.
 Initial guess <Sx>= 0.0000 <Sy>= 0.0000 <Sz>= 0.0000 <S**2>=-0.0000 S=-0.0000
 Leave Link  401 at Fri Jul 24 08:40:19 2020, MaxMem=  4026531840 cpu:               5.7 elap:               0.7
 (Enter /opt/ohpc/pub/libs/gaussian/g16-A.03/sandybridge/g16/l502.exe)
 Integral symmetry usage will be decided dynamically.
 UHF open shell SCF:
 Using DIIS extrapolation, IDIIS=  1040.
 NGot=  4026531840 LenX=  4026465158 LenY=  4026433033
 Requested convergence on RMS density matrix=1.00D-08 within 128 cycles.
 Requested convergence on MAX density matrix=1.00D-06.
 Requested convergence on             energy=1.00D-06.
 No special actions if energy rises.
 Fock matrices will be formed incrementally for  20 cycles.
 Integral accuracy reduced to 1.0D-05 until final iterations.

 Cycle   1  Pass 0  IDiag  1:
 FoFJK:  IHMeth= 1 ICntrl=       0 DoSepK=T KAlg= 0 I1Cent=           0 FoldK=F
 IRaf=         1 NMat=       1 IRICut=       1 DoRegI=T DoRafI=F ISym2E= 0 IDoP0=0 IntGTp=1.
 FoFCou: FMM=F IPFlag=           0 FMFlag=      100000 FMFlg1=           0
         NFxFlg=           0 DoJE=T BraDBF=F KetDBF=F FulRan=T
         wScrn=  0.000000 ICntrl=       500 IOpCl=  0 I1Cent=           0 NGrid=           0
         NMat0=    1 NMatS0=      1 NMatT0=    0 NMatD0=    1 NMtDS0=    0 NMtDT0=    0
 Symmetry not used in FoFCou.
 E= -1136.16261320522    
 DIIS: error= 3.48D-02 at cycle   1 NSaved=   1.
 NSaved= 1 IEnMin= 1 EnMin= -1136.16261320522     IErMin= 1 ErrMin= 3.48D-02
 ErrMax= 3.48D-02  0.00D+00 EMaxC= 1.00D-01 BMatC= 9.29D-01 BMatP= 9.29D-01
 IDIUse=3 WtCom= 6.52D-01 WtEn= 3.48D-01
 Coeff-Com:  0.100D+01
 Coeff-En:   0.100D+01
 Coeff:      0.100D+01
 Gap=     0.284 Goal=   None    Shift=    0.000
 Gap=     0.284 Goal=   None    Shift=    0.000
 GapD=    0.284 DampG=1.000 DampE=0.500 DampFc=0.5000 IDamp=-1.
 Damping current iteration by 5.00D-01
 RMSDP=5.43D-03 MaxDP=1.32D-01              OVMax= 2.83D-01

 Cycle   2  Pass 0  IDiag  1:
 RMSU=  2.71D-03    CP:  9.93D-01
 E= -1136.29761443943     Delta-E=       -0.135001234214 Rises=F Damp=T
 DIIS: error= 6.76D-03 at cycle   2 NSaved=   2.
 NSaved= 2 IEnMin= 2 EnMin= -1136.29761443943     IErMin= 2 ErrMin= 6.76D-03
 ErrMax= 6.76D-03  0.00D+00 EMaxC= 1.00D-01 BMatC= 3.23D-02 BMatP= 9.29D-01
 IDIUse=3 WtCom= 9.32D-01 WtEn= 6.76D-02
 Coeff-Com: -0.317D-01 0.103D+01
 Coeff-En:   0.000D+00 0.100D+01
 Coeff:     -0.295D-01 0.103D+01
 Gap=     0.296 Goal=   None    Shift=    0.000
 Gap=     0.296 Goal=   None    Shift=    0.000
 RMSDP=1.20D-03 MaxDP=2.07D-02 DE=-1.35D-01 OVMax= 1.29D-01

 Cycle   3  Pass 0  IDiag  1:
 RMSU=  1.16D-03    CP:  9.88D-01  1.09D+00
 E= -1136.42907095448     Delta-E=       -0.131456515046 Rises=F Damp=F
 DIIS: error= 3.50D-03 at cycle   3 NSaved=   3.
 NSaved= 3 IEnMin= 3 EnMin= -1136.42907095448     IErMin= 3 ErrMin= 3.50D-03
 ErrMax= 3.50D-03  0.00D+00 EMaxC= 1.00D-01 BMatC= 1.12D-02 BMatP= 3.23D-02
 IDIUse=3 WtCom= 9.65D-01 WtEn= 3.50D-02
 Coeff-Com: -0.200D-01 0.327D+00 0.693D+00
 Coeff-En:   0.000D+00 0.000D+00 0.100D+01
 Coeff:     -0.193D-01 0.316D+00 0.703D+00
 Gap=     0.301 Goal=   None    Shift=    0.000
 Gap=     0.301 Goal=   None    Shift=    0.000
 RMSDP=3.43D-04 MaxDP=1.02D-02 DE=-1.31D-01 OVMax= 1.78D-02

 Cycle   4  Pass 0  IDiag  1:
 RMSU=  3.42D-04    CP:  9.88D-01  1.10D+00  9.91D-01
 E= -1136.43160802550     Delta-E=       -0.002537071021 Rises=F Damp=F
 DIIS: error= 1.99D-03 at cycle   4 NSaved=   4.
 NSaved= 4 IEnMin= 4 EnMin= -1136.43160802550     IErMin= 4 ErrMin= 1.99D-03
 ErrMax= 1.99D-03  0.00D+00 EMaxC= 1.00D-01 BMatC= 2.49D-03 BMatP= 1.12D-02
 IDIUse=3 WtCom= 9.80D-01 WtEn= 1.99D-02
 Coeff-Com:  0.611D-02-0.572D-01 0.284D+00 0.767D+00
 Coeff-En:   0.000D+00 0.000D+00 0.000D+00 0.100D+01
 Coeff:      0.599D-02-0.561D-01 0.279D+00 0.771D+00
 Gap=     0.305 Goal=   None    Shift=    0.000
 Gap=     0.305 Goal=   None    Shift=    0.000
 RMSDP=1.90D-04 MaxDP=4.19D-03 DE=-2.54D-03 OVMax= 1.31D-02

 Cycle   5  Pass 0  IDiag  1:
 RMSU=  1.42D-04    CP:  9.87D-01  1.11D+00  1.10D+00  9.24D-01
 E= -1136.43246720652     Delta-E=       -0.000859181019 Rises=F Damp=F
 DIIS: error= 4.88D-04 at cycle   5 NSaved=   5.
 NSaved= 5 IEnMin= 5 EnMin= -1136.43246720652     IErMin= 5 ErrMin= 4.88D-04
 ErrMax= 4.88D-04  0.00D+00 EMaxC= 1.00D-01 BMatC= 1.71D-04 BMatP= 2.49D-03
 IDIUse=3 WtCom= 9.95D-01 WtEn= 4.88D-03
 Coeff-Com:  0.579D-02-0.411D-01-0.183D-01 0.137D+00 0.917D+00
 Coeff-En:   0.000D+00 0.000D+00 0.000D+00 0.000D+00 0.100D+01
 Coeff:      0.576D-02-0.409D-01-0.183D-01 0.136D+00 0.917D+00
 Gap=     0.306 Goal=   None    Shift=    0.000
 Gap=     0.306 Goal=   None    Shift=    0.000
 RMSDP=8.62D-05 MaxDP=1.63D-03 DE=-8.59D-04 OVMax= 4.60D-03

 Cycle   6  Pass 0  IDiag  1:
 RMSU=  5.27D-05    CP:  9.87D-01  1.10D+00  1.13D+00  1.06D+00  1.22D+00
 E= -1136.43258288894     Delta-E=       -0.000115682426 Rises=F Damp=F
 DIIS: error= 3.81D-04 at cycle   6 NSaved=   6.
 NSaved= 6 IEnMin= 6 EnMin= -1136.43258288894     IErMin= 6 ErrMin= 3.81D-04
 ErrMax= 3.81D-04  0.00D+00 EMaxC= 1.00D-01 BMatC= 5.55D-05 BMatP= 1.71D-04
 IDIUse=3 WtCom= 9.96D-01 WtEn= 3.81D-03
 Coeff-Com:  0.276D-02-0.120D-01-0.510D-01-0.561D-01 0.387D+00 0.729D+00
 Coeff-En:   0.000D+00 0.000D+00 0.000D+00 0.000D+00 0.000D+00 0.100D+01
 Coeff:      0.275D-02-0.120D-01-0.508D-01-0.559D-01 0.385D+00 0.730D+00
 Gap=     0.307 Goal=   None    Shift=    0.000
 Gap=     0.307 Goal=   None    Shift=    0.000
 RMSDP=3.95D-05 MaxDP=9.19D-04 DE=-1.16D-04 OVMax= 4.04D-03

 Cycle   7  Pass 0  IDiag  1:
 RMSU=  2.78D-05    CP:  9.87D-01  1.10D+00  1.14D+00  1.09D+00  1.38D+00
                    CP:  1.07D+00
 E= -1136.43261659395     Delta-E=       -0.000033705004 Rises=F Damp=F
 DIIS: error= 1.49D-04 at cycle   7 NSaved=   7.
 NSaved= 7 IEnMin= 7 EnMin= -1136.43261659395     IErMin= 7 ErrMin= 1.49D-04
 ErrMax= 1.49D-04  0.00D+00 EMaxC= 1.00D-01 BMatC= 1.04D-05 BMatP= 5.55D-05
 IDIUse=3 WtCom= 9.99D-01 WtEn= 1.49D-03
 Coeff-Com: -0.380D-03 0.745D-02-0.403D-02-0.482D-01-0.205D+00 0.198D+00
 Coeff-Com:  0.105D+01
 Coeff-En:   0.000D+00 0.000D+00 0.000D+00 0.000D+00 0.000D+00 0.000D+00
 Coeff-En:   0.100D+01
 Coeff:     -0.379D-03 0.744D-02-0.402D-02-0.481D-01-0.205D+00 0.197D+00
 Coeff:      0.105D+01
 Gap=     0.307 Goal=   None    Shift=    0.000
 Gap=     0.307 Goal=   None    Shift=    0.000
 RMSDP=2.93D-05 MaxDP=6.52D-04 DE=-3.37D-05 OVMax= 2.05D-03

 Cycle   8  Pass 0  IDiag  1:
 RMSU=  8.00D-06    CP:  9.87D-01  1.10D+00  1.15D+00  1.12D+00  1.48D+00
                    CP:  1.43D+00  1.31D+00
 E= -1136.43262721021     Delta-E=       -0.000010616262 Rises=F Damp=F
 DIIS: error= 3.13D-05 at cycle   8 NSaved=   8.
 NSaved= 8 IEnMin= 8 EnMin= -1136.43262721021     IErMin= 8 ErrMin= 3.13D-05
 ErrMax= 3.13D-05  0.00D+00 EMaxC= 1.00D-01 BMatC= 5.63D-07 BMatP= 1.04D-05
 IDIUse=1 WtCom= 1.00D+00 WtEn= 0.00D+00
 Coeff-Com: -0.885D-04 0.830D-03 0.426D-02 0.540D-02-0.358D-01-0.647D-01
 Coeff-Com:  0.428D-03 0.109D+01
 Coeff:     -0.885D-04 0.830D-03 0.426D-02 0.540D-02-0.358D-01-0.647D-01
 Coeff:      0.428D-03 0.109D+01
 Gap=     0.307 Goal=   None    Shift=    0.000
 Gap=     0.307 Goal=   None    Shift=    0.000
 RMSDP=8.11D-06 MaxDP=1.56D-04 DE=-1.06D-05 OVMax= 6.31D-04

 Initial convergence to 1.0D-05 achieved.  Increase integral accuracy.
 Cycle   9  Pass 1  IDiag  1:
 E= -1136.43254252085     Delta-E=        0.000084689363 Rises=F Damp=F
 DIIS: error= 2.35D-05 at cycle   1 NSaved=   1.
 NSaved= 1 IEnMin= 1 EnMin= -1136.43254252085     IErMin= 1 ErrMin= 2.35D-05
 ErrMax= 2.35D-05  0.00D+00 EMaxC= 1.00D-01 BMatC= 3.58D-07 BMatP= 3.58D-07
 IDIUse=1 WtCom= 1.00D+00 WtEn= 0.00D+00
 Coeff-Com:  0.100D+01
 Coeff:      0.100D+01
 Gap=     0.307 Goal=   None    Shift=    0.000
 Gap=     0.307 Goal=   None    Shift=    0.000
 RMSDP=8.11D-06 MaxDP=1.56D-04 DE= 8.47D-05 OVMax= 1.01D-04

 Cycle  10  Pass 1  IDiag  1:
 RMSU=  7.44D-06    CP:  1.00D+00
 E= -1136.43254259449     Delta-E=       -0.000000073643 Rises=F Damp=F
 DIIS: error= 1.08D-05 at cycle   2 NSaved=   2.
 NSaved= 2 IEnMin= 2 EnMin= -1136.43254259449     IErMin= 2 ErrMin= 1.08D-05
 ErrMax= 1.08D-05  0.00D+00 EMaxC= 1.00D-01 BMatC= 1.08D-07 BMatP= 3.58D-07
 IDIUse=1 WtCom= 1.00D+00 WtEn= 0.00D+00
 Coeff-Com:  0.301D+00 0.699D+00
 Coeff:      0.301D+00 0.699D+00
 Gap=     0.307 Goal=   None    Shift=    0.000
 Gap=     0.307 Goal=   None    Shift=    0.000
 RMSDP=1.26D-06 MaxDP=3.97D-05 DE=-7.36D-08 OVMax= 7.94D-05

 Cycle  11  Pass 1  IDiag  1:
 RMSU=  1.21D-06    CP:  1.00D+00  1.05D+00
 E= -1136.43254265564     Delta-E=       -0.000000061149 Rises=F Damp=F
 DIIS: error= 5.50D-06 at cycle   3 NSaved=   3.
 NSaved= 3 IEnMin= 3 EnMin= -1136.43254265564     IErMin= 3 ErrMin= 5.50D-06
 ErrMax= 5.50D-06  0.00D+00 EMaxC= 1.00D-01 BMatC= 2.45D-08 BMatP= 1.08D-07
 IDIUse=1 WtCom= 1.00D+00 WtEn= 0.00D+00
 Coeff-Com: -0.499D-01 0.272D+00 0.778D+00
 Coeff:     -0.499D-01 0.272D+00 0.778D+00
 Gap=     0.307 Goal=   None    Shift=    0.000
 Gap=     0.307 Goal=   None    Shift=    0.000
 RMSDP=6.86D-07 MaxDP=1.31D-05 DE=-6.11D-08 OVMax= 3.42D-05

 Cycle  12  Pass 1  IDiag  1:
 RMSU=  6.01D-07    CP:  1.00D+00  1.09D+00  9.64D-01
 E= -1136.43254266601     Delta-E=       -0.000000010375 Rises=F Damp=F
 DIIS: error= 2.78D-06 at cycle   4 NSaved=   4.
 NSaved= 4 IEnMin= 4 EnMin= -1136.43254266601     IErMin= 4 ErrMin= 2.78D-06
 ErrMax= 2.78D-06  0.00D+00 EMaxC= 1.00D-01 BMatC= 3.26D-09 BMatP= 2.45D-08
 IDIUse=1 WtCom= 1.00D+00 WtEn= 0.00D+00
 Coeff-Com: -0.478D-01 0.340D-01 0.237D+00 0.777D+00
 Coeff:     -0.478D-01 0.340D-01 0.237D+00 0.777D+00
 Gap=     0.307 Goal=   None    Shift=    0.000
 Gap=     0.307 Goal=   None    Shift=    0.000
 RMSDP=3.30D-07 MaxDP=7.79D-06 DE=-1.04D-08 OVMax= 2.50D-05

 Cycle  13  Pass 1  IDiag  1:
 RMSU=  2.09D-07    CP:  1.00D+00  1.10D+00  1.11D+00  1.27D+00
 E= -1136.43254266831     Delta-E=       -0.000000002301 Rises=F Damp=F
 DIIS: error= 1.24D-06 at cycle   5 NSaved=   5.
 NSaved= 5 IEnMin= 5 EnMin= -1136.43254266831     IErMin= 5 ErrMin= 1.24D-06
 ErrMax= 1.24D-06  0.00D+00 EMaxC= 1.00D-01 BMatC= 9.67D-10 BMatP= 3.26D-09
 IDIUse=1 WtCom= 1.00D+00 WtEn= 0.00D+00
 Coeff-Com:  0.723D-02-0.105D+00-0.306D+00 0.240D+00 0.116D+01
 Coeff:      0.723D-02-0.105D+00-0.306D+00 0.240D+00 0.116D+01
 Gap=     0.307 Goal=   None    Shift=    0.000
 Gap=     0.307 Goal=   None    Shift=    0.000
 RMSDP=3.45D-07 MaxDP=8.07D-06 DE=-2.30D-09 OVMax= 2.28D-05

 Cycle  14  Pass 1  IDiag  1:
 RMSU=  8.58D-08    CP:  1.00D+00  1.11D+00  1.21D+00  1.76D+00  1.32D+00
 E= -1136.43254266942     Delta-E=       -0.000000001108 Rises=F Damp=F
 DIIS: error= 2.41D-07 at cycle   6 NSaved=   6.
 NSaved= 6 IEnMin= 6 EnMin= -1136.43254266942     IErMin= 6 ErrMin= 2.41D-07
 ErrMax= 2.41D-07  0.00D+00 EMaxC= 1.00D-01 BMatC= 6.06D-11 BMatP= 9.67D-10
 IDIUse=1 WtCom= 1.00D+00 WtEn= 0.00D+00
 Coeff-Com:  0.536D-02-0.333D-01-0.112D+00 0.214D-01 0.363D+00 0.756D+00
 Coeff:      0.536D-02-0.333D-01-0.112D+00 0.214D-01 0.363D+00 0.756D+00
 Gap=     0.307 Goal=   None    Shift=    0.000
 Gap=     0.307 Goal=   None    Shift=    0.000
 RMSDP=4.79D-08 MaxDP=1.26D-06 DE=-1.11D-09 OVMax= 4.11D-06

 Cycle  15  Pass 1  IDiag  1:
 RMSU=  2.89D-08    CP:  1.00D+00  1.11D+00  1.22D+00  1.81D+00  1.40D+00
                    CP:  1.12D+00
 E= -1136.43254266945     Delta-E=       -0.000000000028 Rises=F Damp=F
 DIIS: error= 9.01D-08 at cycle   7 NSaved=   7.
 NSaved= 7 IEnMin= 7 EnMin= -1136.43254266945     IErMin= 7 ErrMin= 9.01D-08
 ErrMax= 9.01D-08  0.00D+00 EMaxC= 1.00D-01 BMatC= 8.09D-12 BMatP= 6.06D-11
 IDIUse=1 WtCom= 1.00D+00 WtEn= 0.00D+00
 Coeff-Com:  0.163D-04 0.770D-02 0.191D-01-0.310D-01-0.866D-01 0.135D+00
 Coeff-Com:  0.955D+00
 Coeff:      0.163D-04 0.770D-02 0.191D-01-0.310D-01-0.866D-01 0.135D+00
 Coeff:      0.955D+00
 Gap=     0.307 Goal=   None    Shift=    0.000
 Gap=     0.307 Goal=   None    Shift=    0.000
 RMSDP=2.40D-08 MaxDP=5.68D-07 DE=-2.82D-11 OVMax= 1.52D-06

 Cycle  16  Pass 1  IDiag  1:
 RMSU=  1.30D-08    CP:  1.00D+00  1.11D+00  1.22D+00  1.83D+00  1.43D+00
                    CP:  1.31D+00  1.20D+00
 E= -1136.43254266946     Delta-E=       -0.000000000008 Rises=F Damp=F
 DIIS: error= 7.93D-08 at cycle   8 NSaved=   8.
 NSaved= 8 IEnMin= 8 EnMin= -1136.43254266946     IErMin= 8 ErrMin= 7.93D-08
 ErrMax= 7.93D-08  0.00D+00 EMaxC= 1.00D-01 BMatC= 3.35D-12 BMatP= 8.09D-12
 IDIUse=1 WtCom= 1.00D+00 WtEn= 0.00D+00
 Coeff-Com: -0.118D-02 0.113D-01 0.345D-01-0.193D-01-0.121D+00-0.113D+00
 Coeff-Com:  0.478D+00 0.731D+00
 Coeff:     -0.118D-02 0.113D-01 0.345D-01-0.193D-01-0.121D+00-0.113D+00
 Coeff:      0.478D+00 0.731D+00
 Gap=     0.307 Goal=   None    Shift=    0.000
 Gap=     0.307 Goal=   None    Shift=    0.000
 RMSDP=1.02D-08 MaxDP=2.31D-07 DE=-7.73D-12 OVMax= 6.64D-07

 Cycle  17  Pass 1  IDiag  1:
 RMSU=  5.15D-09    CP:  1.00D+00  1.11D+00  1.23D+00  1.83D+00  1.45D+00
                    CP:  1.38D+00  1.40D+00  1.03D+00
 E= -1136.43254266945     Delta-E=        0.000000000008 Rises=F Damp=F
 DIIS: error= 1.33D-08 at cycle   9 NSaved=   9.
 NSaved= 9 IEnMin= 8 EnMin= -1136.43254266946     IErMin= 9 ErrMin= 1.33D-08
 ErrMax= 1.33D-08  0.00D+00 EMaxC= 1.00D-01 BMatC= 2.00D-13 BMatP= 3.35D-12
 IDIUse=1 WtCom= 1.00D+00 WtEn= 0.00D+00
 Coeff-Com: -0.360D-03 0.253D-02 0.817D-02-0.262D-02-0.266D-01-0.530D-01
 Coeff-Com:  0.536D-01 0.182D+00 0.836D+00
 Coeff:     -0.360D-03 0.253D-02 0.817D-02-0.262D-02-0.266D-01-0.530D-01
 Coeff:      0.536D-01 0.182D+00 0.836D+00
 Gap=     0.307 Goal=   None    Shift=    0.000
 Gap=     0.307 Goal=   None    Shift=    0.000
 RMSDP=3.09D-09 MaxDP=7.07D-08 DE= 8.19D-12 OVMax= 1.94D-07

 SCF Done:  E(ULC-wPBE) =  -1136.43254267     A.U. after   17 cycles
            NFock= 17  Conv=0.31D-08     -V/T= 2.0037
 <Sx>= 0.0000 <Sy>= 0.0000 <Sz>= 0.0000 <S**2>=-0.0000 S=-0.0000
 <L.S>= 0.000000000000E+00
 KE= 1.132297286404D+03 PE=-3.964444248900D+03 EE= 1.055202455794D+03
 Annihilation of the first spin contaminant:
 S**2 before annihilation    -0.0000,   after     0.0000
 Leave Link  502 at Fri Jul 24 08:40:51 2020, MaxMem=  4026531840 cpu:             255.7 elap:              32.1
 (Enter /opt/ohpc/pub/libs/gaussian/g16-A.03/sandybridge/g16/l601.exe)
 Copying SCF densities to generalized density rwf, IOpCl= 1 IROHF=0.

 **********************************************************************

            Population analysis using the SCF density.

 **********************************************************************

 Orbital symmetries:
 Alpha Orbitals:
       Occupied  (A) (A) (A) (A) (A) (A) (A) (A) (A) (A) (A) (A)
                 (A) (A) (A) (A) (A) (A) (A) (A) (A) (A) (A) (A)
                 (A) (A) (A) (A) (A) (A) (A) (A) (A) (A) (A) (A)
                 (A) (A) (A) (A) (A) (A) (A)
       Virtual   (A) (A) (A) (A) (A) (A) (A) (A) (A) (A) (A) (A)
                 (A) (A) (A) (A) (A) (A) (A) (A) (A) (A) (A) (A)
                 (A) (A) (A) (A) (A) (A) (A) (A) (A) (A) (A) (A)
                 (A) (A) (A) (A) (A) (A) (A) (A) (A) (A) (A) (A)
                 (A) (A) (A) (A) (A) (A) (A) (A) (A) (A) (A) (A)
                 (A) (A) (A) (A) (A) (A) (A) (A) (A) (A) (A) (A)
                 (A) (A) (A) (A) (A) (A) (A) (A) (A) (A) (A) (A)
                 (A) (A) (A) (A) (A) (A) (A) (A) (A) (A) (A) (A)
                 (A) (A) (A) (A) (A) (A) (A) (A) (A) (A) (A) (A)
                 (A) (A) (A) (A) (A) (A) (A) (A) (A) (A) (A) (A)
                 (A) (A) (A) (A) (A)
 Beta  Orbitals:
       Occupied  (A) (A) (A) (A) (A) (A) (A) (A) (A) (A) (A) (A)
                 (A) (A) (A) (A) (A) (A) (A) (A) (A) (A) (A) (A)
                 (A) (A) (A) (A) (A) (A) (A) (A) (A) (A) (A) (A)
                 (A) (A) (A) (A) (A) (A) (A)
       Virtual   (A) (A) (A) (A) (A) (A) (A) (A) (A) (A) (A) (A)
                 (A) (A) (A) (A) (A) (A) (A) (A) (A) (A) (A) (A)
                 (A) (A) (A) (A) (A) (A) (A) (A) (A) (A) (A) (A)
                 (A) (A) (A) (A) (A) (A) (A) (A) (A) (A) (A) (A)
                 (A) (A) (A) (A) (A) (A) (A) (A) (A) (A) (A) (A)
                 (A) (A) (A) (A) (A) (A) (A) (A) (A) (A) (A) (A)
                 (A) (A) (A) (A) (A) (A) (A) (A) (A) (A) (A) (A)
                 (A) (A) (A) (A) (A) (A) (A) (A) (A) (A) (A) (A)
                 (A) (A) (A) (A) (A) (A) (A) (A) (A) (A) (A) (A)
                 (A) (A) (A) (A) (A) (A) (A) (A) (A) (A) (A) (A)
                 (A) (A) (A) (A) (A)
 The electronic state is 1-A.
 Alpha  occ. eigenvalues --  -88.35733 -88.35139 -14.24431 -14.23812 -10.21843
 Alpha  occ. eigenvalues --  -10.21812 -10.17252 -10.17154 -10.17057 -10.16543
 Alpha  occ. eigenvalues --   -7.96512  -7.95757  -5.97887  -5.97375  -5.97167
 Alpha  occ. eigenvalues --   -5.97164  -5.96671  -5.96369  -1.14449  -1.12659
 Alpha  occ. eigenvalues --   -0.98080  -0.96419  -0.93974  -0.86524  -0.77138
 Alpha  occ. eigenvalues --   -0.75570  -0.71359  -0.67359  -0.65703  -0.61393
 Alpha  occ. eigenvalues --   -0.58382  -0.57936  -0.54988  -0.54326  -0.53120
 Alpha  occ. eigenvalues --   -0.48402  -0.48250  -0.41635  -0.41374  -0.41231
 Alpha  occ. eigenvalues --   -0.40435  -0.39294  -0.31388
 Alpha virt. eigenvalues --   -0.00672   0.08309   0.11955   0.13322   0.13567
 Alpha virt. eigenvalues --    0.16518   0.16802   0.18348   0.19138   0.22127
 Alpha virt. eigenvalues --    0.22892   0.24289   0.29818   0.33732   0.35677
 Alpha virt. eigenvalues --    0.39206   0.40029   0.44575   0.47850   0.50952
 Alpha virt. eigenvalues --    0.52992   0.54539   0.55081   0.55798   0.57017
 Alpha virt. eigenvalues --    0.57361   0.58109   0.58236   0.58759   0.59368
 Alpha virt. eigenvalues --    0.60158   0.60380   0.60520   0.63969   0.64565
 Alpha virt. eigenvalues --    0.67769   0.68045   0.68744   0.70652   0.71822
 Alpha virt. eigenvalues --    0.72320   0.76116   0.76258   0.77107   0.77291
 Alpha virt. eigenvalues --    0.78022   0.79733   0.82935   0.83653   0.85461
 Alpha virt. eigenvalues --    0.90023   0.92996   0.97956   0.99169   0.99942
 Alpha virt. eigenvalues --    1.00509   1.00745   1.02191   1.02231   1.06882
 Alpha virt. eigenvalues --    1.08907   1.10804   1.11118   1.12525   1.13467
 Alpha virt. eigenvalues --    1.15952   1.18239   1.19184   1.19428   1.20257
 Alpha virt. eigenvalues --    1.22640   1.23909   1.26624   1.33819   1.36533
 Alpha virt. eigenvalues --    1.39584   1.40131   1.42329   1.46491   1.50313
 Alpha virt. eigenvalues --    1.54414   1.56958   1.60484   1.62466   1.64168
 Alpha virt. eigenvalues --    1.68800   1.72390   1.73317   1.74508   1.74959
 Alpha virt. eigenvalues --    1.76476   1.76633   1.81352   1.85135   1.85547
 Alpha virt. eigenvalues --    1.88495   1.90261   1.93256   1.94899   2.03592
 Alpha virt. eigenvalues --    2.03886   2.05120   2.07826   2.10113   2.13448
 Alpha virt. eigenvalues --    2.15636   2.18996   2.23949   2.33840   2.38141
 Alpha virt. eigenvalues --    2.40822   2.44158   2.46254   2.50091   2.55662
 Alpha virt. eigenvalues --    2.56452   2.62670   2.66711   2.70911   2.81783
 Alpha virt. eigenvalues --    2.86677   2.94458   3.00866   3.16361   3.20852
  Beta  occ. eigenvalues --  -88.35733 -88.35139 -14.24431 -14.23812 -10.21843
  Beta  occ. eigenvalues --  -10.21812 -10.17252 -10.17154 -10.17057 -10.16543
  Beta  occ. eigenvalues --   -7.96512  -7.95757  -5.97887  -5.97375  -5.97167
  Beta  occ. eigenvalues --   -5.97164  -5.96671  -5.96369  -1.14449  -1.12659
  Beta  occ. eigenvalues --   -0.98080  -0.96419  -0.93974  -0.86524  -0.77138
  Beta  occ. eigenvalues --   -0.75570  -0.71359  -0.67359  -0.65703  -0.61393
  Beta  occ. eigenvalues --   -0.58382  -0.57936  -0.54988  -0.54326  -0.53120
  Beta  occ. eigenvalues --   -0.48402  -0.48250  -0.41635  -0.41374  -0.41231
  Beta  occ. eigenvalues --   -0.40435  -0.39294  -0.31388
  Beta virt. eigenvalues --   -0.00672   0.08309   0.11955   0.13322   0.13567
  Beta virt. eigenvalues --    0.16518   0.16802   0.18348   0.19138   0.22127
  Beta virt. eigenvalues --    0.22892   0.24289   0.29818   0.33732   0.35677
  Beta virt. eigenvalues --    0.39206   0.40029   0.44575   0.47850   0.50952
  Beta virt. eigenvalues --    0.52992   0.54539   0.55081   0.55798   0.57017
  Beta virt. eigenvalues --    0.57361   0.58109   0.58236   0.58759   0.59368
  Beta virt. eigenvalues --    0.60158   0.60380   0.60520   0.63969   0.64565
  Beta virt. eigenvalues --    0.67769   0.68045   0.68744   0.70652   0.71822
  Beta virt. eigenvalues --    0.72320   0.76116   0.76258   0.77107   0.77291
  Beta virt. eigenvalues --    0.78022   0.79733   0.82935   0.83653   0.85461
  Beta virt. eigenvalues --    0.90023   0.92996   0.97956   0.99169   0.99942
  Beta virt. eigenvalues --    1.00509   1.00745   1.02191   1.02231   1.06882
  Beta virt. eigenvalues --    1.08907   1.10804   1.11118   1.12525   1.13467
  Beta virt. eigenvalues --    1.15952   1.18239   1.19184   1.19428   1.20257
  Beta virt. eigenvalues --    1.22640   1.23909   1.26624   1.33819   1.36533
  Beta virt. eigenvalues --    1.39584   1.40131   1.42329   1.46491   1.50313
  Beta virt. eigenvalues --    1.54414   1.56958   1.60484   1.62466   1.64168
  Beta virt. eigenvalues --    1.68800   1.72390   1.73317   1.74508   1.74959
  Beta virt. eigenvalues --    1.76476   1.76633   1.81352   1.85135   1.85547
  Beta virt. eigenvalues --    1.88495   1.90261   1.93256   1.94899   2.03592
  Beta virt. eigenvalues --    2.03886   2.05120   2.07826   2.10113   2.13448
  Beta virt. eigenvalues --    2.15636   2.18996   2.23949   2.33840   2.38141
  Beta virt. eigenvalues --    2.40822   2.44158   2.46254   2.50091   2.55662
  Beta virt. eigenvalues --    2.56452   2.62670   2.66711   2.70911   2.81783
  Beta virt. eigenvalues --    2.86677   2.94458   3.00866   3.16361   3.20852
          Condensed to atoms (all electrons):
               1          2          3          4          5          6
     1  C    5.012374   0.550723  -0.054559  -0.094209   0.372945   0.004124
     2  C    0.550723   4.640235   0.567463  -0.152810  -0.093652   0.004167
     3  N   -0.054559   0.567463   6.227901   0.582809  -0.082333  -0.045493
     4  C   -0.094209  -0.152810   0.582809   5.148609   0.357871   0.275685
     5  S    0.372945  -0.093652  -0.082333   0.357871  15.277534  -0.065893
     6  C    0.004124   0.004167  -0.045493   0.275685  -0.065893   5.116530
     7  N    0.000253  -0.000081   0.000554  -0.043337   0.006202   0.624630
     8  C    0.000010   0.000002  -0.000084   0.004090   0.000026  -0.148533
     9  C    0.000002   0.000011   0.000318   0.004007   0.000052  -0.084955
    10  S    0.000062   0.000053   0.006415  -0.062505   0.004383   0.344269
    11  H    0.413376  -0.015228   0.004412   0.003045  -0.035398  -0.000192
    12  H   -0.049942   0.410402  -0.021363   0.003416   0.006030  -0.000535
    13  H   -0.000000  -0.000000   0.000003  -0.000598  -0.000010   0.003676
    14  H   -0.000000   0.000000   0.000001  -0.000148   0.000000   0.002654
               7          8          9         10         11         12
     1  C    0.000253   0.000010   0.000002   0.000062   0.413376  -0.049942
     2  C   -0.000081   0.000002   0.000011   0.000053  -0.015228   0.410402
     3  N    0.000554  -0.000084   0.000318   0.006415   0.004412  -0.021363
     4  C   -0.043337   0.004090   0.004007  -0.062505   0.003045   0.003416
     5  S    0.006202   0.000026   0.000052   0.004383  -0.035398   0.006030
     6  C    0.624630  -0.148533  -0.084955   0.344269  -0.000192  -0.000535
     7  N    6.174665   0.566614  -0.058107  -0.089186   0.000001   0.000003
     8  C    0.566614   4.666682   0.539236  -0.091137   0.000000  -0.000000
     9  C   -0.058107   0.539236   5.043558   0.363996  -0.000000  -0.000000
    10  S   -0.089186  -0.091137   0.363996  15.326437   0.000002  -0.000008
    11  H    0.000001   0.000000  -0.000000   0.000002   0.625631  -0.004566
    12  H    0.000003  -0.000000  -0.000000  -0.000008  -0.004566   0.628934
    13  H   -0.020969   0.410018  -0.047486   0.004556  -0.000000  -0.000000
    14  H    0.004247  -0.015872   0.408482  -0.030639  -0.000000  -0.000000
              13         14
     1  C   -0.000000  -0.000000
     2  C   -0.000000   0.000000
     3  N    0.000003   0.000001
     4  C   -0.000598  -0.000148
     5  S   -0.000010   0.000000
     6  C    0.003676   0.002654
     7  N   -0.020969   0.004247
     8  C    0.410018  -0.015872
     9  C   -0.047486   0.408482
    10  S    0.004556  -0.030639
    11  H   -0.000000  -0.000000
    12  H   -0.000000  -0.000000
    13  H    0.624512  -0.003221
    14  H   -0.003221   0.601914
          Atomic-Atomic Spin Densities.
               1          2          3          4          5          6
     1  C    0.000000   0.000000   0.000000   0.000000  -0.000000   0.000000
     2  C    0.000000  -0.000000   0.000000  -0.000000   0.000000  -0.000000
     3  N    0.000000   0.000000   0.000000  -0.000000  -0.000000  -0.000000
     4  C    0.000000  -0.000000  -0.000000   0.000000   0.000000  -0.000000
     5  S   -0.000000   0.000000  -0.000000   0.000000   0.000000  -0.000000
     6  C    0.000000  -0.000000  -0.000000  -0.000000  -0.000000  -0.000000
     7  N    0.000000  -0.000000  -0.000000  -0.000000  -0.000000   0.000000
     8  C    0.000000  -0.000000  -0.000000  -0.000000   0.000000   0.000000
     9  C   -0.000000   0.000000  -0.000000  -0.000000  -0.000000   0.000000
    10  S    0.000000   0.000000   0.000000  -0.000000  -0.000000  -0.000000
    11  H   -0.000000   0.000000   0.000000   0.000000   0.000000   0.000000
    12  H    0.000000  -0.000000   0.000000  -0.000000  -0.000000  -0.000000
    13  H    0.000000  -0.000000   0.000000   0.000000  -0.000000  -0.000000
    14  H    0.000000  -0.000000  -0.000000  -0.000000  -0.000000  -0.000000
               7          8          9         10         11         12
     1  C    0.000000   0.000000  -0.000000   0.000000  -0.000000   0.000000
     2  C   -0.000000  -0.000000   0.000000   0.000000   0.000000  -0.000000
     3  N   -0.000000  -0.000000  -0.000000   0.000000   0.000000   0.000000
     4  C   -0.000000  -0.000000  -0.000000  -0.000000   0.000000  -0.000000
     5  S   -0.000000   0.000000  -0.000000  -0.000000   0.000000  -0.000000
     6  C    0.000000   0.000000   0.000000  -0.000000   0.000000  -0.000000
     7  N   -0.000000  -0.000000  -0.000000   0.000000  -0.000000  -0.000000
     8  C   -0.000000   0.000000  -0.000000  -0.000000   0.000000   0.000000
     9  C   -0.000000  -0.000000  -0.000000  -0.000000  -0.000000  -0.000000
    10  S    0.000000  -0.000000  -0.000000   0.000000   0.000000   0.000000
    11  H   -0.000000   0.000000  -0.000000   0.000000  -0.000000   0.000000
    12  H   -0.000000   0.000000  -0.000000   0.000000   0.000000  -0.000000
    13  H    0.000000  -0.000000   0.000000  -0.000000   0.000000   0.000000
    14  H    0.000000  -0.000000  -0.000000  -0.000000  -0.000000  -0.000000
              13         14
     1  C    0.000000   0.000000
     2  C   -0.000000  -0.000000
     3  N    0.000000  -0.000000
     4  C    0.000000  -0.000000
     5  S   -0.000000  -0.000000
     6  C   -0.000000  -0.000000
     7  N    0.000000   0.000000
     8  C   -0.000000  -0.000000
     9  C    0.000000  -0.000000
    10  S   -0.000000  -0.000000
    11  H    0.000000  -0.000000
    12  H    0.000000  -0.000000
    13  H   -0.000000   0.000000
    14  H    0.000000   0.000000
 Mulliken charges and spin densities:
               1          2
     1  C   -0.155158   0.000000
     2  C    0.088715  -0.000000
     3  N   -0.186044   0.000000
     4  C   -0.025925  -0.000000
     5  S    0.252243   0.000000
     6  C   -0.030132   0.000000
     7  N   -0.165488  -0.000000
     8  C    0.068948   0.000000
     9  C   -0.169112  -0.000000
    10  S    0.223303   0.000000
    11  H    0.008918  -0.000000
    12  H    0.027631  -0.000000
    13  H    0.029519  -0.000000
    14  H    0.032582   0.000000
 Sum of Mulliken charges =  -0.00000  -0.00000
 Mulliken charges and spin densities with hydrogens summed into heavy atoms:
               1          2
     1  C   -0.146240   0.000000
     2  C    0.116345  -0.000000
     3  N   -0.186044   0.000000
     4  C   -0.025925  -0.000000
     5  S    0.252243   0.000000
     6  C   -0.030132   0.000000
     7  N   -0.165488  -0.000000
     8  C    0.098467   0.000000
     9  C   -0.136530  -0.000000
    10  S    0.223303   0.000000
 Electronic spatial extent (au):  <R**2>=           1915.3008
 Charge=             -0.0000 electrons
 Dipole moment (field-independent basis, Debye):
    X=             -0.2537    Y=             -0.2827    Z=             -0.0488  Tot=              0.3829
 Quadrupole moment (field-independent basis, Debye-Ang):
   XX=            -51.6336   YY=            -71.8536   ZZ=            -73.3567
   XY=              0.7362   XZ=              0.1008   YZ=              0.0586
 Traceless Quadrupole moment (field-independent basis, Debye-Ang):
   XX=             13.9811   YY=             -6.2390   ZZ=             -7.7421
   XY=              0.7362   XZ=              0.1008   YZ=              0.0586
 Octapole moment (field-independent basis, Debye-Ang**2):
  XXX=             -1.5658  YYY=             -1.4639  ZZZ=             -0.1045  XYY=             -0.3548
  XXY=             -0.7957  XXZ=              0.3947  XZZ=             -0.6348  YZZ=             -0.3251
  YYZ=             -0.3971  XYZ=              0.3349
 Hexadecapole moment (field-independent basis, Debye-Ang**3):
 XXXX=          -1643.6583 YYYY=           -542.8605 ZZZZ=            -81.5037 XXXY=              3.5401
 XXXZ=              2.1267 YYYX=            -10.1576 YYYZ=              0.5642 ZZZX=             -0.1632
 ZZZY=              0.2073 XXYY=           -373.7721 XXZZ=           -374.5919 YYZZ=           -107.1969
 XXYZ=              1.5435 YYXZ=             -0.5810 ZZXY=              4.1204
 N-N= 6.405119640326D+02 E-N=-3.964444249129D+03  KE= 1.132297286404D+03
                          Isotropic Fermi Contact Couplings
        Atom                 a.u.       MegaHertz       Gauss      10(-4) cm-1
     1  C(13)              0.00000       0.00000       0.00000       0.00000
     2  C(13)             -0.00000      -0.00000      -0.00000      -0.00000
     3  N(14)              0.00000       0.00000       0.00000       0.00000
     4  C(13)              0.00000       0.00000       0.00000       0.00000
     5  S(33)              0.00000       0.00000       0.00000       0.00000
     6  C(13)              0.00000       0.00000       0.00000       0.00000
     7  N(14)             -0.00000      -0.00000      -0.00000      -0.00000
     8  C(13)              0.00000       0.00000       0.00000       0.00000
     9  C(13)              0.00000       0.00000       0.00000       0.00000
    10  S(33)              0.00000       0.00000       0.00000       0.00000
    11  H(1)              -0.00000      -0.00000      -0.00000      -0.00000
    12  H(1)               0.00000       0.00000       0.00000       0.00000
    13  H(1)              -0.00000      -0.00000      -0.00000      -0.00000
    14  H(1)               0.00000       0.00000       0.00000       0.00000
 --------------------------------------------------------
       Center         ----  Spin Dipole Couplings  ----
                      3XX-RR        3YY-RR        3ZZ-RR
 --------------------------------------------------------
     1   Atom        0.000000      0.000000      0.000000
     2   Atom        0.000000      0.000000      0.000000
     3   Atom        0.000000      0.000000      0.000000
     4   Atom        0.000000      0.000000      0.000000
     5   Atom        0.000000      0.000000      0.000000
     6   Atom        0.000000      0.000000      0.000000
     7   Atom        0.000000      0.000000      0.000000
     8   Atom        0.000000      0.000000      0.000000
     9   Atom        0.000000      0.000000      0.000000
    10   Atom        0.000000      0.000000      0.000000
    11   Atom        0.000000      0.000000      0.000000
    12   Atom        0.000000      0.000000      0.000000
    13   Atom        0.000000      0.000000      0.000000
    14   Atom        0.000000      0.000000      0.000000
 --------------------------------------------------------
                        XY            XZ            YZ
 --------------------------------------------------------
     1   Atom        0.000000      0.000000      0.000000
     2   Atom        0.000000      0.000000      0.000000
     3   Atom        0.000000      0.000000      0.000000
     4   Atom        0.000000      0.000000      0.000000
     5   Atom        0.000000      0.000000      0.000000
     6   Atom        0.000000      0.000000      0.000000
     7   Atom        0.000000      0.000000      0.000000
     8   Atom        0.000000      0.000000      0.000000
     9   Atom        0.000000      0.000000      0.000000
    10   Atom        0.000000      0.000000      0.000000
    11   Atom        0.000000      0.000000      0.000000
    12   Atom        0.000000      0.000000      0.000000
    13   Atom        0.000000      0.000000      0.000000
    14   Atom        0.000000      0.000000      0.000000
 --------------------------------------------------------


 ---------------------------------------------------------------------------------
              Anisotropic Spin Dipole Couplings in Principal Axis System
 ---------------------------------------------------------------------------------

       Atom             a.u.   MegaHertz   Gauss  10(-4) cm-1        Axes

              Baa     0.0000     0.000     0.000     0.000  1.0000  0.0000  0.0000
     1 C(13)  Bbb     0.0000     0.000     0.000     0.000 -0.0000  1.0000  0.0000
              Bcc     0.0000     0.000     0.000     0.000  0.0000  0.0000  1.0000
 
              Baa     0.0000     0.000     0.000     0.000  1.0000  0.0000  0.0000
     2 C(13)  Bbb     0.0000     0.000     0.000     0.000 -0.0000  1.0000  0.0000
              Bcc     0.0000     0.000     0.000     0.000  0.0000  0.0000  1.0000
 
              Baa     0.0000     0.000     0.000     0.000  1.0000  0.0000  0.0000
     3 N(14)  Bbb     0.0000     0.000     0.000     0.000 -0.0000  1.0000  0.0000
              Bcc     0.0000     0.000     0.000     0.000  0.0000  0.0000  1.0000
 
              Baa     0.0000     0.000     0.000     0.000  1.0000  0.0000  0.0000
     4 C(13)  Bbb     0.0000     0.000     0.000     0.000 -0.0000  1.0000  0.0000
              Bcc     0.0000     0.000     0.000     0.000  0.0000  0.0000  1.0000
 
              Baa     0.0000     0.000     0.000     0.000  1.0000  0.0000  0.0000
     5 S(33)  Bbb     0.0000     0.000     0.000     0.000 -0.0000  1.0000  0.0000
              Bcc     0.0000     0.000     0.000     0.000  0.0000  0.0000  1.0000
 
              Baa     0.0000     0.000     0.000     0.000  1.0000  0.0000  0.0000
     6 C(13)  Bbb     0.0000     0.000     0.000     0.000 -0.0000  1.0000  0.0000
              Bcc     0.0000     0.000     0.000     0.000  0.0000  0.0000  1.0000
 
              Baa     0.0000     0.000     0.000     0.000  1.0000  0.0000  0.0000
     7 N(14)  Bbb     0.0000     0.000     0.000     0.000 -0.0000  1.0000  0.0000
              Bcc     0.0000     0.000     0.000     0.000  0.0000  0.0000  1.0000
 
              Baa     0.0000     0.000     0.000     0.000  1.0000  0.0000  0.0000
     8 C(13)  Bbb     0.0000     0.000     0.000     0.000 -0.0000  1.0000  0.0000
              Bcc     0.0000     0.000     0.000     0.000  0.0000  0.0000  1.0000
 
              Baa     0.0000     0.000     0.000     0.000  1.0000  0.0000  0.0000
     9 C(13)  Bbb     0.0000     0.000     0.000     0.000 -0.0000  1.0000  0.0000
              Bcc     0.0000     0.000     0.000     0.000  0.0000  0.0000  1.0000
 
              Baa     0.0000     0.000     0.000     0.000  1.0000  0.0000  0.0000
    10 S(33)  Bbb     0.0000     0.000     0.000     0.000 -0.0000  1.0000  0.0000
              Bcc     0.0000     0.000     0.000     0.000  0.0000  0.0000  1.0000
 
              Baa     0.0000     0.000     0.000     0.000  1.0000  0.0000  0.0000
    11 H(1)   Bbb     0.0000     0.000     0.000     0.000 -0.0000  1.0000  0.0000
              Bcc     0.0000     0.000     0.000     0.000  0.0000  0.0000  1.0000
 
              Baa     0.0000     0.000     0.000     0.000  1.0000  0.0000  0.0000
    12 H(1)   Bbb     0.0000     0.000     0.000     0.000 -0.0000  1.0000  0.0000
              Bcc     0.0000     0.000     0.000     0.000  0.0000  0.0000  1.0000
 
              Baa     0.0000     0.000     0.000     0.000  1.0000  0.0000  0.0000
    13 H(1)   Bbb     0.0000     0.000     0.000     0.000 -0.0000  1.0000  0.0000
              Bcc     0.0000     0.000     0.000     0.000  0.0000  0.0000  1.0000
 
              Baa     0.0000     0.000     0.000     0.000  1.0000  0.0000  0.0000
    14 H(1)   Bbb     0.0000     0.000     0.000     0.000 -0.0000  1.0000  0.0000
              Bcc     0.0000     0.000     0.000     0.000  0.0000  0.0000  1.0000
 

 ---------------------------------------------------------------------------------

 No NMR shielding tensors so no spin-rotation constants.
 Leave Link  601 at Fri Jul 24 08:40:51 2020, MaxMem=  4026531840 cpu:               1.0 elap:               0.1
 (Enter /opt/ohpc/pub/libs/gaussian/g16-A.03/sandybridge/g16/l701.exe)
 ... and contract with generalized density number  0.
 Compute integral first derivatives.
 Leave Link  701 at Fri Jul 24 08:40:51 2020, MaxMem=  4026531840 cpu:               1.3 elap:               0.2
 (Enter /opt/ohpc/pub/libs/gaussian/g16-A.03/sandybridge/g16/l702.exe)
 L702 exits ... SP integral derivatives will be done elsewhere.
 Leave Link  702 at Fri Jul 24 08:40:51 2020, MaxMem=  4026531840 cpu:               0.2 elap:               0.0
 (Enter /opt/ohpc/pub/libs/gaussian/g16-A.03/sandybridge/g16/l703.exe)
 Integral derivatives from FoFJK, PRISM(SPDF).
 Compute integral first derivatives, UseDBF=F ICtDFT=           0.
 Calling FoFJK, ICntrl=      2127 FMM=F ISym2X=0 I1Cent= 0 IOpClX= 1 NMat=1 NMatS=1 NMatT=0.
 FoFJK:  IHMeth= 1 ICntrl=    2127 DoSepK=T KAlg= 0 I1Cent=           0 FoldK=F
 IRaf=         1 NMat=       1 IRICut=       1 DoRegI=T DoRafI=F ISym2E= 0 IDoP0=0 IntGTp=1.
 FoFCou: FMM=F IPFlag=           0 FMFlag=      100000 FMFlg1=         800
         NFxFlg=           0 DoJE=F BraDBF=F KetDBF=F FulRan=T
         wScrn=  0.000000 ICntrl=      2527 IOpCl=  0 I1Cent=           0 NGrid=           0
         NMat0=    1 NMatS0=      1 NMatT0=    0 NMatD0=    1 NMtDS0=    0 NMtDT0=    0
 Symmetry not used in FoFCou.
 Leave Link  703 at Fri Jul 24 08:40:57 2020, MaxMem=  4026531840 cpu:              48.9 elap:               6.1
 (Enter /opt/ohpc/pub/libs/gaussian/g16-A.03/sandybridge/g16/l716.exe)
 Dipole        =-9.98021342D-02-1.11215241D-01-1.92017802D-02
 ***** Axes restored to original set *****
 -------------------------------------------------------------------
 Center     Atomic                   Forces (Hartrees/Bohr)
 Number     Number              X              Y              Z
 -------------------------------------------------------------------
      1        6           0.094127870   -0.058825345    0.006100868
      2        6          -0.077936717    0.020802513   -0.009067238
      3        7           0.057922766    0.065910176    0.002875788
      4        6          -0.013277099   -0.037349734    0.005161169
      5       16           0.013263046   -0.004717899   -0.002374789
      6        6           0.022405992   -0.011259116   -0.005897434
      7        7          -0.066429698   -0.022645655    0.000881135
      8        6           0.074678773   -0.037400873    0.008226766
      9        6          -0.072190674    0.059444725   -0.002373188
     10       16          -0.008471320    0.029156748   -0.001209793
     11        1          -0.068374158    0.018468922   -0.000155408
     12        1           0.006133349    0.001598088    0.001421801
     13        1           0.002099693   -0.009112501   -0.004205521
     14        1           0.036048176   -0.014070048    0.000615844
 -------------------------------------------------------------------
 Cartesian Forces:  Max     0.094127870 RMS     0.036976482
 Leave Link  716 at Fri Jul 24 08:40:57 2020, MaxMem=  4026531840 cpu:               0.2 elap:               0.0
 (Enter /opt/ohpc/pub/libs/gaussian/g16-A.03/sandybridge/g16/l103.exe)

 GradGradGradGradGradGradGradGradGradGradGradGradGradGradGradGradGradGrad
 Berny optimization.
 FormGI is forming the generalized inverse of G from B-inverse, IUseBI=4.
 Internal  Forces:  Max     0.070824749 RMS     0.018522196
 Search for a local minimum.
 Step number   1 out of a maximum of   75
 All quantities printed in internal units (Hartrees-Bohrs-Radians)
 RMS Force = .18522D-01 SwitMx=.10000D-02 MixMth= 1
 Mixed Optimization -- RFO/linear search
 Second derivative matrix not updated -- first step.
 ITU=  0
     Eigenvalues ---    0.01239   0.01368   0.01493   0.01514   0.01585
     Eigenvalues ---    0.01687   0.01839   0.02070   0.02175   0.02343
     Eigenvalues ---    0.02466   0.15951   0.15971   0.15988   0.15991
     Eigenvalues ---    0.22471   0.22489   0.24708   0.24708   0.24968
     Eigenvalues ---    0.24977   0.26967   0.32259   0.32965   0.33604
     Eigenvalues ---    0.33723   0.36284   0.36435   0.39121   0.40895
     Eigenvalues ---    0.41280   0.46310   0.47566   0.58681   0.63017
     Eigenvalues ---    0.63962
 RFO step:  Lambda=-4.67278516D-02 EMin= 1.23855941D-02
 Linear search not attempted -- first point.
 Maximum step size (   0.300) exceeded in Quadratic search.
    -- Step size scaled by   0.939
 Iteration  1 RMS(Cart)=  0.03335577 RMS(Int)=  0.00086201
 Iteration  2 RMS(Cart)=  0.00094169 RMS(Int)=  0.00037652
 Iteration  3 RMS(Cart)=  0.00000090 RMS(Int)=  0.00037652
 ITry= 1 IFail=0 DXMaxC= 1.11D-01 DCOld= 1.00D+10 DXMaxT= 3.00D-01 DXLimC= 3.00D+00 Rises=F
 Variable       Old X    -DE/DX   Delta X   Delta X   Delta X     New X
                                 (Linear)    (Quad)   (Total)
    R1        2.68208  -0.04363   0.00000  -0.08340  -0.08308   2.59900
    R2        3.19069   0.00767   0.00000   0.01806   0.01816   3.20885
    R3        1.90483   0.07082   0.00000   0.13044   0.13044   2.03527
    R4        2.46866   0.03952   0.00000   0.05416   0.05432   2.52297
    R5        2.07800  -0.00501   0.00000  -0.01224  -0.01224   2.06576
    R6        2.60782  -0.05630   0.00000  -0.10018  -0.10039   2.50743
    R7        3.25564  -0.01383   0.00000  -0.03824  -0.03855   3.21709
    R8        2.76707  -0.01279   0.00000  -0.02922  -0.02922   2.73786
    R9        2.49897  -0.02531   0.00000  -0.03501  -0.03523   2.46374
   R10        3.37366  -0.03175   0.00000  -0.09535  -0.09539   3.27827
   R11        2.46210   0.05033   0.00000   0.06820   0.06807   2.53017
   R12        2.70711  -0.05503   0.00000  -0.11327  -0.11316   2.59395
   R13        2.08003  -0.00673   0.00000  -0.01651  -0.01651   2.06352
   R14        3.24902  -0.01003   0.00000  -0.02720  -0.02697   3.22205
   R15        1.96551   0.03829   0.00000   0.07824   0.07824   2.04375
    A1        1.86747   0.00374   0.00000   0.02151   0.02177   1.88924
    A2        2.24950  -0.00196   0.00000  -0.01087  -0.01113   2.23837
    A3        2.16569  -0.00172   0.00000  -0.00988  -0.01016   2.15553
    A4        2.10088  -0.01876   0.00000  -0.05676  -0.05666   2.04422
    A5        2.07513   0.01353   0.00000   0.04822   0.04781   2.12294
    A6        2.10484   0.00541   0.00000   0.01120   0.01075   2.11559
    A7        1.86658   0.01624   0.00000   0.05245   0.05229   1.91887
    A8        2.00359  -0.00124   0.00000  -0.01021  -0.01076   1.99283
    A9        2.15084  -0.00027   0.00000   0.00259   0.00279   2.15363
   A10        2.12763   0.00157   0.00000   0.00840   0.00861   2.13623
   A11        1.58468   0.00017   0.00000  -0.00476  -0.00519   1.57949
   A12        2.21389  -0.00511   0.00000  -0.01596  -0.01592   2.19797
   A13        2.08829   0.00342   0.00000   0.01102   0.01107   2.09936
   A14        1.97948   0.00175   0.00000   0.00593   0.00567   1.98515
   A15        1.94957  -0.00414   0.00000  -0.00424  -0.00468   1.94490
   A16        2.05837  -0.01013   0.00000  -0.02996  -0.03009   2.02828
   A17        2.03874   0.01195   0.00000   0.04736   0.04721   2.08595
   A18        2.18224  -0.00165   0.00000  -0.01462  -0.01482   2.16742
   A19        1.87877   0.00796   0.00000   0.02528   0.02565   1.90442
   A20        2.19172   0.00136   0.00000   0.01167   0.01149   2.20321
   A21        2.21206  -0.00931   0.00000  -0.03680  -0.03699   2.17507
   A22        1.55854   0.00456   0.00000   0.00304   0.00347   1.56201
    D1       -0.06020   0.00355   0.00000   0.04427   0.04345  -0.01674
    D2       -3.12872   0.00047   0.00000   0.00240   0.00182  -3.12690
    D3        3.11553   0.00176   0.00000   0.01977   0.01906   3.13458
    D4        0.04701  -0.00132   0.00000  -0.02210  -0.02258   0.02443
    D5        0.03674  -0.00117   0.00000  -0.02476  -0.02597   0.01077
    D6       -3.13693   0.00050   0.00000  -0.00180  -0.00306  -3.13999
    D7        0.04974  -0.00242   0.00000  -0.03543  -0.03544   0.01429
    D8        3.11700   0.00102   0.00000   0.00865   0.00759   3.12459
    D9       -0.01633   0.00084   0.00000   0.01105   0.01133  -0.00500
   D10        3.07491   0.00205   0.00000   0.02851   0.02858   3.10349
   D11       -0.01388   0.00078   0.00000   0.01038   0.01024  -0.00364
   D12       -3.10586  -0.00036   0.00000  -0.00665  -0.00664  -3.11250
   D13        3.11385   0.00024   0.00000   0.00299   0.00294   3.11679
   D14        0.03578  -0.00124   0.00000  -0.01773  -0.01761   0.01817
   D15       -0.08159   0.00145   0.00000   0.02113   0.02102  -0.06058
   D16        3.12353  -0.00002   0.00000   0.00042   0.00047   3.12399
   D17       -3.07803  -0.00189   0.00000  -0.02641  -0.02634  -3.10436
   D18        0.00341  -0.00042   0.00000  -0.00657  -0.00672  -0.00331
   D19        3.08829   0.00116   0.00000   0.02054   0.02080   3.10909
   D20        0.00208   0.00013   0.00000   0.00329   0.00342   0.00551
   D21       -0.00903   0.00048   0.00000   0.00739   0.00748  -0.00155
   D22       -3.06139  -0.00147   0.00000  -0.02410  -0.02474  -3.08613
   D23        0.01033  -0.00036   0.00000  -0.00467  -0.00472   0.00561
   D24        3.11572  -0.00026   0.00000  -0.00106  -0.00086   3.11487
   D25        3.05465   0.00247   0.00000   0.03301   0.03258   3.08723
   D26       -0.12315   0.00256   0.00000   0.03662   0.03645  -0.08670
   D27       -0.00628  -0.00005   0.00000   0.00027   0.00036  -0.00592
   D28       -3.11113  -0.00044   0.00000  -0.00471  -0.00469  -3.11582
         Item               Value     Threshold  Converged?
 Maximum Force            0.070825     0.000450     NO 
 RMS     Force            0.018522     0.000300     NO 
 Maximum Displacement     0.111187     0.001800     NO 
 RMS     Displacement     0.033645     0.001200     NO 
 Predicted change in Energy=-2.562424D-02
 Lowest energy point so far.  Saving SCF results.
 GradGradGradGradGradGradGradGradGradGradGradGradGradGradGradGradGradGrad

 Leave Link  103 at Fri Jul 24 08:40:58 2020, MaxMem=  4026531840 cpu:               0.4 elap:               0.1
 (Enter /opt/ohpc/pub/libs/gaussian/g16-A.03/sandybridge/g16/l202.exe)
                          Input orientation:                          
 ---------------------------------------------------------------------
 Center     Atomic      Atomic             Coordinates (Angstroms)
 Number     Number       Type             X           Y           Z
 ---------------------------------------------------------------------
      1          6           0       -3.142329    0.075395   -0.014063
      2          6           0       -2.606747   -1.191278    0.000895
      3          7           0       -1.275331   -1.289420   -0.013015
      4          6           0       -0.732346   -0.078763   -0.021805
      5         16           0       -1.864001    1.193072   -0.020710
      6          6           0        0.697288    0.154222    0.008503
      7          7           0        1.283679    1.318193   -0.024589
      8          6           0        2.616855    1.194496   -0.028249
      9          6           0        3.106914   -0.087289    0.004256
     10         16           0        1.801395   -1.183640    0.032135
     11          1           0       -4.181008    0.360195   -0.012630
     12          1           0       -3.240557   -2.081905   -0.006044
     13          1           0        3.240356    2.090567   -0.001918
     14          1           0        4.149571   -0.373781   -0.016732
 ---------------------------------------------------------------------
                    Distance matrix (angstroms):
                    1          2          3          4          5
     1  C    0.000000
     2  C    1.375330   0.000000
     3  N    2.312661   1.335101   0.000000
     4  C    2.414920   2.179813   1.326875   0.000000
     5  S    1.698048   2.497452   2.551344   1.702413   0.000000
     6  C    3.840492   3.567502   2.444542   1.448811   2.764102
     7  N    4.597194   4.629633   3.653533   2.452723   3.150168
     8  C    5.866923   5.742717   4.617270   3.583069   4.480863
     9  C    6.251387   5.819341   4.544171   3.839358   5.133219
    10  S    5.101736   4.408260   3.078875   2.764689   4.368831
    11  H    1.077018   2.210328   3.341285   3.476498   2.462168
    12  H    2.159551   1.093152   2.119008   3.209977   3.552548
    13  H    6.693260   6.705157   5.640555   4.526450   5.182693
    14  H    7.305721   6.805619   5.501633   4.890825   6.214345
                    6          7          8          9         10
     6  C    0.000000
     7  N    1.303755   0.000000
     8  C    2.183635   1.338908   0.000000
     9  C    2.421703   2.302259   1.372657   0.000000
    10  S    1.734787   2.555468   2.514787   1.705034   0.000000
    11  H    4.882688   5.548036   6.848887   7.301666   6.178558
    12  H    4.528476   5.659481   6.711526   6.653495   5.121486
    13  H    3.196363   2.103726   1.091966   2.181949   3.576618
    14  H    3.492518   3.328089   2.192907   1.081504   2.484389
                   11         12         13         14
    11  H    0.000000
    12  H    2.616935   0.000000
    13  H    7.620429   7.707904   0.000000
    14  H    8.362851   7.584972   2.626766   0.000000
 Stoichiometry    C6H4N2S2
 Framework group  C1[X(C6H4N2S2)]
 Deg. of freedom    36
 Full point group                 C1      NOp   1
 RotChk:  IX=0 Diff= 1.20D-02
 Largest Abelian subgroup         C1      NOp   1
 Largest concise Abelian subgroup C1      NOp   1
                         Standard orientation:                         
 ---------------------------------------------------------------------
 Center     Atomic      Atomic             Coordinates (Angstroms)
 Number     Number       Type             X           Y           Z
 ---------------------------------------------------------------------
      1          6           0       -3.126910   -0.060941   -0.003245
      2          6           0       -2.588962    1.204811    0.001007
      3          7           0       -1.257429    1.300252    0.021151
      4          6           0       -0.716695    0.088570    0.015465
      5         16           0       -1.850662   -1.181004   -0.007102
      6          6           0        0.712613   -0.146666   -0.012748
      7          7           0        1.296748   -1.312079    0.006660
      8          6           0        2.630126   -1.190949    0.016911
      9          6           0        3.122644    0.090237    0.003655
     10         16           0        1.819245    1.189316   -0.014108
     11          1           0       -4.166096   -0.343743   -0.012376
     12          1           0       -3.221164    2.096450    0.017731
     13          1           0        3.252080   -2.087749   -0.019316
     14          1           0        4.165738    0.374457    0.032377
 ---------------------------------------------------------------------
 Rotational constants (GHZ):           2.7853066           0.6948054           0.5561182
 Leave Link  202 at Fri Jul 24 08:40:58 2020, MaxMem=  4026531840 cpu:               0.2 elap:               0.1
 (Enter /opt/ohpc/pub/libs/gaussian/g16-A.03/sandybridge/g16/l301.exe)
 Standard basis: CC-pVDZ (5D, 7F)
 Ernie: Thresh=  0.10000D-02 Tol=  0.10000D-05 Strict=F.
 Ernie:  36 primitive shells out of 296 were deleted.
 There are   178 symmetry adapted cartesian basis functions of A   symmetry.
 There are   168 symmetry adapted basis functions of A   symmetry.
   168 basis functions,   434 primitive gaussians,   178 cartesian basis functions
    43 alpha electrons       43 beta electrons
       nuclear repulsion energy       647.1881349376 Hartrees.
 IExCor=32609 DFT=T Ex+Corr=LC-wPBE ExCW=0 ScaHFX=  1.000000
 ScaDFX=  1.000000  0.000000  1.000000  1.000000 ScalE2=  1.000000  1.000000
 IRadAn=      5 IRanWt=     -1 IRanGd=            0 ICorTp=0 IEmpDi=  4
 HFx  wShort=  0.000000 wLong=  0.416800 cFull=  0.000000 cShort=  0.000000 cLong=  1.000000
 DFx  wShort=  0.000000 wLong=  0.416800 cFull=  0.000000 cShort=  0.000000 cLong=  1.000000
 NAtoms=   14 NActive=   14 NUniq=   14 SFac= 1.00D+00 NAtFMM=   60 NAOKFM=F Big=F
 Integral buffers will be    131072 words long.
 Raffenetti 2 integral format.
 Two-electron integral symmetry is turned on.
 Leave Link  301 at Fri Jul 24 08:40:58 2020, MaxMem=  4026531840 cpu:               0.4 elap:               0.1
 (Enter /opt/ohpc/pub/libs/gaussian/g16-A.03/sandybridge/g16/l302.exe)
 NPDir=0 NMtPBC=     1 NCelOv=     1 NCel=       1 NClECP=     1 NCelD=      1
         NCelK=      1 NCelE2=     1 NClLst=     1 CellRange=     0.0.
 One-electron integrals computed using PRISM.
 One-electron integral symmetry used in STVInt
 NBasis=   168 RedAO= T EigKep=  8.68D-04  NBF=   168
 NBsUse=   168 1.00D-06 EigRej= -1.00D+00 NBFU=   168
 Precomputing XC quadrature grid using
 IXCGrd= 4 IRadAn=           5 IRanWt=          -1 IRanGd=           0 AccXCQ= 0.00D+00.
 Generated NRdTot=       0 NPtTot=           0 NUsed=           0 NTot=          32
 NSgBfM=   178   178   178   178   178 MxSgAt=    14 MxSgA2=    14.
 Leave Link  302 at Fri Jul 24 08:40:58 2020, MaxMem=  4026531840 cpu:               1.2 elap:               0.2
 (Enter /opt/ohpc/pub/libs/gaussian/g16-A.03/sandybridge/g16/l303.exe)
 DipDrv:  MaxL=1.
 Leave Link  303 at Fri Jul 24 08:40:58 2020, MaxMem=  4026531840 cpu:               0.7 elap:               0.2
 (Enter /opt/ohpc/pub/libs/gaussian/g16-A.03/sandybridge/g16/l401.exe)
 Initial guess from the checkpoint file:  "/mnt/gpfs2_4m/scratch/rdu230/ondemand/projects/dihedral_energies/7trial/wtuning/mols_55_1_07_N-N/Gau-344208.chk"
 B after Tr=    -0.000000    0.000000    0.000000
         Rot=    0.999995   -0.000030   -0.000021   -0.003164 Ang=  -0.36 deg.
 Guess basis will be translated and rotated to current coordinates.
 JPrj=2 DoOrth=T DoCkMO=T.
 Initial guess <Sx>= 0.0000 <Sy>= 0.0000 <Sz>= 0.0000 <S**2>=-0.0000 S=-0.0000
 Generating alternative initial guess.
 ExpMin= 1.22D-01 ExpMax= 1.11D+05 ExpMxC= 1.07D+03 IAcc=2 IRadAn=         4 AccDes= 0.00D+00
 Harris functional with IExCor=32609 and IRadAn=       4 diagonalized for initial guess.
 HarFok:  IExCor=32609 AccDes= 0.00D+00 IRadAn=         4 IDoV= 1 UseB2=F ITyADJ=14
 ICtDFT=  3500011 ScaDFX=  1.000000  1.000000  1.000000  1.000000
 FoFCou: FMM=F IPFlag=           0 FMFlag=      100000 FMFlg1=           0
         NFxFlg=           0 DoJE=T BraDBF=F KetDBF=T FulRan=T
         wScrn=  0.000000 ICntrl=       500 IOpCl=  0 I1Cent=   200000004 NGrid=           0
         NMat0=    1 NMatS0=      1 NMatT0=    0 NMatD0=    1 NMtDS0=    0 NMtDT0=    0
 Petite list used in FoFCou.
 Harris En= -1136.29140981523    
 Leave Link  401 at Fri Jul 24 08:40:58 2020, MaxMem=  4026531840 cpu:               3.7 elap:               0.5
 (Enter /opt/ohpc/pub/libs/gaussian/g16-A.03/sandybridge/g16/l502.exe)
 Integral symmetry usage will be decided dynamically.
 UHF open shell SCF:
 Using DIIS extrapolation, IDIIS=  1040.
 NGot=  4026531840 LenX=  4026465158 LenY=  4026433033
 Requested convergence on RMS density matrix=1.00D-08 within 128 cycles.
 Requested convergence on MAX density matrix=1.00D-06.
 Requested convergence on             energy=1.00D-06.
 No special actions if energy rises.
 Fock matrices will be formed incrementally for  20 cycles.
 Integral accuracy reduced to 1.0D-05 until final iterations.

 Cycle   1  Pass 0  IDiag  1:
 FoFJK:  IHMeth= 1 ICntrl=       0 DoSepK=T KAlg= 0 I1Cent=           0 FoldK=F
 IRaf=         1 NMat=       1 IRICut=       1 DoRegI=T DoRafI=F ISym2E= 0 IDoP0=0 IntGTp=1.
 FoFCou: FMM=F IPFlag=           0 FMFlag=      100000 FMFlg1=           0
         NFxFlg=           0 DoJE=T BraDBF=F KetDBF=F FulRan=T
         wScrn=  0.000000 ICntrl=       500 IOpCl=  0 I1Cent=           0 NGrid=           0
         NMat0=    1 NMatS0=      1 NMatT0=    0 NMatD0=    1 NMtDS0=    0 NMtDT0=    0
 Symmetry not used in FoFCou.
 E= -1136.45175152879    
 DIIS: error= 2.64D-03 at cycle   1 NSaved=   1.
 NSaved= 1 IEnMin= 1 EnMin= -1136.45175152879     IErMin= 1 ErrMin= 2.64D-03
 ErrMax= 2.64D-03  0.00D+00 EMaxC= 1.00D-01 BMatC= 1.77D-02 BMatP= 1.77D-02
 IDIUse=3 WtCom= 9.74D-01 WtEn= 2.64D-02
 Coeff-Com:  0.100D+01
 Coeff-En:   0.100D+01
 Coeff:      0.100D+01
 Gap=     1.050 Goal=   None    Shift=    0.000
 Gap=     1.050 Goal=   None    Shift=    0.000
[...]
 Alpha virt. eigenvalues --    2.40458   2.44575   2.46298   2.51612   2.53845
 Alpha virt. eigenvalues --    2.56594   2.59980   2.61180   2.64211   2.77855
 Alpha virt. eigenvalues --    2.86962   2.95207   3.01340   3.18464   3.23805
  Beta  occ. eigenvalues --  -88.34488 -88.34486 -14.23651 -14.23651 -10.20995
  Beta  occ. eigenvalues --  -10.20980 -10.16959 -10.16959 -10.16719 -10.16718
  Beta  occ. eigenvalues --   -7.95341  -7.95339  -5.96759  -5.96756  -5.96235
  Beta  occ. eigenvalues --   -5.96233  -5.95900  -5.95897  -1.14920  -1.12748
  Beta  occ. eigenvalues --   -0.97452  -0.96019  -0.94491  -0.87808  -0.77115
  Beta  occ. eigenvalues --   -0.75143  -0.71231  -0.67013  -0.65555  -0.61698
  Beta  occ. eigenvalues --   -0.58890  -0.56828  -0.54755  -0.54592  -0.52291
  Beta  occ. eigenvalues --   -0.49419  -0.48799  -0.41648  -0.41147  -0.40576
  Beta  occ. eigenvalues --   -0.39959  -0.38891  -0.33447
  Beta virt. eigenvalues --    0.01136   0.09355   0.12725   0.13309   0.13570
  Beta virt. eigenvalues --    0.16517   0.17475   0.17768   0.19567   0.21778
  Beta virt. eigenvalues --    0.22819   0.25207   0.30691   0.35104   0.35283
  Beta virt. eigenvalues --    0.39119   0.42437   0.43356   0.48822   0.51687
  Beta virt. eigenvalues --    0.52526   0.54824   0.54866   0.55991   0.56645
  Beta virt. eigenvalues --    0.57385   0.57471   0.58285   0.58288   0.59850
  Beta virt. eigenvalues --    0.60177   0.60650   0.60885   0.63463   0.64573
  Beta virt. eigenvalues --    0.68530   0.68539   0.70079   0.71288   0.71763
  Beta virt. eigenvalues --    0.72171   0.75445   0.76794   0.77013   0.79045
  Beta virt. eigenvalues --    0.79243   0.80691   0.83738   0.84462   0.85028
  Beta virt. eigenvalues --    0.90171   0.92655   0.98201   0.99613   1.00466
  Beta virt. eigenvalues --    1.00561   1.00594   1.03809   1.05037   1.07165
  Beta virt. eigenvalues --    1.09808   1.10611   1.11366   1.12753   1.14503
  Beta virt. eigenvalues --    1.18072   1.18678   1.19441   1.21579   1.22154
  Beta virt. eigenvalues --    1.22318   1.24544   1.27390   1.34469   1.36733
  Beta virt. eigenvalues --    1.39178   1.41371   1.41797   1.45036   1.49418
  Beta virt. eigenvalues --    1.56361   1.57231   1.60685   1.62491   1.64198
  Beta virt. eigenvalues --    1.68850   1.73475   1.74994   1.76696   1.76875
  Beta virt. eigenvalues --    1.78115   1.78792   1.80042   1.83751   1.88826
  Beta virt. eigenvalues --    1.89974   1.91177   1.93828   1.94517   2.04050
  Beta virt. eigenvalues --    2.04987   2.05816   2.08776   2.10656   2.16191
  Beta virt. eigenvalues --    2.17021   2.18034   2.26883   2.35220   2.37017
  Beta virt. eigenvalues --    2.40458   2.44575   2.46298   2.51612   2.53845
  Beta virt. eigenvalues --    2.56594   2.59980   2.61180   2.64211   2.77855
  Beta virt. eigenvalues --    2.86962   2.95207   3.01340   3.18464   3.23805
          Condensed to atoms (all electrons):
               1          2          3          4          5          6
     1  C    5.038534   0.565255  -0.058010  -0.081490   0.368753   0.004593
     2  C    0.565255   4.635056   0.527436  -0.137102  -0.099584   0.004578
     3  N   -0.058010   0.527436   6.226769   0.654226  -0.099301  -0.048619
     4  C   -0.081490  -0.137102   0.654226   5.066257   0.341038   0.264130
     5  S    0.368753  -0.099584  -0.099301   0.341038  15.358195  -0.066595
     6  C    0.004593   0.004578  -0.048619   0.264130  -0.066595   5.066322
     7  N    0.000360  -0.000080   0.000630  -0.048598   0.008313   0.654270
     8  C    0.000008   0.000005  -0.000080   0.004577  -0.000177  -0.137124
     9  C    0.000003   0.000008   0.000361   0.004594   0.000041  -0.081473
    10  S    0.000041  -0.000176   0.008322  -0.066578   0.005608   0.341012
    11  H    0.401463  -0.014816   0.004329   0.002792  -0.032438  -0.000151
    12  H   -0.046413   0.415167  -0.020372   0.001790   0.005430  -0.000601
    13  H   -0.000000  -0.000000   0.000003  -0.000602  -0.000007   0.001791
    14  H   -0.000000   0.000000   0.000001  -0.000151   0.000001   0.002792
               7          8          9         10         11         12
     1  C    0.000360   0.000008   0.000003   0.000041   0.401463  -0.046413
     2  C   -0.000080   0.000005   0.000008  -0.000176  -0.014816   0.415167
     3  N    0.000630  -0.000080   0.000361   0.008322   0.004329  -0.020372
     4  C   -0.048598   0.004577   0.004594  -0.066578   0.002792   0.001790
     5  S    0.008313  -0.000177   0.000041   0.005608  -0.032438   0.005430
     6  C    0.654270  -0.137124  -0.081473   0.341012  -0.000151  -0.000601
     7  N    6.226698   0.527415  -0.058001  -0.099295   0.000001   0.000003
     8  C    0.527415   4.635130   0.565263  -0.099591   0.000000  -0.000000
     9  C   -0.058001   0.565263   5.038564   0.368695  -0.000000  -0.000000
    10  S   -0.099295  -0.099591   0.368695  15.358298   0.000001  -0.000007
    11  H    0.000001   0.000000  -0.000000   0.000001   0.590219  -0.003953
    12  H    0.000003  -0.000000  -0.000000  -0.000007  -0.003953   0.622774
    13  H   -0.020375   0.415170  -0.046417   0.005429  -0.000000  -0.000000
    14  H    0.004328  -0.014815   0.401451  -0.032432  -0.000000  -0.000000
              13         14
     1  C   -0.000000  -0.000000
     2  C   -0.000000   0.000000
     3  N    0.000003   0.000001
     4  C   -0.000602  -0.000151
     5  S   -0.000007   0.000001
     6  C    0.001791   0.002792
     7  N   -0.020375   0.004328
     8  C    0.415170  -0.014815
     9  C   -0.046417   0.401451
    10  S    0.005429  -0.032432
    11  H   -0.000000  -0.000000
    12  H   -0.000000  -0.000000
    13  H    0.622802  -0.003952
    14  H   -0.003952   0.590185
          Atomic-Atomic Spin Densities.
               1          2          3          4          5          6
     1  C   -0.000000   0.000000  -0.000000  -0.000000   0.000000  -0.000000
     2  C    0.000000   0.000000   0.000000  -0.000000  -0.000000  -0.000000
     3  N   -0.000000   0.000000   0.000000  -0.000000   0.000000   0.000000
     4  C   -0.000000  -0.000000  -0.000000  -0.000000  -0.000000   0.000000
     5  S    0.000000  -0.000000   0.000000  -0.000000  -0.000000   0.000000
     6  C   -0.000000  -0.000000   0.000000   0.000000   0.000000   0.000000
     7  N   -0.000000  -0.000000   0.000000  -0.000000  -0.000000   0.000000
     8  C    0.000000  -0.000000  -0.000000   0.000000   0.000000  -0.000000
     9  C   -0.000000   0.000000   0.000000   0.000000  -0.000000   0.000000
    10  S   -0.000000   0.000000   0.000000  -0.000000   0.000000  -0.000000
    11  H   -0.000000   0.000000  -0.000000  -0.000000   0.000000  -0.000000
    12  H   -0.000000   0.000000  -0.000000   0.000000  -0.000000   0.000000
    13  H   -0.000000   0.000000   0.000000   0.000000   0.000000   0.000000
    14  H   -0.000000   0.000000   0.000000  -0.000000   0.000000   0.000000
               7          8          9         10         11         12
     1  C   -0.000000   0.000000  -0.000000  -0.000000  -0.000000  -0.000000
     2  C   -0.000000  -0.000000   0.000000   0.000000   0.000000   0.000000
     3  N    0.000000  -0.000000   0.000000   0.000000  -0.000000  -0.000000
     4  C   -0.000000   0.000000   0.000000  -0.000000  -0.000000   0.000000
     5  S   -0.000000   0.000000  -0.000000   0.000000   0.000000  -0.000000
     6  C    0.000000  -0.000000   0.000000  -0.000000  -0.000000   0.000000
     7  N    0.000000  -0.000000   0.000000  -0.000000  -0.000000  -0.000000
     8  C   -0.000000  -0.000000   0.000000   0.000000   0.000000   0.000000
     9  C    0.000000   0.000000  -0.000000  -0.000000   0.000000  -0.000000
    10  S   -0.000000   0.000000  -0.000000   0.000000  -0.000000  -0.000000
    11  H   -0.000000   0.000000   0.000000  -0.000000  -0.000000  -0.000000
    12  H   -0.000000   0.000000  -0.000000  -0.000000  -0.000000  -0.000000
    13  H   -0.000000  -0.000000   0.000000  -0.000000  -0.000000   0.000000
    14  H    0.000000   0.000000  -0.000000  -0.000000  -0.000000   0.000000
              13         14
     1  C   -0.000000  -0.000000
     2  C    0.000000   0.000000
     3  N    0.000000   0.000000
     4  C    0.000000  -0.000000
     5  S    0.000000   0.000000
     6  C    0.000000   0.000000
     7  N   -0.000000   0.000000
     8  C   -0.000000   0.000000
     9  C    0.000000  -0.000000
    10  S   -0.000000  -0.000000
    11  H   -0.000000  -0.000000
    12  H    0.000000   0.000000
    13  H   -0.000000   0.000000
    14  H    0.000000   0.000000
 Mulliken charges and spin densities:
               1          2
     1  C   -0.193096   0.000000
     2  C    0.104254   0.000000
     3  N   -0.195695   0.000000
     4  C   -0.004885  -0.000000
     5  S    0.210723  -0.000000
     6  C   -0.004925   0.000000
     7  N   -0.195669   0.000000
     8  C    0.104220   0.000000
     9  C   -0.193089  -0.000000
    10  S    0.210674   0.000000
    11  H    0.052553  -0.000000
    12  H    0.026181  -0.000000
    13  H    0.026157  -0.000000
    14  H    0.052594   0.000000
 Sum of Mulliken charges =  -0.00000  -0.00000
 Mulliken charges and spin densities with hydrogens summed into heavy atoms:
               1          2
     1  C   -0.140543   0.000000
     2  C    0.130436   0.000000
     3  N   -0.195695   0.000000
     4  C   -0.004885  -0.000000
     5  S    0.210723  -0.000000
     6  C   -0.004925   0.000000
     7  N   -0.195669   0.000000
     8  C    0.130377  -0.000000
     9  C   -0.140495  -0.000000
    10  S    0.210674   0.000000
 Electronic spatial extent (au):  <R**2>=           1879.7907
 Charge=             -0.0000 electrons
 Dipole moment (field-independent basis, Debye):
    X=             -0.0009    Y=              0.0000    Z=             -0.0008  Tot=              0.0012
 Quadrupole moment (field-independent basis, Debye-Ang):
   XX=            -50.8321   YY=            -71.7197   ZZ=            -73.1194
   XY=              0.0218   XZ=              0.0010   YZ=              0.0008
 Traceless Quadrupole moment (field-independent basis, Debye-Ang):
   XX=             14.3917   YY=             -6.4960   ZZ=             -7.8957
   XY=              0.0218   XZ=              0.0010   YZ=              0.0008
 Octapole moment (field-independent basis, Debye-Ang**2):
  XXX=             -0.0041  YYY=              0.0038  ZZZ=              0.0022  XYY=             -0.0039
  XXY=              0.0045  XXZ=             -0.0154  XZZ=             -0.0013  YZZ=             -0.0008
  YYZ=              0.0017  XYZ=             -0.0079
 Hexadecapole moment (field-independent basis, Debye-Ang**3):
 XXXX=          -1602.8297 YYYY=           -527.4961 ZZZZ=            -80.7775 XXXY=              1.0175
 XXXZ=              0.0217 YYYX=            -15.5691 YYYZ=              0.0018 ZZZX=              0.0040
 ZZZY=             -0.0005 XXYY=           -363.0339 XXZZ=           -368.5856 YYZZ=           -105.2952
 XXYZ=              0.0009 YYXZ=              0.0027 ZZXY=              3.3678
 N-N= 6.468112607506D+02 E-N=-3.977567565377D+03  KE= 1.132582915939D+03
                          Isotropic Fermi Contact Couplings
        Atom                 a.u.       MegaHertz       Gauss      10(-4) cm-1
     1  C(13)             -0.00000      -0.00000      -0.00000      -0.00000
     2  C(13)             -0.00000      -0.00000      -0.00000      -0.00000
     3  N(14)             -0.00000      -0.00000      -0.00000      -0.00000
     4  C(13)             -0.00000      -0.00000      -0.00000      -0.00000
     5  S(33)              0.00000       0.00000       0.00000       0.00000
     6  C(13)             -0.00000      -0.00000      -0.00000      -0.00000
     7  N(14)             -0.00000      -0.00000      -0.00000      -0.00000
     8  C(13)             -0.00000      -0.00000      -0.00000      -0.00000
     9  C(13)             -0.00000      -0.00000      -0.00000      -0.00000
    10  S(33)             -0.00000      -0.00000      -0.00000      -0.00000
    11  H(1)               0.00000       0.00000       0.00000       0.00000
    12  H(1)              -0.00000      -0.00000      -0.00000      -0.00000
    13  H(1)              -0.00000      -0.00000      -0.00000      -0.00000
    14  H(1)               0.00000       0.00000       0.00000       0.00000
 --------------------------------------------------------
       Center         ----  Spin Dipole Couplings  ----
                      3XX-RR        3YY-RR        3ZZ-RR
 --------------------------------------------------------
     1   Atom       -0.000000      0.000000      0.000000
     2   Atom        0.000000     -0.000000     -0.000000
     3   Atom        0.000000     -0.000000     -0.000000
     4   Atom       -0.000000      0.000000      0.000000
     5   Atom       -0.000000      0.000000      0.000000
     6   Atom        0.000000      0.000000     -0.000000
     7   Atom        0.000000     -0.000000      0.000000
     8   Atom       -0.000000      0.000000     -0.000000
     9   Atom        0.000000      0.000000     -0.000000
    10   Atom        0.000000     -0.000000      0.000000
    11   Atom       -0.000000      0.000000      0.000000
    12   Atom       -0.000000      0.000000     -0.000000
    13   Atom       -0.000000      0.000000     -0.000000
    14   Atom        0.000000      0.000000     -0.000000
 --------------------------------------------------------
                        XY            XZ            YZ
 --------------------------------------------------------
     1   Atom        0.000000     -0.000000     -0.000000
     2   Atom        0.000000      0.000000      0.000000
     3   Atom        0.000000      0.000000      0.000000
     4   Atom       -0.000000     -0.000000      0.000000
     5   Atom        0.000000     -0.000000      0.000000
     6   Atom       -0.000000      0.000000      0.000000
     7   Atom       -0.000000      0.000000     -0.000000
     8   Atom       -0.000000      0.000000     -0.000000
     9   Atom        0.000000     -0.000000      0.000000
    10   Atom       -0.000000     -0.000000      0.000000
    11   Atom        0.000000      0.000000      0.000000
    12   Atom       -0.000000      0.000000      0.000000
    13   Atom       -0.000000     -0.000000     -0.000000
    14   Atom        0.000000      0.000000     -0.000000
 --------------------------------------------------------


 ---------------------------------------------------------------------------------
              Anisotropic Spin Dipole Couplings in Principal Axis System
 ---------------------------------------------------------------------------------

       Atom             a.u.   MegaHertz   Gauss  10(-4) cm-1        Axes

              Baa    -0.0000    -0.000    -0.000    -0.000  1.0000 -0.0007  0.0099
     1 C(13)  Bbb     0.0000     0.000     0.000     0.000 -0.0099  0.0327  0.9994
              Bcc     0.0000     0.000     0.000     0.000  0.0011  0.9995 -0.0327
 
              Baa    -0.0000    -0.000    -0.000    -0.000 -0.4937  0.8696 -0.0039
     2 C(13)  Bbb    -0.0000    -0.000    -0.000    -0.000 -0.0079 -0.0000  1.0000
              Bcc     0.0000     0.000     0.000     0.000  0.8696  0.4937  0.0069
 
              Baa    -0.0000    -0.000    -0.000    -0.000  0.0009 -0.0574  0.9983
     3 N(14)  Bbb    -0.0000    -0.000    -0.000    -0.000 -0.0555  0.9968  0.0574
              Bcc     0.0000     0.000     0.000     0.000  0.9985  0.0555  0.0023
 
              Baa    -0.0000    -0.000    -0.000    -0.000  0.9346  0.3557 -0.0031
     4 C(13)  Bbb     0.0000     0.000     0.000     0.000  0.0761 -0.1914  0.9786
              Bcc     0.0000     0.000     0.000     0.000 -0.3475  0.9148  0.2060
 
              Baa    -0.0000    -0.000    -0.000    -0.000  0.8950 -0.4458  0.0124
     5 S(33)  Bbb     0.0000     0.000     0.000     0.000 -0.0089  0.0099  0.9999
              Bcc     0.0000     0.000     0.000     0.000  0.4459  0.8951 -0.0049
 
              Baa    -0.0000    -0.000    -0.000    -0.000 -0.0033 -0.0033  1.0000
     6 C(13)  Bbb    -0.0000    -0.000    -0.000    -0.000  0.4948  0.8690  0.0045
              Bcc     0.0000     0.000     0.000     0.000  0.8690 -0.4948  0.0012
 
              Baa    -0.0000    -0.000    -0.000    -0.000  0.0143  0.9999  0.0021
     7 N(14)  Bbb     0.0000     0.000     0.000     0.000 -0.0029 -0.0020  1.0000
              Bcc     0.0000     0.000     0.000     0.000  0.9999 -0.0143  0.0029
 
              Baa    -0.0000    -0.000    -0.000    -0.000  0.9999  0.0038 -0.0109
     8 C(13)  Bbb    -0.0000    -0.000    -0.000    -0.000  0.0109  0.0076  0.9999
              Bcc     0.0000     0.000     0.000     0.000 -0.0039  1.0000 -0.0076
 
              Baa    -0.0000    -0.000    -0.000    -0.000  0.0118 -0.0051  0.9999
     9 C(13)  Bbb     0.0000     0.000     0.000     0.000  0.8408 -0.5412 -0.0126
              Bcc     0.0000     0.000     0.000     0.000  0.5412  0.8409 -0.0021
 
              Baa    -0.0000    -0.000    -0.000    -0.000  0.1461  0.9892 -0.0143
    10 S(33)  Bbb     0.0000     0.000     0.000     0.000  0.0277  0.0103  0.9996
              Bcc     0.0000     0.000     0.000     0.000  0.9889 -0.1464 -0.0258
 
              Baa    -0.0000    -0.000    -0.000    -0.000  0.9913 -0.1318 -0.0039
    11 H(1)   Bbb     0.0000     0.000     0.000     0.000  0.0035 -0.0026  1.0000
              Bcc     0.0000     0.000     0.000     0.000  0.1318  0.9913  0.0021
 
              Baa    -0.0000    -0.000    -0.000    -0.000  0.8900  0.4559 -0.0098
    12 H(1)   Bbb    -0.0000    -0.000    -0.000    -0.000  0.0092  0.0036  1.0000
              Bcc     0.0000     0.000     0.000     0.000 -0.4559  0.8900  0.0010
 
              Baa    -0.0000    -0.000    -0.000    -0.000  0.8867  0.4565  0.0738
    13 H(1)   Bbb    -0.0000    -0.000    -0.000    -0.000 -0.0664 -0.0322  0.9973
              Bcc     0.0000     0.000     0.000     0.000 -0.4576  0.8891 -0.0018
 
              Baa    -0.0000    -0.000    -0.000    -0.000 -0.0073  0.0088  0.9999
    14 H(1)   Bbb    -0.0000    -0.000    -0.000    -0.000 -0.2716  0.9624 -0.0104
              Bcc     0.0000     0.000     0.000     0.000  0.9624  0.2717  0.0046
 

 ---------------------------------------------------------------------------------

 No NMR shielding tensors so no spin-rotation constants.
 Leave Link  601 at Fri Jul 24 08:45:32 2020, MaxMem=  4026531840 cpu:               1.7 elap:               0.2
 (Enter /opt/ohpc/pub/libs/gaussian/g16-A.03/sandybridge/g16/l9999.exe)

 Test job not archived.
 1\1\GINC-SKYLAKE048\FOpt\ULC-wPBE\CC-pVDZ\C6H4N2S2\RDU230\24-Jul-2020\
 0\\#P uLC-wPBE/cc-pVDZ iop(3/107=0416800000, 3/108=0416800000) opt\\H4
  C6 S2 N2\\0,1\C,-3.1237572952,0.0785547528,-0.0141759788\C,-2.6317156
 907,-1.1878127023,-0.0051457371\N,-1.2682822313,-1.2901112686,-0.00163
 36134\C,-0.7317454713,-0.109035441,-0.0087918288\S,-1.838814062,1.2086
 519163,-0.019989123\C,0.7107681306,0.1237722969,-0.0076924003\N,1.2475
 448117,1.3046639461,-0.0155562319\C,2.6110022712,1.2019937551,-0.01194
 4195\C,3.1027709498,-0.0644428164,-0.00111923\S,1.8176177455,-1.194317
 4581,0.004088694\H,-4.1630871978,0.3953524054,-0.017901751\H,-3.235095
 9749,-2.0938606954,0.0000342178\H,3.2143955066,2.1080144545,-0.0175913
 979\H,4.1421365078,-0.3813591452,0.0034515754\\Version=EM64L-G16RevA.0
 3\State=1-A\HF=-1136.4631555\S2=0.\S2-1=0.\S2A=0.\RMSD=9.899e-09\RMSF=
 4.420e-05\Dipole=-0.0003672,-0.0000115,0.0003106\Quadrupole=10.699397,
 -4.8292387,-5.8701583,-0.0794949,0.0315889,-0.0069947\PG=C01 [X(C6H4N2
 S2)]\\@


 IBM COMPATIBILITY IS LIKE PREGNANCY. YOU ARE OR
 OR YOU ARE NOT. -- ADAM OSBORNE
 Job cpu time:       0 days  0 hours 40 minutes 50.0 seconds.
 Elapsed time:       0 days  0 hours  5 minutes 14.2 seconds.
 File lengths (MBytes):  RWF=     88 Int=      0 D2E=      0 Chk=      8 Scr=      8
 Normal termination of Gaussian 16 at Fri Jul 24 08:45:32 2020.
