 Entering Gaussian System, Link 0=g16
 Input=mols_55_3_01_C-CF_opt_0.gjf
 Output=mols_55_3_01_C-CF_opt_0.log
 Initial command:
 /opt/ohpc/pub/libs/gaussian/g16-A.03/sandybridge/g16/l1.exe "/mnt/gpfs2_4m/scratch/rdu230/ondemand/projects/dihedral_energies/7trial/wtuning/mols_55_3_01_C-CF/Gau-79556.inp" -scrdir="/mnt/gpfs2_4m/scratch/rdu230/ondemand/projects/dihedral_energies/7trial/wtuning/mols_55_3_01_C-CF/"
 Entering Link 1 = /opt/ohpc/pub/libs/gaussian/g16-A.03/sandybridge/g16/l1.exe PID=     79557.
  
 Copyright (c) 1988,1990,1992,1993,1995,1998,2003,2009,2016,
            Gaussian, Inc.  All Rights Reserved.
  
 This is part of the Gaussian(R) 16 program.  It is based on
 the Gaussian(R) 09 system (copyright 2009, Gaussian, Inc.),
 the Gaussian(R) 03 system (copyright 2003, Gaussian, Inc.),
 the Gaussian(R) 98 system (copyright 1998, Gaussian, Inc.),
 the Gaussian(R) 94 system (copyright 1995, Gaussian, Inc.),
 the Gaussian 92(TM) system (copyright 1992, Gaussian, Inc.),
 the Gaussian 90(TM) system (copyright 1990, Gaussian, Inc.),
 the Gaussian 88(TM) system (copyright 1988, Gaussian, Inc.),
 the Gaussian 86(TM) system (copyright 1986, Carnegie Mellon
 University), and the Gaussian 82(TM) system (copyright 1983,
 Carnegie Mellon University). Gaussian is a federally registered
 trademark of Gaussian, Inc.
  
 This software contains proprietary and confidential information,
 including trade secrets, belonging to Gaussian, Inc.
  
 This software is provided under written license and may be
 used, copied, transmitted, or stored only in accord with that
 written license.
  
 The following legend is applicable only to US Government
 contracts under FAR:
  
                    RESTRICTED RIGHTS LEGEND
  
 Use, reproduction and disclosure by the US Government is
 subject to restrictions as set forth in subparagraphs (a)
 and (c) of the Commercial Computer Software - Restricted
 Rights clause in FAR 52.227-19.
  
 Gaussian, Inc.
 340 Quinnipiac St., Bldg. 40, Wallingford CT 06492
  
  
 ---------------------------------------------------------------
 Warning -- This program may not be used in any manner that
 competes with the business of Gaussian, Inc. or will provide
 assistance to any competitor of Gaussian, Inc.  The licensee
 of this program is prohibited from giving any competitor of
 Gaussian, Inc. access to this program.  By using this program,
 the user acknowledges that Gaussian, Inc. is engaged in the
 business of creating and licensing software in the field of
 computational chemistry and represents and warrants to the
 licensee that it is not a competitor of Gaussian, Inc. and that
 it will not use this program in any manner prohibited above.
 ---------------------------------------------------------------
  

 Cite this work as:
 Gaussian 16, Revision A.03,
 M. J. Frisch, G. W. Trucks, H. B. Schlegel, G. E. Scuseria, 
 M. A. Robb, J. R. Cheeseman, G. Scalmani, V. Barone, 
 G. A. Petersson, H. Nakatsuji, X. Li, M. Caricato, A. V. Marenich, 
 J. Bloino, B. G. Janesko, R. Gomperts, B. Mennucci, H. P. Hratchian, 
 J. V. Ortiz, A. F. Izmaylov, J. L. Sonnenberg, D. Williams-Young, 
 F. Ding, F. Lipparini, F. Egidi, J. Goings, B. Peng, A. Petrone, 
 T. Henderson, D. Ranasinghe, V. G. Zakrzewski, J. Gao, N. Rega, 
 G. Zheng, W. Liang, M. Hada, M. Ehara, K. Toyota, R. Fukuda, 
 J. Hasegawa, M. Ishida, T. Nakajima, Y. Honda, O. Kitao, H. Nakai, 
 T. Vreven, K. Throssell, J. A. Montgomery, Jr., J. E. Peralta, 
 F. Ogliaro, M. J. Bearpark, J. J. Heyd, E. N. Brothers, K. N. Kudin, 
 V. N. Staroverov, T. A. Keith, R. Kobayashi, J. Normand, 
 K. Raghavachari, A. P. Rendell, J. C. Burant, S. S. Iyengar, 
 J. Tomasi, M. Cossi, J. M. Millam, M. Klene, C. Adamo, R. Cammi, 
 J. W. Ochterski, R. L. Martin, K. Morokuma, O. Farkas, 
 J. B. Foresman, and D. J. Fox, Gaussian, Inc., Wallingford CT, 2016.
 
 ******************************************
 Gaussian 16:  EM64L-G16RevA.03 25-Dec-2016
                23-Jul-2020 
 ******************************************
 %mem=30GB
 %nproc=8
 Will use up to    8 processors via shared memory.
 ---------------------------------------------------------------
 #P uLC-wPBE/cc-pVDZ iop(3/107=0090000000, 3/108=0090000000) opt
 ---------------------------------------------------------------
 1/18=20,19=15,26=3,38=1/1,3;
 2/9=110,12=2,17=6,18=5,40=1/2;
 3/5=16,11=2,25=1,30=1,71=1,74=-41,107=90000000,108=90000000,116=2/1,2,3;
 4//1;
 5/5=2,38=5/2;
 6/7=2,8=2,9=2,10=2,28=1/1;
 7//1,2,3,16;
 1/18=20,19=15,26=3/3(2);
 2/9=110/2;
 99//99;
 2/9=110/2;
 3/5=16,11=2,25=1,30=1,71=1,74=-41,107=90000000,108=90000000,116=2/1,2,3;
 4/5=5,16=3,69=1/1;
 5/5=2,38=5/2;
 7//1,2,3,16;
 1/18=20,19=15,26=3/3(-5);
 2/9=110/2;
 6/7=2,8=2,9=2,10=2,19=2,28=1/1;
 99/9=1/99;
 Leave Link    1 at Thu Jul 23 18:46:48 2020, MaxMem=  4026531840 cpu:               1.7 elap:               0.2
 (Enter /opt/ohpc/pub/libs/gaussian/g16-A.03/sandybridge/g16/l101.exe)
 -------------
 H11 C24 S6 F3
 -------------
 Symbolic Z-matrix:
 Charge =  0 Multiplicity = 1
 C                     11.06587  -0.39188   0.02586 
 C                     10.56997  -1.66254  -0.01135 
 C                     9.08064  -1.59991  -0.03106 
 C                     8.55431  -0.29557  -0.02318 
 S                     9.81812   0.79513  -0.00574 
 C                     7.18241   0.02348   0.04479 
 C                     6.60841   1.30269   0.05008 
 F                     7.27443   2.42793   0.03643 
 C                     5.20387   1.35038   0.01628 
 C                     4.6296    0.02873   0.03783 
 S                     5.87773  -1.14331   0.00974 
 C                     3.26182  -0.37742  -0.04751 
 C                     2.73707  -1.68312   0.02116 
 C                     1.26849  -1.62457   0.02624 
 C                     0.7243   -0.35627   0.0337 
 S                     1.99718   0.77887   0.04423 
 C                    -0.60642   0.00923  -0.01621 
 C                    -1.27762   1.22879   0.01395 
 F                    -0.51449   2.38358   0.0391 
 C                    -2.67732   1.19121  -0.0064 
 C                    -3.14279  -0.02044  -0.03254 
 S                    -1.91546  -1.1813   -0.03443 
 C                    -4.54964  -0.50183  -0.01348 
 C                    -5.07609  -1.70439  -0.03967 
 C                    -6.52827  -1.7861    0.03247 
 C                    -7.07899  -0.51437   0.04234 
 S                    -5.80371   0.65702   0.01158 
 C                    -8.51599  -0.11702   0.01885 
 C                    -9.08804   1.07557  -0.03162 
 F                    -8.41543   2.22942   0.02147 
 C                    -10.46063   1.0571   -0.0283 
 C                    -10.96458  -0.19371  -0.04981 
 S                    -9.69364  -1.34435   0.04765 
 H                     12.07602  -0.03296  -0.03102 
 H                     11.15776  -2.54835  -0.03816 
 H                     8.547    -2.48563  -0.0315 
 H                     4.56731   2.2251    0.03254 
 H                     3.34063  -2.57769   0.03398 
 H                     0.71115  -2.60541  -0.01535 
 H                    -3.25812   2.15148   0.04368 
 H                    -4.4947   -2.64222  -0.04572 
 H                    -7.11956  -2.70549   0.00473 
 H                    -11.12232   1.92503   0.00304 
 H                    -12.03817  -0.49836  -0.02721 
 
 ITRead=  0  0  0  0  0  0  0  0  0  0  0  0  0  0  0  0  0  0  0  0
 ITRead=  0  0  0  0  0  0  0  0  0  0  0  0  0  0  0  0  0  0  0  0
 ITRead=  0  0  0  0
 MicOpt= -1 -1 -1 -1 -1 -1 -1 -1 -1 -1 -1 -1 -1 -1 -1 -1 -1 -1 -1 -1
 MicOpt= -1 -1 -1 -1 -1 -1 -1 -1 -1 -1 -1 -1 -1 -1 -1 -1 -1 -1 -1 -1
 MicOpt= -1 -1 -1 -1
 NAtoms=     44 NQM=       44 NQMF=       0 NMMI=      0 NMMIF=      0
                NMic=       0 NMicF=      0.
                    Isotopes and Nuclear Properties:
 (Nuclear quadrupole moments (NQMom) in fm**2, nuclear magnetic moments (NMagM)
  in nuclear magnetons)

  Atom         1           2           3           4           5           6           7           8           9          10
 IAtWgt=          12          12          12          12          32          12          12          19          12          12
 AtmWgt=  12.0000000  12.0000000  12.0000000  12.0000000  31.9720718  12.0000000  12.0000000  18.9984033  12.0000000  12.0000000
 NucSpn=           0           0           0           0           0           0           0           1           0           0
 AtZEff=  -0.0000000  -0.0000000  -0.0000000  -0.0000000  -0.0000000  -0.0000000  -0.0000000  -0.0000000  -0.0000000  -0.0000000
 NQMom=    0.0000000   0.0000000   0.0000000   0.0000000   0.0000000   0.0000000   0.0000000   0.0000000   0.0000000   0.0000000
 NMagM=    0.0000000   0.0000000   0.0000000   0.0000000   0.0000000   0.0000000   0.0000000   2.6288670   0.0000000   0.0000000
 AtZNuc=   6.0000000   6.0000000   6.0000000   6.0000000  16.0000000   6.0000000   6.0000000   9.0000000   6.0000000   6.0000000

  Atom        11          12          13          14          15          16          17          18          19          20
 IAtWgt=          32          12          12          12          12          32          12          12          19          12
 AtmWgt=  31.9720718  12.0000000  12.0000000  12.0000000  12.0000000  31.9720718  12.0000000  12.0000000  18.9984033  12.0000000
 NucSpn=           0           0           0           0           0           0           0           0           1           0
 AtZEff=  -0.0000000  -0.0000000  -0.0000000  -0.0000000  -0.0000000  -0.0000000  -0.0000000  -0.0000000  -0.0000000  -0.0000000
 NQMom=    0.0000000   0.0000000   0.0000000   0.0000000   0.0000000   0.0000000   0.0000000   0.0000000   0.0000000   0.0000000
 NMagM=    0.0000000   0.0000000   0.0000000   0.0000000   0.0000000   0.0000000   0.0000000   0.0000000   2.6288670   0.0000000
 AtZNuc=  16.0000000   6.0000000   6.0000000   6.0000000   6.0000000  16.0000000   6.0000000   6.0000000   9.0000000   6.0000000

  Atom        21          22          23          24          25          26          27          28          29          30
 IAtWgt=          12          32          12          12          12          12          32          12          12          19
 AtmWgt=  12.0000000  31.9720718  12.0000000  12.0000000  12.0000000  12.0000000  31.9720718  12.0000000  12.0000000  18.9984033
 NucSpn=           0           0           0           0           0           0           0           0           0           1
 AtZEff=  -0.0000000  -0.0000000  -0.0000000  -0.0000000  -0.0000000  -0.0000000  -0.0000000  -0.0000000  -0.0000000  -0.0000000
 NQMom=    0.0000000   0.0000000   0.0000000   0.0000000   0.0000000   0.0000000   0.0000000   0.0000000   0.0000000   0.0000000
 NMagM=    0.0000000   0.0000000   0.0000000   0.0000000   0.0000000   0.0000000   0.0000000   0.0000000   0.0000000   2.6288670
 AtZNuc=   6.0000000  16.0000000   6.0000000   6.0000000   6.0000000   6.0000000  16.0000000   6.0000000   6.0000000   9.0000000

  Atom        31          32          33          34          35          36          37          38          39          40
 IAtWgt=          12          12          32           1           1           1           1           1           1           1
 AtmWgt=  12.0000000  12.0000000  31.9720718   1.0078250   1.0078250   1.0078250   1.0078250   1.0078250   1.0078250   1.0078250
 NucSpn=           0           0           0           1           1           1           1           1           1           1
 AtZEff=  -0.0000000  -0.0000000  -0.0000000  -0.0000000  -0.0000000  -0.0000000  -0.0000000  -0.0000000  -0.0000000  -0.0000000
 NQMom=    0.0000000   0.0000000   0.0000000   0.0000000   0.0000000   0.0000000   0.0000000   0.0000000   0.0000000   0.0000000
 NMagM=    0.0000000   0.0000000   0.0000000   2.7928460   2.7928460   2.7928460   2.7928460   2.7928460   2.7928460   2.7928460
 AtZNuc=   6.0000000   6.0000000  16.0000000   1.0000000   1.0000000   1.0000000   1.0000000   1.0000000   1.0000000   1.0000000

  Atom        41          42          43          44
 IAtWgt=           1           1           1           1
 AtmWgt=   1.0078250   1.0078250   1.0078250   1.0078250
 NucSpn=           1           1           1           1
 AtZEff=  -0.0000000  -0.0000000  -0.0000000  -0.0000000
 NQMom=    0.0000000   0.0000000   0.0000000   0.0000000
 NMagM=    2.7928460   2.7928460   2.7928460   2.7928460
 AtZNuc=   1.0000000   1.0000000   1.0000000   1.0000000
 Leave Link  101 at Thu Jul 23 18:46:48 2020, MaxMem=  4026531840 cpu:               3.4 elap:               0.5
 (Enter /opt/ohpc/pub/libs/gaussian/g16-A.03/sandybridge/g16/l103.exe)

 GradGradGradGradGradGradGradGradGradGradGradGradGradGradGradGradGradGrad
 Berny optimization.
 Initialization pass.
                           ----------------------------
                           !    Initial Parameters    !
                           ! (Angstroms and Degrees)  !
 --------------------------                            --------------------------
 ! Name  Definition              Value          Derivative Info.                !
 --------------------------------------------------------------------------------
 ! R1    R(1,2)                  1.3645         estimate D2E/DX2                !
 ! R2    R(1,5)                  1.7225         estimate D2E/DX2                !
 ! R3    R(1,34)                 1.0735         estimate D2E/DX2                !
 ! R4    R(2,3)                  1.4908         estimate D2E/DX2                !
 ! R5    R(2,35)                 1.0634         estimate D2E/DX2                !
 ! R6    R(3,4)                  1.4066         estimate D2E/DX2                !
 ! R7    R(3,36)                 1.0341         estimate D2E/DX2                !
 ! R8    R(4,5)                  1.6695         estimate D2E/DX2                !
 ! R9    R(4,6)                  1.4102         estimate D2E/DX2                !
 ! R10   R(6,7)                  1.4021         estimate D2E/DX2                !
 ! R11   R(6,11)                 1.7507         estimate D2E/DX2                !
 ! R12   R(7,8)                  1.3076         estimate D2E/DX2                !
 ! R13   R(7,9)                  1.4058         estimate D2E/DX2                !
 ! R14   R(9,10)                 1.4412         estimate D2E/DX2                !
 ! R15   R(9,37)                 1.0819         estimate D2E/DX2                !
 ! R16   R(10,11)                1.7124         estimate D2E/DX2                !
 ! R17   R(10,12)                1.4294         estimate D2E/DX2                !
 ! R18   R(12,13)                1.4089         estimate D2E/DX2                !
 ! R19   R(12,16)                1.716          estimate D2E/DX2                !
 ! R20   R(13,14)                1.4698         estimate D2E/DX2                !
 ! R21   R(13,38)                1.0792         estimate D2E/DX2                !
 ! R22   R(14,15)                1.3801         estimate D2E/DX2                !
 ! R23   R(14,39)                1.1289         estimate D2E/DX2                !
 ! R24   R(15,16)                1.7055         estimate D2E/DX2                !
 ! R25   R(15,17)                1.3809         estimate D2E/DX2                !
 ! R26   R(17,18)                1.3924         estimate D2E/DX2                !
 ! R27   R(17,22)                1.7695         estimate D2E/DX2                !
 ! R28   R(18,19)                1.3844         estimate D2E/DX2                !
 ! R29   R(18,20)                1.4004         estimate D2E/DX2                !
 ! R30   R(20,21)                1.2982         estimate D2E/DX2                !
 ! R31   R(20,40)                1.1234         estimate D2E/DX2                !
 ! R32   R(21,22)                1.6894         estimate D2E/DX2                !
 ! R33   R(21,23)                1.487          estimate D2E/DX2                !
 ! R34   R(23,24)                1.313          estimate D2E/DX2                !
 ! R35   R(23,27)                1.7077         estimate D2E/DX2                !
 ! R36   R(24,25)                1.4563         estimate D2E/DX2                !
 ! R37   R(24,41)                1.1034         estimate D2E/DX2                !
 ! R38   R(25,26)                1.3859         estimate D2E/DX2                !
 ! R39   R(25,42)                1.0935         estimate D2E/DX2                !
 ! R40   R(26,27)                1.7319         estimate D2E/DX2                !
 ! R41   R(26,28)                1.4911         estimate D2E/DX2                !
 ! R42   R(28,29)                1.3236         estimate D2E/DX2                !
 ! R43   R(28,33)                1.7012         estimate D2E/DX2                !
 ! R44   R(29,30)                1.3366         estimate D2E/DX2                !
 ! R45   R(29,31)                1.3727         estimate D2E/DX2                !
 ! R46   R(31,32)                1.3487         estimate D2E/DX2                !
 ! R47   R(31,43)                1.0918         estimate D2E/DX2                !
 ! R48   R(32,33)                1.7172         estimate D2E/DX2                !
 ! R49   R(32,44)                1.1162         estimate D2E/DX2                !
 ! A1    A(2,1,5)              112.2081         estimate D2E/DX2                !
 ! A2    A(2,1,34)             130.6827         estimate D2E/DX2                !
 ! A3    A(5,1,34)             116.7602         estimate D2E/DX2                !
 ! A4    A(1,2,3)              108.9239         estimate D2E/DX2                !
 ! A5    A(1,2,35)             125.134          estimate D2E/DX2                !
 ! A6    A(3,2,35)             125.9349         estimate D2E/DX2                !
 ! A7    A(2,3,4)              114.376          estimate D2E/DX2                !
 ! A8    A(2,3,36)             118.6582         estimate D2E/DX2                !
 ! A9    A(4,3,36)             126.9556         estimate D2E/DX2                !
 ! A10   A(3,4,5)              108.8221         estimate D2E/DX2                !
 ! A11   A(3,4,6)              125.0386         estimate D2E/DX2                !
 ! A12   A(5,4,6)              126.0264         estimate D2E/DX2                !
 ! A13   A(1,5,4)               95.6437         estimate D2E/DX2                !
 ! A14   A(4,6,7)              127.2206         estimate D2E/DX2                !
 ! A15   A(4,6,11)             124.9791         estimate D2E/DX2                !
 ! A16   A(7,6,11)             107.6408         estimate D2E/DX2                !
 ! A17   A(6,7,8)              125.2074         estimate D2E/DX2                !
 ! A18   A(6,7,9)              116.0974         estimate D2E/DX2                !
 ! A19   A(8,7,9)              118.6487         estimate D2E/DX2                !
 ! A20   A(7,9,10)             111.5094         estimate D2E/DX2                !
 ! A21   A(7,9,37)             127.9456         estimate D2E/DX2                !
 ! A22   A(10,9,37)            120.4471         estimate D2E/DX2                !
 ! A23   A(9,10,11)            109.6935         estimate D2E/DX2                !
 ! A24   A(9,10,12)            129.8657         estimate D2E/DX2                !
 ! A25   A(11,10,12)           120.134          estimate D2E/DX2                !
 ! A26   A(6,11,10)             94.9739         estimate D2E/DX2                !
 ! A27   A(10,12,13)           128.0859         estimate D2E/DX2                !
 ! A28   A(10,12,16)           120.7011         estimate D2E/DX2                !
 ! A29   A(13,12,16)           110.3271         estimate D2E/DX2                !
 ! A30   A(12,13,14)           109.5975         estimate D2E/DX2                !
 ! A31   A(12,13,38)           124.0892         estimate D2E/DX2                !
 ! A32   A(14,13,38)           126.2843         estimate D2E/DX2                !
 ! A33   A(13,14,15)           115.5066         estimate D2E/DX2                !
 ! A34   A(13,14,39)           117.2949         estimate D2E/DX2                !
 ! A35   A(15,14,39)           127.1548         estimate D2E/DX2                !
 ! A36   A(14,15,16)           108.5048         estimate D2E/DX2                !
 ! A37   A(14,15,17)           128.5364         estimate D2E/DX2                !
 ! A38   A(16,15,17)           122.9056         estimate D2E/DX2                !
 ! A39   A(12,16,15)            95.8089         estimate D2E/DX2                !
 ! A40   A(15,17,18)           134.0732         estimate D2E/DX2                !
 ! A41   A(15,17,22)           122.3556         estimate D2E/DX2                !
 ! A42   A(18,17,22)           103.4681         estimate D2E/DX2                !
 ! A43   A(17,18,19)           117.7282         estimate D2E/DX2                !
 ! A44   A(17,18,20)           117.2586         estimate D2E/DX2                !
 ! A45   A(19,18,20)           125.0039         estimate D2E/DX2                !
 ! A46   A(18,20,21)           112.5633         estimate D2E/DX2                !
 ! A47   A(18,20,40)           119.5502         estimate D2E/DX2                !
 ! A48   A(21,20,40)           127.8308         estimate D2E/DX2                !
 ! A49   A(20,21,22)           112.3877         estimate D2E/DX2                !
 ! A50   A(20,21,23)           129.8712         estimate D2E/DX2                !
 ! A51   A(22,21,23)           117.7033         estimate D2E/DX2                !
 ! A52   A(17,22,21)            94.3078         estimate D2E/DX2                !
 ! A53   A(21,23,24)           132.4978         estimate D2E/DX2                !
 ! A54   A(21,23,27)           118.3768         estimate D2E/DX2                !
 ! A55   A(24,23,27)           109.1089         estimate D2E/DX2                !
 ! A56   A(23,24,25)           116.7588         estimate D2E/DX2                !
 ! A57   A(23,24,41)           124.5601         estimate D2E/DX2                !
 ! A58   A(25,24,41)           118.5545         estimate D2E/DX2                !
 ! A59   A(24,25,26)           110.1892         estimate D2E/DX2                !
 ! A60   A(24,25,42)           125.8137         estimate D2E/DX2                !
 ! A61   A(26,25,42)           123.8382         estimate D2E/DX2                !
 ! A62   A(25,26,27)           109.1426         estimate D2E/DX2                !
 ! A63   A(25,26,28)           128.8566         estimate D2E/DX2                !
 ! A64   A(27,26,28)           121.9453         estimate D2E/DX2                !
 ! A65   A(23,27,26)            94.705          estimate D2E/DX2                !
 ! A66   A(26,28,29)           131.0859         estimate D2E/DX2                !
 ! A67   A(26,28,33)           118.3339         estimate D2E/DX2                !
 ! A68   A(29,28,33)           110.5785         estimate D2E/DX2                !
 ! A69   A(28,29,30)           123.9717         estimate D2E/DX2                !
 ! A70   A(28,29,31)           114.83           estimate D2E/DX2                !
 ! A71   A(30,29,31)           120.9759         estimate D2E/DX2                !
 ! A72   A(29,31,32)           112.7094         estimate D2E/DX2                !
 ! A73   A(29,31,43)           126.5379         estimate D2E/DX2                !
 ! A74   A(32,31,43)           120.7467         estimate D2E/DX2                !
 ! A75   A(31,32,33)           110.1196         estimate D2E/DX2                !
 ! A76   A(31,32,44)           127.7484         estimate D2E/DX2                !
 ! A77   A(33,32,44)           121.8594         estimate D2E/DX2                !
 ! A78   A(28,33,32)            91.6027         estimate D2E/DX2                !
 ! D1    D(5,1,2,3)             -1.5093         estimate D2E/DX2                !
 ! D2    D(5,1,2,35)           177.5586         estimate D2E/DX2                !
 ! D3    D(34,1,2,3)          -174.3787         estimate D2E/DX2                !
 ! D4    D(34,1,2,35)            4.6892         estimate D2E/DX2                !
 ! D5    D(2,1,5,4)              1.6203         estimate D2E/DX2                !
 ! D6    D(34,1,5,4)           175.5687         estimate D2E/DX2                !
 ! D7    D(1,2,3,4)              0.6968         estimate D2E/DX2                !
 ! D8    D(1,2,3,36)          -178.2211         estimate D2E/DX2                !
 ! D9    D(35,2,3,4)          -178.3617         estimate D2E/DX2                !
 ! D10   D(35,2,3,36)            2.7204         estimate D2E/DX2                !
 ! D11   D(2,3,4,5)              0.4542         estimate D2E/DX2                !
 ! D12   D(2,3,4,6)           -175.8732         estimate D2E/DX2                !
 ! D13   D(36,3,4,5)           179.2659         estimate D2E/DX2                !
 ! D14   D(36,3,4,6)             2.9385         estimate D2E/DX2                !
 ! D15   D(3,4,5,1)             -1.1325         estimate D2E/DX2                !
 ! D16   D(6,4,5,1)            175.1494         estimate D2E/DX2                !
 ! D17   D(3,4,6,7)           -179.7178         estimate D2E/DX2                !
 ! D18   D(3,4,6,11)            -4.8848         estimate D2E/DX2                !
 ! D19   D(5,4,6,7)              4.5815         estimate D2E/DX2                !
 ! D20   D(5,4,6,11)           179.4146         estimate D2E/DX2                !
 ! D21   D(4,6,7,8)             -2.4208         estimate D2E/DX2                !
 ! D22   D(4,6,7,9)            175.0539         estimate D2E/DX2                !
 ! D23   D(11,6,7,8)          -177.9799         estimate D2E/DX2                !
 ! D24   D(11,6,7,9)            -0.5052         estimate D2E/DX2                !
 ! D25   D(4,6,11,10)         -176.8658         estimate D2E/DX2                !
 ! D26   D(7,6,11,10)           -1.1816         estimate D2E/DX2                !
 ! D27   D(6,7,9,10)             2.3805         estimate D2E/DX2                !
 ! D28   D(6,7,9,37)           178.7489         estimate D2E/DX2                !
 ! D29   D(8,7,9,10)          -179.9706         estimate D2E/DX2                !
 ! D30   D(8,7,9,37)            -3.6022         estimate D2E/DX2                !
 ! D31   D(7,9,10,11)           -3.1244         estimate D2E/DX2                !
 ! D32   D(7,9,10,12)         -176.6391         estimate D2E/DX2                !
 ! D33   D(37,9,10,11)        -179.8028         estimate D2E/DX2                !
 ! D34   D(37,9,10,12)           6.6825         estimate D2E/DX2                !
 ! D35   D(9,10,11,6)            2.4804         estimate D2E/DX2                !
 ! D36   D(12,10,11,6)         176.7274         estimate D2E/DX2                !
 ! D37   D(9,10,12,13)        -177.7313         estimate D2E/DX2                !
 ! D38   D(9,10,12,16)          -9.5958         estimate D2E/DX2                !
 ! D39   D(11,10,12,13)          9.3317         estimate D2E/DX2                !
 ! D40   D(11,10,12,16)        177.4672         estimate D2E/DX2                !
 ! D41   D(10,12,13,14)        174.2283         estimate D2E/DX2                !
 ! D42   D(10,12,13,38)         -7.6253         estimate D2E/DX2                !
 ! D43   D(16,12,13,14)          5.0949         estimate D2E/DX2                !
 ! D44   D(16,12,13,38)       -176.7588         estimate D2E/DX2                !
 ! D45   D(10,12,16,15)       -174.8527         estimate D2E/DX2                !
 ! D46   D(13,12,16,15)         -4.79           estimate D2E/DX2                !
 ! D47   D(12,13,14,15)         -3.1436         estimate D2E/DX2                !
 ! D48   D(12,13,14,39)        174.6271         estimate D2E/DX2                !
 ! D49   D(38,13,14,15)        178.7608         estimate D2E/DX2                !
 ! D50   D(38,13,14,39)         -3.4685         estimate D2E/DX2                !
 ! D51   D(13,14,15,16)         -0.3409         estimate D2E/DX2                !
 ! D52   D(13,14,15,17)        177.0328         estimate D2E/DX2                !
 ! D53   D(39,14,15,16)       -177.8551         estimate D2E/DX2                !
 ! D54   D(39,14,15,17)         -0.4813         estimate D2E/DX2                !
 ! D55   D(14,15,16,12)          2.908          estimate D2E/DX2                !
 ! D56   D(17,15,16,12)       -174.6453         estimate D2E/DX2                !
 ! D57   D(14,15,17,18)        178.3099         estimate D2E/DX2                !
 ! D58   D(14,15,17,22)          2.6616         estimate D2E/DX2                !
 ! D59   D(16,15,17,18)         -4.6568         estimate D2E/DX2                !
 ! D60   D(16,15,17,22)        179.6949         estimate D2E/DX2                !
 ! D61   D(15,17,18,19)          3.5646         estimate D2E/DX2                !
 ! D62   D(15,17,18,20)       -177.4882         estimate D2E/DX2                !
 ! D63   D(22,17,18,19)        179.7855         estimate D2E/DX2                !
 ! D64   D(22,17,18,20)         -1.2673         estimate D2E/DX2                !
 ! D65   D(15,17,22,21)        177.8131         estimate D2E/DX2                !
 ! D66   D(18,17,22,21)          1.0265         estimate D2E/DX2                !
 ! D67   D(17,18,20,21)          0.922          estimate D2E/DX2                !
 ! D68   D(17,18,20,40)        178.4149         estimate D2E/DX2                !
 ! D69   D(19,18,20,21)        179.7843         estimate D2E/DX2                !
 ! D70   D(19,18,20,40)         -2.7228         estimate D2E/DX2                !
 ! D71   D(18,20,21,22)         -0.0161         estimate D2E/DX2                !
 ! D72   D(18,20,21,23)        177.6561         estimate D2E/DX2                !
 ! D73   D(40,20,21,22)       -177.2545         estimate D2E/DX2                !
 ! D74   D(40,20,21,23)          0.4177         estimate D2E/DX2                !
 ! D75   D(20,21,22,17)         -0.6253         estimate D2E/DX2                !
 ! D76   D(23,21,22,17)       -178.6075         estimate D2E/DX2                !
 ! D77   D(20,21,23,24)        179.8938         estimate D2E/DX2                !
 ! D78   D(20,21,23,27)          1.5586         estimate D2E/DX2                !
 ! D79   D(22,21,23,24)         -2.5373         estimate D2E/DX2                !
 ! D80   D(22,21,23,27)        179.1275         estimate D2E/DX2                !
 ! D81   D(21,23,24,25)        178.2863         estimate D2E/DX2                !
 ! D82   D(21,23,24,41)          2.4498         estimate D2E/DX2                !
 ! D83   D(27,23,24,25)         -3.2639         estimate D2E/DX2                !
 ! D84   D(27,23,24,41)       -179.1003         estimate D2E/DX2                !
 ! D85   D(21,23,27,26)       -179.429          estimate D2E/DX2                !
 ! D86   D(24,23,27,26)          1.87           estimate D2E/DX2                !
 ! D87   D(23,24,25,26)          3.3246         estimate D2E/DX2                !
 ! D88   D(23,24,25,42)        178.8673         estimate D2E/DX2                !
 ! D89   D(41,24,25,26)        179.4214         estimate D2E/DX2                !
 ! D90   D(41,24,25,42)         -5.0359         estimate D2E/DX2                !
 ! D91   D(24,25,26,27)         -1.6562         estimate D2E/DX2                !
 ! D92   D(24,25,26,28)        175.6371         estimate D2E/DX2                !
 ! D93   D(42,25,26,27)       -177.3048         estimate D2E/DX2                !
 ! D94   D(42,25,26,28)         -0.0115         estimate D2E/DX2                !
 ! D95   D(25,26,27,23)         -0.0252         estimate D2E/DX2                !
 ! D96   D(28,26,27,23)       -177.5414         estimate D2E/DX2                !
 ! D97   D(25,26,28,29)       -176.6365         estimate D2E/DX2                !
 ! D98   D(25,26,28,33)          2.8407         estimate D2E/DX2                !
 ! D99   D(27,26,28,29)          0.3498         estimate D2E/DX2                !
 ! D100  D(27,26,28,33)        179.8271         estimate D2E/DX2                !
 ! D101  D(26,28,29,30)         -4.9308         estimate D2E/DX2                !
 ! D102  D(26,28,29,31)       -179.5435         estimate D2E/DX2                !
 ! D103  D(33,28,29,30)        175.5607         estimate D2E/DX2                !
 ! D104  D(33,28,29,31)          0.948          estimate D2E/DX2                !
 ! D105  D(26,28,33,32)       -178.2662         estimate D2E/DX2                !
 ! D106  D(29,28,33,32)          1.3129         estimate D2E/DX2                !
 ! D107  D(28,29,31,32)         -3.5206         estimate D2E/DX2                !
 ! D108  D(28,29,31,43)        175.583          estimate D2E/DX2                !
 ! D109  D(30,29,31,32)       -178.3101         estimate D2E/DX2                !
 ! D110  D(30,29,31,43)          0.7934         estimate D2E/DX2                !
 ! D111  D(29,31,32,33)          4.3341         estimate D2E/DX2                !
 ! D112  D(29,31,32,44)        178.3569         estimate D2E/DX2                !
 ! D113  D(43,31,32,33)       -174.8278         estimate D2E/DX2                !
 ! D114  D(43,31,32,44)         -0.805          estimate D2E/DX2                !
 ! D115  D(31,32,33,28)         -3.2319         estimate D2E/DX2                !
 ! D116  D(44,32,33,28)       -177.6688         estimate D2E/DX2                !
 --------------------------------------------------------------------------------
 Trust Radius=3.00D-01 FncErr=1.00D-07 GrdErr=1.00D-06 EigMax=2.50D+02 EigMin=1.00D-04
 Number of steps in this run=    253 maximum allowed number of steps=    264.
 GradGradGradGradGradGradGradGradGradGradGradGradGradGradGradGradGradGrad

 Leave Link  103 at Thu Jul 23 18:46:48 2020, MaxMem=  4026531840 cpu:               0.3 elap:               0.1
 (Enter /opt/ohpc/pub/libs/gaussian/g16-A.03/sandybridge/g16/l202.exe)
                          Input orientation:                          
 ---------------------------------------------------------------------
 Center     Atomic      Atomic             Coordinates (Angstroms)
 Number     Number       Type             X           Y           Z
 ---------------------------------------------------------------------
      1          6           0       11.065869   -0.391884    0.025863
      2          6           0       10.569969   -1.662542   -0.011351
      3          6           0        9.080643   -1.599908   -0.031060
      4          6           0        8.554313   -0.295567   -0.023181
      5         16           0        9.818116    0.795130   -0.005742
      6          6           0        7.182410    0.023481    0.044791
      7          6           0        6.608409    1.302686    0.050083
      8          9           0        7.274427    2.427929    0.036427
      9          6           0        5.203873    1.350381    0.016280
     10          6           0        4.629600    0.028727    0.037832
     11         16           0        5.877734   -1.143305    0.009738
     12          6           0        3.261821   -0.377417   -0.047507
     13          6           0        2.737071   -1.683116    0.021155
     14          6           0        1.268493   -1.624565    0.026235
     15          6           0        0.724301   -0.356270    0.033699
     16         16           0        1.997177    0.778872    0.044229
     17          6           0       -0.606423    0.009232   -0.016213
     18          6           0       -1.277623    1.228790    0.013946
     19          9           0       -0.514488    2.383581    0.039097
     20          6           0       -2.677324    1.191212   -0.006403
     21          6           0       -3.142789   -0.020443   -0.032544
     22         16           0       -1.915459   -1.181301   -0.034427
     23          6           0       -4.549635   -0.501826   -0.013478
     24          6           0       -5.076094   -1.704388   -0.039665
     25          6           0       -6.528275   -1.786103    0.032465
     26          6           0       -7.078989   -0.514374    0.042335
     27         16           0       -5.803705    0.657023    0.011582
     28          6           0       -8.515991   -0.117018    0.018846
     29          6           0       -9.088041    1.075566   -0.031621
     30          9           0       -8.415433    2.229416    0.021470
     31          6           0      -10.460628    1.057105   -0.028303
     32          6           0      -10.964577   -0.193710   -0.049814
     33         16           0       -9.693636   -1.344345    0.047652
     34          1           0       12.076022   -0.032963   -0.031016
     35          1           0       11.157765   -2.548347   -0.038162
     36          1           0        8.547000   -2.485630   -0.031497
     37          1           0        4.567308    2.225095    0.032536
     38          1           0        3.340634   -2.577689    0.033984
     39          1           0        0.711147   -2.605411   -0.015353
     40          1           0       -3.258115    2.151478    0.043677
     41          1           0       -4.494701   -2.642218   -0.045717
     42          1           0       -7.119561   -2.705494    0.004726
     43          1           0      -11.122316    1.925031    0.003044
     44          1           0      -12.038172   -0.498361   -0.027210
 ---------------------------------------------------------------------
                    Distance matrix (angstroms):
                    1          2          3          4          5
     1  C    0.000000
     2  C    1.364505   0.000000
     3  C    2.324583   1.490773   0.000000
     4  C    2.513881   2.435494   1.406553   0.000000
     5  S    1.722466   2.570110   2.506135   1.669468   0.000000
     6  C    3.905655   3.784360   2.498887   1.410152   2.746806
     7  C    4.768763   4.948768   3.813604   2.519191   3.250069
     8  F    4.725091   5.253078   4.414798   3.009833   3.022940
     9  C    6.115438   6.154141   4.871939   3.733115   4.647583
    10  C    6.450009   6.176633   4.740146   3.938561   5.244995
    11  S    5.242293   4.720924   3.235549   2.807814   4.391398
    12  C    7.804406   7.420369   5.945876   5.293181   6.660452
    13  C    8.428296   7.832992   6.344333   5.980599   7.502241
    14  C    9.874618   9.301629   7.812399   7.406204   8.885494
    15  C   10.341632   9.932047   8.448626   7.830454   9.166501
    16  S    9.143970   8.913829   7.472600   6.644923   7.821116
    17  C   11.679258  11.300734   9.819817   9.165808  10.454126
    18  C   12.449439  12.195322  10.737655   9.949473  11.104228
    19  F   11.908318  11.799951  10.389401   9.456472  10.454085
    20  C   13.834110  13.551188  12.084732  11.329628  12.501716
    21  C   14.213632  13.810745  12.325056  11.700341  12.986568
    22  S   13.005449  12.494720  11.004068  10.507177  11.898903
    23  C   15.615941  15.164092  13.674450  13.105575  14.426171
    24  C   16.195368  15.646145  14.157125  13.703030  15.102524
    25  C   17.649300  17.098747  15.610158  15.156162  16.548979
    26  C   18.145279  17.686348  16.196218  15.634970  16.947840
    27  S   16.902158  16.537174  15.054547  14.389625  15.622441
    28  C   19.583790  19.148458  17.659076  17.071289  18.356800
    29  C   20.207345  19.847796  18.364619  17.695557  18.908254
    30  F   19.656865  19.380245  17.910309  17.156626  18.289894
    31  C   21.575277  21.205725  19.721080  19.062994  20.280449
    32  C   22.031467  21.584615  20.094492  19.519174  20.806251
    33  S   20.781355  20.266189  18.776183  18.278200  19.628771
    34  H    1.073531   2.219034   3.380475   3.531495   2.405102
    35  H    2.159370   1.063425   2.283423   3.442848   3.602020
    36  H    3.275937   2.184098   1.034059   2.190091   3.518492
    37  H    7.005706   7.151754   5.916493   4.717314   5.442173
    38  H    8.028516   7.287169   5.823057   5.691555   7.303099
    39  H   10.588752   9.903807   8.429694   8.176227   9.721145
    40  H   14.548042  14.344535  12.896644  12.063414  13.146480
    41  H   15.722610  15.096530  13.615307  13.258358  14.719840
    42  H   18.332024  17.720256  16.237925  15.858085  17.295646
    43  H   22.308836  21.986953  20.508191  19.801552  20.970895
    44  H   23.104347  22.638101  21.147524  20.593484  21.894541
                    6          7          8          9         10
     6  C    0.000000
     7  C    1.402095   0.000000
     8  F    2.406223   1.307646   0.000000
     9  C    2.382454   1.405752   2.334247   0.000000
    10  C    2.552825   2.353467   3.570894   1.441188   0.000000
    11  S    1.750656   2.553113   3.834733   2.583138   1.712392
    12  C    3.942113   3.745921   4.896735   2.600177   1.429355
    13  C    4.761730   4.889081   6.122787   3.909890   2.551931
    14  C    6.139285   6.089669   7.245278   4.933317   3.745737
    15  C    6.469274   6.113520   7.117297   4.793697   3.924232
    16  S    5.239967   4.640892   5.528907   3.257346   2.737227
    17  C    7.789085   7.330158   8.243826   5.963160   5.236338
    18  C    8.545518   7.886461   8.635740   6.482637   6.027935
    19  F    8.050611   7.204451   7.789042   5.810996   5.657471
    20  C    9.928775   9.286574  10.028392   7.882837   7.398950
    21  C   10.325582   9.840902  10.701293   8.458623   7.772863
    22  S    9.177636   8.878832   9.873478   7.556247   6.656364
    23  C   11.743944  11.303196  12.181724   9.927864   9.194698
    24  C   12.379967  12.065577  13.023717  10.724386   9.859523
    25  C   13.829593  13.494940  14.431655  12.144179  11.304504
    26  C   14.271538  13.807485  14.651885  12.423634  11.721179
    27  S   13.001602  12.428956  13.197510  11.029394  10.452239
    28  C   15.699051  15.190919  15.994198  13.798113  13.146413
    29  C   16.304610  15.698306  16.418401  14.294636  13.757702
    30  F   15.753076  15.052424  15.691123  13.647645  13.229368
    31  C   17.673441  17.070984  17.788073  15.667310  15.125373
    32  C   18.148533  17.636865  18.426657  16.242148  15.596010
    33  S   16.931388  16.515552  17.382328  15.139297  14.388902
    34  H    4.894525   5.628972   5.395911   7.010158   7.446996
    35  H    4.735465   5.961114   6.312622   7.117013   7.018834
    36  H    2.857195   4.256305   5.076132   5.088591   4.655408
    37  H    3.418481   2.239920   2.714710   1.081944   2.197258
    38  H    4.639552   5.073059   6.366392   4.347609   2.907723
    39  H    6.985122   7.074970   8.271266   5.986140   4.721841
    40  H   10.655183   9.902968  10.536172   8.499868   8.168363
    41  H   11.977857  11.783484  12.815050  10.488424   9.507565
    42  H   14.560058  14.301214  15.282013  12.973715  12.063161
    43  H   18.403278  17.741706  18.403646  16.336305  15.865687
    44  H   19.227800  18.733519  19.533144  17.340930  16.676231
                   11         12         13         14         15
    11  S    0.000000
    12  C    2.726328   0.000000
    13  C    3.186737   1.408874   0.000000
    14  C    4.634327   2.352482   1.469754   0.000000
    15  C    5.213240   2.538907   2.410793   1.380135   0.000000
    16  S    4.330667   1.716026   2.570868   2.511536   1.705541
    17  C    6.585841   3.887646   3.747585   2.487248   1.380909
    18  C    7.538301   4.815623   4.959538   3.824198   2.553528
    19  F    7.300705   4.678795   5.206821   4.386846   3.006894
    20  C    8.867877   6.142941   6.130106   4.847591   3.737293
    21  C    9.090239   6.414568   6.110656   4.694259   3.882210
    22  S    7.793411   5.239335   4.679844   3.215231   2.766523
    23  C   10.447108   7.812521   7.381919   5.925600   5.276155
    24  C   10.968300   8.442851   7.813431   6.345431   5.955450
    25  C   12.422671   9.891247   9.265925   7.798444   7.392177
    26  C   12.972019  10.342107   9.885416   8.421000   7.804896
    27  S   11.819357   9.124545   8.855574   7.431140   6.606218
    28  C   14.430269  11.780877  11.361517   9.899943   9.243401
    29  C   15.129426  12.435051  12.142750  10.702890   9.916475
    30  F   14.685708  11.964890  11.818894  10.422649   9.498456
    31  C   16.485913  13.797240  13.479262  12.031900  11.274046
    32  C   16.869165  14.227584  13.782544  12.316701  11.690307
    33  S   15.572714  12.991839  12.435351  10.965731  10.464698
    34  H    6.297086   8.820944   9.483762  10.924246  11.356508
    35  H    5.463988   8.188953   8.465237   9.932533  10.661498
    36  H    2.988063   5.690161   5.865328   7.329490   8.107592
    37  H    3.614395   2.912692   4.315554   5.069724   4.629487
    38  H    2.914605   2.203191   1.079219   2.280849   3.432186
    39  H    5.369544   3.386876   2.226281   1.128903   2.249714
    40  H    9.711873   6.993797   7.116662   5.894827   4.706223
    41  H   10.480326   8.080406   7.295401   5.852794   5.698232
    42  H   13.090842  10.639350   9.909527   8.457442   8.188154
    43  H   17.274734  14.567334  14.321371  12.889233  12.064311
    44  H   17.927549  15.300484  14.822746  13.354345  12.763409
                   16         17         18         19         20
    16  S    0.000000
    17  C    2.715646   0.000000
    18  C    3.305701   1.392387   0.000000
    19  F    2.980533   2.376772   1.384395   0.000000
    20  C    4.692925   2.384492   1.400353   2.470157   0.000000
    21  C    5.202312   2.536592   2.245348   3.562644   1.298248
    22  S    4.376892   1.769541   2.493534   3.830993   2.491995
    23  C    6.671152   3.976193   3.701601   4.960922   2.524277
    24  C    7.496985   4.786962   4.799457   6.125842   3.760280
    25  C    8.902953   6.188209   6.054690   7.317919   4.867827
    26  C    9.167839   6.493974   6.057662   7.175711   4.720811
    27  S    7.801902   5.237571   4.562055   5.563953   3.171741
    28  C   10.551302   7.910653   7.362418   8.383165   5.983489
    29  C   11.089447   8.548400   7.812054   8.673045   6.411810
    30  F   10.513184   8.118576   7.207610   7.902469   5.831341
    31  C   12.461123   9.909770   9.184707  10.034430   7.784490
    32  C   12.998532  10.360196   9.791049  10.763582   8.402289
    33  S   11.882052   9.187692   8.800650   9.907283   7.460604
    34  H   10.111768  12.682524  13.413198  12.820513  14.804068
    35  H    9.746463  12.039012  12.996475  12.671676  14.331608
    36  H    7.318667   9.487345  10.503437  10.287116  11.811234
    37  H    2.949114   5.628492   5.929265   5.084271   7.318137
    38  H    3.615451   4.719527   5.984813   6.283008   7.100850
    39  H    3.620883   2.927857   4.319394   5.137625   5.088827
    40  H    5.431587   3.409439   2.185083   2.753431   1.123360
    41  H    7.338694   4.706354   5.033672   6.411548   4.242592
    42  H    9.759984   7.056284   7.043218   8.338277   5.909138
    43  H   13.169528  10.688997   9.869288  10.617796   8.476820
    44  H   14.093525  11.443018  10.898356  11.878774   9.512127
                   21         22         23         24         25
    21  C    0.000000
    22  S    1.689359   0.000000
    23  C    1.487047   2.720479   0.000000
    24  C    2.563862   3.203632   1.313012   0.000000
    25  C    3.818808   4.652777   2.359342   1.456266   0.000000
    26  C    3.967776   5.206988   2.530001   2.331190   1.385885
    27  S    2.746158   4.301164   1.707703   2.471499   2.548392
    28  C    5.374316   6.685997   3.985110   3.788939   2.595582
    29  C    6.045433   7.519268   4.804750   4.880976   3.840008
    30  F    5.732849   7.340693   4.733424   5.160401   4.436877
    31  C    7.396749   8.833482   6.113127   6.051378   4.852929
    32  C    7.823726   9.102863   6.422440   6.079184   4.714155
    33  S    6.683767   7.780319   5.212900   4.632381   3.196074
    34  H   15.218816  14.038527  16.632276  17.233364  18.686824
    35  H   14.522265  13.144505  15.840179  16.255782  17.702599
    36  H   11.946896  10.543450  13.246043  13.645479  15.091632
    37  H    8.030708   7.323543   9.516137  10.413513  11.798376
    38  H    6.969843   5.438850   8.158910   8.462233   9.900605
    39  H    4.640601   2.987894   5.665766   5.857012   7.285793
    40  H    2.176316   3.593917   2.951493   4.263765   5.118458
    41  H    2.949838   2.964270   2.141340   1.103440   2.207820
    42  H    4.798500   5.422857   3.385410   2.275948   1.093466
    43  H    8.213342   9.716837   7.006429   7.052043   5.905810
    44  H    8.908214  10.145727   7.488550   7.065776   5.658693
                   26         27         28         29         30
    26  C    0.000000
    27  S    1.731897   0.000000
    28  C    1.491113   2.820583   0.000000
    29  C    2.563136   3.311179   1.323648   0.000000
    30  F    3.052032   3.048547   2.348589   1.336634   0.000000
    31  C    3.729614   4.674247   2.272092   1.372715   2.357883
    32  C    3.899886   5.230881   2.450749   2.265564   3.517777
    33  S    2.743221   4.374739   1.701179   2.495796   3.795557
    34  H   19.161200  17.893086  20.592245  21.193074  20.616034
    35  H   18.350006  17.261759  19.823503  20.567582  20.147969
    36  H   15.750011  14.690843  17.226680  17.991020  17.605641
    37  H   11.964156  10.488908  13.291290  13.703798  12.982746
    38  H   10.621953   9.699629  12.109281  12.954634  12.700926
    39  H    8.066101   7.286117   9.556848  10.467757  10.328183
    40  H    4.658953   2.952025   5.726426   5.928853   5.157955
    41  H    3.348734   3.549897   4.748850   5.909390   6.253757
    42  H    2.191818   3.610823   2.941160   4.262939   5.102245
    43  H    4.722365   5.467681   3.311064   2.204783   2.724005
    44  H    4.959696   6.340741   3.543064   3.343731   4.535127
                   31         32         33         34         35
    31  C    0.000000
    32  C    1.348690   0.000000
    33  S    2.522104   1.717193   0.000000
    34  H   22.562997  23.041167  21.809262   0.000000
    35  H   21.916986  22.247302  20.886309   2.677761   0.000000
    36  H   19.334966  19.645734  18.276477   4.297624   2.611527
    37  H   15.073379  15.719315  14.700873   7.841151   8.137866
    38  H   14.272016  14.502739  13.092499   9.098728   7.817519
    39  H   11.756817  11.922249  10.481115  11.652387  10.446799
    40  H    7.285535   8.055942   7.323710  15.489129  15.162871
    41  H    7.019799   6.917695   5.359302  16.774901  15.652749
    42  H    5.031995   4.593058   2.912118  19.380766  18.278052
    43  H    1.091838   2.125262   3.568184  23.280846  22.724762
    44  H    2.215428   1.116212   2.493620  24.118685  23.286349
                   36         37         38         39         40
    36  H    0.000000
    37  H    6.167088   0.000000
    38  H    5.207592   4.956961   0.000000
    39  H    7.836785   6.181105   2.630096   0.000000
    40  H   12.683421   7.825777   8.118411   6.195685   0.000000
    41  H   13.042649  10.286733   7.836006   5.206067   4.951430
    42  H   15.668146  12.684415  10.461017   7.831373   6.205035
    43  H   20.157805  15.692521  15.147685  12.671073   7.867565
    44  H   20.680874  16.827440  15.518860  12.922265   9.171481
                   41         42         43         44
    41  H    0.000000
    42  H    2.626107   0.000000
    43  H    8.049063   6.120769   0.000000
    44  H    7.842220   5.391214   2.590856   0.000000
 Stoichiometry    C24H11F3S6
 Framework group  C1[X(C24H11F3S6)]
 Deg. of freedom   126
 Full point group                 C1      NOp   1
 Largest Abelian subgroup         C1      NOp   1
 Largest concise Abelian subgroup C1      NOp   1
                         Standard orientation:                         
 ---------------------------------------------------------------------
 Center     Atomic      Atomic             Coordinates (Angstroms)
 Number     Number       Type             X           Y           Z
 ---------------------------------------------------------------------
      1          6           0      -11.074986   -0.380952   -0.018188
      2          6           0      -10.579164   -1.651841    0.011386
      3          6           0       -9.089830   -1.589423    0.031176
      4          6           0       -8.563414   -0.285093    0.030938
      5         16           0       -9.827147    0.805771    0.020221
      6          6           0       -7.191503    0.034262   -0.035405
      7          6           0       -6.617417    1.313438   -0.033215
      8          9           0       -7.283357    2.438624   -0.012749
      9          6           0       -5.212872    1.360839    0.000598
     10          6           0       -4.638691    0.039299   -0.028912
     11         16           0       -5.886898   -1.132797   -0.007533
     12          6           0       -3.270923   -0.367435    0.053749
     13          6           0       -2.746274   -1.672738   -0.022766
     14          6           0       -1.277693   -1.614254   -0.027784
     15          6           0       -0.733417   -0.345973   -0.027824
     16         16           0       -2.006219    0.789295   -0.031367
     17          6           0        0.597341    0.019139    0.023998
     18          6           0        1.268617    1.238810    0.000949
     19          9           0        0.505554    2.393780   -0.017197
     20          6           0        2.668319    1.201020    0.020802
     21          6           0        3.133708   -0.010800    0.039659
     22         16           0        1.906301   -1.171568    0.034890
     23          6           0        4.540518   -0.492154    0.017462
     24          6           0        5.066901   -1.694885    0.036407
     25          6           0        6.519063   -1.776265   -0.036489
     26          6           0        7.069860   -0.504537   -0.038916
     27         16           0        5.794661    0.666741   -0.000962
     28          6           0        8.506893   -0.107422   -0.013348
     29          6           0        9.079033    1.084804    0.044086
     30          9           0        8.406492    2.238993   -0.002023
     31          6           0       10.451618    1.066273    0.040392
     32          6           0       10.955488   -0.184681    0.054379
     33         16           0        9.684451   -1.334633   -0.049669
     34          1           0      -12.085104   -0.022309    0.041017
     35          1           0      -11.167014   -2.537751    0.033052
     36          1           0       -8.556246   -2.475168    0.026251
     37          1           0       -4.576251    2.235593   -0.010589
     38          1           0       -3.349899   -2.567179   -0.040788
     39          1           0       -0.720404   -2.595366    0.007872
     40          1           0        3.249165    2.161528   -0.023689
     41          1           0        4.485447   -2.632696    0.037005
     42          1           0        7.110293   -2.695844   -0.014324
     43          1           0       11.113358    1.934326    0.014069
     44          1           0       12.029058   -0.489263    0.029758
 ---------------------------------------------------------------------
 Rotational constants (GHZ):           0.5698428           0.0204089           0.0197039
 Leave Link  202 at Thu Jul 23 18:46:48 2020, MaxMem=  4026531840 cpu:               0.2 elap:               0.0
 (Enter /opt/ohpc/pub/libs/gaussian/g16-A.03/sandybridge/g16/l301.exe)
 Standard basis: CC-pVDZ (5D, 7F)
 Ernie: Thresh=  0.10000D-02 Tol=  0.10000D-05 Strict=F.
 Ernie:  114 primitive shells out of 949 were deleted.
 There are   574 symmetry adapted cartesian basis functions of A   symmetry.
 There are   541 symmetry adapted basis functions of A   symmetry.
   541 basis functions,  1394 primitive gaussians,   574 cartesian basis functions
   139 alpha electrons      139 beta electrons
       nuclear repulsion energy      3812.2252323456 Hartrees.
 IExCor=32609 DFT=T Ex+Corr=LC-wPBE ExCW=0 ScaHFX=  1.000000
 ScaDFX=  1.000000  0.000000  1.000000  1.000000 ScalE2=  1.000000  1.000000
 IRadAn=      5 IRanWt=     -1 IRanGd=            0 ICorTp=0 IEmpDi=  4
 HFx  wShort=  0.000000 wLong=  0.090000 cFull=  0.000000 cShort=  0.000000 cLong=  1.000000
 DFx  wShort=  0.000000 wLong=  0.090000 cFull=  0.000000 cShort=  0.000000 cLong=  1.000000
 NAtoms=   44 NActive=   44 NUniq=   44 SFac= 1.00D+00 NAtFMM=   60 NAOKFM=F Big=F
 Integral buffers will be    131072 words long.
 Raffenetti 2 integral format.
 Two-electron integral symmetry is turned on.
 Leave Link  301 at Thu Jul 23 18:46:49 2020, MaxMem=  4026531840 cpu:               0.6 elap:               0.1
 (Enter /opt/ohpc/pub/libs/gaussian/g16-A.03/sandybridge/g16/l302.exe)
 NPDir=0 NMtPBC=     1 NCelOv=     1 NCel=       1 NClECP=     1 NCelD=      1
         NCelK=      1 NCelE2=     1 NClLst=     1 CellRange=     0.0.
 One-electron integrals computed using PRISM.
 One-electron integral symmetry used in STVInt
 NBasis=   541 RedAO= T EigKep=  2.84D-04  NBF=   541
 NBsUse=   541 1.00D-06 EigRej= -1.00D+00 NBFU=   541
 Precomputing XC quadrature grid using
 IXCGrd= 4 IRadAn=           5 IRanWt=          -1 IRanGd=           0 AccXCQ= 0.00D+00.
 Generated NRdTot=       0 NPtTot=           0 NUsed=           0 NTot=          32
 NSgBfM=   493   493   493   493   493 MxSgAt=    44 MxSgA2=    44.
 Leave Link  302 at Thu Jul 23 18:46:50 2020, MaxMem=  4026531840 cpu:              11.3 elap:               1.4
 (Enter /opt/ohpc/pub/libs/gaussian/g16-A.03/sandybridge/g16/l303.exe)
 DipDrv:  MaxL=1.
 Leave Link  303 at Thu Jul 23 18:46:50 2020, MaxMem=  4026531840 cpu:               1.2 elap:               0.2
 (Enter /opt/ohpc/pub/libs/gaussian/g16-A.03/sandybridge/g16/l401.exe)
 ExpMin= 1.22D-01 ExpMax= 1.11D+05 ExpMxC= 1.07D+03 IAcc=3 IRadAn=         5 AccDes= 0.00D+00
 Harris functional with IExCor=32609 and IRadAn=       5 diagonalized for initial guess.
 HarFok:  IExCor=32609 AccDes= 0.00D+00 IRadAn=         5 IDoV= 1 UseB2=F ITyADJ=14
 ICtDFT=  3500011 ScaDFX=  1.000000  1.000000  1.000000  1.000000
 FoFCou: FMM=F IPFlag=           0 FMFlag=      100000 FMFlg1=           0
         NFxFlg=           0 DoJE=T BraDBF=F KetDBF=T FulRan=T
         wScrn=  0.000000 ICntrl=       500 IOpCl=  0 I1Cent=   200000004 NGrid=           0
         NMat0=    1 NMatS0=      1 NMatT0=    0 NMatD0=    1 NMtDS0=    0 NMtDT0=    0
 Petite list used in FoFCou.
 Harris En= -3607.78924498160    
 JPrj=0 DoOrth=F DoCkMO=F.
 Initial guess <Sx>= 0.0000 <Sy>= 0.0000 <Sz>= 0.0000 <S**2>=-0.0000 S=-0.0000
 Leave Link  401 at Thu Jul 23 18:46:57 2020, MaxMem=  4026531840 cpu:              51.1 elap:               6.4
 (Enter /opt/ohpc/pub/libs/gaussian/g16-A.03/sandybridge/g16/l502.exe)
 Integral symmetry usage will be decided dynamically.
 UHF open shell SCF:
 Using DIIS extrapolation, IDIIS=  1040.
 NGot=  4026531840 LenX=  4025862620 LenY=  4025532570
 Requested convergence on RMS density matrix=1.00D-08 within 128 cycles.
 Requested convergence on MAX density matrix=1.00D-06.
 Requested convergence on             energy=1.00D-06.
 No special actions if energy rises.
 Fock matrices will be formed incrementally for  20 cycles.
 Integral accuracy reduced to 1.0D-05 until final iterations.

 Cycle   1  Pass 0  IDiag  1:
 FoFJK:  IHMeth= 1 ICntrl=       0 DoSepK=T KAlg= 0 I1Cent=           0 FoldK=F
 IRaf=         1 NMat=       1 IRICut=       1 DoRegI=T DoRafI=F ISym2E= 0 IDoP0=0 IntGTp=1.
 FoFCou: FMM=F IPFlag=           0 FMFlag=      100000 FMFlg1=           0
         NFxFlg=           0 DoJE=T BraDBF=F KetDBF=F FulRan=T
         wScrn=  0.000000 ICntrl=       500 IOpCl=  0 I1Cent=           0 NGrid=           0
         NMat0=    1 NMatS0=      1 NMatT0=    0 NMatD0=    1 NMtDS0=    0 NMtDT0=    0
 Symmetry not used in FoFCou.
 E= -3606.97186564795    
 DIIS: error= 2.25D-02 at cycle   1 NSaved=   1.
 NSaved= 1 IEnMin= 1 EnMin= -3606.97186564795     IErMin= 1 ErrMin= 2.25D-02
 ErrMax= 2.25D-02  0.00D+00 EMaxC= 1.00D-01 BMatC= 2.80D+00 BMatP= 2.80D+00
 IDIUse=3 WtCom= 7.75D-01 WtEn= 2.25D-01
 Coeff-Com:  0.100D+01
 Coeff-En:   0.100D+01
 Coeff:      0.100D+01
 Gap=     0.106 Goal=   None    Shift=    0.000
 Gap=     0.106 Goal=   None    Shift=    0.000
 GapD=    0.106 DampG=1.000 DampE=0.500 DampFc=0.5000 IDamp=-1.
 Damping current iteration by 5.00D-01
 RMSDP=4.15D-03 MaxDP=1.68D-01              OVMax= 2.92D-01

 Cycle   2  Pass 0  IDiag  1:
 RMSU=  2.07D-03    CP:  9.90D-01
 E= -3607.26134870535     Delta-E=       -0.289483057397 Rises=F Damp=T
 DIIS: error= 7.71D-03 at cycle   2 NSaved=   2.
 NSaved= 2 IEnMin= 2 EnMin= -3607.26134870535     IErMin= 2 ErrMin= 7.71D-03
 ErrMax= 7.71D-03  0.00D+00 EMaxC= 1.00D-01 BMatC= 2.04D-01 BMatP= 2.80D+00
 IDIUse=3 WtCom= 9.23D-01 WtEn= 7.71D-02
 Coeff-Com:  0.175D+00 0.825D+00
 Coeff-En:   0.287D+00 0.713D+00
 Coeff:      0.183D+00 0.817D+00
 Gap=     0.137 Goal=   None    Shift=    0.000
 Gap=     0.137 Goal=   None    Shift=    0.000
 RMSDP=9.81D-04 MaxDP=3.34D-02 DE=-2.89D-01 OVMax= 2.15D-01

 Cycle   3  Pass 0  IDiag  1:
 RMSU=  9.16D-04    CP:  9.92D-01  8.30D-01
 E= -3607.76922727340     Delta-E=       -0.507878568054 Rises=F Damp=F
 DIIS: error= 3.55D-03 at cycle   3 NSaved=   3.
 NSaved= 3 IEnMin= 3 EnMin= -3607.76922727340     IErMin= 3 ErrMin= 3.55D-03
 ErrMax= 3.55D-03  0.00D+00 EMaxC= 1.00D-01 BMatC= 7.24D-02 BMatP= 2.04D-01
 IDIUse=3 WtCom= 9.65D-01 WtEn= 3.55D-02
 Coeff-Com:  0.852D-01 0.394D+00 0.521D+00
 Coeff-En:   0.000D+00 0.000D+00 0.100D+01
 Coeff:      0.822D-01 0.380D+00 0.538D+00
 Gap=     0.146 Goal=   None    Shift=    0.000
 Gap=     0.146 Goal=   None    Shift=    0.000
 RMSDP=4.30D-04 MaxDP=2.59D-02 DE=-5.08D-01 OVMax= 5.03D-02

 Cycle   4  Pass 0  IDiag  1:
 RMSU=  3.36D-04    CP:  9.91D-01  8.33D-01  7.07D-01
 E= -3607.78245632826     Delta-E=       -0.013229054853 Rises=F Damp=F
 DIIS: error= 2.36D-03 at cycle   4 NSaved=   4.
 NSaved= 4 IEnMin= 4 EnMin= -3607.78245632826     IErMin= 4 ErrMin= 2.36D-03
 ErrMax= 2.36D-03  0.00D+00 EMaxC= 1.00D-01 BMatC= 2.14D-02 BMatP= 7.24D-02
 IDIUse=3 WtCom= 9.76D-01 WtEn= 2.36D-02
 Coeff-Com:  0.239D-01 0.636D-01 0.341D+00 0.571D+00
 Coeff-En:   0.000D+00 0.000D+00 0.264D+00 0.736D+00
 Coeff:      0.234D-01 0.621D-01 0.339D+00 0.575D+00
 Gap=     0.148 Goal=   None    Shift=    0.000
 Gap=     0.148 Goal=   None    Shift=    0.000
 RMSDP=1.76D-04 MaxDP=1.10D-02 DE=-1.32D-02 OVMax= 1.94D-02

 Cycle   5  Pass 0  IDiag  1:
 RMSU=  1.05D-04    CP:  9.91D-01  8.29D-01  7.90D-01  6.45D-01
 E= -3607.78813845381     Delta-E=       -0.005682125556 Rises=F Damp=F
 DIIS: error= 4.57D-04 at cycle   5 NSaved=   5.
 NSaved= 5 IEnMin= 5 EnMin= -3607.78813845381     IErMin= 5 ErrMin= 4.57D-04
 ErrMax= 4.57D-04  0.00D+00 EMaxC= 1.00D-01 BMatC= 1.31D-03 BMatP= 2.14D-02
 IDIUse=3 WtCom= 9.95D-01 WtEn= 4.57D-03
 Coeff-Com:  0.736D-02-0.578D-02 0.117D+00 0.283D+00 0.598D+00
 Coeff-En:   0.000D+00 0.000D+00 0.000D+00 0.000D+00 0.100D+01
 Coeff:      0.733D-02-0.576D-02 0.117D+00 0.282D+00 0.600D+00
 Gap=     0.148 Goal=   None    Shift=    0.000
 Gap=     0.148 Goal=   None    Shift=    0.000
 RMSDP=5.17D-05 MaxDP=2.97D-03 DE=-5.68D-03 OVMax= 5.56D-03

 Cycle   6  Pass 0  IDiag  1:
 RMSU=  3.69D-05    CP:  9.91D-01  8.26D-01  8.02D-01  7.21D-01  7.88D-01
 E= -3607.78842240136     Delta-E=       -0.000283947552 Rises=F Damp=F
 DIIS: error= 2.11D-04 at cycle   6 NSaved=   6.
 NSaved= 6 IEnMin= 6 EnMin= -3607.78842240136     IErMin= 6 ErrMin= 2.11D-04
 ErrMax= 2.11D-04  0.00D+00 EMaxC= 1.00D-01 BMatC= 3.34D-04 BMatP= 1.31D-03
 IDIUse=3 WtCom= 9.98D-01 WtEn= 2.11D-03
 Coeff-Com:  0.171D-02-0.161D-01 0.170D-01 0.852D-01 0.381D+00 0.531D+00
 Coeff-En:   0.000D+00 0.000D+00 0.000D+00 0.000D+00 0.138D+00 0.862D+00
 Coeff:      0.170D-02-0.161D-01 0.170D-01 0.850D-01 0.381D+00 0.532D+00
 Gap=     0.149 Goal=   None    Shift=    0.000
 Gap=     0.149 Goal=   None    Shift=    0.000
 RMSDP=2.00D-05 MaxDP=1.10D-03 DE=-2.84D-04 OVMax= 1.87D-03

 Cycle   7  Pass 0  IDiag  1:
 RMSU=  1.32D-05    CP:  9.91D-01  8.23D-01  8.05D-01  7.22D-01  8.70D-01
                    CP:  7.03D-01
 E= -3607.78850667443     Delta-E=       -0.000084273063 Rises=F Damp=F
 DIIS: error= 3.65D-05 at cycle   7 NSaved=   7.
 NSaved= 7 IEnMin= 7 EnMin= -3607.78850667443     IErMin= 7 ErrMin= 3.65D-05
 ErrMax= 3.65D-05  0.00D+00 EMaxC= 1.00D-01 BMatC= 1.09D-05 BMatP= 3.34D-04
 IDIUse=1 WtCom= 1.00D+00 WtEn= 0.00D+00
 Coeff-Com:  0.393D-03-0.630D-02-0.856D-03 0.112D-01 0.899D-01 0.198D+00
 Coeff-Com:  0.707D+00
 Coeff:      0.393D-03-0.630D-02-0.856D-03 0.112D-01 0.899D-01 0.198D+00
 Coeff:      0.707D+00
 Gap=     0.149 Goal=   None    Shift=    0.000
 Gap=     0.149 Goal=   None    Shift=    0.000
 RMSDP=5.91D-06 MaxDP=2.79D-04 DE=-8.43D-05 OVMax= 8.77D-04

 Initial convergence to 1.0D-05 achieved.  Increase integral accuracy.
 Cycle   8  Pass 1  IDiag  1:
 E= -3607.78802290158     Delta-E=        0.000483772848 Rises=F Damp=F
 DIIS: error= 1.20D-04 at cycle   1 NSaved=   1.
 NSaved= 1 IEnMin= 1 EnMin= -3607.78802290158     IErMin= 1 ErrMin= 1.20D-04
 ErrMax= 1.20D-04  0.00D+00 EMaxC= 1.00D-01 BMatC= 2.42D-05 BMatP= 2.42D-05
 IDIUse=3 WtCom= 9.99D-01 WtEn= 1.20D-03
 Coeff-Com:  0.100D+01
 Coeff-En:   0.100D+01
 Coeff:      0.100D+01
 Gap=     0.149 Goal=   None    Shift=    0.000
 Gap=     0.149 Goal=   None    Shift=    0.000
 RMSDP=5.91D-06 MaxDP=2.79D-04 DE= 4.84D-04 OVMax= 7.84D-04

 Cycle   9  Pass 1  IDiag  1:
 RMSU=  6.08D-05    CP:  1.00D+00
 E= -3607.78802292264     Delta-E=       -0.000000021057 Rises=F Damp=F
 DIIS: error= 7.42D-05 at cycle   2 NSaved=   2.
 NSaved= 2 IEnMin= 2 EnMin= -3607.78802292264     IErMin= 2 ErrMin= 7.42D-05
 ErrMax= 7.42D-05  0.00D+00 EMaxC= 1.00D-01 BMatC= 2.03D-05 BMatP= 2.42D-05
 IDIUse=1 WtCom= 1.00D+00 WtEn= 0.00D+00
 Coeff-Com:  0.469D+00 0.531D+00
 Coeff:      0.469D+00 0.531D+00
 Gap=     0.149 Goal=   None    Shift=    0.000
 Gap=     0.149 Goal=   None    Shift=    0.000
 RMSDP=7.12D-06 MaxDP=4.35D-04 DE=-2.11D-08 OVMax= 8.22D-04

 Cycle  10  Pass 1  IDiag  1:
 RMSU=  7.11D-06    CP:  1.00D+00  1.01D+00
 E= -3607.78802584539     Delta-E=       -0.000002922759 Rises=F Damp=F
 DIIS: error= 5.25D-05 at cycle   3 NSaved=   3.
 NSaved= 3 IEnMin= 3 EnMin= -3607.78802584539     IErMin= 3 ErrMin= 5.25D-05
 ErrMax= 5.25D-05  0.00D+00 EMaxC= 1.00D-01 BMatC= 9.25D-06 BMatP= 2.03D-05
 IDIUse=1 WtCom= 1.00D+00 WtEn= 0.00D+00
 Coeff-Com:  0.505D-02 0.401D+00 0.594D+00
 Coeff:      0.505D-02 0.401D+00 0.594D+00
 Gap=     0.149 Goal=   None    Shift=    0.000
 Gap=     0.149 Goal=   None    Shift=    0.000
 RMSDP=3.28D-06 MaxDP=2.02D-04 DE=-2.92D-06 OVMax= 3.59D-04

 Cycle  11  Pass 1  IDiag  1:
 RMSU=  1.30D-06    CP:  1.00D+00  1.03D+00  6.28D-01
 E= -3607.78802815077     Delta-E=       -0.000002305374 Rises=F Damp=F
 DIIS: error= 1.07D-05 at cycle   4 NSaved=   4.
 NSaved= 4 IEnMin= 4 EnMin= -3607.78802815077     IErMin= 4 ErrMin= 1.07D-05
 ErrMax= 1.07D-05  0.00D+00 EMaxC= 1.00D-01 BMatC= 5.36D-07 BMatP= 9.25D-06
 IDIUse=1 WtCom= 1.00D+00 WtEn= 0.00D+00
 Coeff-Com: -0.126D-01 0.239D+00 0.379D+00 0.394D+00
 Coeff:     -0.126D-01 0.239D+00 0.379D+00 0.394D+00
 Gap=     0.149 Goal=   None    Shift=    0.000
 Gap=     0.149 Goal=   None    Shift=    0.000
 RMSDP=7.35D-07 MaxDP=4.35D-05 DE=-2.31D-06 OVMax= 6.20D-05

 Cycle  12  Pass 1  IDiag  1:
 RMSU=  4.27D-07    CP:  1.00D+00  1.03D+00  6.36D-01  5.48D-01
 E= -3607.78802827274     Delta-E=       -0.000000121973 Rises=F Damp=F
 DIIS: error= 1.73D-06 at cycle   5 NSaved=   5.
 NSaved= 5 IEnMin= 5 EnMin= -3607.78802827274     IErMin= 5 ErrMin= 1.73D-06
 ErrMax= 1.73D-06  0.00D+00 EMaxC= 1.00D-01 BMatC= 1.23D-08 BMatP= 5.36D-07
 IDIUse=1 WtCom= 1.00D+00 WtEn= 0.00D+00
 Coeff-Com: -0.728D-02 0.121D+00 0.194D+00 0.219D+00 0.473D+00
 Coeff:     -0.728D-02 0.121D+00 0.194D+00 0.219D+00 0.473D+00
 Gap=     0.149 Goal=   None    Shift=    0.000
 Gap=     0.149 Goal=   None    Shift=    0.000
 RMSDP=1.54D-07 MaxDP=8.84D-06 DE=-1.22D-07 OVMax= 1.98D-05

 Cycle  13  Pass 1  IDiag  1:
 RMSU=  1.47D-07    CP:  1.00D+00  1.03D+00  6.37D-01  5.74D-01  9.36D-01
 E= -3607.78802827859     Delta-E=       -0.000000005848 Rises=F Damp=F
 DIIS: error= 6.55D-07 at cycle   6 NSaved=   6.
 NSaved= 6 IEnMin= 6 EnMin= -3607.78802827859     IErMin= 6 ErrMin= 6.55D-07
 ErrMax= 6.55D-07  0.00D+00 EMaxC= 1.00D-01 BMatC= 1.87D-09 BMatP= 1.23D-08
 IDIUse=1 WtCom= 1.00D+00 WtEn= 0.00D+00
 Coeff-Com:  0.617D-03-0.199D-01-0.319D-01-0.279D-01 0.257D+00 0.822D+00
 Coeff:      0.617D-03-0.199D-01-0.319D-01-0.279D-01 0.257D+00 0.822D+00
 Gap=     0.149 Goal=   None    Shift=    0.000
 Gap=     0.149 Goal=   None    Shift=    0.000
 RMSDP=9.29D-08 MaxDP=3.43D-06 DE=-5.85D-09 OVMax= 1.95D-05

 Cycle  14  Pass 1  IDiag  1:
 RMSU=  6.30D-08    CP:  1.00D+00  1.03D+00  6.38D-01  5.91D-01  1.08D+00
                    CP:  9.48D-01
 E= -3607.78802827960     Delta-E=       -0.000000001009 Rises=F Damp=F
 DIIS: error= 2.55D-07 at cycle   7 NSaved=   7.
 NSaved= 7 IEnMin= 7 EnMin= -3607.78802827960     IErMin= 7 ErrMin= 2.55D-07
 ErrMax= 2.55D-07  0.00D+00 EMaxC= 1.00D-01 BMatC= 5.69D-10 BMatP= 1.87D-09
 IDIUse=1 WtCom= 1.00D+00 WtEn= 0.00D+00
 Coeff-Com:  0.137D-02-0.292D-01-0.467D-01-0.482D-01 0.102D+00 0.529D+00
 Coeff-Com:  0.491D+00
 Coeff:      0.137D-02-0.292D-01-0.467D-01-0.482D-01 0.102D+00 0.529D+00
 Coeff:      0.491D+00
 Gap=     0.149 Goal=   None    Shift=    0.000
 Gap=     0.149 Goal=   None    Shift=    0.000
 RMSDP=3.34D-08 MaxDP=1.50D-06 DE=-1.01D-09 OVMax= 4.40D-06

 Cycle  15  Pass 1  IDiag  1:
 RMSU=  2.77D-08    CP:  1.00D+00  1.03D+00  6.38D-01  5.97D-01  1.11D+00
                    CP:  1.01D+00  8.93D-01
 E= -3607.78802827968     Delta-E=       -0.000000000085 Rises=F Damp=F
 DIIS: error= 6.52D-08 at cycle   8 NSaved=   8.
 NSaved= 8 IEnMin= 8 EnMin= -3607.78802827968     IErMin= 8 ErrMin= 6.52D-08
 ErrMax= 6.52D-08  0.00D+00 EMaxC= 1.00D-01 BMatC= 3.38D-11 BMatP= 5.69D-10
 IDIUse=1 WtCom= 1.00D+00 WtEn= 0.00D+00
 Coeff-Com:  0.585D-03-0.115D-01-0.185D-01-0.197D-01 0.157D-01 0.147D+00
 Coeff-Com:  0.235D+00 0.652D+00
 Coeff:      0.585D-03-0.115D-01-0.185D-01-0.197D-01 0.157D-01 0.147D+00
 Coeff:      0.235D+00 0.652D+00
 Gap=     0.149 Goal=   None    Shift=    0.000
 Gap=     0.149 Goal=   None    Shift=    0.000
 RMSDP=1.08D-08 MaxDP=4.42D-07 DE=-8.46D-11 OVMax= 2.36D-06

 Cycle  16  Pass 1  IDiag  1:
 RMSU=  7.65D-09    CP:  1.00D+00  1.03D+00  6.38D-01  5.98D-01  1.12D+00
                    CP:  1.03D+00  9.88D-01  9.57D-01
 E= -3607.78802827971     Delta-E=       -0.000000000029 Rises=F Damp=F
 DIIS: error= 3.01D-08 at cycle   9 NSaved=   9.
 NSaved= 9 IEnMin= 9 EnMin= -3607.78802827971     IErMin= 9 ErrMin= 3.01D-08
 ErrMax= 3.01D-08  0.00D+00 EMaxC= 1.00D-01 BMatC= 9.88D-12 BMatP= 3.38D-11
 IDIUse=1 WtCom= 1.00D+00 WtEn= 0.00D+00
 Coeff-Com:  0.765D-04-0.109D-02-0.177D-02-0.220D-02-0.960D-02-0.139D-01
 Coeff-Com:  0.460D-01 0.396D+00 0.586D+00
 Coeff:      0.765D-04-0.109D-02-0.177D-02-0.220D-02-0.960D-02-0.139D-01
 Coeff:      0.460D-01 0.396D+00 0.586D+00
 Gap=     0.149 Goal=   None    Shift=    0.000
 Gap=     0.149 Goal=   None    Shift=    0.000
 RMSDP=4.68D-09 MaxDP=2.12D-07 DE=-2.91D-11 OVMax= 6.26D-07

 SCF Done:  E(ULC-wPBE) =  -3607.78802828     A.U. after   16 cycles
            NFock= 16  Conv=0.47D-08     -V/T= 2.0030
 <Sx>= 0.0000 <Sy>= 0.0000 <Sz>= 0.0000 <S**2>=-0.0000 S=-0.0000
 <L.S>= 0.000000000000E+00
 KE= 3.596840858489D+03 PE=-1.615199196738D+04 EE= 5.135137848264D+03
 Annihilation of the first spin contaminant:
 S**2 before annihilation    -0.0000,   after     0.0000
 Leave Link  502 at Thu Jul 23 18:55:43 2020, MaxMem=  4026531840 cpu:            4198.1 elap:             526.4
 (Enter /opt/ohpc/pub/libs/gaussian/g16-A.03/sandybridge/g16/l601.exe)
 Copying SCF densities to generalized density rwf, IOpCl= 1 IROHF=0.

 **********************************************************************

            Population analysis using the SCF density.

 **********************************************************************

 Orbital symmetries:
 Alpha Orbitals:
       Occupied  (A) (A) (A) (A) (A) (A) (A) (A) (A) (A) (A) (A)
                 (A) (A) (A) (A) (A) (A) (A) (A) (A) (A) (A) (A)
                 (A) (A) (A) (A) (A) (A) (A) (A) (A) (A) (A) (A)
                 (A) (A) (A) (A) (A) (A) (A) (A) (A) (A) (A) (A)
                 (A) (A) (A) (A) (A) (A) (A) (A) (A) (A) (A) (A)
                 (A) (A) (A) (A) (A) (A) (A) (A) (A) (A) (A) (A)
                 (A) (A) (A) (A) (A) (A) (A) (A) (A) (A) (A) (A)
                 (A) (A) (A) (A) (A) (A) (A) (A) (A) (A) (A) (A)
                 (A) (A) (A) (A) (A) (A) (A) (A) (A) (A) (A) (A)
                 (A) (A) (A) (A) (A) (A) (A) (A) (A) (A) (A) (A)
                 (A) (A) (A) (A) (A) (A) (A) (A) (A) (A) (A) (A)
                 (A) (A) (A) (A) (A) (A) (A)
       Virtual   (A) (A) (A) (A) (A) (A) (A) (A) (A) (A) (A) (A)
                 (A) (A) (A) (A) (A) (A) (A) (A) (A) (A) (A) (A)
                 (A) (A) (A) (A) (A) (A) (A) (A) (A) (A) (A) (A)
                 (A) (A) (A) (A) (A) (A) (A) (A) (A) (A) (A) (A)
                 (A) (A) (A) (A) (A) (A) (A) (A) (A) (A) (A) (A)
                 (A) (A) (A) (A) (A) (A) (A) (A) (A) (A) (A) (A)
                 (A) (A) (A) (A) (A) (A) (A) (A) (A) (A) (A) (A)
                 (A) (A) (A) (A) (A) (A) (A) (A) (A) (A) (A) (A)
                 (A) (A) (A) (A) (A) (A) (A) (A) (A) (A) (A) (A)
                 (A) (A) (A) (A) (A) (A) (A) (A) (A) (A) (A) (A)
                 (A) (A) (A) (A) (A) (A) (A) (A) (A) (A) (A) (A)
                 (A) (A) (A) (A) (A) (A) (A) (A) (A) (A) (A) (A)
                 (A) (A) (A) (A) (A) (A) (A) (A) (A) (A) (A) (A)
                 (A) (A) (A) (A) (A) (A) (A) (A) (A) (A) (A) (A)
                 (A) (A) (A) (A) (A) (A) (A) (A) (A) (A) (A) (A)
                 (A) (A) (A) (A) (A) (A) (A) (A) (A) (A) (A) (A)
                 (A) (A) (A) (A) (A) (A) (A) (A) (A) (A) (A) (A)
                 (A) (A) (A) (A) (A) (A) (A) (A) (A) (A) (A) (A)
                 (A) (A) (A) (A) (A) (A) (A) (A) (A) (A) (A) (A)
                 (A) (A) (A) (A) (A) (A) (A) (A) (A) (A) (A) (A)
                 (A) (A) (A) (A) (A) (A) (A) (A) (A) (A) (A) (A)
                 (A) (A) (A) (A) (A) (A) (A) (A) (A) (A) (A) (A)
                 (A) (A) (A) (A) (A) (A) (A) (A) (A) (A) (A) (A)
                 (A) (A) (A) (A) (A) (A) (A) (A) (A) (A) (A) (A)
                 (A) (A) (A) (A) (A) (A) (A) (A) (A) (A) (A) (A)
                 (A) (A) (A) (A) (A) (A) (A) (A) (A) (A) (A) (A)
                 (A) (A) (A) (A) (A) (A) (A) (A) (A) (A) (A) (A)
                 (A) (A) (A) (A) (A) (A) (A) (A) (A) (A) (A) (A)
                 (A) (A) (A) (A) (A) (A) (A) (A) (A) (A) (A) (A)
                 (A) (A) (A) (A) (A) (A) (A) (A) (A) (A) (A) (A)
                 (A) (A) (A) (A) (A) (A) (A) (A) (A) (A) (A) (A)
                 (A) (A) (A) (A) (A) (A) (A) (A) (A) (A) (A) (A)
                 (A) (A) (A) (A) (A) (A) (A) (A) (A) (A) (A) (A)
                 (A) (A) (A) (A) (A) (A)
 Beta  Orbitals:
       Occupied  (A) (A) (A) (A) (A) (A) (A) (A) (A) (A) (A) (A)
                 (A) (A) (A) (A) (A) (A) (A) (A) (A) (A) (A) (A)
                 (A) (A) (A) (A) (A) (A) (A) (A) (A) (A) (A) (A)
                 (A) (A) (A) (A) (A) (A) (A) (A) (A) (A) (A) (A)
                 (A) (A) (A) (A) (A) (A) (A) (A) (A) (A) (A) (A)
                 (A) (A) (A) (A) (A) (A) (A) (A) (A) (A) (A) (A)
                 (A) (A) (A) (A) (A) (A) (A) (A) (A) (A) (A) (A)
                 (A) (A) (A) (A) (A) (A) (A) (A) (A) (A) (A) (A)
                 (A) (A) (A) (A) (A) (A) (A) (A) (A) (A) (A) (A)
                 (A) (A) (A) (A) (A) (A) (A) (A) (A) (A) (A) (A)
                 (A) (A) (A) (A) (A) (A) (A) (A) (A) (A) (A) (A)
                 (A) (A) (A) (A) (A) (A) (A)
       Virtual   (A) (A) (A) (A) (A) (A) (A) (A) (A) (A) (A) (A)
                 (A) (A) (A) (A) (A) (A) (A) (A) (A) (A) (A) (A)
                 (A) (A) (A) (A) (A) (A) (A) (A) (A) (A) (A) (A)
                 (A) (A) (A) (A) (A) (A) (A) (A) (A) (A) (A) (A)
                 (A) (A) (A) (A) (A) (A) (A) (A) (A) (A) (A) (A)
                 (A) (A) (A) (A) (A) (A) (A) (A) (A) (A) (A) (A)
                 (A) (A) (A) (A) (A) (A) (A) (A) (A) (A) (A) (A)
                 (A) (A) (A) (A) (A) (A) (A) (A) (A) (A) (A) (A)
                 (A) (A) (A) (A) (A) (A) (A) (A) (A) (A) (A) (A)
                 (A) (A) (A) (A) (A) (A) (A) (A) (A) (A) (A) (A)
                 (A) (A) (A) (A) (A) (A) (A) (A) (A) (A) (A) (A)
                 (A) (A) (A) (A) (A) (A) (A) (A) (A) (A) (A) (A)
                 (A) (A) (A) (A) (A) (A) (A) (A) (A) (A) (A) (A)
                 (A) (A) (A) (A) (A) (A) (A) (A) (A) (A) (A) (A)
                 (A) (A) (A) (A) (A) (A) (A) (A) (A) (A) (A) (A)
                 (A) (A) (A) (A) (A) (A) (A) (A) (A) (A) (A) (A)
                 (A) (A) (A) (A) (A) (A) (A) (A) (A) (A) (A) (A)
                 (A) (A) (A) (A) (A) (A) (A) (A) (A) (A) (A) (A)
                 (A) (A) (A) (A) (A) (A) (A) (A) (A) (A) (A) (A)
                 (A) (A) (A) (A) (A) (A) (A) (A) (A) (A) (A) (A)
                 (A) (A) (A) (A) (A) (A) (A) (A) (A) (A) (A) (A)
                 (A) (A) (A) (A) (A) (A) (A) (A) (A) (A) (A) (A)
                 (A) (A) (A) (A) (A) (A) (A) (A) (A) (A) (A) (A)
                 (A) (A) (A) (A) (A) (A) (A) (A) (A) (A) (A) (A)
                 (A) (A) (A) (A) (A) (A) (A) (A) (A) (A) (A) (A)
                 (A) (A) (A) (A) (A) (A) (A) (A) (A) (A) (A) (A)
                 (A) (A) (A) (A) (A) (A) (A) (A) (A) (A) (A) (A)
                 (A) (A) (A) (A) (A) (A) (A) (A) (A) (A) (A) (A)
                 (A) (A) (A) (A) (A) (A) (A) (A) (A) (A) (A) (A)
                 (A) (A) (A) (A) (A) (A) (A) (A) (A) (A) (A) (A)
                 (A) (A) (A) (A) (A) (A) (A) (A) (A) (A) (A) (A)
                 (A) (A) (A) (A) (A) (A) (A) (A) (A) (A) (A) (A)
                 (A) (A) (A) (A) (A) (A) (A) (A) (A) (A) (A) (A)
                 (A) (A) (A) (A) (A) (A)
 The electronic state is 1-A.
 Alpha  occ. eigenvalues --  -88.16576 -88.16282 -88.16104 -88.15679 -88.15580
 Alpha  occ. eigenvalues --  -88.14955 -24.35695 -24.35282 -24.34645 -10.04080
 Alpha  occ. eigenvalues --  -10.03887 -10.03222 -10.00542 -10.00284 -10.00114
 Alpha  occ. eigenvalues --   -9.99942  -9.99773  -9.99731  -9.99545  -9.99528
 Alpha  occ. eigenvalues --   -9.99417  -9.99229  -9.98963  -9.97374  -9.97180
 Alpha  occ. eigenvalues --   -9.97007  -9.96914  -9.96811  -9.96670  -9.96401
 Alpha  occ. eigenvalues --   -9.96398  -9.95920  -9.95446  -7.77009  -7.76630
 Alpha  occ. eigenvalues --   -7.76556  -7.76139  -7.76028  -7.75435  -5.79098
 Alpha  occ. eigenvalues --   -5.78744  -5.78669  -5.78642  -5.78279  -5.78247
 Alpha  occ. eigenvalues --   -5.78226  -5.78206  -5.78134  -5.77822  -5.77745
 Alpha  occ. eigenvalues --   -5.77722  -5.77638  -5.77524  -5.77347  -5.77242
 Alpha  occ. eigenvalues --   -5.77010  -5.76688  -1.20431  -1.19074  -1.16821
 Alpha  occ. eigenvalues --   -0.90509  -0.89916  -0.88767  -0.87797  -0.87080
 Alpha  occ. eigenvalues --   -0.85745  -0.79253  -0.77281  -0.75817  -0.74404
 Alpha  occ. eigenvalues --   -0.73983  -0.73702  -0.73040  -0.72442  -0.72067
 Alpha  occ. eigenvalues --   -0.71255  -0.69954  -0.68119  -0.63369  -0.61814
 Alpha  occ. eigenvalues --   -0.60916  -0.59896  -0.58844  -0.57835  -0.57262
 Alpha  occ. eigenvalues --   -0.56587  -0.55775  -0.55610  -0.54808  -0.53402
 Alpha  occ. eigenvalues --   -0.53192  -0.52608  -0.51839  -0.49341  -0.49009
 Alpha  occ. eigenvalues --   -0.48830  -0.47791  -0.47680  -0.46701  -0.46473
 Alpha  occ. eigenvalues --   -0.46232  -0.46087  -0.45613  -0.44525  -0.43435
 Alpha  occ. eigenvalues --   -0.43112  -0.42557  -0.42193  -0.41875  -0.41243
 Alpha  occ. eigenvalues --   -0.40974  -0.40775  -0.40596  -0.40361  -0.39919
 Alpha  occ. eigenvalues --   -0.39380  -0.39054  -0.38443  -0.38080  -0.37956
 Alpha  occ. eigenvalues --   -0.37840  -0.37128  -0.36711  -0.35894  -0.34776
 Alpha  occ. eigenvalues --   -0.34543  -0.34134  -0.33830  -0.31569  -0.29670
 Alpha  occ. eigenvalues --   -0.28534  -0.28181  -0.27999  -0.27592  -0.27258
 Alpha  occ. eigenvalues --   -0.26860  -0.25906  -0.23664  -0.20886
[...]
                      3XX-RR        3YY-RR        3ZZ-RR
 --------------------------------------------------------
     1   Atom       -0.000000      0.000000     -0.000000
     2   Atom        0.000000     -0.000000      0.000000
     3   Atom        0.000000      0.000000     -0.000000
     4   Atom       -0.000000      0.000000      0.000000
     5   Atom       -0.000000     -0.000000      0.000000
     6   Atom        0.000000     -0.000000     -0.000000
     7   Atom        0.000000     -0.000000      0.000000
     8   Atom        0.000000      0.000000     -0.000000
     9   Atom       -0.000000      0.000000      0.000000
    10   Atom        0.000000     -0.000000     -0.000000
    11   Atom        0.000000     -0.000000     -0.000000
    12   Atom        0.000000     -0.000000      0.000000
    13   Atom       -0.000000     -0.000000      0.000000
    14   Atom       -0.000000     -0.000000      0.000000
    15   Atom        0.000000     -0.000000     -0.000000
    16   Atom       -0.000000     -0.000000      0.000000
    17   Atom       -0.000000      0.000000      0.000000
    18   Atom        0.000000     -0.000000     -0.000000
    19   Atom       -0.000000      0.000000      0.000000
    20   Atom        0.000000     -0.000000     -0.000000
    21   Atom        0.000000      0.000000     -0.000000
    22   Atom       -0.000000      0.000000      0.000000
    23   Atom        0.000000     -0.000000     -0.000000
    24   Atom        0.000000     -0.000000      0.000000
    25   Atom       -0.000000     -0.000000      0.000000
    26   Atom       -0.000000     -0.000000      0.000000
    27   Atom       -0.000000      0.000000      0.000000
    28   Atom       -0.000000     -0.000000      0.000000
    29   Atom        0.000000     -0.000000      0.000000
    30   Atom       -0.000000      0.000000     -0.000000
    31   Atom        0.000000     -0.000000     -0.000000
    32   Atom       -0.000000     -0.000000      0.000000
    33   Atom       -0.000000      0.000000     -0.000000
    34   Atom        0.000000     -0.000000     -0.000000
    35   Atom        0.000000     -0.000000      0.000000
    36   Atom        0.000000      0.000000     -0.000000
    37   Atom        0.000000     -0.000000     -0.000000
    38   Atom        0.000000     -0.000000      0.000000
    39   Atom        0.000000     -0.000000      0.000000
    40   Atom       -0.000000     -0.000000      0.000000
    41   Atom       -0.000000     -0.000000      0.000000
    42   Atom        0.000000     -0.000000      0.000000
    43   Atom       -0.000000     -0.000000      0.000000
    44   Atom       -0.000000      0.000000      0.000000
 --------------------------------------------------------
                        XY            XZ            YZ
 --------------------------------------------------------
     1   Atom       -0.000000     -0.000000      0.000000
     2   Atom        0.000000      0.000000     -0.000000
     3   Atom       -0.000000     -0.000000     -0.000000
     4   Atom        0.000000      0.000000      0.000000
     5   Atom        0.000000      0.000000      0.000000
     6   Atom        0.000000     -0.000000     -0.000000
     7   Atom        0.000000     -0.000000      0.000000
     8   Atom       -0.000000     -0.000000      0.000000
     9   Atom       -0.000000     -0.000000      0.000000
    10   Atom       -0.000000      0.000000      0.000000
    11   Atom       -0.000000     -0.000000     -0.000000
    12   Atom       -0.000000     -0.000000     -0.000000
    13   Atom        0.000000     -0.000000      0.000000
    14   Atom        0.000000     -0.000000     -0.000000
    15   Atom       -0.000000     -0.000000     -0.000000
    16   Atom       -0.000000     -0.000000     -0.000000
    17   Atom       -0.000000      0.000000      0.000000
    18   Atom       -0.000000     -0.000000     -0.000000
    19   Atom       -0.000000     -0.000000     -0.000000
    20   Atom        0.000000      0.000000     -0.000000
    21   Atom        0.000000      0.000000     -0.000000
    22   Atom        0.000000     -0.000000     -0.000000
    23   Atom        0.000000      0.000000      0.000000
    24   Atom        0.000000     -0.000000     -0.000000
    25   Atom        0.000000      0.000000      0.000000
    26   Atom       -0.000000     -0.000000      0.000000
    27   Atom        0.000000     -0.000000      0.000000
    28   Atom       -0.000000     -0.000000      0.000000
    29   Atom       -0.000000     -0.000000     -0.000000
    30   Atom        0.000000     -0.000000     -0.000000
    31   Atom       -0.000000     -0.000000     -0.000000
    32   Atom        0.000000     -0.000000      0.000000
    33   Atom       -0.000000     -0.000000      0.000000
    34   Atom        0.000000      0.000000      0.000000
    35   Atom       -0.000000      0.000000     -0.000000
    36   Atom       -0.000000     -0.000000      0.000000
    37   Atom        0.000000     -0.000000      0.000000
    38   Atom       -0.000000      0.000000      0.000000
    39   Atom        0.000000     -0.000000      0.000000
    40   Atom        0.000000     -0.000000      0.000000
    41   Atom       -0.000000     -0.000000     -0.000000
    42   Atom        0.000000     -0.000000      0.000000
    43   Atom       -0.000000      0.000000      0.000000
    44   Atom        0.000000      0.000000     -0.000000
 --------------------------------------------------------


 ---------------------------------------------------------------------------------
              Anisotropic Spin Dipole Couplings in Principal Axis System
 ---------------------------------------------------------------------------------

       Atom             a.u.   MegaHertz   Gauss  10(-4) cm-1        Axes

              Baa    -0.0000    -0.000    -0.000    -0.000  0.9611  0.2762  0.0076
     1 C(13)  Bbb    -0.0000    -0.000    -0.000    -0.000 -0.0043 -0.0128  0.9999
              Bcc     0.0000     0.000     0.000     0.000 -0.2762  0.9610  0.0111
 
              Baa    -0.0000    -0.000    -0.000    -0.000 -0.5065  0.8622  0.0065
     2 C(13)  Bbb     0.0000     0.000     0.000     0.000  0.0330  0.0119  0.9994
              Bcc     0.0000     0.000     0.000     0.000  0.8616  0.5064 -0.0345
 
              Baa    -0.0000    -0.000    -0.000    -0.000  0.0057  0.0061  1.0000
     3 C(13)  Bbb     0.0000     0.000     0.000     0.000  0.9361  0.3517 -0.0074
              Bcc     0.0000     0.000     0.000     0.000 -0.3518  0.9361 -0.0037
 
              Baa    -0.0000    -0.000    -0.000    -0.000  0.9707 -0.2403 -0.0036
     4 C(13)  Bbb     0.0000     0.000     0.000     0.000 -0.0002 -0.0156  0.9999
              Bcc     0.0000     0.000     0.000     0.000  0.2403  0.9706  0.0152
 
              Baa    -0.0000    -0.000    -0.000    -0.000 -0.5171  0.8559 -0.0039
     5 S(33)  Bbb     0.0000     0.000     0.000     0.000  0.8558  0.5170 -0.0174
              Bcc     0.0000     0.000     0.000     0.000  0.0129  0.0123  0.9998
 
              Baa    -0.0000    -0.000    -0.000    -0.000 -0.0020  0.0455  0.9990
     6 C(13)  Bbb    -0.0000    -0.000    -0.000    -0.000 -0.0884  0.9950 -0.0455
              Bcc     0.0000     0.000     0.000     0.000  0.9961  0.0884 -0.0020
 
              Baa    -0.0000    -0.000    -0.000    -0.000 -0.1349  0.9909 -0.0015
     7 C(13)  Bbb     0.0000     0.000     0.000     0.000  0.0092  0.0028  1.0000
              Bcc     0.0000     0.000     0.000     0.000  0.9908  0.1348 -0.0095
 
              Baa    -0.0000    -0.000    -0.000    -0.000 -0.0413 -0.0958  0.9945
     8 F(19)  Bbb    -0.0000    -0.000    -0.000    -0.000  0.6571  0.7472  0.0992
              Bcc     0.0000     0.000     0.000     0.000  0.7527 -0.6576 -0.0321
 
              Baa    -0.0000    -0.000    -0.000    -0.000  0.8183  0.5747  0.0042
     9 C(13)  Bbb     0.0000     0.000     0.000     0.000  0.0031 -0.0118  0.9999
              Bcc     0.0000     0.000     0.000     0.000 -0.5748  0.8182  0.0115
 
              Baa    -0.0000    -0.000    -0.000    -0.000  0.2275  0.9731 -0.0366
    10 C(13)  Bbb    -0.0000    -0.000    -0.000    -0.000  0.0075  0.0359  0.9993
              Bcc     0.0000     0.000     0.000     0.000  0.9738 -0.2276  0.0008
 
              Baa    -0.0000    -0.000    -0.000    -0.000  0.6504  0.7596  0.0067
    11 S(33)  Bbb    -0.0000    -0.000    -0.000    -0.000 -0.0032 -0.0061  1.0000
              Bcc     0.0000     0.000     0.000     0.000  0.7596 -0.6504 -0.0015
 
              Baa    -0.0000    -0.000    -0.000    -0.000  0.2901  0.9569  0.0099
    12 C(13)  Bbb     0.0000     0.000     0.000     0.000  0.0014 -0.0108  0.9999
              Bcc     0.0000     0.000     0.000     0.000  0.9570 -0.2901 -0.0045
 
              Baa    -0.0000    -0.000    -0.000    -0.000 -0.1473  0.9891 -0.0030
    13 C(13)  Bbb    -0.0000    -0.000    -0.000    -0.000  0.9891  0.1474  0.0038
              Bcc     0.0000     0.000     0.000     0.000 -0.0042  0.0024  1.0000
 
              Baa    -0.0000    -0.000    -0.000    -0.000 -0.5693  0.8221  0.0007
    14 C(13)  Bbb     0.0000     0.000     0.000     0.000  0.8221  0.5693  0.0091
              Bcc     0.0000     0.000     0.000     0.000 -0.0071 -0.0057  1.0000
 
              Baa    -0.0000    -0.000    -0.000    -0.000  0.6444  0.7644  0.0222
    15 C(13)  Bbb    -0.0000    -0.000    -0.000    -0.000 -0.0155 -0.0160  0.9998
              Bcc     0.0000     0.000     0.000     0.000  0.7646 -0.6445  0.0016
 
              Baa    -0.0000    -0.000    -0.000    -0.000  0.7329  0.6803  0.0066
    16 S(33)  Bbb     0.0000     0.000     0.000     0.000 -0.6803  0.7329 -0.0047
              Bcc     0.0000     0.000     0.000     0.000 -0.0080 -0.0010  1.0000
 
              Baa    -0.0000    -0.000    -0.000    -0.000  0.9127  0.4086 -0.0050
    17 C(13)  Bbb     0.0000     0.000     0.000     0.000 -0.4086  0.9127 -0.0086
              Bcc     0.0000     0.000     0.000     0.000  0.0010  0.0098  1.0000
 
              Baa    -0.0000    -0.000    -0.000    -0.000  0.0025  0.0078  1.0000
    18 C(13)  Bbb    -0.0000    -0.000    -0.000    -0.000  0.3754  0.9268 -0.0081
              Bcc     0.0000     0.000     0.000     0.000  0.9268 -0.3754  0.0006
 
              Baa    -0.0000    -0.000    -0.000    -0.000  0.9744  0.2247  0.0036
    19 F(19)  Bbb     0.0000     0.000     0.000     0.000 -0.0107  0.0307  0.9995
              Bcc     0.0000     0.000     0.000     0.000 -0.2245  0.9739 -0.0324
 
              Baa    -0.0000    -0.000    -0.000    -0.000 -0.0089  0.0166  0.9998
    20 C(13)  Bbb    -0.0000    -0.000    -0.000    -0.000 -0.0394  0.9991 -0.0170
              Bcc     0.0000     0.000     0.000     0.000  0.9992  0.0396  0.0082
 
              Baa    -0.0000    -0.000    -0.000    -0.000 -0.6406  0.7649  0.0672
    21 C(13)  Bbb    -0.0000    -0.000    -0.000    -0.000  0.0383 -0.0557  0.9977
              Bcc     0.0000     0.000     0.000     0.000  0.7669  0.6417  0.0064
 
              Baa    -0.0000    -0.000    -0.000    -0.000  0.8740 -0.4859  0.0044
    22 S(33)  Bbb     0.0000     0.000     0.000     0.000  0.0006  0.0101  0.9999
              Bcc     0.0000     0.000     0.000     0.000  0.4859  0.8740 -0.0091
 
              Baa    -0.0000    -0.000    -0.000    -0.000 -0.3834  0.9234 -0.0196
    23 C(13)  Bbb    -0.0000    -0.000    -0.000    -0.000 -0.0100  0.0171  0.9998
              Bcc     0.0000     0.000     0.000     0.000  0.9235  0.3835  0.0027
 
              Baa    -0.0000    -0.000    -0.000    -0.000 -0.3925  0.9198  0.0010
    24 C(13)  Bbb     0.0000     0.000     0.000     0.000  0.1621  0.0681  0.9844
              Bcc     0.0000     0.000     0.000     0.000  0.9054  0.3865 -0.1758
 
              Baa    -0.0000    -0.000    -0.000    -0.000  0.8610 -0.5087 -0.0024
    25 C(13)  Bbb     0.0000     0.000     0.000     0.000  0.5086  0.8609 -0.0104
              Bcc     0.0000     0.000     0.000     0.000  0.0073  0.0077  0.9999
 
              Baa    -0.0000    -0.000    -0.000    -0.000  0.7302  0.6832  0.0012
    26 C(13)  Bbb     0.0000     0.000     0.000     0.000 -0.6832  0.7302 -0.0038
              Bcc     0.0000     0.000     0.000     0.000 -0.0035  0.0020  1.0000
 
              Baa    -0.0000    -0.000    -0.000    -0.000  0.7629 -0.6465  0.0079
    27 S(33)  Bbb     0.0000     0.000     0.000     0.000 -0.0066  0.0043  1.0000
              Bcc     0.0000     0.000     0.000     0.000  0.6465  0.7629  0.0010
 
              Baa    -0.0000    -0.000    -0.000    -0.000  0.6637  0.7479  0.0114
    28 C(13)  Bbb     0.0000     0.000     0.000     0.000  0.3956 -0.3640  0.8432
              Bcc     0.0000     0.000     0.000     0.000  0.6348 -0.5551 -0.5375
 
              Baa    -0.0000    -0.000    -0.000    -0.000  0.4562  0.8899  0.0048
    29 C(13)  Bbb     0.0000     0.000     0.000     0.000  0.8883 -0.4551 -0.0614
              Bcc     0.0000     0.000     0.000     0.000  0.0525 -0.0323  0.9981
 
              Baa    -0.0000    -0.000    -0.000    -0.000  0.7908 -0.6121  0.0011
    30 F(19)  Bbb    -0.0000    -0.000    -0.000    -0.000 -0.0002  0.0016  1.0000
              Bcc     0.0000     0.000     0.000     0.000  0.6121  0.7908 -0.0012
 
              Baa    -0.0000    -0.000    -0.000    -0.000  0.0685  0.1970  0.9780
    31 C(13)  Bbb    -0.0000    -0.000    -0.000    -0.000  0.3173  0.9251 -0.2086
              Bcc     0.0000     0.000     0.000     0.000  0.9459 -0.3246 -0.0009
 
              Baa    -0.0000    -0.000    -0.000    -0.000  0.7791 -0.6269  0.0043
    32 C(13)  Bbb     0.0000     0.000     0.000     0.000 -0.0107 -0.0064  0.9999
              Bcc     0.0000     0.000     0.000     0.000  0.6268  0.7791  0.0117
 
              Baa    -0.0000    -0.000    -0.000    -0.000  0.8503  0.5239  0.0499
    33 S(33)  Bbb    -0.0000    -0.000    -0.000    -0.000 -0.0315 -0.0441  0.9985
              Bcc     0.0000     0.000     0.000     0.000 -0.5254  0.8506  0.0210
 
              Baa    -0.0000    -0.000    -0.000    -0.000 -0.4498  0.8931  0.0020
    34 H(1)   Bbb    -0.0000    -0.000    -0.000    -0.000 -0.0010 -0.0027  1.0000
              Bcc     0.0000     0.000     0.000     0.000  0.8931  0.4498  0.0021
 
              Baa    -0.0000    -0.000    -0.000    -0.000  0.4117  0.9113  0.0011
    35 H(1)   Bbb     0.0000     0.000     0.000     0.000  0.9113 -0.4117 -0.0051
              Bcc     0.0000     0.000     0.000     0.000  0.0042 -0.0031  1.0000
 
              Baa    -0.0000    -0.000    -0.000    -0.000  0.7746  0.5750  0.2636
    36 H(1)   Bbb    -0.0000    -0.000    -0.000    -0.000 -0.2105 -0.1586  0.9646
              Bcc     0.0000     0.000     0.000     0.000 -0.5964  0.8027  0.0018
 
              Baa    -0.0000    -0.000    -0.000    -0.000 -0.5370  0.8428 -0.0360
    37 H(1)   Bbb    -0.0000    -0.000    -0.000    -0.000 -0.0181  0.0311  0.9994
              Bcc     0.0000     0.000     0.000     0.000  0.8434  0.5373 -0.0015
 
              Baa    -0.0000    -0.000    -0.000    -0.000  0.4449  0.8956 -0.0086
    38 H(1)   Bbb     0.0000     0.000     0.000     0.000 -0.1157  0.0670  0.9910
              Bcc     0.0000     0.000     0.000     0.000  0.8881 -0.4399  0.1335
 
              Baa    -0.0000    -0.000    -0.000    -0.000 -0.4699  0.8827 -0.0012
    39 H(1)   Bbb     0.0000     0.000     0.000     0.000  0.8827  0.4699  0.0076
              Bcc     0.0000     0.000     0.000     0.000 -0.0072 -0.0025  1.0000
 
              Baa    -0.0000    -0.000    -0.000    -0.000 -0.5220  0.8529 -0.0029
    40 H(1)   Bbb     0.0000     0.000     0.000     0.000  0.8529  0.5220 -0.0084
              Bcc     0.0000     0.000     0.000     0.000  0.0056  0.0069  1.0000
 
              Baa    -0.0000    -0.000    -0.000    -0.000  0.7026  0.7116  0.0054
    41 H(1)   Bbb     0.0000     0.000     0.000     0.000  0.0070 -0.0145  0.9999
              Bcc     0.0000     0.000     0.000     0.000  0.7115 -0.7025 -0.0152
 
              Baa    -0.0000    -0.000    -0.000    -0.000 -0.5309  0.8474 -0.0014
    42 H(1)   Bbb     0.0000     0.000     0.000     0.000  0.8474  0.5308 -0.0090
              Bcc     0.0000     0.000     0.000     0.000  0.0068  0.0060  1.0000
 
              Baa    -0.0000    -0.000    -0.000    -0.000  0.7496  0.6619 -0.0058
    43 H(1)   Bbb     0.0000     0.000     0.000     0.000 -0.6619  0.7495 -0.0083
              Bcc     0.0000     0.000     0.000     0.000 -0.0012  0.0101  0.9999
 
              Baa    -0.0000    -0.000    -0.000    -0.000  0.9899 -0.1420 -0.0048
    44 H(1)   Bbb     0.0000     0.000     0.000     0.000  0.1420  0.9898  0.0082
              Bcc     0.0000     0.000     0.000     0.000  0.0036 -0.0088  1.0000
 

 ---------------------------------------------------------------------------------

 No NMR shielding tensors so no spin-rotation constants.
 Leave Link  601 at Thu Jul 23 21:04:01 2020, MaxMem=  4026531840 cpu:               6.6 elap:               0.9
 (Enter /opt/ohpc/pub/libs/gaussian/g16-A.03/sandybridge/g16/l9999.exe)

 Test job not archived.
 1\1\GINC-SKYLAKE052\FOpt\ULC-wPBE\CC-pVDZ\C24H11F3S6\RDU230\23-Jul-202
 0\0\\#P uLC-wPBE/cc-pVDZ iop(3/107=0090000000, 3/108=0090000000) opt\\
 H11 C24 S6 F3\\0,1\C,11.1160395928,-0.3203343618,0.0090935203\C,10.595
 3052911,-1.5982647919,0.0002194626\C,9.1719382374,-1.6119006964,-0.001
 2299417\C,8.606373177,-0.3396309369,0.0066108395\S,9.869596923,0.88823
 40565,0.0158627524\C,7.206882199,0.0229023838,0.0076992347\C,6.6156256
 039,1.2805677305,0.0149930591\F,7.3549738088,2.4147471882,0.0226556745
 \C,5.201453276,1.3048375327,0.0137255542\C,4.6577324771,0.0257658166,0
 .0052264848\S,5.9339329137,-1.1913117987,-0.0007866567\C,3.2697275155,
 -0.3774188063,0.0012661076\C,2.7278379847,-1.6605593542,-0.0118149039\
 C,1.3128771957,-1.6778184683,-0.0119197416\C,0.7385621734,-0.407398384
 2,0.0010353146\S,1.9917701264,0.8305506795,0.0138928911\C,-0.659144477
 3,-0.0535578938,0.004531634\C,-1.2564471217,1.202710077,0.0175124624\F
 ,-0.5209626792,2.3388797163,0.0294026674\C,-2.6697129224,1.2205426946,
 0.0176990962\C,-3.2077741985,-0.0613992481,0.0044332134\S,-1.927519015
 1,-1.2739895846,-0.0083618126\C,-4.594087284,-0.4702645868,0.000250616
 1\C,-5.1303763567,-1.7554007573,-0.0093207233\C,-6.5458515596,-1.77758
 44873,-0.0106724929\C,-7.1239581977,-0.5102296223,-0.0021407161\S,-5.8
 770800578,0.7320960891,0.0075163928\C,-8.5263450418,-0.1590347094,-0.0
 007187857\C,-9.1218862327,1.0968012837,0.0077808564\F,-8.3887378675,2.
 2351957414,0.0164359392\C,-10.542691235,1.1080903024,0.0067850485\C,-1
 1.0492995202,-0.1727260043,-0.0027110796\S,-9.7945702999,-1.3773384414
 ,-0.0103793284\H,12.1665123066,-0.0106060747,0.012151059\H,11.21583807
 86,-2.5029649437,-0.0051653292\H,8.568527546,-2.5290482601,-0.00785144
 18\H,4.6154003042,2.2312202054,0.0185236011\H,3.3458550165,-2.56770775
 84,-0.0214502077\H,0.7151825935,-2.5983402855,-0.0214413846\H,-3.26013
 2414,2.1440315825,0.027568639\H,-4.5092882796,-2.6605043229,-0.0149456
 417\H,-7.1400011031,-2.7004171133,-0.0176072304\H,-11.142933856,2.0247
 011064,0.0128455804\H,-12.0970176211,-0.4895824941,-0.0057722837\\Vers
 ion=EM64L-G16RevA.03\State=1-A\HF=-3607.859735\S2=0.\S2-1=0.\S2A=0.\RM
 SD=7.466e-09\RMSF=3.530e-06\Dipole=-1.42924,-0.9190218,-0.0080964\Quad
 rupole=28.1478521,-5.4675366,-22.6803155,-4.1125693,-0.0035168,0.13435
 77\PG=C01 [X(C24H11F3S6)]\\@


 READER, WHETHER YOU BE DILETTANTE OR PROFESSOR ... SHOW YOURSELF TO BE
 MORE HUMAN THAN CRITICAL, AND THEN YOUR PLEASURE WILL INCREASE.
                                           -- DOMENICO SCARLATTI (1738)
 Job cpu time:       0 days 18 hours 11 minutes 47.8 seconds.
 Elapsed time:       0 days  2 hours 17 minutes 12.2 seconds.
 File lengths (MBytes):  RWF=    380 Int=      0 D2E=      0 Chk=     36 Scr=      8
 Normal termination of Gaussian 16 at Thu Jul 23 21:04:02 2020.
