 Entering Gaussian System, Link 0=g16
 Input=mols_65_1_01_c-c-N_opt_0.gjf
 Output=mols_65_1_01_c-c-N_opt_0.log
 Initial command:
 /opt/ohpc/pub/libs/gaussian/g16-A.03/sandybridge/g16/l1.exe "/mnt/gpfs2_4m/scratch/rdu230/ondemand/projects/dihedral_energies/7trial/wtuning/mols_65_1_01_c-c-N/Gau-393275.inp" -scrdir="/mnt/gpfs2_4m/scratch/rdu230/ondemand/projects/dihedral_energies/7trial/wtuning/mols_65_1_01_c-c-N/"
 Entering Link 1 = /opt/ohpc/pub/libs/gaussian/g16-A.03/sandybridge/g16/l1.exe PID=    393276.
  
 Copyright (c) 1988,1990,1992,1993,1995,1998,2003,2009,2016,
            Gaussian, Inc.  All Rights Reserved.
  
 This is part of the Gaussian(R) 16 program.  It is based on
 the Gaussian(R) 09 system (copyright 2009, Gaussian, Inc.),
 the Gaussian(R) 03 system (copyright 2003, Gaussian, Inc.),
 the Gaussian(R) 98 system (copyright 1998, Gaussian, Inc.),
 the Gaussian(R) 94 system (copyright 1995, Gaussian, Inc.),
 the Gaussian 92(TM) system (copyright 1992, Gaussian, Inc.),
 the Gaussian 90(TM) system (copyright 1990, Gaussian, Inc.),
 the Gaussian 88(TM) system (copyright 1988, Gaussian, Inc.),
 the Gaussian 86(TM) system (copyright 1986, Carnegie Mellon
 University), and the Gaussian 82(TM) system (copyright 1983,
 Carnegie Mellon University). Gaussian is a federally registered
 trademark of Gaussian, Inc.
  
 This software contains proprietary and confidential information,
 including trade secrets, belonging to Gaussian, Inc.
  
 This software is provided under written license and may be
 used, copied, transmitted, or stored only in accord with that
 written license.
  
 The following legend is applicable only to US Government
 contracts under FAR:
  
                    RESTRICTED RIGHTS LEGEND
  
 Use, reproduction and disclosure by the US Government is
 subject to restrictions as set forth in subparagraphs (a)
 and (c) of the Commercial Computer Software - Restricted
 Rights clause in FAR 52.227-19.
  
 Gaussian, Inc.
 340 Quinnipiac St., Bldg. 40, Wallingford CT 06492
  
  
 ---------------------------------------------------------------
 Warning -- This program may not be used in any manner that
 competes with the business of Gaussian, Inc. or will provide
 assistance to any competitor of Gaussian, Inc.  The licensee
 of this program is prohibited from giving any competitor of
 Gaussian, Inc. access to this program.  By using this program,
 the user acknowledges that Gaussian, Inc. is engaged in the
 business of creating and licensing software in the field of
 computational chemistry and represents and warrants to the
 licensee that it is not a competitor of Gaussian, Inc. and that
 it will not use this program in any manner prohibited above.
 ---------------------------------------------------------------
  

 Cite this work as:
 Gaussian 16, Revision A.03,
 M. J. Frisch, G. W. Trucks, H. B. Schlegel, G. E. Scuseria, 
 M. A. Robb, J. R. Cheeseman, G. Scalmani, V. Barone, 
 G. A. Petersson, H. Nakatsuji, X. Li, M. Caricato, A. V. Marenich, 
 J. Bloino, B. G. Janesko, R. Gomperts, B. Mennucci, H. P. Hratchian, 
 J. V. Ortiz, A. F. Izmaylov, J. L. Sonnenberg, D. Williams-Young, 
 F. Ding, F. Lipparini, F. Egidi, J. Goings, B. Peng, A. Petrone, 
 T. Henderson, D. Ranasinghe, V. G. Zakrzewski, J. Gao, N. Rega, 
 G. Zheng, W. Liang, M. Hada, M. Ehara, K. Toyota, R. Fukuda, 
 J. Hasegawa, M. Ishida, T. Nakajima, Y. Honda, O. Kitao, H. Nakai, 
 T. Vreven, K. Throssell, J. A. Montgomery, Jr., J. E. Peralta, 
 F. Ogliaro, M. J. Bearpark, J. J. Heyd, E. N. Brothers, K. N. Kudin, 
 V. N. Staroverov, T. A. Keith, R. Kobayashi, J. Normand, 
 K. Raghavachari, A. P. Rendell, J. C. Burant, S. S. Iyengar, 
 J. Tomasi, M. Cossi, J. M. Millam, M. Klene, C. Adamo, R. Cammi, 
 J. W. Ochterski, R. L. Martin, K. Morokuma, O. Farkas, 
 J. B. Foresman, and D. J. Fox, Gaussian, Inc., Wallingford CT, 2016.
 
 ******************************************
 Gaussian 16:  EM64L-G16RevA.03 25-Dec-2016
                24-Jul-2020 
 ******************************************
 %mem=30GB
 %nproc=8
 Will use up to    8 processors via shared memory.
 ---------------------------------------------------------------
 #P uLC-wPBE/cc-pVDZ iop(3/107=0163900000, 3/108=0163900000) opt
 ---------------------------------------------------------------
 1/18=20,19=15,26=3,38=1/1,3;
 2/9=110,12=2,17=6,18=5,40=1/2;
 3/5=16,11=2,25=1,30=1,71=1,74=-41,107=163900000,108=163900000,116=2/1,2,3;
 4//1;
 5/5=2,38=5/2;
 6/7=2,8=2,9=2,10=2,28=1/1;
 7//1,2,3,16;
 1/18=20,19=15,26=3/3(2);
 2/9=110/2;
 99//99;
 2/9=110/2;
 3/5=16,11=2,25=1,30=1,71=1,74=-41,107=163900000,108=163900000,116=2/1,2,3;
 4/5=5,16=3,69=1/1;
 5/5=2,38=5/2;
 7//1,2,3,16;
 1/18=20,19=15,26=3/3(-5);
 2/9=110/2;
 6/7=2,8=2,9=2,10=2,19=2,28=1/1;
 99/9=1/99;
 Leave Link    1 at Fri Jul 24 16:39:30 2020, MaxMem=  4026531840 cpu:               2.8 elap:               0.4
 (Enter /opt/ohpc/pub/libs/gaussian/g16-A.03/sandybridge/g16/l101.exe)
 -----------
 H7 C9 S1 N1
 -----------
 Symbolic Z-matrix:
 Charge =  0 Multiplicity = 1
 C                     3.46384  -0.02171  -0.03469 
 C                     2.78311  -1.20061  -0.02794 
 C                     1.3192   -1.12739   0.0284 
 C                     0.64231   0.11088   0.01748 
 C                     1.46968   1.27371   0.03525 
 C                     2.81022   1.15837   0.01403 
 C                    -0.79603   0.16046   0.028 
 N                    -1.42987   1.38724   0.04041 
 C                    -2.80797   1.13142  -0.03774 
 C                    -3.17581  -0.16236   0.02568 
 S                    -1.8212   -1.18214   0.04085 
 H                     4.54673  -0.12525  -0.0048 
 H                     3.26386  -2.13624   0.01826 
 H                     0.80065  -2.14347  -0.02585 
 H                     1.01172   2.21198   0.0127 
 H                     3.405     2.07585   0.0307 
 H                    -3.47844   1.97879  -0.0148 
 H                    -4.20153  -0.49672  -0.01215 
 
 ITRead=  0  0  0  0  0  0  0  0  0  0  0  0  0  0  0  0  0  0
 MicOpt= -1 -1 -1 -1 -1 -1 -1 -1 -1 -1 -1 -1 -1 -1 -1 -1 -1 -1
 NAtoms=     18 NQM=       18 NQMF=       0 NMMI=      0 NMMIF=      0
                NMic=       0 NMicF=      0.
                    Isotopes and Nuclear Properties:
 (Nuclear quadrupole moments (NQMom) in fm**2, nuclear magnetic moments (NMagM)
  in nuclear magnetons)

  Atom         1           2           3           4           5           6           7           8           9          10
 IAtWgt=          12          12          12          12          12          12          12          14          12          12
 AtmWgt=  12.0000000  12.0000000  12.0000000  12.0000000  12.0000000  12.0000000  12.0000000  14.0030740  12.0000000  12.0000000
 NucSpn=           0           0           0           0           0           0           0           2           0           0
 AtZEff=  -0.0000000  -0.0000000  -0.0000000  -0.0000000  -0.0000000  -0.0000000  -0.0000000  -0.0000000  -0.0000000  -0.0000000
 NQMom=    0.0000000   0.0000000   0.0000000   0.0000000   0.0000000   0.0000000   0.0000000   2.0440000   0.0000000   0.0000000
 NMagM=    0.0000000   0.0000000   0.0000000   0.0000000   0.0000000   0.0000000   0.0000000   0.4037610   0.0000000   0.0000000
 AtZNuc=   6.0000000   6.0000000   6.0000000   6.0000000   6.0000000   6.0000000   6.0000000   7.0000000   6.0000000   6.0000000

  Atom        11          12          13          14          15          16          17          18
 IAtWgt=          32           1           1           1           1           1           1           1
 AtmWgt=  31.9720718   1.0078250   1.0078250   1.0078250   1.0078250   1.0078250   1.0078250   1.0078250
 NucSpn=           0           1           1           1           1           1           1           1
 AtZEff=  -0.0000000  -0.0000000  -0.0000000  -0.0000000  -0.0000000  -0.0000000  -0.0000000  -0.0000000
 NQMom=    0.0000000   0.0000000   0.0000000   0.0000000   0.0000000   0.0000000   0.0000000   0.0000000
 NMagM=    0.0000000   2.7928460   2.7928460   2.7928460   2.7928460   2.7928460   2.7928460   2.7928460
 AtZNuc=  16.0000000   1.0000000   1.0000000   1.0000000   1.0000000   1.0000000   1.0000000   1.0000000
 Leave Link  101 at Fri Jul 24 16:39:30 2020, MaxMem=  4026531840 cpu:               3.2 elap:               0.4
 (Enter /opt/ohpc/pub/libs/gaussian/g16-A.03/sandybridge/g16/l103.exe)

 GradGradGradGradGradGradGradGradGradGradGradGradGradGradGradGradGradGrad
 Berny optimization.
 Initialization pass.
                           ----------------------------
                           !    Initial Parameters    !
                           ! (Angstroms and Degrees)  !
 --------------------------                            --------------------------
 ! Name  Definition              Value          Derivative Info.                !
 --------------------------------------------------------------------------------
 ! R1    R(1,2)                  1.3613         estimate D2E/DX2                !
 ! R2    R(1,6)                  1.3499         estimate D2E/DX2                !
 ! R3    R(1,12)                 1.0882         estimate D2E/DX2                !
 ! R4    R(2,3)                  1.4668         estimate D2E/DX2                !
 ! R5    R(2,13)                 1.0529         estimate D2E/DX2                !
 ! R6    R(3,4)                  1.4112         estimate D2E/DX2                !
 ! R7    R(3,14)                 1.142          estimate D2E/DX2                !
 ! R8    R(4,5)                  1.4272         estimate D2E/DX2                !
 ! R9    R(4,7)                  1.4392         estimate D2E/DX2                !
 ! R10   R(5,6)                  1.3457         estimate D2E/DX2                !
 ! R11   R(5,15)                 1.0443         estimate D2E/DX2                !
 ! R12   R(6,16)                 1.0935         estimate D2E/DX2                !
 ! R13   R(7,8)                  1.3809         estimate D2E/DX2                !
 ! R14   R(7,11)                 1.6893         estimate D2E/DX2                !
 ! R15   R(8,9)                  1.4038         estimate D2E/DX2                !
 ! R16   R(9,10)                 1.3465         estimate D2E/DX2                !
 ! R17   R(9,17)                 1.0808         estimate D2E/DX2                !
 ! R18   R(10,11)                1.6956         estimate D2E/DX2                !
 ! R19   R(10,18)                1.0795         estimate D2E/DX2                !
 ! A1    A(2,1,6)              120.9808         estimate D2E/DX2                !
 ! A2    A(2,1,12)             114.5228         estimate D2E/DX2                !
 ! A3    A(6,1,12)             124.3335         estimate D2E/DX2                !
 ! A4    A(1,2,3)              117.1302         estimate D2E/DX2                !
 ! A5    A(1,2,13)             122.7799         estimate D2E/DX2                !
 ! A6    A(3,2,13)             119.8912         estimate D2E/DX2                !
 ! A7    A(2,3,4)              121.4791         estimate D2E/DX2                !
 ! A8    A(2,3,14)             114.0114         estimate D2E/DX2                !
 ! A9    A(4,3,14)             124.2293         estimate D2E/DX2                !
 ! A10   A(3,4,5)              115.8959         estimate D2E/DX2                !
 ! A11   A(3,4,7)              120.6313         estimate D2E/DX2                !
 ! A12   A(5,4,7)              123.4477         estimate D2E/DX2                !
 ! A13   A(4,5,6)              120.495          estimate D2E/DX2                !
 ! A14   A(4,5,15)             118.524          estimate D2E/DX2                !
 ! A15   A(6,5,15)             120.8988         estimate D2E/DX2                !
 ! A16   A(1,6,5)              123.9079         estimate D2E/DX2                !
 ! A17   A(1,6,16)             118.0767         estimate D2E/DX2                !
 ! A18   A(5,6,16)             118.0141         estimate D2E/DX2                !
 ! A19   A(4,7,8)              119.3009         estimate D2E/DX2                !
 ! A20   A(4,7,11)             125.3918         estimate D2E/DX2                !
 ! A21   A(8,7,11)             115.3049         estimate D2E/DX2                !
 ! A22   A(7,8,9)              106.7506         estimate D2E/DX2                !
 ! A23   A(8,9,10)             116.1446         estimate D2E/DX2                !
 ! A24   A(8,9,17)             117.7057         estimate D2E/DX2                !
 ! A25   A(10,9,17)            125.651          estimate D2E/DX2                !
 ! A26   A(9,10,11)            111.1024         estimate D2E/DX2                !
 ! A27   A(9,10,18)            123.7458         estimate D2E/DX2                !
 ! A28   A(11,10,18)           124.9678         estimate D2E/DX2                !
 ! A29   A(7,11,10)             90.3874         estimate D2E/DX2                !
 ! D1    D(6,1,2,3)              0.2563         estimate D2E/DX2                !
 ! D2    D(6,1,2,13)          -174.6086         estimate D2E/DX2                !
 ! D3    D(12,1,2,3)           175.8126         estimate D2E/DX2                !
 ! D4    D(12,1,2,13)            0.9477         estimate D2E/DX2                !
 ! D5    D(2,1,6,5)             -1.8762         estimate D2E/DX2                !
 ! D6    D(2,1,6,16)           178.5385         estimate D2E/DX2                !
 ! D7    D(12,1,6,5)          -176.9792         estimate D2E/DX2                !
 ! D8    D(12,1,6,16)            3.4355         estimate D2E/DX2                !
 ! D9    D(1,2,3,4)              2.6775         estimate D2E/DX2                !
 ! D10   D(1,2,3,14)           176.8427         estimate D2E/DX2                !
 ! D11   D(13,2,3,4)           177.6981         estimate D2E/DX2                !
 ! D12   D(13,2,3,14)           -8.1368         estimate D2E/DX2                !
 ! D13   D(2,3,4,5)             -3.8614         estimate D2E/DX2                !
 ! D14   D(2,3,4,7)            177.8964         estimate D2E/DX2                !
 ! D15   D(14,3,4,5)          -177.4124         estimate D2E/DX2                !
 ! D16   D(14,3,4,7)             4.3453         estimate D2E/DX2                !
 ! D17   D(3,4,5,6)              2.3084         estimate D2E/DX2                !
 ! D18   D(3,4,5,15)           179.0432         estimate D2E/DX2                !
 ! D19   D(7,4,5,6)           -179.5043         estimate D2E/DX2                !
 ! D20   D(7,4,5,15)            -2.7695         estimate D2E/DX2                !
 ! D21   D(3,4,7,8)            178.8811         estimate D2E/DX2                !
 ! D22   D(3,4,7,11)            -0.5261         estimate D2E/DX2                !
 ! D23   D(5,4,7,8)              0.7763         estimate D2E/DX2                !
 ! D24   D(5,4,7,11)          -178.631          estimate D2E/DX2                !
 ! D25   D(4,5,6,1)              0.5246         estimate D2E/DX2                !
 ! D26   D(4,5,6,16)          -179.8899         estimate D2E/DX2                !
 ! D27   D(15,5,6,1)          -176.1319         estimate D2E/DX2                !
 ! D28   D(15,5,6,16)            3.4536         estimate D2E/DX2                !
 ! D29   D(4,7,8,9)            176.3204         estimate D2E/DX2                !
 ! D30   D(11,7,8,9)            -4.214          estimate D2E/DX2                !
 ! D31   D(4,7,11,10)         -179.2801         estimate D2E/DX2                !
 ! D32   D(8,7,11,10)            1.2916         estimate D2E/DX2                !
 ! D33   D(7,8,9,10)             6.0839         estimate D2E/DX2                !
 ! D34   D(7,8,9,17)           178.4459         estimate D2E/DX2                !
 ! D35   D(8,9,10,11)           -5.3812         estimate D2E/DX2                !
 ! D36   D(8,9,10,18)          179.3364         estimate D2E/DX2                !
 ! D37   D(17,9,10,11)        -177.0546         estimate D2E/DX2                !
 ! D38   D(17,9,10,18)           7.6631         estimate D2E/DX2                !
 ! D39   D(9,10,11,7)            2.256          estimate D2E/DX2                !
 ! D40   D(18,10,11,7)         177.4689         estimate D2E/DX2                !
 --------------------------------------------------------------------------------
 Trust Radius=3.00D-01 FncErr=1.00D-07 GrdErr=1.00D-06 EigMax=2.50D+02 EigMin=1.00D-04
 Number of steps in this run=     98 maximum allowed number of steps=    108.
 GradGradGradGradGradGradGradGradGradGradGradGradGradGradGradGradGradGrad

 Leave Link  103 at Fri Jul 24 16:39:30 2020, MaxMem=  4026531840 cpu:               0.1 elap:               0.0
 (Enter /opt/ohpc/pub/libs/gaussian/g16-A.03/sandybridge/g16/l202.exe)
                          Input orientation:                          
 ---------------------------------------------------------------------
 Center     Atomic      Atomic             Coordinates (Angstroms)
 Number     Number       Type             X           Y           Z
 ---------------------------------------------------------------------
      1          6           0        3.463838   -0.021712   -0.034694
      2          6           0        2.783106   -1.200615   -0.027936
      3          6           0        1.319198   -1.127395    0.028399
      4          6           0        0.642313    0.110876    0.017479
      5          6           0        1.469682    1.273708    0.035251
      6          6           0        2.810217    1.158373    0.014029
      7          6           0       -0.796026    0.160460    0.028000
      8          7           0       -1.429873    1.387236    0.040413
      9          6           0       -2.807970    1.131415   -0.037738
     10          6           0       -3.175810   -0.162360    0.025676
     11         16           0       -1.821203   -1.182137    0.040852
     12          1           0        4.546730   -0.125253   -0.004803
     13          1           0        3.263861   -2.136240    0.018255
     14          1           0        0.800649   -2.143470   -0.025851
     15          1           0        1.011724    2.211978    0.012704
     16          1           0        3.405001    2.075854    0.030701
     17          1           0       -3.478437    1.978785   -0.014803
     18          1           0       -4.201530   -0.496719   -0.012148
 ---------------------------------------------------------------------
                    Distance matrix (angstroms):
                    1          2          3          4          5
     1  C    0.000000
     2  C    1.361343   0.000000
     3  C    2.413710   1.466820   0.000000
     4  C    2.825120   2.510989   1.411243   0.000000
     5  C    2.379005   2.802026   2.405824   1.427247   0.000000
     6  C    1.349887   2.359517   2.729117   2.407710   1.345655
     7  C    4.264218   3.829600   2.476438   1.439232   2.524442
     8  N    5.093052   4.944779   3.725709   2.433840   2.901781
     9  C    6.376934   6.057936   4.705328   3.598472   4.280640
    10  C    6.641412   6.048928   4.597434   3.827896   4.862405
    11  S    5.411465   4.604860   3.140903   2.782326   4.106231
    12  H    1.088241   2.065746   3.379697   3.911614   3.380373
    13  H    2.124623   1.052926   2.190796   3.452831   3.853195
    14  H    3.405071   2.195248   1.142035   2.260315   3.482592
    15  H    3.317300   3.845158   3.353535   2.133335   1.044311
    16  H    2.099410   3.335482   3.822484   3.390245   2.094975
    17  H    7.224788   7.022512   5.715551   4.524457   4.998352
    18  H    7.680105   7.020033   5.556783   4.881891   5.941322
                    6          7          8          9         10
     6  C    0.000000
     7  C    3.741793   0.000000
     8  N    4.246344   1.380904   0.000000
     9  C    5.618490   2.234948   1.403817   0.000000
    10  C    6.130007   2.401581   2.334472   1.346544   0.000000
    11  S    5.189293   1.689296   2.599003   2.516428   1.695622
    12  H    2.159520   5.350491   6.165181   7.461361   7.722689
    13  H    3.325701   4.664505   5.869115   6.895494   6.735401
    14  H    3.865504   2.803634   4.176782   4.873104   4.442936
    15  H    2.084385   2.734396   2.577278   3.969915   4.813844
    16  H    1.093534   4.617074   4.883676   6.284716   6.951022
    17  H    6.342009   3.240905   2.132978   1.080781   2.162805
    18  H    7.204485   3.468567   3.351736   2.143242   1.079504
                   11         12         13         14         15
    11  S    0.000000
    12  H    6.455204   0.000000
    13  H    5.173848   2.385446   0.000000
    14  H    2.793335   4.255205   2.463617   0.000000
    15  H    4.421118   4.237832   4.896851   4.360730   0.000000
    16  H    6.158556   2.479854   4.214476   4.958684   2.397213
    17  H    3.569447   8.296408   7.898931   5.941690   4.496296
    18  H    2.477612   8.756146   7.643364   5.266286   5.875004
                   16         17         18
    16  H    0.000000
    17  H    6.884273   0.000000
    18  H    8.029899   2.578951   0.000000
 Stoichiometry    C9H7NS
 Framework group  C1[X(C9H7NS)]
 Deg. of freedom    48
 Full point group                 C1      NOp   1
 Largest Abelian subgroup         C1      NOp   1
 Largest concise Abelian subgroup C1      NOp   1
                         Standard orientation:                         
 ---------------------------------------------------------------------
 Center     Atomic      Atomic             Coordinates (Angstroms)
 Number     Number       Type             X           Y           Z
 ---------------------------------------------------------------------
      1          6           0       -3.458566   -0.031318    0.036188
      2          6           0       -2.774920   -1.208550    0.033847
      3          6           0       -1.310992   -1.131812   -0.017013
      4          6           0       -0.637197    0.108137   -0.005420
      5          6           0       -1.467346    1.268900   -0.028143
      6          6           0       -2.807665    1.150297   -0.011860
      7          6           0        0.801046    0.161247   -0.010528
      8          7           0        1.431920    1.389559   -0.022414
      9          6           0        2.810333    1.137252    0.061391
     10          6           0        3.181589   -0.155709    0.001377
     11         16           0        1.829559   -1.178840   -0.017396
     12          1           0       -4.541079   -0.137570    0.002324
     13          1           0       -3.253195   -2.145425   -0.012735
     14          1           0       -0.790159   -2.146523    0.040782
     15          1           0       -1.011784    2.208328   -0.005296
     16          1           0       -3.404633    2.066284   -0.032217
     17          1           0        3.478799    1.986235    0.039708
     18          1           0        4.207975   -0.487483    0.043631
 ---------------------------------------------------------------------
 Rotational constants (GHZ):           2.8289498           0.6190612           0.5080303
 Leave Link  202 at Fri Jul 24 16:39:30 2020, MaxMem=  4026531840 cpu:               0.1 elap:               0.0
 (Enter /opt/ohpc/pub/libs/gaussian/g16-A.03/sandybridge/g16/l301.exe)
 Standard basis: CC-pVDZ (5D, 7F)
 Ernie: Thresh=  0.10000D-02 Tol=  0.10000D-05 Strict=F.
 Ernie:  30 primitive shells out of 305 were deleted.
 There are   204 symmetry adapted cartesian basis functions of A   symmetry.
 There are   193 symmetry adapted basis functions of A   symmetry.
   193 basis functions,   450 primitive gaussians,   204 cartesian basis functions
    42 alpha electrons       42 beta electrons
       nuclear repulsion energy       622.1242434216 Hartrees.
 IExCor=32609 DFT=T Ex+Corr=LC-wPBE ExCW=0 ScaHFX=  1.000000
 ScaDFX=  1.000000  0.000000  1.000000  1.000000 ScalE2=  1.000000  1.000000
 IRadAn=      5 IRanWt=     -1 IRanGd=            0 ICorTp=0 IEmpDi=  4
 HFx  wShort=  0.000000 wLong=  0.163900 cFull=  0.000000 cShort=  0.000000 cLong=  1.000000
 DFx  wShort=  0.000000 wLong=  0.163900 cFull=  0.000000 cShort=  0.000000 cLong=  1.000000
 NAtoms=   18 NActive=   18 NUniq=   18 SFac= 1.00D+00 NAtFMM=   60 NAOKFM=F Big=F
 Integral buffers will be    131072 words long.
 Raffenetti 2 integral format.
 Two-electron integral symmetry is turned on.
 Leave Link  301 at Fri Jul 24 16:39:31 2020, MaxMem=  4026531840 cpu:               0.5 elap:               0.1
 (Enter /opt/ohpc/pub/libs/gaussian/g16-A.03/sandybridge/g16/l302.exe)
 NPDir=0 NMtPBC=     1 NCelOv=     1 NCel=       1 NClECP=     1 NCelD=      1
         NCelK=      1 NCelE2=     1 NClLst=     1 CellRange=     0.0.
 One-electron integrals computed using PRISM.
 One-electron integral symmetry used in STVInt
 NBasis=   193 RedAO= T EigKep=  3.08D-04  NBF=   193
 NBsUse=   193 1.00D-06 EigRej= -1.00D+00 NBFU=   193
 Precomputing XC quadrature grid using
 IXCGrd= 4 IRadAn=           5 IRanWt=          -1 IRanGd=           0 AccXCQ= 0.00D+00.
 Generated NRdTot=       0 NPtTot=           0 NUsed=           0 NTot=          32
 NSgBfM=   204   204   204   204   204 MxSgAt=    18 MxSgA2=    18.
 Leave Link  302 at Fri Jul 24 16:39:31 2020, MaxMem=  4026531840 cpu:               2.5 elap:               0.4
 (Enter /opt/ohpc/pub/libs/gaussian/g16-A.03/sandybridge/g16/l303.exe)
 DipDrv:  MaxL=1.
 Leave Link  303 at Fri Jul 24 16:39:31 2020, MaxMem=  4026531840 cpu:               0.4 elap:               0.1
 (Enter /opt/ohpc/pub/libs/gaussian/g16-A.03/sandybridge/g16/l401.exe)
 ExpMin= 1.22D-01 ExpMax= 1.11D+05 ExpMxC= 1.07D+03 IAcc=3 IRadAn=         5 AccDes= 0.00D+00
 Harris functional with IExCor=32609 and IRadAn=       5 diagonalized for initial guess.
 HarFok:  IExCor=32609 AccDes= 0.00D+00 IRadAn=         5 IDoV= 1 UseB2=F ITyADJ=14
 ICtDFT=  3500011 ScaDFX=  1.000000  1.000000  1.000000  1.000000
 FoFCou: FMM=F IPFlag=           0 FMFlag=      100000 FMFlg1=           0
         NFxFlg=           0 DoJE=T BraDBF=F KetDBF=T FulRan=T
         wScrn=  0.000000 ICntrl=       500 IOpCl=  0 I1Cent=   200000004 NGrid=           0
         NMat0=    1 NMatS0=      1 NMatT0=    0 NMatD0=    1 NMtDS0=    0 NMtDT0=    0
 Petite list used in FoFCou.
 Harris En= -799.622589777830    
 JPrj=0 DoOrth=F DoCkMO=F.
 Initial guess <Sx>= 0.0000 <Sy>= 0.0000 <Sz>= 0.0000 <S**2>= 0.0000 S= 0.0000
 Leave Link  401 at Fri Jul 24 16:39:33 2020, MaxMem=  4026531840 cpu:              12.7 elap:               1.6
 (Enter /opt/ohpc/pub/libs/gaussian/g16-A.03/sandybridge/g16/l502.exe)
 Integral symmetry usage will be decided dynamically.
 UHF open shell SCF:
 Using DIIS extrapolation, IDIIS=  1040.
 NGot=  4026531840 LenX=  4026444776 LenY=  4026402719
 Requested convergence on RMS density matrix=1.00D-08 within 128 cycles.
 Requested convergence on MAX density matrix=1.00D-06.
 Requested convergence on             energy=1.00D-06.
 No special actions if energy rises.
 Fock matrices will be formed incrementally for  20 cycles.
 Integral accuracy reduced to 1.0D-05 until final iterations.

 Cycle   1  Pass 0  IDiag  1:
 FoFJK:  IHMeth= 1 ICntrl=       0 DoSepK=T KAlg= 0 I1Cent=           0 FoldK=F
 IRaf=         1 NMat=       1 IRICut=       1 DoRegI=T DoRafI=F ISym2E= 0 IDoP0=0 IntGTp=1.
 FoFCou: FMM=F IPFlag=           0 FMFlag=      100000 FMFlg1=           0
         NFxFlg=           0 DoJE=T BraDBF=F KetDBF=F FulRan=T
         wScrn=  0.000000 ICntrl=       500 IOpCl=  0 I1Cent=           0 NGrid=           0
         NMat0=    1 NMatS0=      1 NMatT0=    0 NMatD0=    1 NMtDS0=    0 NMtDT0=    0
 Symmetry not used in FoFCou.
 E= -799.322161499434    
 DIIS: error= 3.67D-02 at cycle   1 NSaved=   1.
 NSaved= 1 IEnMin= 1 EnMin= -799.322161499434     IErMin= 1 ErrMin= 3.67D-02
 ErrMax= 3.67D-02  0.00D+00 EMaxC= 1.00D-01 BMatC= 8.76D-01 BMatP= 8.76D-01
 IDIUse=3 WtCom= 6.33D-01 WtEn= 3.67D-01
 Coeff-Com:  0.100D+01
 Coeff-En:   0.100D+01
 Coeff:      0.100D+01
 Gap=     0.354 Goal=   None    Shift=    0.000
 Gap=     0.354 Goal=   None    Shift=    0.000
 GapD=    0.354 DampG=1.000 DampE=0.500 DampFc=0.5000 IDamp=-1.
 Damping current iteration by 5.00D-01
 RMSDP=6.39D-03 MaxDP=1.79D-01              OVMax= 2.26D-01

 Cycle   2  Pass 0  IDiag  1:
 RMSU=  3.17D-03    CP:  9.85D-01
 E= -799.430027692017     Delta-E=       -0.107866192583 Rises=F Damp=T
 DIIS: error= 7.18D-03 at cycle   2 NSaved=   2.
 NSaved= 2 IEnMin= 2 EnMin= -799.430027692017     IErMin= 2 ErrMin= 7.18D-03
 ErrMax= 7.18D-03  0.00D+00 EMaxC= 1.00D-01 BMatC= 6.45D-02 BMatP= 8.76D-01
 IDIUse=3 WtCom= 9.28D-01 WtEn= 7.18D-02
 Coeff-Com:  0.121D+00 0.879D+00
 Coeff-En:   0.182D+00 0.818D+00
 Coeff:      0.125D+00 0.875D+00
 Gap=     0.343 Goal=   None    Shift=    0.000
 Gap=     0.343 Goal=   None    Shift=    0.000
 RMSDP=1.67D-03 MaxDP=3.62D-02 DE=-1.08D-01 OVMax= 1.83D-01

 Cycle   3  Pass 0  IDiag  1:
 RMSU=  1.55D-03    CP:  9.75D-01  8.28D-01
 E= -799.573565612193     Delta-E=       -0.143537920176 Rises=F Damp=F
 DIIS: error= 9.35D-03 at cycle   3 NSaved=   3.
 NSaved= 3 IEnMin= 3 EnMin= -799.573565612193     IErMin= 2 ErrMin= 7.18D-03
 ErrMax= 9.35D-03  0.00D+00 EMaxC= 1.00D-01 BMatC= 6.66D-02 BMatP= 6.45D-02
 IDIUse=3 WtCom= 9.07D-01 WtEn= 9.35D-02
 Coeff-Com:  0.348D-01 0.500D+00 0.465D+00
 Coeff-En:   0.000D+00 0.000D+00 0.100D+01
 Coeff:      0.315D-01 0.453D+00 0.515D+00
 Gap=     0.265 Goal=   None    Shift=    0.000
 Gap=     0.265 Goal=   None    Shift=    0.000
 RMSDP=8.10D-04 MaxDP=3.53D-02 DE=-1.44D-01 OVMax= 4.70D-02

 Cycle   4  Pass 0  IDiag  1:
 RMSU=  5.62D-04    CP:  9.78D-01  9.01D-01  6.61D-01
 E= -799.587867612409     Delta-E=       -0.014302000216 Rises=F Damp=F
 DIIS: error= 3.10D-03 at cycle   4 NSaved=   4.
 NSaved= 4 IEnMin= 4 EnMin= -799.587867612409     IErMin= 4 ErrMin= 3.10D-03
 ErrMax= 3.10D-03  0.00D+00 EMaxC= 1.00D-01 BMatC= 8.47D-03 BMatP= 6.45D-02
 IDIUse=3 WtCom= 9.69D-01 WtEn= 3.10D-02
 Coeff-Com:  0.691D-02 0.786D-01 0.272D+00 0.643D+00
 Coeff-En:   0.000D+00 0.000D+00 0.887D-01 0.911D+00
 Coeff:      0.669D-02 0.762D-01 0.266D+00 0.651D+00
 Gap=     0.264 Goal=   None    Shift=    0.000
 Gap=     0.264 Goal=   None    Shift=    0.000
 RMSDP=2.53D-04 MaxDP=1.04D-02 DE=-1.43D-02 OVMax= 1.21D-02

 Cycle   5  Pass 0  IDiag  1:
 RMSU=  1.57D-04    CP:  9.78D-01  8.76D-01  7.47D-01  7.89D-01
 E= -799.589778322374     Delta-E=       -0.001910709966 Rises=F Damp=F
 DIIS: error= 5.48D-04 at cycle   5 NSaved=   5.
 NSaved= 5 IEnMin= 5 EnMin= -799.589778322374     IErMin= 5 ErrMin= 5.48D-04
 ErrMax= 5.48D-04  0.00D+00 EMaxC= 1.00D-01 BMatC= 2.86D-04 BMatP= 8.47D-03
 IDIUse=3 WtCom= 9.95D-01 WtEn= 5.48D-03
 Coeff-Com:  0.251D-02-0.127D-01 0.566D-01 0.237D+00 0.717D+00
 Coeff-En:   0.000D+00 0.000D+00 0.000D+00 0.000D+00 0.100D+01
 Coeff:      0.249D-02-0.127D-01 0.563D-01 0.236D+00 0.718D+00
 Gap=     0.265 Goal=   None    Shift=    0.000
 Gap=     0.265 Goal=   None    Shift=    0.000
 RMSDP=6.63D-05 MaxDP=1.74D-03 DE=-1.91D-03 OVMax= 4.15D-03

 Cycle   6  Pass 0  IDiag  1:
 RMSU=  5.44D-05    CP:  9.78D-01  8.73D-01  7.62D-01  8.36D-01  9.32D-01
 E= -799.589857004817     Delta-E=       -0.000078682442 Rises=F Damp=F
 DIIS: error= 2.15D-04 at cycle   6 NSaved=   6.
 NSaved= 6 IEnMin= 6 EnMin= -799.589857004817     IErMin= 6 ErrMin= 2.15D-04
 ErrMax= 2.15D-04  0.00D+00 EMaxC= 1.00D-01 BMatC= 6.15D-05 BMatP= 2.86D-04
 IDIUse=3 WtCom= 9.98D-01 WtEn= 2.15D-03
 Coeff-Com:  0.960D-03-0.181D-01-0.565D-02 0.382D-01 0.358D+00 0.626D+00
 Coeff-En:   0.000D+00 0.000D+00 0.000D+00 0.000D+00 0.000D+00 0.100D+01
 Coeff:      0.958D-03-0.180D-01-0.564D-02 0.382D-01 0.357D+00 0.627D+00
 Gap=     0.265 Goal=   None    Shift=    0.000
 Gap=     0.265 Goal=   None    Shift=    0.000
 RMSDP=3.05D-05 MaxDP=7.37D-04 DE=-7.87D-05 OVMax= 1.78D-03

 Cycle   7  Pass 0  IDiag  1:
 RMSU=  1.95D-05    CP:  9.77D-01  8.70D-01  7.66D-01  8.55D-01  1.04D+00
                    CP:  9.32D-01
 E= -799.589876759775     Delta-E=       -0.000019754958 Rises=F Damp=F
 DIIS: error= 1.00D-04 at cycle   7 NSaved=   7.
 NSaved= 7 IEnMin= 7 EnMin= -799.589876759775     IErMin= 7 ErrMin= 1.00D-04
 ErrMax= 1.00D-04  0.00D+00 EMaxC= 1.00D-01 BMatC= 3.96D-06 BMatP= 6.15D-05
 IDIUse=3 WtCom= 9.99D-01 WtEn= 1.00D-03
 Coeff-Com:  0.310D-03-0.439D-02-0.698D-02-0.156D-01 0.462D-02 0.161D+00
 Coeff-Com:  0.861D+00
 Coeff-En:   0.000D+00 0.000D+00 0.000D+00 0.000D+00 0.000D+00 0.000D+00
 Coeff-En:   0.100D+01
 Coeff:      0.310D-03-0.438D-02-0.697D-02-0.156D-01 0.462D-02 0.160D+00
 Coeff:      0.862D+00
 Gap=     0.265 Goal=   None    Shift=    0.000
 Gap=     0.265 Goal=   None    Shift=    0.000
 RMSDP=1.29D-05 MaxDP=4.14D-04 DE=-1.98D-05 OVMax= 1.14D-03

 Cycle   8  Pass 0  IDiag  1:
 RMSU=  7.59D-06    CP:  9.77D-01  8.70D-01  7.68D-01  8.62D-01  1.07D+00
                    CP:  1.07D+00  1.05D+00
 E= -799.589878666870     Delta-E=       -0.000001907095 Rises=F Damp=F
 DIIS: error= 4.46D-05 at cycle   8 NSaved=   8.
 NSaved= 8 IEnMin= 8 EnMin= -799.589878666870     IErMin= 8 ErrMin= 4.46D-05
 ErrMax= 4.46D-05  0.00D+00 EMaxC= 1.00D-01 BMatC= 2.26D-06 BMatP= 3.96D-06
 IDIUse=1 WtCom= 1.00D+00 WtEn= 0.00D+00
 Coeff-Com:  0.519D-04 0.273D-05-0.343D-02-0.163D-01-0.582D-01-0.108D-01
 Coeff-Com:  0.525D+00 0.563D+00
 Coeff:      0.519D-04 0.273D-05-0.343D-02-0.163D-01-0.582D-01-0.108D-01
 Coeff:      0.525D+00 0.563D+00
 Gap=     0.265 Goal=   None    Shift=    0.000
 Gap=     0.265 Goal=   None    Shift=    0.000
 RMSDP=6.05D-06 MaxDP=1.21D-04 DE=-1.91D-06 OVMax= 4.06D-04

 Initial convergence to 1.0D-05 achieved.  Increase integral accuracy.
 Cycle   9  Pass 1  IDiag  1:
 E= -799.589720852195     Delta-E=        0.000157814675 Rises=F Damp=F
 DIIS: error= 6.13D-05 at cycle   1 NSaved=   1.
 NSaved= 1 IEnMin= 1 EnMin= -799.589720852195     IErMin= 1 ErrMin= 6.13D-05
 ErrMax= 6.13D-05  0.00D+00 EMaxC= 1.00D-01 BMatC= 1.20D-06 BMatP= 1.20D-06
 IDIUse=1 WtCom= 1.00D+00 WtEn= 0.00D+00
 Coeff-Com:  0.100D+01
 Coeff:      0.100D+01
 Gap=     0.265 Goal=   None    Shift=    0.000
 Gap=     0.265 Goal=   None    Shift=    0.000
 RMSDP=6.05D-06 MaxDP=1.21D-04 DE= 1.58D-04 OVMax= 1.35D-04

 Cycle  10  Pass 1  IDiag  1:
 RMSU=  4.71D-05    CP:  1.00D+00
 E= -799.589721127166     Delta-E=       -0.000000274971 Rises=F Damp=F
 DIIS: error= 1.69D-05 at cycle   2 NSaved=   2.
 NSaved= 2 IEnMin= 2 EnMin= -799.589721127166     IErMin= 2 ErrMin= 1.69D-05
 ErrMax= 1.69D-05  0.00D+00 EMaxC= 1.00D-01 BMatC= 1.93D-07 BMatP= 1.20D-06
 IDIUse=1 WtCom= 1.00D+00 WtEn= 0.00D+00
 Coeff-Com:  0.171D+00 0.829D+00
 Coeff:      0.171D+00 0.829D+00
 Gap=     0.265 Goal=   None    Shift=    0.000
 Gap=     0.265 Goal=   None    Shift=    0.000
 RMSDP=3.18D-06 MaxDP=6.72D-05 DE=-2.75D-07 OVMax= 1.44D-04

 Cycle  11  Pass 1  IDiag  1:
 RMSU=  2.53D-06    CP:  1.00D+00  1.04D+00
 E= -799.589721107850     Delta-E=        0.000000019316 Rises=F Damp=F
 DIIS: error= 2.10D-05 at cycle   3 NSaved=   3.
 NSaved= 3 IEnMin= 2 EnMin= -799.589721127166     IErMin= 2 ErrMin= 1.69D-05
 ErrMax= 2.10D-05  0.00D+00 EMaxC= 1.00D-01 BMatC= 2.71D-07 BMatP= 1.93D-07
 IDIUse=1 WtCom= 1.00D+00 WtEn= 0.00D+00
 Coeff-Com: -0.239D-01 0.550D+00 0.473D+00
 Coeff:     -0.239D-01 0.550D+00 0.473D+00
 Gap=     0.265 Goal=   None    Shift=    0.000
 Gap=     0.265 Goal=   None    Shift=    0.000
 RMSDP=1.39D-06 MaxDP=4.34D-05 DE= 1.93D-08 OVMax= 8.01D-05

 Cycle  12  Pass 1  IDiag  1:
 RMSU=  5.53D-07    CP:  1.00D+00  1.05D+00  5.44D-01
 E= -799.589721168591     Delta-E=       -0.000000060741 Rises=F Damp=F
 DIIS: error= 1.14D-06 at cycle   4 NSaved=   4.
 NSaved= 4 IEnMin= 4 EnMin= -799.589721168591     IErMin= 4 ErrMin= 1.14D-06
 ErrMax= 1.14D-06  0.00D+00 EMaxC= 1.00D-01 BMatC= 2.57D-09 BMatP= 1.93D-07
 IDIUse=1 WtCom= 1.00D+00 WtEn= 0.00D+00
 Coeff-Com: -0.147D-01 0.236D+00 0.217D+00 0.562D+00
 Coeff:     -0.147D-01 0.236D+00 0.217D+00 0.562D+00
 Gap=     0.265 Goal=   None    Shift=    0.000
 Gap=     0.265 Goal=   None    Shift=    0.000
 RMSDP=1.74D-07 MaxDP=4.62D-06 DE=-6.07D-08 OVMax= 9.10D-06

 Cycle  13  Pass 1  IDiag  1:
 RMSU=  1.59D-07    CP:  1.00D+00  1.05D+00  5.63D-01  1.06D+00
 E= -799.589721169442     Delta-E=       -0.000000000852 Rises=F Damp=F
 DIIS: error= 1.00D-06 at cycle   5 NSaved=   5.
 NSaved= 5 IEnMin= 5 EnMin= -799.589721169442     IErMin= 5 ErrMin= 1.00D-06
 ErrMax= 1.00D-06  0.00D+00 EMaxC= 1.00D-01 BMatC= 2.52D-10 BMatP= 2.57D-09
 IDIUse=1 WtCom= 1.00D+00 WtEn= 0.00D+00
 Coeff-Com:  0.169D-02-0.687D-01-0.534D-01 0.817D-01 0.104D+01
 Coeff:      0.169D-02-0.687D-01-0.534D-01 0.817D-01 0.104D+01
 Gap=     0.265 Goal=   None    Shift=    0.000
 Gap=     0.265 Goal=   None    Shift=    0.000
 RMSDP=1.49D-07 MaxDP=4.69D-06 DE=-8.52D-10 OVMax= 1.29D-05

 Cycle  14  Pass 1  IDiag  1:
 RMSU=  9.67D-08    CP:  1.00D+00  1.05D+00  5.71D-01  1.24D+00  1.29D+00
 E= -799.589721184752     Delta-E=       -0.000000015310 Rises=F Damp=F
 DIIS: error= 3.53D-07 at cycle   6 NSaved=   6.
 NSaved= 6 IEnMin= 6 EnMin= -799.589721184752     IErMin= 6 ErrMin= 3.53D-07
 ErrMax= 3.53D-07  0.00D+00 EMaxC= 1.00D-01 BMatC= 1.22D-10 BMatP= 2.52D-10
 IDIUse=1 WtCom= 1.00D+00 WtEn= 0.00D+00
 Coeff-Com:  0.360D-02-0.780D-01-0.658D-01-0.903D-01 0.550D+00 0.681D+00
 Coeff:      0.360D-02-0.780D-01-0.658D-01-0.903D-01 0.550D+00 0.681D+00
 Gap=     0.265 Goal=   None    Shift=    0.000
 Gap=     0.265 Goal=   None    Shift=    0.000
 RMSDP=5.82D-08 MaxDP=1.52D-06 DE=-1.53D-08 OVMax= 5.09D-06

 Cycle  15  Pass 1  IDiag  1:
 RMSU=  3.41D-08    CP:  1.00D+00  1.05D+00  5.77D-01  1.30D+00  1.48D+00
                    CP:  1.02D+00
 E= -799.589721184795     Delta-E=       -0.000000000043 Rises=F Damp=F
 DIIS: error= 7.82D-08 at cycle   7 NSaved=   7.
 NSaved= 7 IEnMin= 7 EnMin= -799.589721184795     IErMin= 7 ErrMin= 7.82D-08
 ErrMax= 7.82D-08  0.00D+00 EMaxC= 1.00D-01 BMatC= 4.47D-12 BMatP= 1.22D-10
 IDIUse=1 WtCom= 1.00D+00 WtEn= 0.00D+00
 Coeff-Com:  0.102D-02-0.199D-01-0.168D-01-0.393D-01 0.972D-01 0.215D+00
 Coeff-Com:  0.762D+00
 Coeff:      0.102D-02-0.199D-01-0.168D-01-0.393D-01 0.972D-01 0.215D+00
 Coeff:      0.762D+00
 Gap=     0.265 Goal=   None    Shift=    0.000
 Gap=     0.265 Goal=   None    Shift=    0.000
 RMSDP=1.27D-08 MaxDP=3.12D-07 DE=-4.27D-11 OVMax= 7.62D-07

 Cycle  16  Pass 1  IDiag  1:
 RMSU=  6.71D-09    CP:  1.00D+00  1.05D+00  5.77D-01  1.30D+00  1.51D+00
                    CP:  1.11D+00  1.05D+00
 E= -799.589721184807     Delta-E=       -0.000000000012 Rises=F Damp=F
 DIIS: error= 3.33D-08 at cycle   8 NSaved=   8.
 NSaved= 8 IEnMin= 8 EnMin= -799.589721184807     IErMin= 8 ErrMin= 3.33D-08
 ErrMax= 3.33D-08  0.00D+00 EMaxC= 1.00D-01 BMatC= 9.40D-13 BMatP= 4.47D-12
 IDIUse=1 WtCom= 1.00D+00 WtEn= 0.00D+00
 Coeff-Com:  0.113D-04 0.818D-03 0.713D-03-0.735D-02-0.237D-01 0.176D-01
 Coeff-Com:  0.360D+00 0.651D+00
 Coeff:      0.113D-04 0.818D-03 0.713D-03-0.735D-02-0.237D-01 0.176D-01
 Coeff:      0.360D+00 0.651D+00
 Gap=     0.265 Goal=   None    Shift=    0.000
 Gap=     0.265 Goal=   None    Shift=    0.000
 RMSDP=3.99D-09 MaxDP=7.88D-08 DE=-1.23D-11 OVMax= 3.06D-07

 SCF Done:  E(ULC-wPBE) =  -799.589721185     A.U. after   16 cycles
            NFock= 16  Conv=0.40D-08     -V/T= 2.0040
 <Sx>= 0.0000 <Sy>= 0.0000 <Sz>= 0.0000 <S**2>=-0.0000 S=-0.0000
 <L.S>= 0.000000000000E+00
 KE= 7.964314531726D+02 PE=-3.123041092601D+03 EE= 9.048956748218D+02
 Annihilation of the first spin contaminant:
 S**2 before annihilation    -0.0000,   after    -0.0000
 Leave Link  502 at Fri Jul 24 16:40:43 2020, MaxMem=  4026531840 cpu:             560.3 elap:              70.4
 (Enter /opt/ohpc/pub/libs/gaussian/g16-A.03/sandybridge/g16/l601.exe)
 Copying SCF densities to generalized density rwf, IOpCl= 1 IROHF=0.

 **********************************************************************

            Population analysis using the SCF density.

 **********************************************************************

 Orbital symmetries:
 Alpha Orbitals:
       Occupied  (A) (A) (A) (A) (A) (A) (A) (A) (A) (A) (A) (A)
                 (A) (A) (A) (A) (A) (A) (A) (A) (A) (A) (A) (A)
                 (A) (A) (A) (A) (A) (A) (A) (A) (A) (A) (A) (A)
                 (A) (A) (A) (A) (A) (A)
       Virtual   (A) (A) (A) (A) (A) (A) (A) (A) (A) (A) (A) (A)
                 (A) (A) (A) (A) (A) (A) (A) (A) (A) (A) (A) (A)
                 (A) (A) (A) (A) (A) (A) (A) (A) (A) (A) (A) (A)
                 (A) (A) (A) (A) (A) (A) (A) (A) (A) (A) (A) (A)
                 (A) (A) (A) (A) (A) (A) (A) (A) (A) (A) (A) (A)
                 (A) (A) (A) (A) (A) (A) (A) (A) (A) (A) (A) (A)
                 (A) (A) (A) (A) (A) (A) (A) (A) (A) (A) (A) (A)
                 (A) (A) (A) (A) (A) (A) (A) (A) (A) (A) (A) (A)
                 (A) (A) (A) (A) (A) (A) (A) (A) (A) (A) (A) (A)
                 (A) (A) (A) (A) (A) (A) (A) (A) (A) (A) (A) (A)
                 (A) (A) (A) (A) (A) (A) (A) (A) (A) (A) (A) (A)
                 (A) (A) (A) (A) (A) (A) (A) (A) (A) (A) (A) (A)
                 (A) (A) (A) (A) (A) (A) (A)
 Beta  Orbitals:
       Occupied  (A) (A) (A) (A) (A) (A) (A) (A) (A) (A) (A) (A)
                 (A) (A) (A) (A) (A) (A) (A) (A) (A) (A) (A) (A)
                 (A) (A) (A) (A) (A) (A) (A) (A) (A) (A) (A) (A)
                 (A) (A) (A) (A) (A) (A)
       Virtual   (A) (A) (A) (A) (A) (A) (A) (A) (A) (A) (A) (A)
                 (A) (A) (A) (A) (A) (A) (A) (A) (A) (A) (A) (A)
                 (A) (A) (A) (A) (A) (A) (A) (A) (A) (A) (A) (A)
                 (A) (A) (A) (A) (A) (A) (A) (A) (A) (A) (A) (A)
                 (A) (A) (A) (A) (A) (A) (A) (A) (A) (A) (A) (A)
                 (A) (A) (A) (A) (A) (A) (A) (A) (A) (A) (A) (A)
                 (A) (A) (A) (A) (A) (A) (A) (A) (A) (A) (A) (A)
                 (A) (A) (A) (A) (A) (A) (A) (A) (A) (A) (A) (A)
                 (A) (A) (A) (A) (A) (A) (A) (A) (A) (A) (A) (A)
                 (A) (A) (A) (A) (A) (A) (A) (A) (A) (A) (A) (A)
                 (A) (A) (A) (A) (A) (A) (A) (A) (A) (A) (A) (A)
                 (A) (A) (A) (A) (A) (A) (A) (A) (A) (A) (A) (A)
                 (A) (A) (A) (A) (A) (A) (A)
 The electronic state is 1-A.
 Alpha  occ. eigenvalues --  -88.20577 -14.09309 -10.05315 -10.01853 -10.01763
 Alpha  occ. eigenvalues --  -10.01427 -10.01009  -9.99597  -9.98888  -9.98864
 Alpha  occ. eigenvalues --   -9.98667  -7.81106  -5.83099  -5.82646  -5.82351
 Alpha  occ. eigenvalues --   -0.96856  -0.88374  -0.83068  -0.81191  -0.77265
 Alpha  occ. eigenvalues --   -0.74978  -0.66198  -0.64946  -0.60682  -0.59606
 Alpha  occ. eigenvalues --   -0.55791  -0.53202  -0.49990  -0.49714  -0.46900
 Alpha  occ. eigenvalues --   -0.46321  -0.45294  -0.44712  -0.42460  -0.41849
 Alpha  occ. eigenvalues --   -0.39358  -0.37837  -0.34978  -0.33383  -0.31891
 Alpha  occ. eigenvalues --   -0.30917  -0.27693
 Alpha virt. eigenvalues --   -0.01172   0.03304   0.07020   0.07857   0.09653
 Alpha virt. eigenvalues --    0.11535   0.13260   0.15024   0.15565   0.17593
 Alpha virt. eigenvalues --    0.18875   0.20394   0.21076   0.21137   0.25251
 Alpha virt. eigenvalues --    0.29468   0.31995   0.32930   0.34052   0.35475
 Alpha virt. eigenvalues --    0.38091   0.41360   0.44387   0.46683   0.47532
 Alpha virt. eigenvalues --    0.48302   0.49294   0.49580   0.50916   0.51415
 Alpha virt. eigenvalues --    0.51794   0.53033   0.53422   0.55001   0.55855
 Alpha virt. eigenvalues --    0.56021   0.56148   0.56838   0.58053   0.58741
 Alpha virt. eigenvalues --    0.60063   0.61249   0.62936   0.63858   0.64299
 Alpha virt. eigenvalues --    0.66350   0.66966   0.68733   0.69238   0.71483
 Alpha virt. eigenvalues --    0.72242   0.72506   0.74118   0.74763   0.77419
 Alpha virt. eigenvalues --    0.79917   0.82240   0.86611   0.86942   0.87938
 Alpha virt. eigenvalues --    0.89552   0.93230   0.93630   0.94744   0.96093
 Alpha virt. eigenvalues --    0.97763   1.00308   1.01686   1.02549   1.03143
 Alpha virt. eigenvalues --    1.03814   1.05428   1.05921   1.07243   1.08670
 Alpha virt. eigenvalues --    1.09133   1.11995   1.12469   1.12864   1.14349
 Alpha virt. eigenvalues --    1.16695   1.23056   1.27540   1.29349   1.30172
 Alpha virt. eigenvalues --    1.33488   1.34010   1.38607   1.43149   1.45309
 Alpha virt. eigenvalues --    1.48370   1.50540   1.51319   1.52111   1.53364
 Alpha virt. eigenvalues --    1.55613   1.61923   1.62222   1.63827   1.64285
 Alpha virt. eigenvalues --    1.65813   1.66615   1.67538   1.68310   1.69053
 Alpha virt. eigenvalues --    1.71739   1.72896   1.73505   1.75885   1.76891
 Alpha virt. eigenvalues --    1.79197   1.80235   1.82726   1.84500   1.87463
 Alpha virt. eigenvalues --    1.88766   1.89818   1.91514   1.92971   1.94378
 Alpha virt. eigenvalues --    1.95271   1.99126   2.00260   2.02177   2.03492
 Alpha virt. eigenvalues --    2.03997   2.04493   2.08394   2.10893   2.20074
 Alpha virt. eigenvalues --    2.23807   2.24614   2.30120   2.34424   2.37485
 Alpha virt. eigenvalues --    2.41240   2.43430   2.46156   2.48833   2.49242
 Alpha virt. eigenvalues --    2.52685   2.56820   2.65090   2.71477   2.73996
 Alpha virt. eigenvalues --    2.78821   2.85766   2.89311   2.94671   3.09553
 Alpha virt. eigenvalues --    3.60621
  Beta  occ. eigenvalues --  -88.20577 -14.09309 -10.05315 -10.01853 -10.01763
  Beta  occ. eigenvalues --  -10.01427 -10.01009  -9.99597  -9.98888  -9.98864
  Beta  occ. eigenvalues --   -9.98667  -7.81106  -5.83099  -5.82646  -5.82351
  Beta  occ. eigenvalues --   -0.96856  -0.88374  -0.83068  -0.81191  -0.77265
  Beta  occ. eigenvalues --   -0.74978  -0.66198  -0.64946  -0.60682  -0.59606
  Beta  occ. eigenvalues --   -0.55791  -0.53202  -0.49990  -0.49714  -0.46900
  Beta  occ. eigenvalues --   -0.46321  -0.45294  -0.44712  -0.42460  -0.41849
  Beta  occ. eigenvalues --   -0.39358  -0.37837  -0.34978  -0.33383  -0.31891
  Beta  occ. eigenvalues --   -0.30917  -0.27693
  Beta virt. eigenvalues --   -0.01172   0.03304   0.07020   0.07857   0.09653
  Beta virt. eigenvalues --    0.11535   0.13260   0.15024   0.15565   0.17593
  Beta virt. eigenvalues --    0.18875   0.20394   0.21076   0.21137   0.25251
  Beta virt. eigenvalues --    0.29468   0.31995   0.32930   0.34052   0.35475
  Beta virt. eigenvalues --    0.38091   0.41360   0.44387   0.46683   0.47532
  Beta virt. eigenvalues --    0.48302   0.49294   0.49580   0.50916   0.51415
  Beta virt. eigenvalues --    0.51794   0.53033   0.53422   0.55001   0.55855
  Beta virt. eigenvalues --    0.56021   0.56148   0.56838   0.58053   0.58741
  Beta virt. eigenvalues --    0.60063   0.61249   0.62936   0.63858   0.64299
  Beta virt. eigenvalues --    0.66350   0.66966   0.68733   0.69238   0.71483
  Beta virt. eigenvalues --    0.72242   0.72506   0.74118   0.74763   0.77419
  Beta virt. eigenvalues --    0.79917   0.82240   0.86611   0.86942   0.87938
  Beta virt. eigenvalues --    0.89552   0.93230   0.93630   0.94744   0.96093
  Beta virt. eigenvalues --    0.97763   1.00308   1.01686   1.02549   1.03143
  Beta virt. eigenvalues --    1.03814   1.05428   1.05921   1.07243   1.08670
  Beta virt. eigenvalues --    1.09133   1.11995   1.12469   1.12864   1.14349
  Beta virt. eigenvalues --    1.16695   1.23056   1.27540   1.29349   1.30172
  Beta virt. eigenvalues --    1.33488   1.34010   1.38607   1.43149   1.45309
  Beta virt. eigenvalues --    1.48370   1.50540   1.51319   1.52111   1.53364
  Beta virt. eigenvalues --    1.55613   1.61923   1.62222   1.63827   1.64285
  Beta virt. eigenvalues --    1.65813   1.66615   1.67538   1.68310   1.69053
  Beta virt. eigenvalues --    1.71739   1.72896   1.73505   1.75885   1.76891
  Beta virt. eigenvalues --    1.79197   1.80235   1.82726   1.84500   1.87463
  Beta virt. eigenvalues --    1.88766   1.89818   1.91514   1.92971   1.94378
  Beta virt. eigenvalues --    1.95271   1.99126   2.00260   2.02177   2.03492
  Beta virt. eigenvalues --    2.03997   2.04493   2.08394   2.10893   2.20074
  Beta virt. eigenvalues --    2.23807   2.24614   2.30120   2.34424   2.37485
  Beta virt. eigenvalues --    2.41240   2.43430   2.46156   2.48833   2.49242
  Beta virt. eigenvalues --    2.52685   2.56820   2.65090   2.71477   2.73996
  Beta virt. eigenvalues --    2.78821   2.85766   2.89311   2.94671   3.09553
  Beta virt. eigenvalues --    3.60621
          Condensed to atoms (all electrons):
               1          2          3          4          5          6
     1  C    4.749145   0.508555   0.004672  -0.083083   0.021150   0.446528
     2  C    0.508555   4.698471   0.469921   0.012018  -0.073841   0.019644
     3  C    0.004672   0.469921   5.082197   0.431514  -0.031690  -0.096201
     4  C   -0.083083   0.012018   0.431514   5.104678   0.398706   0.024723
     5  C    0.021150  -0.073841  -0.031690   0.398706   4.831697   0.468451
     6  C    0.446528   0.019644  -0.096201   0.024723   0.468451   4.771334
     7  C    0.000101   0.007800  -0.119859   0.248480  -0.090765   0.014431
     8  N    0.000038  -0.000087   0.004385  -0.053305   0.005335   0.000589
     9  C    0.000001   0.000006   0.000011   0.007911  -0.000092  -0.000002
    10  C    0.000000  -0.000004   0.000161   0.004199   0.000053   0.000008
    11  S    0.000005  -0.000082  -0.019326  -0.057729   0.012871  -0.000049
    12  H    0.396144  -0.051466   0.012275  -0.000457   0.011652  -0.062704
    13  H   -0.046401   0.387762  -0.045293   0.009419   0.000346   0.012009
    14  H    0.010046  -0.036846   0.389178  -0.053173   0.008596  -0.000454
    15  H    0.014664  -0.001272   0.014869  -0.052287   0.399488  -0.056716
    16  H   -0.064742   0.012030  -0.000012   0.011754  -0.048644   0.393752
    17  H   -0.000000  -0.000000   0.000014  -0.000884  -0.000008  -0.000000
    18  H   -0.000000   0.000000   0.000002  -0.000322  -0.000007  -0.000000
               7          8          9         10         11         12
     1  C    0.000101   0.000038   0.000001   0.000000   0.000005   0.396144
     2  C    0.007800  -0.000087   0.000006  -0.000004  -0.000082  -0.051466
     3  C   -0.119859   0.004385   0.000011   0.000161  -0.019326   0.012275
     4  C    0.248480  -0.053305   0.007911   0.004199  -0.057729  -0.000457
     5  C   -0.090765   0.005335  -0.000092   0.000053   0.012871   0.011652
     6  C    0.014431   0.000589  -0.000002   0.000008  -0.000049  -0.062704
     7  C    5.320185   0.577249  -0.117791  -0.070292   0.290269   0.000036
     8  N    0.577249   6.336255   0.499242  -0.049810  -0.105587   0.000000
     9  C   -0.117791   0.499242   4.634852   0.552819  -0.104869   0.000000
    10  C   -0.070292  -0.049810   0.552819   5.016648   0.362046  -0.000000
    11  S    0.290269  -0.105587  -0.104869   0.362046  15.467145  -0.000000
    12  H    0.000036   0.000000   0.000000  -0.000000  -0.000000   0.761977
    13  H   -0.000387   0.000001  -0.000000  -0.000000   0.000009  -0.019114
    14  H   -0.023847   0.000240  -0.000017   0.000128   0.009473  -0.000390
    15  H   -0.033690   0.028992   0.000042   0.000061   0.001229  -0.000157
    16  H   -0.000480  -0.000034  -0.000000  -0.000000   0.000003  -0.018867
    17  H    0.002209  -0.025277   0.398088  -0.050170   0.008490  -0.000000
    18  H    0.003617   0.005747  -0.011304   0.379711  -0.041775  -0.000000
              13         14         15         16         17         18
     1  C   -0.046401   0.010046   0.014664  -0.064742  -0.000000  -0.000000
     2  C    0.387762  -0.036846  -0.001272   0.012030  -0.000000   0.000000
     3  C   -0.045293   0.389178   0.014869  -0.000012   0.000014   0.000002
     4  C    0.009419  -0.053173  -0.052287   0.011754  -0.000884  -0.000322
     5  C    0.000346   0.008596   0.399488  -0.048644  -0.000008  -0.000007
     6  C    0.012009  -0.000454  -0.056716   0.393752  -0.000000  -0.000000
     7  C   -0.000387  -0.023847  -0.033690  -0.000480   0.002209   0.003617
     8  N    0.000001   0.000240   0.028992  -0.000034  -0.025277   0.005747
     9  C   -0.000000  -0.000017   0.000042  -0.000000   0.398088  -0.011304
    10  C   -0.000000   0.000128   0.000061  -0.000000  -0.050170   0.379711
    11  S    0.000009   0.009473   0.001229   0.000003   0.008490  -0.041775
    12  H   -0.019114  -0.000390  -0.000157  -0.018867  -0.000000  -0.000000
    13  H    0.750870  -0.013460   0.000059  -0.000350   0.000000  -0.000000
    14  H   -0.013460   0.710813  -0.000153   0.000066   0.000000  -0.000005
    15  H    0.000059  -0.000153   0.758711  -0.021073  -0.000045  -0.000008
    16  H   -0.000350   0.000066  -0.021073   0.760175   0.000000   0.000000
    17  H    0.000000   0.000000  -0.000045   0.000000   0.680907  -0.006483
    18  H   -0.000000  -0.000005  -0.000008   0.000000  -0.006483   0.658231
          Atomic-Atomic Spin Densities.
               1          2          3          4          5          6
     1  C    0.000000   0.000000   0.000000  -0.000000  -0.000000   0.000000
     2  C    0.000000  -0.000000   0.000000  -0.000000   0.000000  -0.000000
     3  C    0.000000   0.000000   0.000000  -0.000000  -0.000000   0.000000
     4  C   -0.000000  -0.000000  -0.000000  -0.000000   0.000000  -0.000000
     5  C   -0.000000   0.000000  -0.000000   0.000000  -0.000000   0.000000
     6  C    0.000000  -0.000000   0.000000  -0.000000   0.000000  -0.000000
     7  C    0.000000  -0.000000   0.000000   0.000000   0.000000  -0.000000
     8  N   -0.000000   0.000000  -0.000000   0.000000  -0.000000   0.000000
     9  C   -0.000000   0.000000  -0.000000   0.000000  -0.000000  -0.000000
    10  C   -0.000000   0.000000  -0.000000  -0.000000   0.000000   0.000000
    11  S    0.000000  -0.000000   0.000000   0.000000  -0.000000  -0.000000
    12  H   -0.000000   0.000000  -0.000000   0.000000  -0.000000   0.000000
    13  H   -0.000000  -0.000000   0.000000   0.000000   0.000000  -0.000000
    14  H   -0.000000   0.000000  -0.000000  -0.000000  -0.000000   0.000000
    15  H   -0.000000   0.000000   0.000000  -0.000000   0.000000  -0.000000
    16  H    0.000000  -0.000000   0.000000   0.000000  -0.000000  -0.000000
    17  H    0.000000  -0.000000   0.000000   0.000000  -0.000000  -0.000000
    18  H    0.000000  -0.000000  -0.000000   0.000000   0.000000  -0.000000
               7          8          9         10         11         12
     1  C    0.000000  -0.000000  -0.000000  -0.000000   0.000000  -0.000000
     2  C   -0.000000   0.000000   0.000000   0.000000  -0.000000   0.000000
     3  C    0.000000  -0.000000  -0.000000  -0.000000   0.000000  -0.000000
     4  C    0.000000   0.000000   0.000000  -0.000000   0.000000   0.000000
     5  C    0.000000  -0.000000  -0.000000   0.000000  -0.000000  -0.000000
     6  C   -0.000000   0.000000  -0.000000   0.000000  -0.000000   0.000000
     7  C   -0.000000   0.000000  -0.000000  -0.000000   0.000000  -0.000000
     8  N    0.000000  -0.000000  -0.000000  -0.000000  -0.000000   0.000000
     9  C   -0.000000  -0.000000   0.000000  -0.000000  -0.000000  -0.000000
    10  C   -0.000000  -0.000000  -0.000000  -0.000000   0.000000  -0.000000
    11  S    0.000000  -0.000000  -0.000000   0.000000  -0.000000   0.000000
    12  H   -0.000000   0.000000  -0.000000  -0.000000   0.000000  -0.000000
    13  H    0.000000  -0.000000   0.000000   0.000000   0.000000   0.000000
    14  H    0.000000  -0.000000  -0.000000  -0.000000   0.000000  -0.000000
    15  H    0.000000  -0.000000  -0.000000   0.000000  -0.000000  -0.000000
    16  H    0.000000   0.000000   0.000000   0.000000   0.000000   0.000000
    17  H    0.000000  -0.000000   0.000000  -0.000000   0.000000   0.000000
    18  H    0.000000  -0.000000  -0.000000   0.000000  -0.000000   0.000000
              13         14         15         16         17         18
     1  C   -0.000000  -0.000000  -0.000000   0.000000   0.000000   0.000000
     2  C   -0.000000   0.000000   0.000000  -0.000000  -0.000000  -0.000000
     3  C    0.000000  -0.000000   0.000000   0.000000   0.000000  -0.000000
     4  C    0.000000  -0.000000  -0.000000   0.000000   0.000000   0.000000
     5  C    0.000000  -0.000000   0.000000  -0.000000  -0.000000   0.000000
     6  C   -0.000000   0.000000  -0.000000  -0.000000  -0.000000  -0.000000
     7  C    0.000000   0.000000   0.000000   0.000000   0.000000   0.000000
     8  N   -0.000000  -0.000000  -0.000000   0.000000  -0.000000  -0.000000
     9  C    0.000000  -0.000000  -0.000000   0.000000   0.000000  -0.000000
    10  C    0.000000  -0.000000   0.000000   0.000000  -0.000000   0.000000
    11  S    0.000000   0.000000  -0.000000   0.000000   0.000000  -0.000000
    12  H    0.000000  -0.000000  -0.000000   0.000000   0.000000   0.000000
    13  H    0.000000  -0.000000  -0.000000  -0.000000  -0.000000   0.000000
    14  H   -0.000000  -0.000000  -0.000000  -0.000000   0.000000   0.000000
    15  H   -0.000000  -0.000000  -0.000000  -0.000000   0.000000   0.000000
    16  H   -0.000000  -0.000000  -0.000000   0.000000   0.000000   0.000000
    17  H   -0.000000   0.000000   0.000000   0.000000  -0.000000  -0.000000
    18  H    0.000000   0.000000   0.000000   0.000000  -0.000000  -0.000000
 Mulliken charges and spin densities:
               1          2
     1  C    0.043176   0.000000
     2  C    0.047392  -0.000000
     3  C   -0.096819  -0.000000
     4  C    0.047840   0.000000
     5  C    0.086702  -0.000000
     6  C    0.064657  -0.000000
     7  C   -0.007264   0.000000
     8  N   -0.223975  -0.000000
     9  C    0.141103   0.000000
    10  C   -0.145558  -0.000000
    11  S    0.177878   0.000000
    12  H   -0.028928  -0.000000
    13  H   -0.035471   0.000000
    14  H   -0.000195  -0.000000
    15  H   -0.052715  -0.000000
    16  H   -0.023579  -0.000000
    17  H   -0.006840  -0.000000
    18  H    0.012597  -0.000000
 Sum of Mulliken charges =  -0.00000   0.00000
 Mulliken charges and spin densities with hydrogens summed into heavy atoms:
               1          2
     1  C    0.014247   0.000000
     2  C    0.011920  -0.000000
     3  C   -0.097014  -0.000000
     4  C    0.047840   0.000000
     5  C    0.033987  -0.000000
     6  C    0.041078  -0.000000
     7  C   -0.007264   0.000000
     8  N   -0.223975  -0.000000
     9  C    0.134264   0.000000
    10  C   -0.132961  -0.000000
    11  S    0.177878   0.000000
 Electronic spatial extent (au):  <R**2>=           2095.4268
 Charge=             -0.0000 electrons
 Dipole moment (field-independent basis, Debye):
    X=              0.2852    Y=             -1.2701    Z=              0.0435  Tot=              1.3024
 Quadrupole moment (field-independent basis, Debye-Ang):
   XX=            -56.3428   YY=            -67.1641   ZZ=            -74.1517
   XY=             -0.3962   XZ=              0.3436   YZ=              0.0574
 Traceless Quadrupole moment (field-independent basis, Debye-Ang):
   XX=              9.5434   YY=             -1.2779   ZZ=             -8.2655
   XY=             -0.3962   XZ=              0.3436   YZ=              0.0574
 Octapole moment (field-independent basis, Debye-Ang**2):
  XXX=             20.9762  YYY=             -4.8451  ZZZ=             -0.1787  XYY=             -4.0480
  XXY=              0.0666  XXZ=              0.0006  XZZ=              4.2783  YZZ=             -0.1593
  YYZ=              0.0972  XYZ=              0.1535
 Hexadecapole moment (field-independent basis, Debye-Ang**3):
 XXXX=          -1969.5525 YYYY=           -536.4024 ZZZZ=            -81.3066 XXXY=             12.4882
 XXXZ=              5.9320 YYYX=              3.1315 YYYZ=              0.1752 ZZZX=              0.0104
 ZZZY=              0.0380 XXYY=           -422.0701 XXZZ=           -423.4260 YYZZ=           -112.2368
 XXYZ=              0.4854 YYXZ=              0.7354 ZZXY=             -2.2353
 N-N= 6.221242434216D+02 E-N=-3.123041087691D+03  KE= 7.964314531726D+02
                          Isotropic Fermi Contact Couplings
        Atom                 a.u.       MegaHertz       Gauss      10(-4) cm-1
     1  C(13)             -0.00000      -0.00000      -0.00000      -0.00000
     2  C(13)             -0.00000      -0.00000      -0.00000      -0.00000
     3  C(13)             -0.00000      -0.00000      -0.00000      -0.00000
     4  C(13)             -0.00000      -0.00000      -0.00000      -0.00000
     5  C(13)              0.00000       0.00000       0.00000       0.00000
     6  C(13)             -0.00000      -0.00000      -0.00000      -0.00000
     7  C(13)              0.00000       0.00000       0.00000       0.00000
     8  N(14)              0.00000       0.00000       0.00000       0.00000
     9  C(13)             -0.00000      -0.00000      -0.00000      -0.00000
    10  C(13)              0.00000       0.00000       0.00000       0.00000
    11  S(33)              0.00000       0.00000       0.00000       0.00000
    12  H(1)               0.00000       0.00000       0.00000       0.00000
    13  H(1)               0.00000       0.00000       0.00000       0.00000
    14  H(1)              -0.00000      -0.00000      -0.00000      -0.00000
    15  H(1)              -0.00000      -0.00000      -0.00000      -0.00000
    16  H(1)               0.00000       0.00000       0.00000       0.00000
    17  H(1)              -0.00000      -0.00000      -0.00000      -0.00000
    18  H(1)              -0.00000      -0.00000      -0.00000      -0.00000
 --------------------------------------------------------
       Center         ----  Spin Dipole Couplings  ----
                      3XX-RR        3YY-RR        3ZZ-RR
 --------------------------------------------------------
     1   Atom       -0.000000      0.000000      0.000000
     2   Atom       -0.000000     -0.000000      0.000000
     3   Atom        0.000000     -0.000000      0.000000
     4   Atom       -0.000000      0.000000     -0.000000
     5   Atom        0.000000      0.000000     -0.000000
     6   Atom       -0.000000      0.000000      0.000000
     7   Atom       -0.000000     -0.000000      0.000000
     8   Atom        0.000000     -0.000000     -0.000000
     9   Atom       -0.000000      0.000000     -0.000000
    10   Atom        0.000000     -0.000000     -0.000000
    11   Atom       -0.000000      0.000000      0.000000
    12   Atom       -0.000000      0.000000      0.000000
    13   Atom       -0.000000      0.000000     -0.000000
    14   Atom       -0.000000      0.000000      0.000000
    15   Atom       -0.000000      0.000000     -0.000000
    16   Atom        0.000000     -0.000000     -0.000000
    17   Atom        0.000000     -0.000000     -0.000000
    18   Atom       -0.000000      0.000000     -0.000000
 --------------------------------------------------------
                        XY            XZ            YZ
 --------------------------------------------------------
     1   Atom        0.000000      0.000000      0.000000
     2   Atom       -0.000000      0.000000     -0.000000
     3   Atom        0.000000      0.000000      0.000000
     4   Atom        0.000000      0.000000     -0.000000
     5   Atom       -0.000000     -0.000000      0.000000
     6   Atom        0.000000     -0.000000     -0.000000
     7   Atom       -0.000000     -0.000000     -0.000000
     8   Atom        0.000000      0.000000     -0.000000
     9   Atom        0.000000     -0.000000     -0.000000
    10   Atom       -0.000000     -0.000000     -0.000000
    11   Atom        0.000000      0.000000     -0.000000
    12   Atom       -0.000000     -0.000000      0.000000
    13   Atom        0.000000     -0.000000      0.000000
    14   Atom        0.000000     -0.000000      0.000000
    15   Atom        0.000000      0.000000      0.000000
    16   Atom        0.000000     -0.000000      0.000000
    17   Atom        0.000000     -0.000000     -0.000000
    18   Atom       -0.000000     -0.000000      0.000000
 --------------------------------------------------------


 ---------------------------------------------------------------------------------
              Anisotropic Spin Dipole Couplings in Principal Axis System
 ---------------------------------------------------------------------------------

       Atom             a.u.   MegaHertz   Gauss  10(-4) cm-1        Axes

              Baa    -0.0000    -0.000    -0.000    -0.000  0.9678 -0.2507 -0.0209
     1 C(13)  Bbb     0.0000     0.000     0.000     0.000  0.2450  0.9582 -0.1475
              Bcc     0.0000     0.000     0.000     0.000  0.0570  0.1376  0.9888
 
              Baa    -0.0000    -0.000    -0.000    -0.000  0.9870  0.1587 -0.0268
     2 C(13)  Bbb    -0.0000    -0.000    -0.000    -0.000 -0.1566  0.9853  0.0682
              Bcc     0.0000     0.000     0.000     0.000  0.0372 -0.0631  0.9973
 
              Baa    -0.0000    -0.000    -0.000    -0.000 -0.5019  0.8647  0.0217
     3 C(13)  Bbb     0.0000     0.000     0.000     0.000 -0.0265 -0.0404  0.9988
              Bcc     0.0000     0.000     0.000     0.000  0.8645  0.5007  0.0432
 
              Baa    -0.0000    -0.000    -0.000    -0.000 -0.5600  0.0612  0.8263
     4 C(13)  Bbb    -0.0000    -0.000    -0.000    -0.000  0.8275 -0.0088  0.5614
              Bcc     0.0000     0.000     0.000     0.000  0.0416  0.9981 -0.0458
 
              Baa    -0.0000    -0.000    -0.000    -0.000  0.0042 -0.0039  1.0000
     5 C(13)  Bbb     0.0000     0.000     0.000     0.000  0.0454  0.9990  0.0037
              Bcc     0.0000     0.000     0.000     0.000  0.9990 -0.0454 -0.0043
 
              Baa    -0.0000    -0.000    -0.000    -0.000  0.8615 -0.5047 -0.0552
     6 C(13)  Bbb     0.0000     0.000     0.000     0.000  0.2303  0.2917  0.9284
              Bcc     0.0000     0.000     0.000     0.000  0.4525  0.8125 -0.3676
 
              Baa    -0.0000    -0.000    -0.000    -0.000  0.6938  0.7200  0.0175
     7 C(13)  Bbb     0.0000     0.000     0.000     0.000 -0.0574  0.0310  0.9979
              Bcc     0.0000     0.000     0.000     0.000  0.7179 -0.6933  0.0628
 
              Baa    -0.0000    -0.000    -0.000    -0.000 -0.0932  0.2535  0.9628
     8 N(14)  Bbb    -0.0000    -0.000    -0.000    -0.000 -0.1546  0.9516 -0.2656
              Bcc     0.0000     0.000     0.000     0.000  0.9836  0.1736  0.0494
 
              Baa    -0.0000    -0.000    -0.000    -0.000  0.9306 -0.2768  0.2395
     9 C(13)  Bbb    -0.0000    -0.000    -0.000    -0.000 -0.1941  0.1817  0.9640
              Bcc     0.0000     0.000     0.000     0.000  0.3104  0.9436 -0.1153
 
              Baa    -0.0000    -0.000    -0.000    -0.000  0.0207  0.9985  0.0509
    10 C(13)  Bbb    -0.0000    -0.000    -0.000    -0.000  0.0077 -0.0510  0.9987
              Bcc     0.0000     0.000     0.000     0.000  0.9998 -0.0203 -0.0087
 
              Baa    -0.0000    -0.000    -0.000    -0.000  0.9912 -0.1325 -0.0020
    11 S(33)  Bbb     0.0000     0.000     0.000     0.000  0.0031  0.0075  1.0000
              Bcc     0.0000     0.000     0.000     0.000  0.1325  0.9911 -0.0079
 
              Baa    -0.0000    -0.000    -0.000    -0.000  0.9453  0.3156  0.0825
    12 H(1)   Bbb     0.0000     0.000     0.000     0.000 -0.2986  0.9389 -0.1711
              Bcc     0.0000     0.000     0.000     0.000 -0.1315  0.1371  0.9818
 
              Baa    -0.0000    -0.000    -0.000    -0.000  0.0661 -0.0725  0.9952
    13 H(1)   Bbb    -0.0000    -0.000    -0.000    -0.000  0.9203 -0.3809 -0.0888
              Bcc     0.0000     0.000     0.000     0.000  0.3855  0.9218  0.0415
 
              Baa    -0.0000    -0.000    -0.000    -0.000  0.9622 -0.2242  0.1548
    14 H(1)   Bbb     0.0000     0.000     0.000     0.000 -0.1813 -0.1025  0.9781
              Bcc     0.0000     0.000     0.000     0.000  0.2034  0.9691  0.1392
 
              Baa    -0.0000    -0.000    -0.000    -0.000  0.8669 -0.4949 -0.0597
    15 H(1)   Bbb    -0.0000    -0.000    -0.000    -0.000 -0.0044 -0.1272  0.9919
              Bcc     0.0000     0.000     0.000     0.000  0.4984  0.8596  0.1125
 
              Baa    -0.0000    -0.000    -0.000    -0.000 -0.0289  0.9965 -0.0778
    16 H(1)   Bbb    -0.0000    -0.000    -0.000    -0.000  0.0305  0.0787  0.9964
              Bcc     0.0000     0.000     0.000     0.000  0.9991  0.0265 -0.0326
 
              Baa    -0.0000    -0.000    -0.000    -0.000 -0.1586  0.9483  0.2750
    17 H(1)   Bbb    -0.0000    -0.000    -0.000    -0.000  0.1532 -0.2515  0.9557
              Bcc     0.0000     0.000     0.000     0.000  0.9754  0.1937 -0.1053
 
              Baa    -0.0000    -0.000    -0.000    -0.000  0.8222  0.4925  0.2852
    18 H(1)   Bbb    -0.0000    -0.000    -0.000    -0.000 -0.2105 -0.2025  0.9564
              Bcc     0.0000     0.000     0.000     0.000 -0.5288  0.8464  0.0628
 

 ---------------------------------------------------------------------------------

 No NMR shielding tensors so no spin-rotation constants.
 Leave Link  601 at Fri Jul 24 16:40:43 2020, MaxMem=  4026531840 cpu:               2.3 elap:               0.3
 (Enter /opt/ohpc/pub/libs/gaussian/g16-A.03/sandybridge/g16/l701.exe)
 ... and contract with generalized density number  0.
 Compute integral first derivatives.
 Leave Link  701 at Fri Jul 24 16:40:44 2020, MaxMem=  4026531840 cpu:               1.5 elap:               0.2
 (Enter /opt/ohpc/pub/libs/gaussian/g16-A.03/sandybridge/g16/l702.exe)
 L702 exits ... SP integral derivatives will be done elsewhere.
 Leave Link  702 at Fri Jul 24 16:40:44 2020, MaxMem=  4026531840 cpu:               0.2 elap:               0.0
 (Enter /opt/ohpc/pub/libs/gaussian/g16-A.03/sandybridge/g16/l703.exe)
 Integral derivatives from FoFJK, PRISM(SPDF).
 Compute integral first derivatives, UseDBF=F ICtDFT=           0.
 Calling FoFJK, ICntrl=      2127 FMM=F ISym2X=0 I1Cent= 0 IOpClX= 1 NMat=1 NMatS=1 NMatT=0.
 FoFJK:  IHMeth= 1 ICntrl=    2127 DoSepK=T KAlg= 0 I1Cent=           0 FoldK=F
 IRaf=         1 NMat=       1 IRICut=       1 DoRegI=T DoRafI=F ISym2E= 0 IDoP0=0 IntGTp=1.
 FoFCou: FMM=F IPFlag=           0 FMFlag=      100000 FMFlg1=         800
         NFxFlg=           0 DoJE=F BraDBF=F KetDBF=F FulRan=T
         wScrn=  0.000000 ICntrl=      2527 IOpCl=  0 I1Cent=           0 NGrid=           0
         NMat0=    1 NMatS0=      1 NMatT0=    0 NMatD0=    1 NMtDS0=    0 NMtDT0=    0
 Symmetry not used in FoFCou.
 Leave Link  703 at Fri Jul 24 16:40:59 2020, MaxMem=  4026531840 cpu:             119.3 elap:              15.0
 (Enter /opt/ohpc/pub/libs/gaussian/g16-A.03/sandybridge/g16/l716.exe)
 Dipole        = 1.12202959D-01-4.99691718D-01 1.71052460D-02
 ***** Axes restored to original set *****
 -------------------------------------------------------------------
 Center     Atomic                   Forces (Hartrees/Bohr)
 Number     Number              X              Y              Z
 -------------------------------------------------------------------
      1        6           0.038657895   -0.036394595    0.003984928
      2        6          -0.081447062    0.014154504    0.006406342
      3        6           0.031927006   -0.028921488   -0.011589024
      4        6           0.035126399   -0.020155858    0.005287045
      5        6          -0.037832870   -0.036069420   -0.003733584
      6        6           0.024867941    0.049238983   -0.000422787
      7        6          -0.014035231    0.075806103    0.002799905
      8        7          -0.006848299   -0.047342957   -0.011039236
      9        6           0.040769286    0.025542158    0.014513227
     10        6          -0.021193187   -0.006774355   -0.006491275
     11       16          -0.003892697   -0.032038914    0.000229658
     12        1           0.009618120    0.009419269   -0.002319543
     13        1           0.014407674   -0.029981533   -0.001747161
     14        1           0.003889319    0.024343254    0.004158028
     15        1          -0.019629722    0.036208402    0.001775507
     16        1           0.002045055    0.005093132   -0.000278210
     17        1          -0.008170998    0.008109050   -0.002390703
     18        1          -0.008258628   -0.010235734    0.000856883
 -------------------------------------------------------------------
 Cartesian Forces:  Max     0.081447062 RMS     0.025670916
 Leave Link  716 at Fri Jul 24 16:40:59 2020, MaxMem=  4026531840 cpu:               0.2 elap:               0.0
 (Enter /opt/ohpc/pub/libs/gaussian/g16-A.03/sandybridge/g16/l103.exe)

 GradGradGradGradGradGradGradGradGradGradGradGradGradGradGradGradGradGrad
 Berny optimization.
 FormGI is forming the generalized inverse of G from B-inverse, IUseBI=4.
 GSVD:  received Info=                   1 from GESDD.
 Internal  Forces:  Max     0.051724467 RMS     0.014110980
 Search for a local minimum.
 Step number   1 out of a maximum of   98
 All quantities printed in internal units (Hartrees-Bohrs-Radians)
 RMS Force = .14111D-01 SwitMx=.10000D-02 MixMth= 1
 Mixed Optimization -- RFO/linear search
 Second derivative matrix not updated -- first step.
 ITU=  0
     Eigenvalues ---    0.01547   0.01570   0.01693   0.01715   0.01783
     Eigenvalues ---    0.01849   0.01986   0.02157   0.02275   0.02286
     Eigenvalues ---    0.02360   0.02565   0.02688   0.02696   0.02780
     Eigenvalues ---    0.15874   0.15892   0.15941   0.15951   0.15962
     Eigenvalues ---    0.15976   0.16000   0.21993   0.22001   0.22420
     Eigenvalues ---    0.23435   0.24706   0.24985   0.24999   0.29431
     Eigenvalues ---    0.34407   0.34997   0.35017   0.35314   0.35900
     Eigenvalues ---    0.35941   0.36054   0.39474   0.39691   0.39945
     Eigenvalues ---    0.40675   0.42426   0.43768   0.46814   0.50906
     Eigenvalues ---    0.52728   0.53769   0.55093
 RFO step:  Lambda=-4.09612477D-02 EMin= 1.54677616D-02
 Linear search not attempted -- first point.
 Maximum step size (   0.300) exceeded in Quadratic search.
    -- Step size scaled by   0.972
 Iteration  1 RMS(Cart)=  0.03935463 RMS(Int)=  0.00105977
 Iteration  2 RMS(Cart)=  0.00145593 RMS(Int)=  0.00044059
 Iteration  3 RMS(Cart)=  0.00000128 RMS(Int)=  0.00044059
 Iteration  4 RMS(Cart)=  0.00000000 RMS(Int)=  0.00044059
 ITry= 1 IFail=0 DXMaxC= 1.44D-01 DCOld= 1.00D+10 DXMaxT= 3.00D-01 DXLimC= 3.00D+00 Rises=F
 Variable       Old X    -DE/DX   Delta X   Delta X   Delta X     New X
                                 (Linear)    (Quad)   (Total)
    R1        2.57256   0.03580   0.00000   0.06312   0.06317   2.63573
    R2        2.55092   0.05172   0.00000   0.09127   0.09154   2.64246
    R3        2.05648   0.00861   0.00000   0.02140   0.02140   2.07788
    R4        2.77189  -0.03585   0.00000  -0.09363  -0.09386   2.67803
    R5        1.98974   0.03314   0.00000   0.07393   0.07393   2.06367
    R6        2.66686  -0.00214   0.00000  -0.01204  -0.01231   2.65456
    R7        2.15813  -0.02362   0.00000  -0.06848  -0.06848   2.08965
    R8        2.69711  -0.00447   0.00000  -0.01108  -0.01113   2.68598
    R9        2.71975   0.02206   0.00000   0.04896   0.04896   2.76871
   R10        2.54292   0.04298   0.00000   0.07439   0.07462   2.61753
   R11        1.97346   0.04110   0.00000   0.08923   0.08923   2.06269
   R12        2.06648   0.00538   0.00000   0.01358   0.01358   2.08006
   R13        2.60953  -0.03706   0.00000  -0.07229  -0.07241   2.53712
   R14        3.19231   0.03002   0.00000   0.06845   0.06832   3.26062
   R15        2.65283  -0.01735   0.00000  -0.03589  -0.03584   2.61699
   R16        2.54460   0.02714   0.00000   0.04678   0.04692   2.59152
   R17        2.04238   0.01138   0.00000   0.02764   0.02764   2.07002
   R18        3.20426   0.01373   0.00000   0.03819   0.03826   3.24252
   R19        2.03997   0.01099   0.00000   0.02660   0.02660   2.06656
    A1        2.11151  -0.01020   0.00000  -0.01929  -0.01909   2.09242
    A2        1.99880   0.01565   0.00000   0.06149   0.06121   2.06001
    A3        2.17003  -0.00530   0.00000  -0.03993  -0.04030   2.12973
    A4        2.04431   0.01052   0.00000   0.03360   0.03328   2.07759
    A5        2.14291  -0.00436   0.00000  -0.01162  -0.01174   2.13117
    A6        2.09250  -0.00597   0.00000  -0.01939  -0.01946   2.07304
    A7        2.12021   0.00654   0.00000   0.00056  -0.00011   2.12010
    A8        1.98988   0.00506   0.00000   0.04145   0.04154   2.03141
    A9        2.16821  -0.01138   0.00000  -0.03847  -0.03853   2.12968
   A10        2.02277   0.01584   0.00000   0.03739   0.03710   2.05987
   A11        2.10541   0.00234   0.00000   0.01569   0.01581   2.12122
   A12        2.15457  -0.01816   0.00000  -0.05276  -0.05264   2.10193
   A13        2.10303  -0.00354   0.00000  -0.00448  -0.00433   2.09871
   A14        2.06863   0.00003   0.00000  -0.00587  -0.00604   2.06260
   A15        2.11008   0.00358   0.00000   0.01135   0.01119   2.12127
   A16        2.16260  -0.01903   0.00000  -0.04603  -0.04550   2.11710
   A17        2.06083   0.01060   0.00000   0.02826   0.02800   2.08883
   A18        2.05974   0.00844   0.00000   0.01779   0.01752   2.07726
   A19        2.08219   0.00707   0.00000   0.02795   0.02817   2.11036
   A20        2.18850  -0.00590   0.00000  -0.01537  -0.01516   2.17334
   A21        2.01245  -0.00117   0.00000  -0.01250  -0.01297   1.99948
   A22        1.86315   0.01692   0.00000   0.04294   0.04254   1.90569
   A23        2.02711   0.00020   0.00000   0.00689   0.00599   2.03310
   A24        2.05435   0.00150   0.00000   0.00712   0.00627   2.06063
   A25        2.19302  -0.00106   0.00000  -0.00469  -0.00546   2.18756
   A26        1.93910  -0.01172   0.00000  -0.02802  -0.02823   1.91087
   A27        2.15977   0.01329   0.00000   0.05092   0.05081   2.21058
   A28        2.18110  -0.00139   0.00000  -0.02038  -0.02058   2.16052
   A29        1.57756  -0.00375   0.00000  -0.00208  -0.00253   1.57502
    D1        0.00447  -0.00008   0.00000  -0.00199  -0.00200   0.00248
    D2       -3.04749  -0.00229   0.00000  -0.03447  -0.03443  -3.08192
    D3        3.06851   0.00170   0.00000   0.02729   0.02797   3.09648
    D4        0.01654  -0.00051   0.00000  -0.00520  -0.00446   0.01208
    D5       -0.03275   0.00141   0.00000   0.01640   0.01603  -0.01671
    D6        3.11609   0.00106   0.00000   0.01215   0.01167   3.12775
    D7       -3.08887  -0.00148   0.00000  -0.02062  -0.01988  -3.10875
    D8        0.05996  -0.00182   0.00000  -0.02487  -0.02425   0.03571
    D9        0.04673  -0.00148   0.00000  -0.02151  -0.02135   0.02538
   D10        3.08649   0.00017   0.00000   0.01300   0.01399   3.10048
   D11        3.10142   0.00072   0.00000   0.01030   0.01029   3.11171
   D12       -0.14201   0.00237   0.00000   0.04481   0.04563  -0.09638
   D13       -0.06739   0.00146   0.00000   0.02914   0.02934  -0.03805
   D14        3.10488   0.00120   0.00000   0.01862   0.01827   3.12315
   D15       -3.09643  -0.00150   0.00000  -0.01408  -0.01295  -3.10938
   D16        0.07584  -0.00175   0.00000  -0.02460  -0.02402   0.05182
   D17        0.04029  -0.00124   0.00000  -0.01696  -0.01671   0.02358
   D18        3.12489   0.00024   0.00000   0.00330   0.00332   3.12822
   D19       -3.13294  -0.00056   0.00000  -0.00472  -0.00445  -3.13740
   D20       -0.04834   0.00093   0.00000   0.01554   0.01558  -0.03275
   D21        3.12207   0.00084   0.00000   0.01201   0.01185   3.13391
   D22       -0.00918   0.00015   0.00000   0.00227   0.00234  -0.00685
   D23        0.01355  -0.00008   0.00000  -0.00109  -0.00116   0.01239
   D24       -3.11770  -0.00077   0.00000  -0.01082  -0.01067  -3.12837
   D25        0.00916  -0.00042   0.00000  -0.00574  -0.00578   0.00338
   D26       -3.13967  -0.00007   0.00000  -0.00145  -0.00140  -3.14107
   D27       -3.07408  -0.00181   0.00000  -0.02590  -0.02591  -3.09999
   D28        0.06028  -0.00146   0.00000  -0.02161  -0.02153   0.03875
   D29        3.07737   0.00230   0.00000   0.04031   0.04054   3.11791
   D30       -0.07355   0.00289   0.00000   0.04905   0.04911  -0.02443
[...]
    12  H    0.000017   0.000000   0.000000  -0.000000  -0.000000   0.733924
    13  H   -0.000381   0.000001  -0.000000  -0.000000   0.000012  -0.014984
    14  H   -0.027588   0.000309  -0.000002   0.000043   0.011442  -0.000226
    15  H   -0.031738   0.030448   0.000243   0.000102   0.001475  -0.000156
    16  H   -0.000393  -0.000025  -0.000000  -0.000000   0.000003  -0.015079
    17  H    0.002233  -0.025486   0.401074  -0.054642   0.007010  -0.000000
    18  H    0.003185   0.005012  -0.015906   0.385547  -0.037730  -0.000000
              13         14         15         16         17         18
     1  C   -0.053948   0.010566   0.010498  -0.054570  -0.000000  -0.000000
     2  C    0.390899  -0.046463  -0.001265   0.010015  -0.000000   0.000000
     3  C   -0.044308   0.394030   0.012959  -0.000058   0.000012   0.000006
     4  C    0.010141  -0.048436  -0.044037   0.009894  -0.000721  -0.000234
     5  C    0.000099   0.011311   0.394468  -0.047528  -0.000011  -0.000005
     6  C    0.009730  -0.001078  -0.055289   0.394202  -0.000001  -0.000000
     7  C   -0.000381  -0.027588  -0.031738  -0.000393   0.002233   0.003185
     8  N    0.000001   0.000309   0.030448  -0.000025  -0.025486   0.005012
     9  C   -0.000000  -0.000002   0.000243  -0.000000   0.401074  -0.015906
    10  C   -0.000000   0.000043   0.000102  -0.000000  -0.054642   0.385547
    11  S    0.000012   0.011442   0.001475   0.000003   0.007010  -0.037730
    12  H   -0.014984  -0.000226  -0.000156  -0.015079  -0.000000  -0.000000
    13  H    0.733938  -0.015409   0.000050  -0.000252   0.000000  -0.000000
    14  H   -0.015409   0.729201  -0.000137   0.000053  -0.000000  -0.000005
    15  H    0.000050  -0.000137   0.715758  -0.014531  -0.000095  -0.000007
    16  H   -0.000252   0.000053  -0.014531   0.731433   0.000000   0.000000
    17  H    0.000000  -0.000000  -0.000095   0.000000   0.673210  -0.004544
    18  H   -0.000000  -0.000005  -0.000007   0.000000  -0.004544   0.638774
          Atomic-Atomic Spin Densities.
               1          2          3          4          5          6
     1  C   -0.000000   0.000000  -0.000000   0.000000  -0.000000   0.000000
     2  C    0.000000   0.000000   0.000000  -0.000000   0.000000  -0.000000
     3  C   -0.000000   0.000000  -0.000000   0.000000  -0.000000   0.000000
     4  C    0.000000  -0.000000   0.000000  -0.000000   0.000000  -0.000000
     5  C   -0.000000   0.000000  -0.000000   0.000000   0.000000   0.000000
     6  C    0.000000  -0.000000   0.000000  -0.000000   0.000000  -0.000000
     7  C    0.000000  -0.000000   0.000000   0.000000   0.000000  -0.000000
     8  N   -0.000000   0.000000   0.000000  -0.000000   0.000000   0.000000
     9  C   -0.000000  -0.000000   0.000000  -0.000000   0.000000   0.000000
    10  C   -0.000000   0.000000  -0.000000  -0.000000  -0.000000   0.000000
    11  S   -0.000000   0.000000  -0.000000   0.000000   0.000000   0.000000
    12  H   -0.000000   0.000000  -0.000000   0.000000  -0.000000   0.000000
    13  H    0.000000  -0.000000   0.000000  -0.000000   0.000000  -0.000000
    14  H   -0.000000   0.000000  -0.000000   0.000000  -0.000000   0.000000
    15  H   -0.000000   0.000000  -0.000000   0.000000  -0.000000   0.000000
    16  H    0.000000  -0.000000   0.000000  -0.000000   0.000000  -0.000000
    17  H    0.000000  -0.000000   0.000000   0.000000  -0.000000  -0.000000
    18  H    0.000000  -0.000000   0.000000   0.000000  -0.000000  -0.000000
               7          8          9         10         11         12
     1  C    0.000000  -0.000000  -0.000000  -0.000000  -0.000000  -0.000000
     2  C   -0.000000   0.000000  -0.000000   0.000000   0.000000   0.000000
     3  C    0.000000   0.000000   0.000000  -0.000000  -0.000000  -0.000000
     4  C    0.000000  -0.000000  -0.000000  -0.000000   0.000000   0.000000
     5  C    0.000000   0.000000   0.000000  -0.000000   0.000000  -0.000000
     6  C   -0.000000   0.000000   0.000000   0.000000   0.000000   0.000000
     7  C   -0.000000   0.000000  -0.000000   0.000000  -0.000000   0.000000
     8  N    0.000000  -0.000000   0.000000  -0.000000  -0.000000  -0.000000
     9  C   -0.000000   0.000000   0.000000   0.000000   0.000000   0.000000
    10  C    0.000000  -0.000000   0.000000  -0.000000  -0.000000  -0.000000
    11  S   -0.000000  -0.000000   0.000000  -0.000000   0.000000  -0.000000
    12  H    0.000000  -0.000000   0.000000  -0.000000  -0.000000  -0.000000
    13  H    0.000000  -0.000000   0.000000  -0.000000   0.000000   0.000000
    14  H    0.000000   0.000000   0.000000  -0.000000  -0.000000  -0.000000
    15  H    0.000000  -0.000000   0.000000  -0.000000   0.000000  -0.000000
    16  H   -0.000000   0.000000  -0.000000   0.000000   0.000000   0.000000
    17  H    0.000000   0.000000  -0.000000   0.000000   0.000000   0.000000
    18  H    0.000000   0.000000  -0.000000  -0.000000   0.000000   0.000000
              13         14         15         16         17         18
     1  C    0.000000  -0.000000  -0.000000   0.000000   0.000000   0.000000
     2  C   -0.000000   0.000000   0.000000  -0.000000  -0.000000  -0.000000
     3  C    0.000000  -0.000000  -0.000000   0.000000   0.000000   0.000000
     4  C   -0.000000   0.000000   0.000000  -0.000000   0.000000   0.000000
     5  C    0.000000  -0.000000  -0.000000   0.000000  -0.000000  -0.000000
     6  C   -0.000000   0.000000   0.000000  -0.000000  -0.000000  -0.000000
     7  C    0.000000   0.000000   0.000000  -0.000000   0.000000   0.000000
     8  N   -0.000000   0.000000  -0.000000   0.000000   0.000000   0.000000
     9  C    0.000000   0.000000   0.000000  -0.000000  -0.000000  -0.000000
    10  C   -0.000000  -0.000000  -0.000000   0.000000   0.000000  -0.000000
    11  S    0.000000  -0.000000   0.000000   0.000000   0.000000   0.000000
    12  H    0.000000  -0.000000  -0.000000   0.000000   0.000000   0.000000
    13  H   -0.000000   0.000000   0.000000  -0.000000  -0.000000  -0.000000
    14  H    0.000000  -0.000000  -0.000000   0.000000   0.000000   0.000000
    15  H    0.000000  -0.000000  -0.000000   0.000000   0.000000   0.000000
    16  H   -0.000000   0.000000   0.000000  -0.000000  -0.000000  -0.000000
    17  H   -0.000000   0.000000   0.000000  -0.000000  -0.000000   0.000000
    18  H   -0.000000   0.000000   0.000000  -0.000000   0.000000  -0.000000
 Mulliken charges and spin densities:
               1          2
     1  C    0.027256  -0.000000
     2  C    0.031922   0.000000
     3  C   -0.016165   0.000000
     4  C    0.025297  -0.000000
     5  C    0.041788   0.000000
     6  C    0.036559  -0.000000
     7  C   -0.014047   0.000000
     8  N   -0.182558  -0.000000
     9  C    0.127817   0.000000
    10  C   -0.161094  -0.000000
    11  S    0.136742   0.000000
    12  H   -0.016274  -0.000000
    13  H   -0.015588  -0.000000
    14  H   -0.017610  -0.000000
    15  H   -0.018747  -0.000000
    16  H   -0.013164  -0.000000
    17  H    0.001960  -0.000000
    18  H    0.025907  -0.000000
 Sum of Mulliken charges =  -0.00000   0.00000
 Mulliken charges and spin densities with hydrogens summed into heavy atoms:
               1          2
     1  C    0.010981  -0.000000
     2  C    0.016334   0.000000
     3  C   -0.033775  -0.000000
     4  C    0.025297  -0.000000
     5  C    0.023041   0.000000
     6  C    0.023395  -0.000000
     7  C   -0.014047   0.000000
     8  N   -0.182558  -0.000000
     9  C    0.129777   0.000000
    10  C   -0.135186  -0.000000
    11  S    0.136742   0.000000
 Electronic spatial extent (au):  <R**2>=           2119.7163
 Charge=             -0.0000 electrons
 Dipole moment (field-independent basis, Debye):
    X=              0.1725    Y=             -0.9362    Z=             -0.0015  Tot=              0.9520
 Quadrupole moment (field-independent basis, Debye-Ang):
   XX=            -56.5328   YY=            -66.9604   ZZ=            -74.6417
   XY=             -0.3244   XZ=             -0.0012   YZ=             -0.0097
 Traceless Quadrupole moment (field-independent basis, Debye-Ang):
   XX=              9.5122   YY=             -0.9154   ZZ=             -8.5968
   XY=             -0.3244   XZ=             -0.0012   YZ=             -0.0097
 Octapole moment (field-independent basis, Debye-Ang**2):
  XXX=             19.2732  YYY=             -3.0345  ZZZ=             -0.0019  XYY=             -3.7693
  XXY=              1.8417  XXZ=             -0.0076  XZZ=              4.5479  YZZ=             -0.2617
  YYZ=             -0.0031  XYZ=              0.0325
 Hexadecapole moment (field-independent basis, Debye-Ang**3):
 XXXX=          -1983.4651 YYYY=           -547.1580 ZZZZ=            -82.0620 XXXY=             -0.1153
 XXXZ=             -0.0099 YYYX=              4.4046 YYYZ=             -0.0492 ZZZX=             -0.0057
 ZZZY=              0.0124 XXYY=           -427.5123 XXZZ=           -432.0522 YYZZ=           -115.0994
 XXYZ=             -0.0040 YYXZ=              0.0056 ZZXY=             -1.3624
 N-N= 6.173327968928D+02 E-N=-3.113127378118D+03  KE= 7.959551358493D+02
                          Isotropic Fermi Contact Couplings
        Atom                 a.u.       MegaHertz       Gauss      10(-4) cm-1
     1  C(13)             -0.00000      -0.00000      -0.00000      -0.00000
     2  C(13)              0.00000       0.00000       0.00000       0.00000
     3  C(13)             -0.00000      -0.00000      -0.00000      -0.00000
     4  C(13)             -0.00000      -0.00000      -0.00000      -0.00000
     5  C(13)             -0.00000      -0.00000      -0.00000      -0.00000
     6  C(13)             -0.00000      -0.00000      -0.00000      -0.00000
     7  C(13)             -0.00000      -0.00000      -0.00000      -0.00000
     8  N(14)             -0.00000      -0.00000      -0.00000      -0.00000
     9  C(13)              0.00000       0.00000       0.00000       0.00000
    10  C(13)             -0.00000      -0.00000      -0.00000      -0.00000
    11  S(33)             -0.00000      -0.00000      -0.00000      -0.00000
    12  H(1)               0.00000       0.00000       0.00000       0.00000
    13  H(1)              -0.00000      -0.00000      -0.00000      -0.00000
    14  H(1)              -0.00000      -0.00000      -0.00000      -0.00000
    15  H(1)              -0.00000      -0.00000      -0.00000      -0.00000
    16  H(1)              -0.00000      -0.00000      -0.00000      -0.00000
    17  H(1)              -0.00000      -0.00000      -0.00000      -0.00000
    18  H(1)              -0.00000      -0.00000      -0.00000      -0.00000
 --------------------------------------------------------
       Center         ----  Spin Dipole Couplings  ----
                      3XX-RR        3YY-RR        3ZZ-RR
 --------------------------------------------------------
     1   Atom       -0.000000      0.000000      0.000000
     2   Atom       -0.000000     -0.000000      0.000000
     3   Atom        0.000000     -0.000000      0.000000
     4   Atom       -0.000000      0.000000      0.000000
     5   Atom        0.000000     -0.000000      0.000000
     6   Atom       -0.000000      0.000000     -0.000000
     7   Atom       -0.000000      0.000000     -0.000000
     8   Atom       -0.000000      0.000000      0.000000
     9   Atom       -0.000000      0.000000     -0.000000
    10   Atom       -0.000000      0.000000     -0.000000
    11   Atom       -0.000000      0.000000     -0.000000
    12   Atom       -0.000000      0.000000      0.000000
    13   Atom        0.000000     -0.000000      0.000000
    14   Atom       -0.000000     -0.000000      0.000000
    15   Atom        0.000000     -0.000000      0.000000
    16   Atom       -0.000000      0.000000     -0.000000
    17   Atom       -0.000000     -0.000000      0.000000
    18   Atom        0.000000     -0.000000     -0.000000
 --------------------------------------------------------
                        XY            XZ            YZ
 --------------------------------------------------------
     1   Atom       -0.000000      0.000000      0.000000
     2   Atom       -0.000000     -0.000000      0.000000
     3   Atom        0.000000     -0.000000      0.000000
     4   Atom       -0.000000      0.000000     -0.000000
     5   Atom       -0.000000     -0.000000      0.000000
     6   Atom       -0.000000      0.000000     -0.000000
     7   Atom        0.000000     -0.000000     -0.000000
     8   Atom       -0.000000      0.000000     -0.000000
     9   Atom       -0.000000      0.000000      0.000000
    10   Atom        0.000000      0.000000      0.000000
    11   Atom       -0.000000     -0.000000      0.000000
    12   Atom        0.000000     -0.000000     -0.000000
    13   Atom       -0.000000      0.000000      0.000000
    14   Atom        0.000000      0.000000     -0.000000
    15   Atom       -0.000000      0.000000      0.000000
    16   Atom       -0.000000     -0.000000      0.000000
    17   Atom       -0.000000     -0.000000      0.000000
    18   Atom       -0.000000     -0.000000      0.000000
 --------------------------------------------------------


 ---------------------------------------------------------------------------------
              Anisotropic Spin Dipole Couplings in Principal Axis System
 ---------------------------------------------------------------------------------

       Atom             a.u.   MegaHertz   Gauss  10(-4) cm-1        Axes

              Baa    -0.0000    -0.000    -0.000    -0.000  0.9519  0.3063 -0.0005
     1 C(13)  Bbb     0.0000     0.000     0.000     0.000 -0.3063  0.9519 -0.0033
              Bcc     0.0000     0.000     0.000     0.000 -0.0005  0.0033  1.0000
 
              Baa    -0.0000    -0.000    -0.000    -0.000  0.9360  0.3519  0.0040
     2 C(13)  Bbb    -0.0000    -0.000    -0.000    -0.000 -0.3519  0.9360 -0.0064
              Bcc     0.0000     0.000     0.000     0.000 -0.0060  0.0046  1.0000
 
              Baa    -0.0000    -0.000    -0.000    -0.000 -0.2936  0.9559 -0.0064
     3 C(13)  Bbb     0.0000     0.000     0.000     0.000  0.9559  0.2936  0.0013
              Bcc     0.0000     0.000     0.000     0.000 -0.0031  0.0057  1.0000
 
              Baa    -0.0000    -0.000    -0.000    -0.000  0.9183  0.3959  0.0089
     4 C(13)  Bbb     0.0000     0.000     0.000     0.000 -0.0416  0.0741  0.9964
              Bcc     0.0000     0.000     0.000     0.000 -0.3938  0.9153 -0.0845
 
              Baa    -0.0000    -0.000    -0.000    -0.000  0.0599  0.9982 -0.0095
     5 C(13)  Bbb     0.0000     0.000     0.000     0.000  0.9982 -0.0599  0.0042
              Bcc     0.0000     0.000     0.000     0.000 -0.0036  0.0098  0.9999
 
              Baa    -0.0000    -0.000    -0.000    -0.000  0.9863  0.1649 -0.0016
     6 C(13)  Bbb    -0.0000    -0.000    -0.000    -0.000 -0.0010  0.0154  0.9999
              Bcc     0.0000     0.000     0.000     0.000 -0.1649  0.9862 -0.0153
 
              Baa    -0.0000    -0.000    -0.000    -0.000  0.9905 -0.1220  0.0635
     7 C(13)  Bbb    -0.0000    -0.000    -0.000    -0.000 -0.0624  0.0133  0.9980
              Bcc     0.0000     0.000     0.000     0.000  0.1226  0.9924 -0.0055
 
              Baa    -0.0000    -0.000    -0.000    -0.000  0.9964  0.0845 -0.0023
     8 N(14)  Bbb     0.0000     0.000     0.000     0.000 -0.0845  0.9964  0.0025
              Bcc     0.0000     0.000     0.000     0.000  0.0025 -0.0023  1.0000
 
              Baa    -0.0000    -0.000    -0.000    -0.000  0.9986  0.0448 -0.0280
     9 C(13)  Bbb    -0.0000    -0.000    -0.000    -0.000  0.0288 -0.0183  0.9994
              Bcc     0.0000     0.000     0.000     0.000 -0.0442  0.9988  0.0196
 
              Baa    -0.0000    -0.000    -0.000    -0.000  0.9838 -0.1792 -0.0079
    10 C(13)  Bbb    -0.0000    -0.000    -0.000    -0.000  0.0062 -0.0103  0.9999
              Bcc     0.0000     0.000     0.000     0.000  0.1793  0.9838  0.0090
 
              Baa    -0.0000    -0.000    -0.000    -0.000  0.1091  0.0463  0.9930
    11 S(33)  Bbb    -0.0000    -0.000    -0.000    -0.000  0.8651  0.4875 -0.1178
              Bcc     0.0000     0.000     0.000     0.000 -0.4896  0.8719  0.0131
 
              Baa    -0.0000    -0.000    -0.000    -0.000  0.9729 -0.2314 -0.0000
    12 H(1)   Bbb     0.0000     0.000     0.000     0.000  0.0396  0.1667  0.9852
              Bcc     0.0000     0.000     0.000     0.000  0.2280  0.9585 -0.1713
 
              Baa    -0.0000    -0.000    -0.000    -0.000  0.2515  0.9678 -0.0078
    13 H(1)   Bbb     0.0000     0.000     0.000     0.000  0.9679 -0.2515  0.0036
              Bcc     0.0000     0.000     0.000     0.000 -0.0016  0.0085  1.0000
 
              Baa    -0.0000    -0.000    -0.000    -0.000  0.7178 -0.6962 -0.0004
    14 H(1)   Bbb     0.0000     0.000     0.000     0.000  0.6962  0.7178  0.0009
              Bcc     0.0000     0.000     0.000     0.000 -0.0003 -0.0009  1.0000
 
              Baa    -0.0000    -0.000    -0.000    -0.000  0.2687  0.9632 -0.0028
    15 H(1)   Bbb     0.0000     0.000     0.000     0.000  0.9632 -0.2686  0.0054
              Bcc     0.0000     0.000     0.000     0.000 -0.0045  0.0041  1.0000
 
              Baa    -0.0000    -0.000    -0.000    -0.000  0.8762  0.4819 -0.0029
    16 H(1)   Bbb    -0.0000    -0.000    -0.000    -0.000  0.0037 -0.0007  1.0000
              Bcc     0.0000     0.000     0.000     0.000 -0.4819  0.8762  0.0024
 
              Baa    -0.0000    -0.000    -0.000    -0.000  0.6893  0.7245 -0.0008
    17 H(1)   Bbb     0.0000     0.000     0.000     0.000  0.7107 -0.6759  0.1949
              Bcc     0.0000     0.000     0.000     0.000 -0.1407  0.1349  0.9808
 
              Baa    -0.0000    -0.000    -0.000    -0.000  0.4069  0.9132 -0.0210
    18 H(1)   Bbb    -0.0000    -0.000    -0.000    -0.000  0.0101  0.0184  0.9998
              Bcc     0.0000     0.000     0.000     0.000  0.9134 -0.4070 -0.0017
 

 ---------------------------------------------------------------------------------

 No NMR shielding tensors so no spin-rotation constants.
 Leave Link  601 at Fri Jul 24 16:49:58 2020, MaxMem=  4026531840 cpu:               3.1 elap:               0.4
 (Enter /opt/ohpc/pub/libs/gaussian/g16-A.03/sandybridge/g16/l9999.exe)

 Test job not archived.
 1\1\GINC-SKYLAKE051\FOpt\ULC-wPBE\CC-pVDZ\C9H7N1S1\RDU230\24-Jul-2020\
 0\\#P uLC-wPBE/cc-pVDZ iop(3/107=0163900000, 3/108=0163900000) opt\\H7
  C9 S1 N1\\0,1\C,3.5000959253,-0.043506471,0.0072863979\C,2.7417179825
 ,-1.2215760952,0.003060101\C,1.344452417,-1.1585770818,0.0032164688\C,
 0.6863274067,0.0857931253,0.0072614619\C,1.4556156401,1.2667121541,0.0
 114190589\C,2.8512813024,1.1993824225,0.0114358992\C,-0.7847387226,0.1
 989553354,0.0073239687\N,-1.4296324201,1.345685815,0.008450157\C,-2.78
 80862441,1.1503804484,0.0084784087\C,-3.2114029955,-0.1575563684,0.007
 3017405\S,-1.841502414,-1.2141780891,0.0063656618\H,4.5976181627,-0.09
 45785281,0.0072316905\H,3.2416007164,-2.1997684839,-0.0004042325\H,0.7
 614438948,-2.091081972,-0.0003604864\H,0.9289064375,2.2293615573,0.014
 5332392\H,3.4397556817,2.1273177991,0.0146912787\H,-3.4556351253,2.020
 9035239,0.0092301685\H,-4.2323476455,-0.5508850914,0.0072650178\\Versi
 on=EM64L-G16RevA.03\State=1-A\HF=-799.6175012\S2=0.\S2-1=0.\S2A=0.\RMS
 D=7.465e-09\RMSF=2.386e-05\Dipole=-0.0653916,-0.3687798,-0.0002227\Qua
 drupole=7.068493,-0.6770721,-6.391421,0.2932087,-0.0006336,0.0197559\P
 G=C01 [X(C9H7N1S1)]\\@


 ABSOLUTISM, OBSOLETISM -- IF IT WORKS, IT'S OUT OF DATE

                          -- STAFFORD BEER
 Job cpu time:       0 days  1 hours 22 minutes 31.1 seconds.
 Elapsed time:       0 days  0 hours 10 minutes 27.9 seconds.
 File lengths (MBytes):  RWF=    100 Int=      0 D2E=      0 Chk=     12 Scr=      8
 Normal termination of Gaussian 16 at Fri Jul 24 16:49:58 2020.
