 Entering Gaussian System, Link 0=g16
 Input=mols_66_3_13_c-n-cF-cOC_opt_0.gjf
 Output=mols_66_3_13_c-n-cF-cOC_opt_0.log
 Initial command:
 /opt/ohpc/pub/libs/gaussian/g16-A.03/sandybridge/g16/l1.exe "/mnt/gpfs2_4m/scratch/rdu230/ondemand/projects/dihedral_energies/7trial/wtuning/mols_66_3_13_c-n-cF-cOC/Gau-18052.inp" -scrdir="/mnt/gpfs2_4m/scratch/rdu230/ondemand/projects/dihedral_energies/7trial/wtuning/mols_66_3_13_c-n-cF-cOC/"
 Entering Link 1 = /opt/ohpc/pub/libs/gaussian/g16-A.03/sandybridge/g16/l1.exe PID=     18054.
  
 Copyright (c) 1988,1990,1992,1993,1995,1998,2003,2009,2016,
            Gaussian, Inc.  All Rights Reserved.
  
 This is part of the Gaussian(R) 16 program.  It is based on
 the Gaussian(R) 09 system (copyright 2009, Gaussian, Inc.),
 the Gaussian(R) 03 system (copyright 2003, Gaussian, Inc.),
 the Gaussian(R) 98 system (copyright 1998, Gaussian, Inc.),
 the Gaussian(R) 94 system (copyright 1995, Gaussian, Inc.),
 the Gaussian 92(TM) system (copyright 1992, Gaussian, Inc.),
 the Gaussian 90(TM) system (copyright 1990, Gaussian, Inc.),
 the Gaussian 88(TM) system (copyright 1988, Gaussian, Inc.),
 the Gaussian 86(TM) system (copyright 1986, Carnegie Mellon
 University), and the Gaussian 82(TM) system (copyright 1983,
 Carnegie Mellon University). Gaussian is a federally registered
 trademark of Gaussian, Inc.
  
 This software contains proprietary and confidential information,
 including trade secrets, belonging to Gaussian, Inc.
  
 This software is provided under written license and may be
 used, copied, transmitted, or stored only in accord with that
 written license.
  
 The following legend is applicable only to US Government
 contracts under FAR:
  
                    RESTRICTED RIGHTS LEGEND
  
 Use, reproduction and disclosure by the US Government is
 subject to restrictions as set forth in subparagraphs (a)
 and (c) of the Commercial Computer Software - Restricted
 Rights clause in FAR 52.227-19.
  
 Gaussian, Inc.
 340 Quinnipiac St., Bldg. 40, Wallingford CT 06492
  
  
 ---------------------------------------------------------------
 Warning -- This program may not be used in any manner that
 competes with the business of Gaussian, Inc. or will provide
 assistance to any competitor of Gaussian, Inc.  The licensee
 of this program is prohibited from giving any competitor of
 Gaussian, Inc. access to this program.  By using this program,
 the user acknowledges that Gaussian, Inc. is engaged in the
 business of creating and licensing software in the field of
 computational chemistry and represents and warrants to the
 licensee that it is not a competitor of Gaussian, Inc. and that
 it will not use this program in any manner prohibited above.
 ---------------------------------------------------------------
  

 Cite this work as:
 Gaussian 16, Revision A.03,
 M. J. Frisch, G. W. Trucks, H. B. Schlegel, G. E. Scuseria, 
 M. A. Robb, J. R. Cheeseman, G. Scalmani, V. Barone, 
 G. A. Petersson, H. Nakatsuji, X. Li, M. Caricato, A. V. Marenich, 
 J. Bloino, B. G. Janesko, R. Gomperts, B. Mennucci, H. P. Hratchian, 
 J. V. Ortiz, A. F. Izmaylov, J. L. Sonnenberg, D. Williams-Young, 
 F. Ding, F. Lipparini, F. Egidi, J. Goings, B. Peng, A. Petrone, 
 T. Henderson, D. Ranasinghe, V. G. Zakrzewski, J. Gao, N. Rega, 
 G. Zheng, W. Liang, M. Hada, M. Ehara, K. Toyota, R. Fukuda, 
 J. Hasegawa, M. Ishida, T. Nakajima, Y. Honda, O. Kitao, H. Nakai, 
 T. Vreven, K. Throssell, J. A. Montgomery, Jr., J. E. Peralta, 
 F. Ogliaro, M. J. Bearpark, J. J. Heyd, E. N. Brothers, K. N. Kudin, 
 V. N. Staroverov, T. A. Keith, R. Kobayashi, J. Normand, 
 K. Raghavachari, A. P. Rendell, J. C. Burant, S. S. Iyengar, 
 J. Tomasi, M. Cossi, J. M. Millam, M. Klene, C. Adamo, R. Cammi, 
 J. W. Ochterski, R. L. Martin, K. Morokuma, O. Farkas, 
 J. B. Foresman, and D. J. Fox, Gaussian, Inc., Wallingford CT, 2016.
 
 ******************************************
 Gaussian 16:  EM64L-G16RevA.03 25-Dec-2016
                23-Jul-2020 
 ******************************************
 %mem=30GB
 %nproc=8
 Will use up to    8 processors via shared memory.
 ---------------------------------------------------------------
 #P uLC-wPBE/cc-pVDZ iop(3/107=0246900000, 3/108=0246900000) opt
 ---------------------------------------------------------------
 1/18=20,19=15,26=3,38=1/1,3;
 2/9=110,12=2,17=6,18=5,40=1/2;
 3/5=16,11=2,25=1,30=1,71=1,74=-41,107=246900000,108=246900000,116=2/1,2,3;
 4//1;
 5/5=2,38=5/2;
 6/7=2,8=2,9=2,10=2,28=1/1;
 7//1,2,3,16;
 1/18=20,19=15,26=3/3(2);
 2/9=110/2;
 99//99;
 2/9=110/2;
 3/5=16,11=2,25=1,30=1,71=1,74=-41,107=246900000,108=246900000,116=2/1,2,3;
 4/5=5,16=3,69=1/1;
 5/5=2,38=5/2;
 7//1,2,3,16;
 1/18=20,19=15,26=3/3(-5);
 2/9=110/2;
 6/7=2,8=2,9=2,10=2,19=2,28=1/1;
 99/9=1/99;
 Leave Link    1 at Thu Jul 23 19:46:25 2020, MaxMem=  4026531840 cpu:               8.4 elap:               1.2
 (Enter /opt/ohpc/pub/libs/gaussian/g16-A.03/sandybridge/g16/l101.exe)
 ----------------
 H26 C36 N3 O3 F3
 ----------------
 Symbolic Z-matrix:
 Charge =  0 Multiplicity = 1
 C                    -12.14768  -0.37718  -0.13504 
 C                    -11.54883   0.45685  -1.03816 
 C                    -10.15279   0.50443  -1.06703 
 F                    -9.55065   1.28232  -2.00261 
 C                    -9.39058  -0.27597  -0.18648 
 N                    -10.03217  -1.12978   0.71394 
 C                    -11.42009  -1.08638   0.66145 
 C                    -7.97641  -0.23275  -0.16082 
 C                    -7.24402  -1.48219  -0.16981 
 C                    -5.87789  -1.60919  -0.1861 
 C                    -5.10666  -0.36516  -0.06594 
 C                    -5.74812   0.79835  -0.07148 
 C                    -7.16245   0.85515  -0.03997 
 O                    -7.81911   2.1147    0.03606 
 C                    -7.61082   2.78282   1.215 
 C                    -3.67553  -0.49345  -0.07246 
 C                    -2.93861  -1.30844   0.85009 
 C                    -1.53955  -1.26976   0.81891 
 F                    -0.92482  -2.08648   1.77698 
 C                    -0.87337  -0.49759   0.00688 
 N                    -1.4563    0.27896  -0.92766 
 C                    -2.86848   0.24028  -0.95574 
 C                     0.60094  -0.436    -0.0277 
 C                     1.2999   -0.6995   -1.32654 
 C                     2.73209  -0.64506  -1.37991 
 C                     3.49004  -0.41363  -0.25506 
 C                     2.81336  -0.07848   0.97005 
 C                     1.35167  -0.14481   1.05006 
 O                     0.71443   0.17388   2.21791 
 C                     1.06274   1.44985   2.76546 
 C                     4.8811   -0.38185  -0.30568 
 C                     5.63473   0.45218  -1.16911 
 C                     6.97315   0.43091  -1.19255 
 F                     7.68012   1.15849  -2.09005 
 C                     7.72918  -0.39349  -0.27444 
 N                     7.07363  -1.22137   0.60447 
 C                     5.70468  -1.20867   0.5887 
 C                     9.14932  -0.45627  -0.23529 
 C                     9.83848  -1.7011   -0.49355 
 C                     11.22325  -1.80276  -0.46196 
 C                     12.00351  -0.66299  -0.17363 
 C                     11.35561   0.57663  -0.04959 
 C                     9.9641    0.7115   -0.06905 
 O                     9.2731    1.92863   0.1872 
 C                     9.97257   2.91857   0.91682 
 H                    -13.30582  -0.42801  -0.07546 
 H                    -12.16478   1.04885  -1.82458 
 H                    -11.86766  -1.73272   1.46495 
 H                    -7.80455  -2.41798  -0.26447 
 H                    -5.39941  -2.50631  -0.22377 
 H                    -5.26279   1.78694  -0.02927 
 H                    -6.57845   3.24986   1.27391 
 H                    -7.74335   2.07984   2.12497 
 H                    -8.36758   3.58373   1.35411 
 H                    -3.47197  -1.85905   1.52574 
 H                    -3.31687   0.94469  -1.7497 
 H                     0.67189  -0.86376  -2.19063 
 H                     3.21027  -0.85514  -2.30492 
 H                     3.34892   0.06013   1.84308 
 H                     0.29747   1.73292   3.50518 
 H                     1.10982   2.19037   2.00178 
 H                     2.08661   1.37288   3.25513 
 H                     5.13032   1.02518  -1.90992 
 H                     5.20742  -1.8743    1.26316 
 H                     9.20451  -2.55465  -0.58906 
 H                     11.73688  -2.72481  -0.60349 
 H                     13.08134  -0.65594  -0.17938 
 H                     11.97212   1.51295   0.1312 
 H                     10.75434   3.36147   0.2996 
 H                     9.25851   3.61112   1.31312 
 H                     10.49223   2.46419   1.85887 
 
 ITRead=  0  0  0  0  0  0  0  0  0  0  0  0  0  0  0  0  0  0  0  0
 ITRead=  0  0  0  0  0  0  0  0  0  0  0  0  0  0  0  0  0  0  0  0
 ITRead=  0  0  0  0  0  0  0  0  0  0  0  0  0  0  0  0  0  0  0  0
 ITRead=  0  0  0  0  0  0  0  0  0  0  0
 MicOpt= -1 -1 -1 -1 -1 -1 -1 -1 -1 -1 -1 -1 -1 -1 -1 -1 -1 -1 -1 -1
 MicOpt= -1 -1 -1 -1 -1 -1 -1 -1 -1 -1 -1 -1 -1 -1 -1 -1 -1 -1 -1 -1
 MicOpt= -1 -1 -1 -1 -1 -1 -1 -1 -1 -1 -1 -1 -1 -1 -1 -1 -1 -1 -1 -1
 MicOpt= -1 -1 -1 -1 -1 -1 -1 -1 -1 -1 -1
 NAtoms=     71 NQM=       71 NQMF=       0 NMMI=      0 NMMIF=      0
                NMic=       0 NMicF=      0.
                    Isotopes and Nuclear Properties:
 (Nuclear quadrupole moments (NQMom) in fm**2, nuclear magnetic moments (NMagM)
  in nuclear magnetons)

  Atom         1           2           3           4           5           6           7           8           9          10
 IAtWgt=          12          12          12          19          12          14          12          12          12          12
 AtmWgt=  12.0000000  12.0000000  12.0000000  18.9984033  12.0000000  14.0030740  12.0000000  12.0000000  12.0000000  12.0000000
 NucSpn=           0           0           0           1           0           2           0           0           0           0
 AtZEff=  -0.0000000  -0.0000000  -0.0000000  -0.0000000  -0.0000000  -0.0000000  -0.0000000  -0.0000000  -0.0000000  -0.0000000
 NQMom=    0.0000000   0.0000000   0.0000000   0.0000000   0.0000000   2.0440000   0.0000000   0.0000000   0.0000000   0.0000000
 NMagM=    0.0000000   0.0000000   0.0000000   2.6288670   0.0000000   0.4037610   0.0000000   0.0000000   0.0000000   0.0000000
 AtZNuc=   6.0000000   6.0000000   6.0000000   9.0000000   6.0000000   7.0000000   6.0000000   6.0000000   6.0000000   6.0000000

  Atom        11          12          13          14          15          16          17          18          19          20
 IAtWgt=          12          12          12          16          12          12          12          12          19          12
 AtmWgt=  12.0000000  12.0000000  12.0000000  15.9949146  12.0000000  12.0000000  12.0000000  12.0000000  18.9984033  12.0000000
 NucSpn=           0           0           0           0           0           0           0           0           1           0
 AtZEff=  -0.0000000  -0.0000000  -0.0000000  -0.0000000  -0.0000000  -0.0000000  -0.0000000  -0.0000000  -0.0000000  -0.0000000
 NQMom=    0.0000000   0.0000000   0.0000000   0.0000000   0.0000000   0.0000000   0.0000000   0.0000000   0.0000000   0.0000000
 NMagM=    0.0000000   0.0000000   0.0000000   0.0000000   0.0000000   0.0000000   0.0000000   0.0000000   2.6288670   0.0000000
 AtZNuc=   6.0000000   6.0000000   6.0000000   8.0000000   6.0000000   6.0000000   6.0000000   6.0000000   9.0000000   6.0000000

  Atom        21          22          23          24          25          26          27          28          29          30
 IAtWgt=          14          12          12          12          12          12          12          12          16          12
 AtmWgt=  14.0030740  12.0000000  12.0000000  12.0000000  12.0000000  12.0000000  12.0000000  12.0000000  15.9949146  12.0000000
 NucSpn=           2           0           0           0           0           0           0           0           0           0
 AtZEff=  -0.0000000  -0.0000000  -0.0000000  -0.0000000  -0.0000000  -0.0000000  -0.0000000  -0.0000000  -0.0000000  -0.0000000
 NQMom=    2.0440000   0.0000000   0.0000000   0.0000000   0.0000000   0.0000000   0.0000000   0.0000000   0.0000000   0.0000000
 NMagM=    0.4037610   0.0000000   0.0000000   0.0000000   0.0000000   0.0000000   0.0000000   0.0000000   0.0000000   0.0000000
 AtZNuc=   7.0000000   6.0000000   6.0000000   6.0000000   6.0000000   6.0000000   6.0000000   6.0000000   8.0000000   6.0000000

  Atom        31          32          33          34          35          36          37          38          39          40
 IAtWgt=          12          12          12          19          12          14          12          12          12          12
 AtmWgt=  12.0000000  12.0000000  12.0000000  18.9984033  12.0000000  14.0030740  12.0000000  12.0000000  12.0000000  12.0000000
 NucSpn=           0           0           0           1           0           2           0           0           0           0
 AtZEff=  -0.0000000  -0.0000000  -0.0000000  -0.0000000  -0.0000000  -0.0000000  -0.0000000  -0.0000000  -0.0000000  -0.0000000
 NQMom=    0.0000000   0.0000000   0.0000000   0.0000000   0.0000000   2.0440000   0.0000000   0.0000000   0.0000000   0.0000000
 NMagM=    0.0000000   0.0000000   0.0000000   2.6288670   0.0000000   0.4037610   0.0000000   0.0000000   0.0000000   0.0000000
 AtZNuc=   6.0000000   6.0000000   6.0000000   9.0000000   6.0000000   7.0000000   6.0000000   6.0000000   6.0000000   6.0000000

  Atom        41          42          43          44          45          46          47          48          49          50
 IAtWgt=          12          12          12          16          12           1           1           1           1           1
 AtmWgt=  12.0000000  12.0000000  12.0000000  15.9949146  12.0000000   1.0078250   1.0078250   1.0078250   1.0078250   1.0078250
 NucSpn=           0           0           0           0           0           1           1           1           1           1
 AtZEff=  -0.0000000  -0.0000000  -0.0000000  -0.0000000  -0.0000000  -0.0000000  -0.0000000  -0.0000000  -0.0000000  -0.0000000
 NQMom=    0.0000000   0.0000000   0.0000000   0.0000000   0.0000000   0.0000000   0.0000000   0.0000000   0.0000000   0.0000000
 NMagM=    0.0000000   0.0000000   0.0000000   0.0000000   0.0000000   2.7928460   2.7928460   2.7928460   2.7928460   2.7928460
 AtZNuc=   6.0000000   6.0000000   6.0000000   8.0000000   6.0000000   1.0000000   1.0000000   1.0000000   1.0000000   1.0000000

  Atom        51          52          53          54          55          56          57          58          59          60
 IAtWgt=           1           1           1           1           1           1           1           1           1           1
 AtmWgt=   1.0078250   1.0078250   1.0078250   1.0078250   1.0078250   1.0078250   1.0078250   1.0078250   1.0078250   1.0078250
 NucSpn=           1           1           1           1           1           1           1           1           1           1
 AtZEff=  -0.0000000  -0.0000000  -0.0000000  -0.0000000  -0.0000000  -0.0000000  -0.0000000  -0.0000000  -0.0000000  -0.0000000
 NQMom=    0.0000000   0.0000000   0.0000000   0.0000000   0.0000000   0.0000000   0.0000000   0.0000000   0.0000000   0.0000000
 NMagM=    2.7928460   2.7928460   2.7928460   2.7928460   2.7928460   2.7928460   2.7928460   2.7928460   2.7928460   2.7928460
 AtZNuc=   1.0000000   1.0000000   1.0000000   1.0000000   1.0000000   1.0000000   1.0000000   1.0000000   1.0000000   1.0000000

  Atom        61          62          63          64          65          66          67          68          69          70
 IAtWgt=           1           1           1           1           1           1           1           1           1           1
 AtmWgt=   1.0078250   1.0078250   1.0078250   1.0078250   1.0078250   1.0078250   1.0078250   1.0078250   1.0078250   1.0078250
 NucSpn=           1           1           1           1           1           1           1           1           1           1
 AtZEff=  -0.0000000  -0.0000000  -0.0000000  -0.0000000  -0.0000000  -0.0000000  -0.0000000  -0.0000000  -0.0000000  -0.0000000
 NQMom=    0.0000000   0.0000000   0.0000000   0.0000000   0.0000000   0.0000000   0.0000000   0.0000000   0.0000000   0.0000000
 NMagM=    2.7928460   2.7928460   2.7928460   2.7928460   2.7928460   2.7928460   2.7928460   2.7928460   2.7928460   2.7928460
 AtZNuc=   1.0000000   1.0000000   1.0000000   1.0000000   1.0000000   1.0000000   1.0000000   1.0000000   1.0000000   1.0000000

  Atom        71
 IAtWgt=           1
 AtmWgt=   1.0078250
 NucSpn=           1
 AtZEff=  -0.0000000
 NQMom=    0.0000000
 NMagM=    2.7928460
 AtZNuc=   1.0000000
 Leave Link  101 at Thu Jul 23 19:46:25 2020, MaxMem=  4026531840 cpu:               2.9 elap:               0.4
 (Enter /opt/ohpc/pub/libs/gaussian/g16-A.03/sandybridge/g16/l103.exe)

 GradGradGradGradGradGradGradGradGradGradGradGradGradGradGradGradGradGrad
 Berny optimization.
 Initialization pass.
                           ----------------------------
                           !    Initial Parameters    !
                           ! (Angstroms and Degrees)  !
 --------------------------                            --------------------------
 ! Name  Definition              Value          Derivative Info.                !
 --------------------------------------------------------------------------------
 ! R1    R(1,2)                  1.3674         estimate D2E/DX2                !
 ! R2    R(1,7)                  1.291          estimate D2E/DX2                !
 ! R3    R(1,46)                 1.1608         estimate D2E/DX2                !
 ! R4    R(2,3)                  1.3971         estimate D2E/DX2                !
 ! R5    R(2,47)                 1.1612         estimate D2E/DX2                !
 ! R6    R(3,4)                  1.3576         estimate D2E/DX2                !
 ! R7    R(3,5)                  1.4019         estimate D2E/DX2                !
 ! R8    R(5,6)                  1.3969         estimate D2E/DX2                !
 ! R9    R(5,8)                  1.4151         estimate D2E/DX2                !
 ! R10   R(6,7)                  1.3896         estimate D2E/DX2                !
 ! R11   R(7,48)                 1.1241         estimate D2E/DX2                !
 ! R12   R(8,9)                  1.4483         estimate D2E/DX2                !
 ! R13   R(8,13)                 1.3641         estimate D2E/DX2                !
 ! R14   R(9,10)                 1.3721         estimate D2E/DX2                !
 ! R15   R(9,49)                 1.0949         estimate D2E/DX2                !
 ! R16   R(10,11)                1.4686         estimate D2E/DX2                !
 ! R17   R(10,50)                1.0174         estimate D2E/DX2                !
 ! R18   R(11,12)                1.3286         estimate D2E/DX2                !
 ! R19   R(11,16)                1.4369         estimate D2E/DX2                !
 ! R20   R(12,13)                1.4158         estimate D2E/DX2                !
 ! R21   R(12,51)                1.1021         estimate D2E/DX2                !
 ! R22   R(13,14)                1.4225         estimate D2E/DX2                !
 ! R23   R(14,15)                1.371          estimate D2E/DX2                !
 ! R24   R(15,52)                1.1346         estimate D2E/DX2                !
 ! R25   R(15,53)                1.1575         estimate D2E/DX2                !
 ! R26   R(15,54)                1.1106         estimate D2E/DX2                !
 ! R27   R(16,17)                1.4347         estimate D2E/DX2                !
 ! R28   R(16,22)                1.4035         estimate D2E/DX2                !
 ! R29   R(17,18)                1.3999         estimate D2E/DX2                !
 ! R30   R(17,55)                1.0218         estimate D2E/DX2                !
 ! R31   R(18,19)                1.401          estimate D2E/DX2                !
 ! R32   R(18,20)                1.3036         estimate D2E/DX2                !
 ! R33   R(20,21)                1.3477         estimate D2E/DX2                !
 ! R34   R(20,23)                1.476          estimate D2E/DX2                !
 ! R35   R(21,22)                1.413          estimate D2E/DX2                !
 ! R36   R(22,56)                1.1522         estimate D2E/DX2                !
 ! R37   R(23,24)                1.4983         estimate D2E/DX2                !
 ! R38   R(23,28)                1.3453         estimate D2E/DX2                !
 ! R39   R(24,25)                1.4342         estimate D2E/DX2                !
 ! R40   R(24,57)                1.0808         estimate D2E/DX2                !
 ! R41   R(25,26)                1.376          estimate D2E/DX2                !
 ! R42   R(25,58)                1.0623         estimate D2E/DX2                !
 ! R43   R(26,27)                1.4391         estimate D2E/DX2                !
 ! R44   R(26,31)                1.3923         estimate D2E/DX2                !
 ! R45   R(27,28)                1.4654         estimate D2E/DX2                !
 ! R46   R(27,59)                1.0335         estimate D2E/DX2                !
 ! R47   R(28,29)                1.368          estimate D2E/DX2                !
 ! R48   R(29,30)                1.4315         estimate D2E/DX2                !
 ! R49   R(30,60)                1.1013         estimate D2E/DX2                !
 ! R50   R(30,61)                1.0648         estimate D2E/DX2                !
 ! R51   R(30,62)                1.1375         estimate D2E/DX2                !
 ! R52   R(31,32)                1.4174         estimate D2E/DX2                !
 ! R53   R(31,37)                1.4703         estimate D2E/DX2                !
 ! R54   R(32,33)                1.3388         estimate D2E/DX2                !
 ! R55   R(32,63)                1.0638         estimate D2E/DX2                !
 ! R56   R(33,34)                1.3545         estimate D2E/DX2                !
 ! R57   R(33,35)                1.4471         estimate D2E/DX2                !
 ! R58   R(35,36)                1.3739         estimate D2E/DX2                !
 ! R59   R(35,38)                1.4221         estimate D2E/DX2                !
 ! R60   R(36,37)                1.3691         estimate D2E/DX2                !
 ! R61   R(37,64)                1.0702         estimate D2E/DX2                !
 ! R62   R(38,39)                1.4461         estimate D2E/DX2                !
 ! R63   R(38,43)                1.4336         estimate D2E/DX2                !
 ! R64   R(39,40)                1.3889         estimate D2E/DX2                !
 ! R65   R(39,65)                1.0675         estimate D2E/DX2                !
 ! R66   R(40,41)                1.411          estimate D2E/DX2                !
 ! R67   R(40,66)                1.0649         estimate D2E/DX2                !
 ! R68   R(41,42)                1.4042         estimate D2E/DX2                !
 ! R69   R(41,67)                1.0779         estimate D2E/DX2                !
 ! R70   R(42,43)                1.3982         estimate D2E/DX2                !
 ! R71   R(42,68)                1.1355         estimate D2E/DX2                !
 ! R72   R(43,44)                1.4229         estimate D2E/DX2                !
 ! R73   R(44,45)                1.4148         estimate D2E/DX2                !
 ! R74   R(45,69)                1.0901         estimate D2E/DX2                !
 ! R75   R(45,70)                1.0708         estimate D2E/DX2                !
 ! R76   R(45,71)                1.1679         estimate D2E/DX2                !
 ! A1    A(2,1,7)              119.7161         estimate D2E/DX2                !
 ! A2    A(2,1,46)             119.8375         estimate D2E/DX2                !
 ! A3    A(7,1,46)             120.436          estimate D2E/DX2                !
 ! A4    A(1,2,3)              118.1646         estimate D2E/DX2                !
 ! A5    A(1,2,47)             121.732          estimate D2E/DX2                !
 ! A6    A(3,2,47)             119.9133         estimate D2E/DX2                !
 ! A7    A(2,3,4)              118.4858         estimate D2E/DX2                !
 ! A8    A(2,3,5)              120.7523         estimate D2E/DX2                !
 ! A9    A(4,3,5)              120.7096         estimate D2E/DX2                !
 ! A10   A(3,5,6)              119.6954         estimate D2E/DX2                !
 ! A11   A(3,5,8)              122.5294         estimate D2E/DX2                !
 ! A12   A(6,5,8)              117.7741         estimate D2E/DX2                !
 ! A13   A(5,6,7)              114.5382         estimate D2E/DX2                !
 ! A14   A(1,7,6)              127.1109         estimate D2E/DX2                !
 ! A15   A(1,7,48)             122.17           estimate D2E/DX2                !
 ! A16   A(6,7,48)             110.653          estimate D2E/DX2                !
 ! A17   A(5,8,9)              118.6141         estimate D2E/DX2                !
 ! A18   A(5,8,13)             128.4853         estimate D2E/DX2                !
 ! A19   A(9,8,13)             112.7571         estimate D2E/DX2                !
 ! A20   A(8,9,10)             125.6904         estimate D2E/DX2                !
 ! A21   A(8,9,49)             118.6174         estimate D2E/DX2                !
 ! A22   A(10,9,49)            115.4408         estimate D2E/DX2                !
 ! A23   A(9,10,11)            116.3258         estimate D2E/DX2                !
 ! A24   A(9,10,50)            123.3858         estimate D2E/DX2                !
 ! A25   A(11,10,50)           120.1967         estimate D2E/DX2                !
 ! A26   A(10,11,12)           119.2042         estimate D2E/DX2                !
 ! A27   A(10,11,16)           116.5536         estimate D2E/DX2                !
 ! A28   A(12,11,16)           123.989          estimate D2E/DX2                !
 ! A29   A(11,12,13)           121.1531         estimate D2E/DX2                !
 ! A30   A(11,12,51)           124.9427         estimate D2E/DX2                !
 ! A31   A(13,12,51)           113.77           estimate D2E/DX2                !
 ! A32   A(8,13,12)            124.2032         estimate D2E/DX2                !
 ! A33   A(8,13,14)            115.8147         estimate D2E/DX2                !
 ! A34   A(12,13,14)           119.8581         estimate D2E/DX2                !
 ! A35   A(13,14,15)           114.0374         estimate D2E/DX2                !
 ! A36   A(14,15,52)           112.5489         estimate D2E/DX2                !
 ! A37   A(14,15,53)           111.2633         estimate D2E/DX2                !
 ! A38   A(14,15,54)           110.8307         estimate D2E/DX2                !
 ! A39   A(52,15,53)           108.2616         estimate D2E/DX2                !
 ! A40   A(52,15,54)           108.4595         estimate D2E/DX2                !
 ! A41   A(53,15,54)           105.158          estimate D2E/DX2                !
 ! A42   A(11,16,17)           124.0131         estimate D2E/DX2                !
 ! A43   A(11,16,22)           121.9312         estimate D2E/DX2                !
 ! A44   A(17,16,22)           113.9719         estimate D2E/DX2                !
 ! A45   A(16,17,18)           118.9012         estimate D2E/DX2                !
 ! A46   A(16,17,55)           117.5922         estimate D2E/DX2                !
 ! A47   A(18,17,55)           123.4524         estimate D2E/DX2                !
 ! A48   A(17,18,19)           114.0266         estimate D2E/DX2                !
 ! A49   A(17,18,20)           122.7478         estimate D2E/DX2                !
 ! A50   A(19,18,20)           123.1641         estimate D2E/DX2                !
 ! A51   A(18,20,21)           123.519          estimate D2E/DX2                !
 ! A52   A(18,20,23)           123.3498         estimate D2E/DX2                !
 ! A53   A(21,20,23)           113.0644         estimate D2E/DX2                !
 ! A54   A(20,21,22)           115.4871         estimate D2E/DX2                !
 ! A55   A(16,22,21)           125.2047         estimate D2E/DX2                !
 ! A56   A(16,22,56)           121.9701         estimate D2E/DX2                !
 ! A57   A(21,22,56)           112.6987         estimate D2E/DX2                !
 ! A58   A(20,23,24)           118.6155         estimate D2E/DX2                !
 ! A59   A(20,23,28)           123.2053         estimate D2E/DX2                !
 ! A60   A(24,23,28)           118.1774         estimate D2E/DX2                !
 ! A61   A(23,24,25)           119.4338         estimate D2E/DX2                !
 ! A62   A(23,24,57)           116.663          estimate D2E/DX2                !
 ! A63   A(25,24,57)           123.7985         estimate D2E/DX2                !
 ! A64   A(24,25,26)           121.7375         estimate D2E/DX2                !
 ! A65   A(24,25,58)           118.321          estimate D2E/DX2                !
 ! A66   A(26,25,58)           119.8115         estimate D2E/DX2                !
 ! A67   A(25,26,27)           118.4294         estimate D2E/DX2                !
 ! A68   A(25,26,31)           121.6318         estimate D2E/DX2                !
 ! A69   A(27,26,31)           119.6957         estimate D2E/DX2                !
 ! A70   A(26,27,28)           120.3282         estimate D2E/DX2                !
 ! A71   A(26,27,59)           120.4417         estimate D2E/DX2                !
 ! A72   A(28,27,59)           118.4778         estimate D2E/DX2                !
 ! A73   A(23,28,27)           121.5113         estimate D2E/DX2                !
 ! A74   A(23,28,29)           118.3184         estimate D2E/DX2                !
 ! A75   A(27,28,29)           120.0466         estimate D2E/DX2                !
 ! A76   A(28,29,30)           114.8874         estimate D2E/DX2                !
 ! A77   A(29,30,60)           108.4774         estimate D2E/DX2                !
 ! A78   A(29,30,61)           110.8739         estimate D2E/DX2                !
 ! A79   A(29,30,62)           108.8652         estimate D2E/DX2                !
 ! A80   A(60,30,61)           109.4933         estimate D2E/DX2                !
 ! A81   A(60,30,62)           110.7128         estimate D2E/DX2                !
 ! A82   A(61,30,62)           108.4206         estimate D2E/DX2                !
 ! A83   A(26,31,32)           124.5256         estimate D2E/DX2                !
 ! A84   A(26,31,37)           121.6466         estimate D2E/DX2                !
 ! A85   A(32,31,37)           113.8041         estimate D2E/DX2                !
 ! A86   A(31,32,33)           122.1993         estimate D2E/DX2                !
 ! A87   A(31,32,63)           119.279          estimate D2E/DX2                !
 ! A88   A(33,32,63)           118.0608         estimate D2E/DX2                !
 ! A89   A(32,33,34)           121.6595         estimate D2E/DX2                !
 ! A90   A(32,33,35)           121.3477         estimate D2E/DX2                !
 ! A91   A(34,33,35)           116.9817         estimate D2E/DX2                !
 ! A92   A(33,35,36)           119.9912         estimate D2E/DX2                !
 ! A93   A(33,35,38)           124.3571         estimate D2E/DX2                !
 ! A94   A(36,35,38)           115.6122         estimate D2E/DX2                !
 ! A95   A(35,36,37)           117.6538         estimate D2E/DX2                !
 ! A96   A(31,37,36)           124.9109         estimate D2E/DX2                !
 ! A97   A(31,37,64)           118.2204         estimate D2E/DX2                !
 ! A98   A(36,37,64)           116.8455         estimate D2E/DX2                !
 ! A99   A(35,38,39)           120.597          estimate D2E/DX2                !
 ! A100  A(35,38,43)           122.3311         estimate D2E/DX2                !
 ! A101  A(39,38,43)           116.8114         estimate D2E/DX2                !
 ! A102  A(38,39,40)           122.2831         estimate D2E/DX2                !
 ! A103  A(38,39,65)           114.9133         estimate D2E/DX2                !
 ! A104  A(40,39,65)           122.3867         estimate D2E/DX2                !
 ! A105  A(39,40,41)           119.7928         estimate D2E/DX2                !
 ! A106  A(39,40,66)           122.7698         estimate D2E/DX2                !
 ! A107  A(41,40,66)           117.3767         estimate D2E/DX2                !
 ! A108  A(40,41,42)           118.4239         estimate D2E/DX2                !
 ! A109  A(40,41,67)           123.8586         estimate D2E/DX2                !
 ! A110  A(42,41,67)           117.1339         estimate D2E/DX2                !
 ! A111  A(41,42,43)           122.8963         estimate D2E/DX2                !
 ! A112  A(41,42,68)           119.4378         estimate D2E/DX2                !
 ! A113  A(43,42,68)           117.5814         estimate D2E/DX2                !
 ! A114  A(38,43,42)           119.2541         estimate D2E/DX2                !
 ! A115  A(38,43,44)           116.2101         estimate D2E/DX2                !
 ! A116  A(42,43,44)           124.2866         estimate D2E/DX2                !
 ! A117  A(43,44,45)           116.8284         estimate D2E/DX2                !
 ! A118  A(44,45,69)           110.295          estimate D2E/DX2                !
 ! A119  A(44,45,70)           108.2843         estimate D2E/DX2                !
 ! A120  A(44,45,71)           111.3304         estimate D2E/DX2                !
 ! A121  A(69,45,70)           115.1526         estimate D2E/DX2                !
 ! A122  A(69,45,71)           107.1985         estimate D2E/DX2                !
 ! A123  A(70,45,71)           104.4671         estimate D2E/DX2                !
 ! D1    D(7,1,2,3)              0.2742         estimate D2E/DX2                !
 ! D2    D(7,1,2,47)           175.2575         estimate D2E/DX2                !
 ! D3    D(46,1,2,3)           179.1096         estimate D2E/DX2                !
 ! D4    D(46,1,2,47)           -5.907          estimate D2E/DX2                !
 ! D5    D(2,1,7,6)             -0.9475         estimate D2E/DX2                !
 ! D6    D(2,1,7,48)           175.814          estimate D2E/DX2                !
 ! D7    D(46,1,7,6)          -179.7758         estimate D2E/DX2                !
 ! D8    D(46,1,7,48)           -3.0144         estimate D2E/DX2                !
 ! D9    D(1,2,3,4)            176.9552         estimate D2E/DX2                !
 ! D10   D(1,2,3,5)             -0.4326         estimate D2E/DX2                !
 ! D11   D(47,2,3,4)             1.8774         estimate D2E/DX2                !
 ! D12   D(47,2,3,5)          -175.5103         estimate D2E/DX2                !
 ! D13   D(2,3,5,6)              1.186          estimate D2E/DX2                !
 ! D14   D(2,3,5,8)           -178.4143         estimate D2E/DX2                !
 ! D15   D(4,3,5,6)           -176.1434         estimate D2E/DX2                !
 ! D16   D(4,3,5,8)              4.2562         estimate D2E/DX2                !
 ! D17   D(3,5,6,7)             -1.6531         estimate D2E/DX2                !
 ! D18   D(8,5,6,7)            177.9661         estimate D2E/DX2                !
 ! D19   D(3,5,8,9)           -131.8445         estimate D2E/DX2                !
 ! D20   D(3,5,8,13)            52.8531         estimate D2E/DX2                !
 ! D21   D(6,5,8,9)             48.5479         estimate D2E/DX2                !
 ! D22   D(6,5,8,13)          -126.7546         estimate D2E/DX2                !
 ! D23   D(5,6,7,1)              1.6284         estimate D2E/DX2                !
 ! D24   D(5,6,7,48)          -175.4423         estimate D2E/DX2                !
 ! D25   D(5,8,9,10)           178.0404         estimate D2E/DX2                !
 ! D26   D(5,8,9,49)             4.0803         estimate D2E/DX2                !
 ! D27   D(13,8,9,10)           -5.9458         estimate D2E/DX2                !
 ! D28   D(13,8,9,49)         -179.9059         estimate D2E/DX2                !
 ! D29   D(5,8,13,12)         -177.7023         estimate D2E/DX2                !
 ! D30   D(5,8,13,14)           -1.7701         estimate D2E/DX2                !
 ! D31   D(9,8,13,12)            6.7691         estimate D2E/DX2                !
 ! D32   D(9,8,13,14)         -177.2986         estimate D2E/DX2                !
 ! D33   D(8,9,10,11)            5.627          estimate D2E/DX2                !
 ! D34   D(8,9,10,50)         -177.8558         estimate D2E/DX2                !
 ! D35   D(49,9,10,11)         179.7562         estimate D2E/DX2                !
 ! D36   D(49,9,10,50)          -3.7266         estimate D2E/DX2                !
 ! D37   D(9,10,11,12)          -5.9954         estimate D2E/DX2                !
 ! D38   D(9,10,11,16)         179.553          estimate D2E/DX2                !
 ! D39   D(50,10,11,12)        177.3691         estimate D2E/DX2                !
 ! D40   D(50,10,11,16)          2.9176         estimate D2E/DX2                !
 ! D41   D(10,11,12,13)          7.1473         estimate D2E/DX2                !
 ! D42   D(10,11,12,51)       -177.3327         estimate D2E/DX2                !
 ! D43   D(16,11,12,13)       -178.8402         estimate D2E/DX2                !
 ! D44   D(16,11,12,51)         -3.3202         estimate D2E/DX2                !
 ! D45   D(10,11,16,17)        -56.5312         estimate D2E/DX2                !
 ! D46   D(10,11,16,22)        126.9994         estimate D2E/DX2                !
 ! D47   D(12,11,16,17)        129.311          estimate D2E/DX2                !
 ! D48   D(12,11,16,22)        -47.1584         estimate D2E/DX2                !
 ! D49   D(11,12,13,8)          -8.0741         estimate D2E/DX2                !
 ! D50   D(11,12,13,14)        176.1485         estimate D2E/DX2                !
 ! D51   D(51,12,13,8)         175.9379         estimate D2E/DX2                !
 ! D52   D(51,12,13,14)          0.1604         estimate D2E/DX2                !
 ! D53   D(8,13,14,15)         117.3823         estimate D2E/DX2                !
 ! D54   D(12,13,14,15)        -66.4965         estimate D2E/DX2                !
 ! D55   D(13,14,15,52)         75.6551         estimate D2E/DX2                !
 ! D56   D(13,14,15,53)        -46.0575         estimate D2E/DX2                !
 ! D57   D(13,14,15,54)       -162.69           estimate D2E/DX2                !
 ! D58   D(11,16,17,18)       -174.7711         estimate D2E/DX2                !
 ! D59   D(11,16,17,55)          2.644          estimate D2E/DX2                !
 ! D60   D(22,16,17,18)          1.9499         estimate D2E/DX2                !
 ! D61   D(22,16,17,55)        179.365          estimate D2E/DX2                !
 ! D62   D(11,16,22,21)        172.7943         estimate D2E/DX2                !
 ! D63   D(11,16,22,56)         -2.8143         estimate D2E/DX2                !
 ! D64   D(17,16,22,21)         -4.0032         estimate D2E/DX2                !
 ! D65   D(17,16,22,56)       -179.6118         estimate D2E/DX2                !
 ! D66   D(16,17,18,19)        178.9683         estimate D2E/DX2                !
 ! D67   D(16,17,18,20)          1.7384         estimate D2E/DX2                !
 ! D68   D(55,17,18,19)          1.7141         estimate D2E/DX2                !
 ! D69   D(55,17,18,20)       -175.5157         estimate D2E/DX2                !
 ! D70   D(17,18,20,21)         -3.828          estimate D2E/DX2                !
 ! D71   D(17,18,20,23)        179.3517         estimate D2E/DX2                !
 ! D72   D(19,18,20,21)        179.1947         estimate D2E/DX2                !
 ! D73   D(19,18,20,23)          2.3744         estimate D2E/DX2                !
 ! D74   D(18,20,21,22)          1.81           estimate D2E/DX2                !
 ! D75   D(23,20,21,22)        178.9234         estimate D2E/DX2                !
 ! D76   D(18,20,23,24)        124.0802         estimate D2E/DX2                !
 ! D77   D(18,20,23,28)        -56.4072         estimate D2E/DX2                !
 ! D78   D(21,20,23,24)        -53.0388         estimate D2E/DX2                !
 ! D79   D(21,20,23,28)        126.4738         estimate D2E/DX2                !
 ! D80   D(20,21,22,16)          2.2967         estimate D2E/DX2                !
 ! D81   D(20,21,22,56)        178.2592         estimate D2E/DX2                !
 ! D82   D(20,23,24,25)       -179.9607         estimate D2E/DX2                !
 ! D83   D(20,23,24,57)          3.6164         estimate D2E/DX2                !
 ! D84   D(28,23,24,25)          0.5019         estimate D2E/DX2                !
 ! D85   D(28,23,24,57)       -175.921          estimate D2E/DX2                !
 ! D86   D(20,23,28,27)       -179.2816         estimate D2E/DX2                !
 ! D87   D(20,23,28,29)         -3.3239         estimate D2E/DX2                !
 ! D88   D(24,23,28,27)          0.233          estimate D2E/DX2                !
 ! D89   D(24,23,28,29)        176.1907         estimate D2E/DX2                !
 ! D90   D(23,24,25,26)          2.8701         estimate D2E/DX2                !
 ! D91   D(23,24,25,58)        178.7164         estimate D2E/DX2                !
 ! D92   D(57,24,25,26)        179.0228         estimate D2E/DX2                !
 ! D93   D(57,24,25,58)         -5.1309         estimate D2E/DX2                !
 ! D94   D(24,25,26,27)         -6.698          estimate D2E/DX2                !
 ! D95   D(24,25,26,31)        178.9864         estimate D2E/DX2                !
 ! D96   D(58,25,26,27)        177.5163         estimate D2E/DX2                !
 ! D97   D(58,25,26,31)          3.2007         estimate D2E/DX2                !
 ! D98   D(25,26,27,28)          7.3437         estimate D2E/DX2                !
 ! D99   D(25,26,27,59)        177.2583         estimate D2E/DX2                !
 ! D100  D(31,26,27,28)       -178.2276         estimate D2E/DX2                !
 ! D101  D(31,26,27,59)         -8.313          estimate D2E/DX2                !
 ! D102  D(25,26,31,32)         54.8973         estimate D2E/DX2                !
 ! D103  D(25,26,31,37)       -126.985          estimate D2E/DX2                !
 ! D104  D(27,26,31,32)       -119.3477         estimate D2E/DX2                !
 ! D105  D(27,26,31,37)         58.77           estimate D2E/DX2                !
 ! D106  D(26,27,28,23)         -4.1698         estimate D2E/DX2                !
 ! D107  D(26,27,28,29)        179.9413         estimate D2E/DX2                !
 ! D108  D(59,27,28,23)       -174.2797         estimate D2E/DX2                !
 ! D109  D(59,27,28,29)          9.8314         estimate D2E/DX2                !
 ! D110  D(23,28,29,30)       -123.0476         estimate D2E/DX2                !
 ! D111  D(27,28,29,30)         52.9712         estimate D2E/DX2                !
 ! D112  D(28,29,30,60)        163.1742         estimate D2E/DX2                !
 ! D113  D(28,29,30,61)         42.9109         estimate D2E/DX2                !
 ! D114  D(28,29,30,62)        -76.2779         estimate D2E/DX2                !
 ! D115  D(26,31,32,33)       -179.0171         estimate D2E/DX2                !
 ! D116  D(26,31,32,63)         -6.9608         estimate D2E/DX2                !
 ! D117  D(37,31,32,33)          2.7342         estimate D2E/DX2                !
 ! D118  D(37,31,32,63)        174.7905         estimate D2E/DX2                !
 ! D119  D(26,31,37,36)       -179.3966         estimate D2E/DX2                !
 ! D120  D(26,31,37,64)          2.4118         estimate D2E/DX2                !
 ! D121  D(32,31,37,36)         -1.0915         estimate D2E/DX2                !
 ! D122  D(32,31,37,64)       -179.2831         estimate D2E/DX2                !
 ! D123  D(31,32,33,34)        174.9962         estimate D2E/DX2                !
 ! D124  D(31,32,33,35)         -3.7594         estimate D2E/DX2                !
 ! D125  D(63,32,33,34)          2.8476         estimate D2E/DX2                !
 ! D126  D(63,32,33,35)       -175.9081         estimate D2E/DX2                !
 ! D127  D(32,33,35,36)          2.9644         estimate D2E/DX2                !
 ! D128  D(32,33,35,38)       -179.425          estimate D2E/DX2                !
 ! D129  D(34,33,35,36)       -175.8471         estimate D2E/DX2                !
 ! D130  D(34,33,35,38)          1.7635         estimate D2E/DX2                !
 ! D131  D(33,35,36,37)         -1.2708         estimate D2E/DX2                !
 ! D132  D(38,35,36,37)       -179.0834         estimate D2E/DX2                !
 ! D133  D(33,35,38,39)       -118.4761         estimate D2E/DX2                !
 ! D134  D(33,35,38,43)         55.4727         estimate D2E/DX2                !
 ! D135  D(36,35,38,39)         59.229          estimate D2E/DX2                !
 ! D136  D(36,35,38,43)       -126.8222         estimate D2E/DX2                !
 ! D137  D(35,36,37,31)          0.4604         estimate D2E/DX2                !
 ! D138  D(35,36,37,64)        178.6744         estimate D2E/DX2                !
 ! D139  D(35,38,39,40)       -179.8744         estimate D2E/DX2                !
 ! D140  D(35,38,39,65)         -7.1242         estimate D2E/DX2                !
 ! D141  D(43,38,39,40)          5.8535         estimate D2E/DX2                !
 ! D142  D(43,38,39,65)        178.6038         estimate D2E/DX2                !
 ! D143  D(35,38,43,42)       -179.5273         estimate D2E/DX2                !
 ! D144  D(35,38,43,44)          5.9608         estimate D2E/DX2                !
 ! D145  D(39,38,43,42)         -5.3627         estimate D2E/DX2                !
 ! D146  D(39,38,43,44)       -179.8745         estimate D2E/DX2                !
 ! D147  D(38,39,40,41)         -0.1864         estimate D2E/DX2                !
 ! D148  D(38,39,40,66)        176.9048         estimate D2E/DX2                !
 ! D149  D(65,39,40,41)       -172.3969         estimate D2E/DX2                !
 ! D150  D(65,39,40,66)          4.6943         estimate D2E/DX2                !
 ! D151  D(39,40,41,42)         -5.9157         estimate D2E/DX2                !
 ! D152  D(39,40,41,67)       -176.8911         estimate D2E/DX2                !
 ! D153  D(66,40,41,42)        176.8385         estimate D2E/DX2                !
 ! D154  D(66,40,41,67)          5.8631         estimate D2E/DX2                !
 ! D155  D(40,41,42,43)          6.4324         estimate D2E/DX2                !
 ! D156  D(40,41,42,68)       -176.9943         estimate D2E/DX2                !
 ! D157  D(67,41,42,43)        178.016          estimate D2E/DX2                !
 ! D158  D(67,41,42,68)         -5.4107         estimate D2E/DX2                !
 ! D159  D(41,42,43,38)         -0.6294         estimate D2E/DX2                !
 ! D160  D(41,42,43,44)        173.4096         estimate D2E/DX2                !
 ! D161  D(68,42,43,38)       -177.2624         estimate D2E/DX2                !
 ! D162  D(68,42,43,44)         -3.2235         estimate D2E/DX2                !
 ! D163  D(38,43,44,45)        152.6999         estimate D2E/DX2                !
 ! D164  D(42,43,44,45)        -21.5039         estimate D2E/DX2                !
 ! D165  D(43,44,45,69)         71.9557         estimate D2E/DX2                !
 ! D166  D(43,44,45,70)       -161.2138         estimate D2E/DX2                !
 ! D167  D(43,44,45,71)        -46.9159         estimate D2E/DX2                !
 --------------------------------------------------------------------------------
 Trust Radius=3.00D-01 FncErr=1.00D-07 GrdErr=1.00D-06 EigMax=2.50D+02 EigMin=1.00D-04
 Number of steps in this run=    376 maximum allowed number of steps=    426.
 GradGradGradGradGradGradGradGradGradGradGradGradGradGradGradGradGradGrad

 Leave Link  103 at Thu Jul 23 19:46:25 2020, MaxMem=  4026531840 cpu:               0.2 elap:               0.1
 (Enter /opt/ohpc/pub/libs/gaussian/g16-A.03/sandybridge/g16/l202.exe)
 Stoichiometry    C36H26F3N3O3
 Framework group  C1[X(C36H26F3N3O3)]
 Deg. of freedom   207
 Full point group                 C1      NOp   1
 Largest Abelian subgroup         C1      NOp   1
 Largest concise Abelian subgroup C1      NOp   1
                         Standard orientation:                         
 ---------------------------------------------------------------------
 Center     Atomic      Atomic             Coordinates (Angstroms)
 Number     Number       Type             X           Y           Z
 ---------------------------------------------------------------------
      1          6           0      -12.149076   -0.381557   -0.153242
      2          6           0      -11.549603    0.444201   -1.063536
      3          6           0      -10.153558    0.492256   -1.091217
      4          9           0       -9.550730    1.261561   -2.033432
      5          6           0       -9.391970   -0.279357   -0.202420
      6          7           0      -10.034170   -1.124934    0.705305
      7          6           0      -11.422053   -1.082782    0.650779
      8          6           0       -7.977858   -0.235131   -0.175524
      9          6           0       -7.244795   -1.484206   -0.171806
     10          6           0       -5.878581   -1.610616   -0.185296
     11          6           0       -5.108149   -0.365090   -0.076037
     12          6           0       -5.750215    0.797970   -0.093359
     13          6           0       -7.164608    0.854300   -0.064043
     14          8           0       -7.822023    2.114167   -0.000721
     15          6           0       -7.615465    2.793547    1.172068
     16          6           0       -3.676945   -0.492666   -0.079671
     17          6           0       -2.940681   -1.298481    0.851420
     18          6           0       -1.541604   -1.259345    0.821511
     19          9           0       -0.927571   -2.066613    1.788004
     20          6           0       -0.874873   -0.494555    0.002975
     21          7           0       -1.457124    0.272792   -0.939568
     22          6           0       -2.869242    0.233087   -0.968923
     23          6           0        0.599440   -0.432503   -0.030464
     24          6           0        1.300055   -0.707923   -1.325926
     25          6           0        2.732281   -0.653224   -1.378139
     26          6           0        3.488791   -0.410730   -0.254655
     27          6           0        2.810501   -0.064347    0.966434
     28          6           0        1.348747   -0.130702    1.045365
     29          8           0        0.709968    0.198708    2.209390
     30          6           0        1.056967    1.479999    2.745231
     31          6           0        4.879892   -0.378687   -0.303942
     32          6           0        5.634095    0.447523   -1.174358
     33          6           0        6.972549    0.426755   -1.196041
     34          9           0        7.680195    1.146175   -2.099568
     35          6           0        7.727935   -0.388494   -0.269272
     36          7           0        7.071797   -1.208361    0.616682
     37          6           0        5.702861   -1.196548    0.599192
     38          6           0        9.148067   -0.450137   -0.227867
     39          6           0        9.838179   -1.696993   -0.473509
     40          6           0       11.222967   -1.797607   -0.439343
     41          6           0       12.002286   -0.654737   -0.160920
     42          6           0       11.353595    0.585658   -0.049394
     43          6           0        9.962034    0.719587   -0.071759
     44          8           0        9.270092    1.938724    0.172134
     45          6           0        9.968183    2.935916    0.893154
     46          1           0      -13.307259   -0.432437   -0.094541
     47          1           0      -12.164948    1.028381   -1.856246
     48          1           0      -11.870223   -1.721712    1.459846
     49          1           0       -7.804727   -2.421150   -0.258252
     50          1           0       -5.399585   -2.507797   -0.213903
     51          1           0       -5.265459    1.787174   -0.059955
     52          1           0       -6.583413    3.261678    1.227750
     53          1           0       -7.748693    2.099148    2.088505
     54          1           0       -8.372811    3.595330    1.302694
     55          1           0       -3.474539   -1.842947    1.531641
     56          1           0       -3.317073    0.929696   -1.770049
     57          1           0        0.673149   -0.880703   -2.189159
     58          1           0        3.211661   -0.871804   -2.300559
     59          1           0        3.344961    0.082824    1.838735
     60          1           0        0.290678    1.769654    3.481342
     61          1           0        1.104556    2.213270    1.974614
     62          1           0        2.080299    1.408224    3.236805
     63          1           0        5.130248    1.013204   -1.921166
     64          1           0        5.205157   -1.856015    1.279354
     65          1           0        9.204778   -2.551750   -0.561663
     66          1           0       11.737249   -2.720674   -0.571519
     67          1           0       13.080119   -0.647162   -0.165471
     68          1           0       11.969394    1.523985    0.123229
     69          1           0       10.750451    3.373362    0.272670
     70          1           0        9.253299    3.631804    1.282036
     71          1           0       10.486984    2.490766    1.840076
 ---------------------------------------------------------------------
 Rotational constants (GHZ):           0.3130532           0.0151647           0.0150531
 Leave Link  202 at Thu Jul 23 19:46:25 2020, MaxMem=  4026531840 cpu:               0.2 elap:               0.1
 (Enter /opt/ohpc/pub/libs/gaussian/g16-A.03/sandybridge/g16/l301.exe)
 Standard basis: CC-pVDZ (5D, 7F)
 Ernie: Thresh=  0.10000D-02 Tol=  0.10000D-05 Strict=F.
 Ernie:  90 primitive shells out of 1120 were deleted.
 There are   805 symmetry adapted cartesian basis functions of A   symmetry.
 There are   760 symmetry adapted basis functions of A   symmetry.
   760 basis functions,  1667 primitive gaussians,   805 cartesian basis functions
   157 alpha electrons      157 beta electrons
       nuclear repulsion energy      4617.1987127392 Hartrees.
 IExCor=32609 DFT=T Ex+Corr=LC-wPBE ExCW=0 ScaHFX=  1.000000
 ScaDFX=  1.000000  0.000000  1.000000  1.000000 ScalE2=  1.000000  1.000000
 IRadAn=      5 IRanWt=     -1 IRanGd=            0 ICorTp=0 IEmpDi=  4
 HFx  wShort=  0.000000 wLong=  0.246900 cFull=  0.000000 cShort=  0.000000 cLong=  1.000000
 DFx  wShort=  0.000000 wLong=  0.246900 cFull=  0.000000 cShort=  0.000000 cLong=  1.000000
 NAtoms=   71 NActive=   71 NUniq=   71 SFac= 1.00D+00 NAtFMM=   60 NAOKFM=T Big=T
 Integral buffers will be    131072 words long.
 Raffenetti 2 integral format.
 Two-electron integral symmetry is turned on.
 Leave Link  301 at Thu Jul 23 19:46:25 2020, MaxMem=  4026531840 cpu:               1.1 elap:               0.2
 (Enter /opt/ohpc/pub/libs/gaussian/g16-A.03/sandybridge/g16/l302.exe)
 NPDir=0 NMtPBC=     1 NCelOv=     1 NCel=       1 NClECP=     1 NCelD=      1
         NCelK=      1 NCelE2=     1 NClLst=     1 CellRange=     0.0.
 One-electron integrals computed using PRISM.
 One-electron integral symmetry used in STVInt
 NBasis=   760 RedAO= T EigKep=  2.66D-04  NBF=   760
 NBsUse=   760 1.00D-06 EigRej= -1.00D+00 NBFU=   760
 Precomputing XC quadrature grid using
 IXCGrd= 4 IRadAn=           5 IRanWt=          -1 IRanGd=           0 AccXCQ= 0.00D+00.
 Generated NRdTot=       0 NPtTot=           0 NUsed=           0 NTot=          32
 NSgBfM=   690   679   686   689   690 MxSgAt=    71 MxSgA2=    71.
 Leave Link  302 at Thu Jul 23 19:46:27 2020, MaxMem=  4026531840 cpu:              15.8 elap:               2.0
 (Enter /opt/ohpc/pub/libs/gaussian/g16-A.03/sandybridge/g16/l303.exe)
 DipDrv:  MaxL=1.
 Leave Link  303 at Thu Jul 23 19:46:28 2020, MaxMem=  4026531840 cpu:               1.1 elap:               0.2
 (Enter /opt/ohpc/pub/libs/gaussian/g16-A.03/sandybridge/g16/l401.exe)
 ExpMin= 1.22D-01 ExpMax= 1.47D+04 ExpMxC= 5.03D+02 IAcc=3 IRadAn=         5 AccDes= 0.00D+00
 Harris functional with IExCor=32609 and IRadAn=       5 diagonalized for initial guess.
 HarFok:  IExCor=32609 AccDes= 0.00D+00 IRadAn=         5 IDoV= 1 UseB2=F ITyADJ=14
 ICtDFT=  3500011 ScaDFX=  1.000000  1.000000  1.000000  1.000000
 FoFCou: FMM=F IPFlag=           0 FMFlag=      100000 FMFlg1=        2001
         NFxFlg=           0 DoJE=T BraDBF=F KetDBF=T FulRan=T
         wScrn=  0.000000 ICntrl=       500 IOpCl=  0 I1Cent=   200000004 NGrid=           0
         NMat0=    1 NMatS0=      1 NMatT0=    0 NMatD0=    1 NMtDS0=    0 NMtDT0=    0
 Petite list used in FoFCou.
 Harris En= -2075.10445689830    
 JPrj=0 DoOrth=F DoCkMO=F.
 Initial guess <Sx>= 0.0000 <Sy>= 0.0000 <Sz>= 0.0000 <S**2>= 0.0000 S= 0.0000
 Leave Link  401 at Thu Jul 23 19:46:37 2020, MaxMem=  4026531840 cpu:              71.6 elap:               9.1
 (Enter /opt/ohpc/pub/libs/gaussian/g16-A.03/sandybridge/g16/l502.exe)
 Integral symmetry usage will be decided dynamically.
 UHF open shell SCF:
 Using DIIS extrapolation, IDIIS=  1040.
 NGot=  4026531840 LenX=  4025221039 LenY=  4024572209
 Requested convergence on RMS density matrix=1.00D-08 within 128 cycles.
 Requested convergence on MAX density matrix=1.00D-06.
 Requested convergence on             energy=1.00D-06.
 No special actions if energy rises.
 Fock matrices will be formed incrementally for  20 cycles.
 Integral accuracy reduced to 1.0D-05 until final iterations.

 Cycle   1  Pass 0  IDiag  1:
 FoFJK:  IHMeth= 1 ICntrl=       0 DoSepK=T KAlg= 0 I1Cent=           0 FoldK=F
 IRaf=         1 NMat=       1 IRICut=       1 DoRegI=T DoRafI=F ISym2E= 0 IDoP0=0 IntGTp=1.
 FoFCou: FMM=T IPFlag=           0 FMFlag=      100000 FMFlg1=        2001
         NFxFlg=           0 DoJE=T BraDBF=F KetDBF=F FulRan=T
         wScrn=  0.000000 ICntrl=       500 IOpCl=  0 I1Cent=           0 NGrid=           0
         NMat0=    1 NMatS0=      1 NMatT0=    0 NMatD0=    1 NMtDS0=    0 NMtDT0=    0
 Symmetry not used in FoFCou.
 FMM levels:  10  Number of levels for PrismC:   9
 E= -2074.65012350546    
 DIIS: error= 1.17D-02 at cycle   1 NSaved=   1.
 NSaved= 1 IEnMin= 1 EnMin= -2074.65012350546     IErMin= 1 ErrMin= 1.17D-02
 ErrMax= 1.17D-02  0.00D+00 EMaxC= 1.00D-01 BMatC= 1.91D+00 BMatP= 1.91D+00
 IDIUse=3 WtCom= 8.83D-01 WtEn= 1.17D-01
 Coeff-Com:  0.100D+01
 Coeff-En:   0.100D+01
 Coeff:      0.100D+01
 Gap=     0.304 Goal=   None    Shift=    0.000
 Gap=     0.304 Goal=   None    Shift=    0.000
 GapD=    0.304 DampG=1.000 DampE=0.500 DampFc=0.5000 IDamp=-1.
 Damping current iteration by 5.00D-01
 RMSDP=1.89D-03 MaxDP=8.74D-02              OVMax= 1.21D-01

 Cycle   2  Pass 0  IDiag  1:
 RMSU=  9.35D-04    CP:  9.88D-01
 E= -2074.93058418391     Delta-E=       -0.280460678446 Rises=F Damp=T
 DIIS: error= 2.94D-03 at cycle   2 NSaved=   2.
 NSaved= 2 IEnMin= 2 EnMin= -2074.93058418391     IErMin= 2 ErrMin= 2.94D-03
 ErrMax= 2.94D-03  0.00D+00 EMaxC= 1.00D-01 BMatC= 1.33D-01 BMatP= 1.91D+00
 IDIUse=3 WtCom= 9.71D-01 WtEn= 2.94D-02
 Coeff-Com: -0.127D+00 0.113D+01
 Coeff-En:   0.000D+00 0.100D+01
 Coeff:     -0.124D+00 0.112D+01
 Gap=     0.293 Goal=   None    Shift=    0.000
 Gap=     0.293 Goal=   None    Shift=    0.000
 RMSDP=6.67D-04 MaxDP=2.06D-02 DE=-2.80D-01 OVMax= 6.90D-02

 Cycle   3  Pass 0  IDiag  1:
 RMSU=  5.31D-04    CP:  9.80D-01  1.42D+00
 E= -2075.17476765176     Delta-E=       -0.244183467853 Rises=F Damp=F
 DIIS: error= 2.37D-03 at cycle   3 NSaved=   3.
 NSaved= 3 IEnMin= 3 EnMin= -2075.17476765176     IErMin= 3 ErrMin= 2.37D-03
 ErrMax= 2.37D-03  0.00D+00 EMaxC= 1.00D-01 BMatC= 6.54D-02 BMatP= 1.33D-01
 IDIUse=3 WtCom= 9.76D-01 WtEn= 2.37D-02
 Coeff-Com: -0.995D-01 0.502D+00 0.598D+00
 Coeff-En:   0.000D+00 0.000D+00 0.100D+01
 Coeff:     -0.972D-01 0.490D+00 0.608D+00
 Gap=     0.284 Goal=   None    Shift=    0.000
 Gap=     0.284 Goal=   None    Shift=    0.000
 RMSDP=2.26D-04 MaxDP=1.25D-02 DE=-2.44D-01 OVMax= 2.96D-02

 Cycle   4  Pass 0  IDiag  1:
 RMSU=  1.75D-04    CP:  9.81D-01  1.44D+00  7.34D-01
 E= -2075.18951371702     Delta-E=       -0.014746065261 Rises=F Damp=F
 DIIS: error= 8.51D-04 at cycle   4 NSaved=   4.
 NSaved= 4 IEnMin= 4 EnMin= -2075.18951371702     IErMin= 4 ErrMin= 8.51D-04
 ErrMax= 8.51D-04  0.00D+00 EMaxC= 1.00D-01 BMatC= 8.57D-03 BMatP= 6.54D-02
 IDIUse=3 WtCom= 9.91D-01 WtEn= 8.51D-03
 Coeff-Com: -0.260D-01 0.109D+00 0.294D+00 0.623D+00
 Coeff-En:   0.000D+00 0.000D+00 0.616D-01 0.938D+00
 Coeff:     -0.258D-01 0.108D+00 0.292D+00 0.626D+00
 Gap=     0.283 Goal=   None    Shift=    0.000
 Gap=     0.283 Goal=   None    Shift=    0.000
 RMSDP=7.60D-05 MaxDP=4.44D-03 DE=-1.47D-02 OVMax= 9.21D-03

 Cycle   5  Pass 0  IDiag  1:
 RMSU=  4.69D-05    CP:  9.81D-01  1.44D+00  8.08D-01  7.45D-01
 E= -2075.19159830764     Delta-E=       -0.002084590621 Rises=F Damp=F
 DIIS: error= 1.83D-04 at cycle   5 NSaved=   5.
 NSaved= 5 IEnMin= 5 EnMin= -2075.19159830764     IErMin= 5 ErrMin= 1.83D-04
 ErrMax= 1.83D-04  0.00D+00 EMaxC= 1.00D-01 BMatC= 6.44D-04 BMatP= 8.57D-03
 IDIUse=3 WtCom= 9.98D-01 WtEn= 1.83D-03
 Coeff-Com: -0.128D-02 0.405D-02 0.810D-01 0.280D+00 0.637D+00
 Coeff-En:   0.000D+00 0.000D+00 0.000D+00 0.000D+00 0.100D+01
 Coeff:     -0.127D-02 0.405D-02 0.808D-01 0.279D+00 0.637D+00
 Gap=     0.283 Goal=   None    Shift=    0.000
 Gap=     0.283 Goal=   None    Shift=    0.000
 RMSDP=2.32D-05 MaxDP=1.08D-03 DE=-2.08D-03 OVMax= 2.77D-03

 Cycle   6  Pass 0  IDiag  1:
 RMSU=  1.99D-05    CP:  9.81D-01  1.45D+00  8.13D-01  7.97D-01  8.46D-01
 E= -2075.19174962304     Delta-E=       -0.000151315401 Rises=F Damp=F
 DIIS: error= 7.66D-05 at cycle   6 NSaved=   6.
 NSaved= 6 IEnMin= 6 EnMin= -2075.19174962304     IErMin= 6 ErrMin= 7.66D-05
 ErrMax= 7.66D-05  0.00D+00 EMaxC= 1.00D-01 BMatC= 7.09D-05 BMatP= 6.44D-04
 IDIUse=1 WtCom= 1.00D+00 WtEn= 0.00D+00
 Coeff-Com:  0.293D-02-0.111D-01 0.347D-02 0.496D-01 0.276D+00 0.680D+00
 Coeff:      0.293D-02-0.111D-01 0.347D-02 0.496D-01 0.276D+00 0.680D+00
 Gap=     0.283 Goal=   None    Shift=    0.000
 Gap=     0.283 Goal=   None    Shift=    0.000
 RMSDP=1.25D-05 MaxDP=4.24D-04 DE=-1.51D-04 OVMax= 1.16D-03

 Cycle   7  Pass 0  IDiag  1:
 RMSU=  1.12D-05    CP:  9.81D-01  1.45D+00  8.18D-01  8.07D-01  9.37D-01
                    CP:  9.43D-01
 E= -2075.19177457753     Delta-E=       -0.000024954489 Rises=F Damp=F
 DIIS: error= 3.36D-05 at cycle   7 NSaved=   7.
 NSaved= 7 IEnMin= 7 EnMin= -2075.19177457753     IErMin= 7 ErrMin= 3.36D-05
 ErrMax= 3.36D-05  0.00D+00 EMaxC= 1.00D-01 BMatC= 1.06D-05 BMatP= 7.09D-05
 IDIUse=1 WtCom= 1.00D+00 WtEn= 0.00D+00
 Coeff-Com:  0.165D-02-0.567D-02-0.740D-02-0.126D-01 0.382D-01 0.288D+00
 Coeff-Com:  0.697D+00
 Coeff:      0.165D-02-0.567D-02-0.740D-02-0.126D-01 0.382D-01 0.288D+00
 Coeff:      0.697D+00
 Gap=     0.283 Goal=   None    Shift=    0.000
 Gap=     0.283 Goal=   None    Shift=    0.000
 RMSDP=1.09D-05 MaxDP=2.62D-04 DE=-2.50D-05 OVMax= 4.48D-04

 Cycle   8  Pass 0  IDiag  1:
 RMSU=  9.36D-06    CP:  9.81D-01  1.45D+00  8.20D-01  8.13D-01  9.81D-01
                    CP:  1.15D+00  1.26D+00
 E= -2075.19178102558     Delta-E=       -0.000006448053 Rises=F Damp=F
 DIIS: error= 4.61D-05 at cycle   8 NSaved=   8.
 NSaved= 8 IEnMin= 8 EnMin= -2075.19178102558     IErMin= 7 ErrMin= 3.36D-05
 ErrMax= 4.61D-05  0.00D+00 EMaxC= 1.00D-01 BMatC= 3.69D-06 BMatP= 1.06D-05
 IDIUse=1 WtCom= 1.00D+00 WtEn= 0.00D+00
 Coeff-Com:  0.537D-03-0.162D-02-0.420D-02-0.142D-01-0.199D-01 0.607D-01
 Coeff-Com:  0.367D+00 0.612D+00
 Coeff:      0.537D-03-0.162D-02-0.420D-02-0.142D-01-0.199D-01 0.607D-01
 Coeff:      0.367D+00 0.612D+00
 Gap=     0.283 Goal=   None    Shift=    0.000
 Gap=     0.283 Goal=   None    Shift=    0.000
 RMSDP=1.27D-05 MaxDP=3.68D-04 DE=-6.45D-06 OVMax= 2.74D-04

 Cycle   9  Pass 0  IDiag  1:
 RMSU=  8.39D-06    CP:  9.81D-01  1.45D+00  8.20D-01  8.13D-01  9.91D-01
                    CP:  1.26D+00  1.96D+00  1.54D+00
 E= -2075.19179010302     Delta-E=       -0.000009077435 Rises=F Damp=F
 DIIS: error= 7.41D-05 at cycle   9 NSaved=   9.
 NSaved= 9 IEnMin= 9 EnMin= -2075.19179010302     IErMin= 7 ErrMin= 3.36D-05
 ErrMax= 7.41D-05  0.00D+00 EMaxC= 1.00D-01 BMatC= 4.78D-06 BMatP= 3.69D-06
 IDIUse=1 WtCom= 1.00D+00 WtEn= 0.00D+00
 Coeff-Com:  0.558D-03-0.167D-02-0.458D-02-0.158D-01-0.237D-01 0.604D-01
 Coeff-Com:  0.398D+00 0.696D+00-0.110D+00
 Coeff:      0.558D-03-0.167D-02-0.458D-02-0.158D-01-0.237D-01 0.604D-01
 Coeff:      0.398D+00 0.696D+00-0.110D+00
 Gap=     0.283 Goal=   None    Shift=    0.000
 Gap=     0.283 Goal=   None    Shift=    0.000
 RMSDP=2.71D-06 MaxDP=7.03D-05 DE=-9.08D-06 OVMax= 1.03D-05

 Initial convergence to 1.0D-05 achieved.  Increase integral accuracy.
 Cycle  10  Pass 1  IDiag  1:
 E= -2075.19116284396     Delta-E=        0.000627259058 Rises=F Damp=F
 DIIS: error= 2.37D-04 at cycle   1 NSaved=   1.
 NSaved= 1 IEnMin= 1 EnMin= -2075.19116284396     IErMin= 1 ErrMin= 2.37D-04
 ErrMax= 2.37D-04  0.00D+00 EMaxC= 1.00D-01 BMatC= 1.66D-04 BMatP= 1.66D-04
 IDIUse=3 WtCom= 9.98D-01 WtEn= 2.37D-03
 Coeff-Com:  0.100D+01
 Coeff-En:   0.100D+01
 Coeff:      0.100D+01
 Gap=     0.283 Goal=   None    Shift=    0.000
 Gap=     0.283 Goal=   None    Shift=    0.000
 RMSDP=2.71D-06 MaxDP=7.03D-05 DE= 6.27D-04 OVMax= 5.36D-04

 Cycle  11  Pass 1  IDiag  1:
 RMSU=  1.83D-04    CP:  9.99D-01
 E= -2075.19119819158     Delta-E=       -0.000035347621 Rises=F Damp=F
 DIIS: error= 8.88D-06 at cycle   2 NSaved=   2.
 NSaved= 2 IEnMin= 2 EnMin= -2075.19119819158     IErMin= 2 ErrMin= 8.88D-06
 ErrMax= 8.88D-06  0.00D+00 EMaxC= 1.00D-01 BMatC= 4.72D-07 BMatP= 1.66D-04
 IDIUse=1 WtCom= 1.00D+00 WtEn= 0.00D+00
 Coeff-Com: -0.371D-01 0.104D+01
 Coeff:     -0.371D-01 0.104D+01
 Gap=     0.283 Goal=   None    Shift=    0.000
 Gap=     0.283 Goal=   None    Shift=    0.000
 RMSDP=1.05D-05 MaxDP=3.94D-04 DE=-3.53D-05 OVMax= 1.30D-04

 Cycle  12  Pass 1  IDiag  1:
 RMSU=  3.26D-06    CP:  9.99D-01  1.05D+00
 E= -2075.19119830532     Delta-E=       -0.000000113739 Rises=F Damp=F
 DIIS: error= 4.30D-06 at cycle   3 NSaved=   3.
 NSaved= 3 IEnMin= 3 EnMin= -2075.19119830532     IErMin= 3 ErrMin= 4.30D-06
 ErrMax= 4.30D-06  0.00D+00 EMaxC= 1.00D-01 BMatC= 1.98D-07 BMatP= 4.72D-07
 IDIUse=1 WtCom= 1.00D+00 WtEn= 0.00D+00
 Coeff-Com: -0.182D-01 0.473D+00 0.545D+00
 Coeff:     -0.182D-01 0.473D+00 0.545D+00
 Gap=     0.283 Goal=   None    Shift=    0.000
 Gap=     0.283 Goal=   None    Shift=    0.000
 RMSDP=4.47D-07 MaxDP=2.15D-05 DE=-1.14D-07 OVMax= 3.69D-05

 Cycle  13  Pass 1  IDiag  1:
 RMSU=  3.80D-07    CP:  9.99D-01  1.06D+00  1.04D+00
 E= -2075.19119837968     Delta-E=       -0.000000074358 Rises=F Damp=F
 DIIS: error= 1.49D-06 at cycle   4 NSaved=   4.
 NSaved= 4 IEnMin= 4 EnMin= -2075.19119837968     IErMin= 4 ErrMin= 1.49D-06
 ErrMax= 1.49D-06  0.00D+00 EMaxC= 1.00D-01 BMatC= 2.03D-08 BMatP= 1.98D-07
 IDIUse=1 WtCom= 1.00D+00 WtEn= 0.00D+00
 Coeff-Com:  0.650D-03-0.322D-01 0.208D+00 0.823D+00
 Coeff:      0.650D-03-0.322D-01 0.208D+00 0.823D+00
 Gap=     0.283 Goal=   None    Shift=    0.000
 Gap=     0.283 Goal=   None    Shift=    0.000
 RMSDP=3.11D-07 MaxDP=9.69D-06 DE=-7.44D-08 OVMax= 3.86D-05

 Cycle  14  Pass 1  IDiag  1:
 RMSU=  1.45D-07    CP:  9.99D-01  1.06D+00  1.10D+00  9.44D-01
 E= -2075.19119835497     Delta-E=        0.000000024705 Rises=F Damp=F
 DIIS: error= 4.46D-07 at cycle   5 NSaved=   5.
 NSaved= 5 IEnMin= 4 EnMin= -2075.19119837968     IErMin= 5 ErrMin= 4.46D-07
 ErrMax= 4.46D-07  0.00D+00 EMaxC= 1.00D-01 BMatC= 3.13D-09 BMatP= 2.03D-08
 IDIUse=1 WtCom= 1.00D+00 WtEn= 0.00D+00
 Coeff-Com:  0.181D-02-0.535D-01 0.384D-01 0.353D+00 0.660D+00
 Coeff:      0.181D-02-0.535D-01 0.384D-01 0.353D+00 0.660D+00
 Gap=     0.283 Goal=   None    Shift=    0.000
 Gap=     0.283 Goal=   None    Shift=    0.000
 RMSDP=7.14D-08 MaxDP=2.98D-06 DE= 2.47D-08 OVMax= 1.06D-05

 Cycle  15  Pass 1  IDiag  1:
 RMSU=  5.39D-08    CP:  9.99D-01  1.06D+00  1.11D+00  9.95D-01  1.14D+00
 E= -2075.19119835639     Delta-E=       -0.000000001422 Rises=F Damp=F
 DIIS: error= 2.31D-07 at cycle   6 NSaved=   6.
 NSaved= 6 IEnMin= 4 EnMin= -2075.19119837968     IErMin= 6 ErrMin= 2.31D-07
 ErrMax= 2.31D-07  0.00D+00 EMaxC= 1.00D-01 BMatC= 4.54D-10 BMatP= 3.13D-09
 IDIUse=1 WtCom= 1.00D+00 WtEn= 0.00D+00
 Coeff-Com:  0.685D-04 0.128D-02-0.533D-01-0.156D+00 0.995D-01 0.111D+01
 Coeff:      0.685D-04 0.128D-02-0.533D-01-0.156D+00 0.995D-01 0.111D+01
 Gap=     0.283 Goal=   None    Shift=    0.000
 Gap=     0.283 Goal=   None    Shift=    0.000
 RMSDP=5.25D-08 MaxDP=2.11D-06 DE=-1.42D-09 OVMax= 1.39D-05

 Cycle  16  Pass 1  IDiag  1:
 RMSU=  2.91D-08    CP:  9.99D-01  1.06D+00  1.11D+00  1.02D+00  1.40D+00
                    CP:  1.34D+00
 E= -2075.19119835708     Delta-E=       -0.000000000682 Rises=F Damp=F
 DIIS: error= 1.27D-07 at cycle   7 NSaved=   7.
 NSaved= 7 IEnMin= 4 EnMin= -2075.19119837968     IErMin= 7 ErrMin= 1.27D-07
 ErrMax= 1.27D-07  0.00D+00 EMaxC= 1.00D-01 BMatC= 1.75D-10 BMatP= 4.54D-10
 IDIUse=1 WtCom= 1.00D+00 WtEn= 0.00D+00
 Coeff-Com: -0.322D-03 0.114D-01-0.382D-01-0.156D+00-0.809D-01 0.602D+00
 Coeff-Com:  0.662D+00
 Coeff:     -0.322D-03 0.114D-01-0.382D-01-0.156D+00-0.809D-01 0.602D+00
 Coeff:      0.662D+00
 Gap=     0.283 Goal=   None    Shift=    0.000
 Gap=     0.283 Goal=   None    Shift=    0.000
 RMSDP=1.98D-08 MaxDP=7.40D-07 DE=-6.82D-10 OVMax= 4.32D-06

 Cycle  17  Pass 1  IDiag  1:
 RMSU=  1.14D-08    CP:  9.99D-01  1.06D+00  1.11D+00  1.03D+00  1.47D+00
                    CP:  1.54D+00  1.11D+00
 E= -2075.19119835720     Delta-E=       -0.000000000125 Rises=F Damp=F
 DIIS: error= 4.26D-08 at cycle   8 NSaved=   8.
 NSaved= 8 IEnMin= 4 EnMin= -2075.19119837968     IErMin= 8 ErrMin= 4.26D-08
 ErrMax= 4.26D-08  0.00D+00 EMaxC= 1.00D-01 BMatC= 1.22D-11 BMatP= 1.75D-10
 IDIUse=1 WtCom= 1.00D+00 WtEn= 0.00D+00
 Coeff-Com: -0.116D-03 0.372D-02-0.747D-02-0.356D-01-0.389D-01 0.935D-01
 Coeff-Com:  0.233D+00 0.752D+00
 Coeff:     -0.116D-03 0.372D-02-0.747D-02-0.356D-01-0.389D-01 0.935D-01
 Coeff:      0.233D+00 0.752D+00
 Gap=     0.283 Goal=   None    Shift=    0.000
 Gap=     0.283 Goal=   None    Shift=    0.000
 RMSDP=5.89D-09 MaxDP=1.97D-07 DE=-1.25D-10 OVMax= 1.03D-06

 SCF Done:  E(ULC-wPBE) =  -2075.19119836     A.U. after   17 cycles
            NFock= 17  Conv=0.59D-08     -V/T= 2.0064
 <Sx>= 0.0000 <Sy>= 0.0000 <Sz>= 0.0000 <S**2>=-0.0000 S=-0.0000
 <L.S>= 0.000000000000E+00
 KE= 2.061995515586D+03 PE=-1.407977549210D+04 EE= 5.325390065414D+03
 Annihilation of the first spin contaminant:
 S**2 before annihilation    -0.0000,   after    -0.0000
 Leave Link  502 at Thu Jul 23 19:54:52 2020, MaxMem=  4026531840 cpu:            3888.3 elap:             495.8
 (Enter /opt/ohpc/pub/libs/gaussian/g16-A.03/sandybridge/g16/l601.exe)
 Copying SCF densities to generalized density rwf, IOpCl= 1 IROHF=0.

 **********************************************************************

            Population analysis using the SCF density.

 **********************************************************************

 Orbital symmetries:
 Alpha Orbitals:
       Occupied  (A) (A) (A) (A) (A) (A) (A) (A) (A) (A) (A) (A)
                 (A) (A) (A) (A) (A) (A) (A) (A) (A) (A) (A) (A)
                 (A) (A) (A) (A) (A) (A) (A) (A) (A) (A) (A) (A)
                 (A) (A) (A) (A) (A) (A) (A) (A) (A) (A) (A) (A)
                 (A) (A) (A) (A) (A) (A) (A) (A) (A) (A) (A) (A)
                 (A) (A) (A) (A) (A) (A) (A) (A) (A) (A) (A) (A)
                 (A) (A) (A) (A) (A) (A) (A) (A) (A) (A) (A) (A)
                 (A) (A) (A) (A) (A) (A) (A) (A) (A) (A) (A) (A)
                 (A) (A) (A) (A) (A) (A) (A) (A) (A) (A) (A) (A)
                 (A) (A) (A) (A) (A) (A) (A) (A) (A) (A) (A) (A)
                 (A) (A) (A) (A) (A) (A) (A) (A) (A) (A) (A) (A)
                 (A) (A) (A) (A) (A) (A) (A) (A) (A) (A) (A) (A)
                 (A) (A) (A) (A) (A) (A) (A) (A) (A) (A) (A) (A)
                 (A)
       Virtual   (A) (A) (A) (A) (A) (A) (A) (A) (A) (A) (A) (A)
                 (A) (A) (A) (A) (A) (A) (A) (A) (A) (A) (A) (A)
                 (A) (A) (A) (A) (A) (A) (A) (A) (A) (A) (A) (A)
                 (A) (A) (A) (A) (A) (A) (A) (A) (A) (A) (A) (A)
                 (A) (A) (A) (A) (A) (A) (A) (A) (A) (A) (A) (A)
                 (A) (A) (A) (A) (A) (A) (A) (A) (A) (A) (A) (A)
                 (A) (A) (A) (A) (A) (A) (A) (A) (A) (A) (A) (A)
                 (A) (A) (A) (A) (A) (A) (A) (A) (A) (A) (A) (A)
                 (A) (A) (A) (A) (A) (A) (A) (A) (A) (A) (A) (A)
                 (A) (A) (A) (A) (A) (A) (A) (A) (A) (A) (A) (A)
                 (A) (A) (A) (A) (A) (A) (A) (A) (A) (A) (A) (A)
                 (A) (A) (A) (A) (A) (A) (A) (A) (A) (A) (A) (A)
                 (A) (A) (A) (A) (A) (A) (A) (A) (A) (A) (A) (A)
                 (A) (A) (A) (A) (A) (A) (A) (A) (A) (A) (A) (A)
                 (A) (A) (A) (A) (A) (A) (A) (A) (A) (A) (A) (A)
                 (A) (A) (A) (A) (A) (A) (A) (A) (A) (A) (A) (A)
                 (A) (A) (A) (A) (A) (A) (A) (A) (A) (A) (A) (A)
                 (A) (A) (A) (A) (A) (A) (A) (A) (A) (A) (A) (A)
                 (A) (A) (A) (A) (A) (A) (A) (A) (A) (A) (A) (A)
                 (A) (A) (A) (A) (A) (A) (A) (A) (A) (A) (A) (A)
                 (A) (A) (A) (A) (A) (A) (A) (A) (A) (A) (A) (A)
                 (A) (A) (A) (A) (A) (A) (A) (A) (A) (A) (A) (A)
                 (A) (A) (A) (A) (A) (A) (A) (A) (A) (A) (A) (A)
                 (A) (A) (A) (A) (A) (A) (A) (A) (A) (A) (A) (A)
                 (A) (A) (A) (A) (A) (A) (A) (A) (A) (A) (A) (A)
                 (A) (A) (A) (A) (A) (A) (A) (A) (A) (A) (A) (A)
                 (A) (A) (A) (A) (A) (A) (A) (A) (A) (A) (A) (A)
                 (A) (A) (A) (A) (A) (A) (A) (A) (A) (A) (A) (A)
                 (A) (A) (A) (A) (A) (A) (A) (A) (A) (A) (A) (A)
                 (A) (A) (A) (A) (A) (A) (A) (A) (A) (A) (A) (A)
                 (A) (A) (A) (A) (A) (A) (A) (A) (A) (A) (A) (A)
                 (A) (A) (A) (A) (A) (A) (A) (A) (A) (A) (A) (A)
                 (A) (A) (A) (A) (A) (A) (A) (A) (A) (A) (A) (A)
                 (A) (A) (A) (A) (A) (A) (A) (A) (A) (A) (A) (A)
                 (A) (A) (A) (A) (A) (A) (A) (A) (A) (A) (A) (A)
                 (A) (A) (A) (A) (A) (A) (A) (A) (A) (A) (A) (A)
                 (A) (A) (A) (A) (A) (A) (A) (A) (A) (A) (A) (A)
                 (A) (A) (A) (A) (A) (A) (A) (A) (A) (A) (A) (A)
                 (A) (A) (A) (A) (A) (A) (A) (A) (A) (A) (A) (A)
                 (A) (A) (A) (A) (A) (A) (A) (A) (A) (A) (A) (A)
                 (A) (A) (A) (A) (A) (A) (A) (A) (A) (A) (A) (A)
                 (A) (A) (A) (A) (A) (A) (A) (A) (A) (A) (A) (A)
                 (A) (A) (A) (A) (A) (A) (A) (A) (A) (A) (A) (A)
                 (A) (A) (A) (A) (A) (A) (A) (A) (A) (A) (A) (A)
                 (A) (A) (A) (A) (A) (A) (A) (A) (A) (A) (A) (A)
                 (A) (A) (A) (A) (A) (A) (A) (A) (A) (A) (A) (A)
                 (A) (A) (A) (A) (A) (A) (A) (A) (A) (A) (A) (A)
                 (A) (A) (A) (A) (A) (A) (A) (A) (A) (A) (A) (A)
                 (A) (A) (A) (A) (A) (A) (A) (A) (A) (A) (A) (A)
                 (A) (A) (A) (A) (A) (A) (A) (A) (A) (A) (A) (A)
                 (A) (A) (A)
 Beta  Orbitals:
       Occupied  (A) (A) (A) (A) (A) (A) (A) (A) (A) (A) (A) (A)
                 (A) (A) (A) (A) (A) (A) (A) (A) (A) (A) (A) (A)
                 (A) (A) (A) (A) (A) (A) (A) (A) (A) (A) (A) (A)
                 (A) (A) (A) (A) (A) (A) (A) (A) (A) (A) (A) (A)
                 (A) (A) (A) (A) (A) (A) (A) (A) (A) (A) (A) (A)
                 (A) (A) (A) (A) (A) (A) (A) (A) (A) (A) (A) (A)
                 (A) (A) (A) (A) (A) (A) (A) (A) (A) (A) (A) (A)
                 (A) (A) (A) (A) (A) (A) (A) (A) (A) (A) (A) (A)
                 (A) (A) (A) (A) (A) (A) (A) (A) (A) (A) (A) (A)
                 (A) (A) (A) (A) (A) (A) (A) (A) (A) (A) (A) (A)
                 (A) (A) (A) (A) (A) (A) (A) (A) (A) (A) (A) (A)
                 (A) (A) (A) (A) (A) (A) (A) (A) (A) (A) (A) (A)
                 (A) (A) (A) (A) (A) (A) (A) (A) (A) (A) (A) (A)
                 (A)
       Virtual   (A) (A) (A) (A) (A) (A) (A) (A) (A) (A) (A) (A)
                 (A) (A) (A) (A) (A) (A) (A) (A) (A) (A) (A) (A)
                 (A) (A) (A) (A) (A) (A) (A) (A) (A) (A) (A) (A)
                 (A) (A) (A) (A) (A) (A) (A) (A) (A) (A) (A) (A)
                 (A) (A) (A) (A) (A) (A) (A) (A) (A) (A) (A) (A)
                 (A) (A) (A) (A) (A) (A) (A) (A) (A) (A) (A) (A)
                 (A) (A) (A) (A) (A) (A) (A) (A) (A) (A) (A) (A)
                 (A) (A) (A) (A) (A) (A) (A) (A) (A) (A) (A) (A)
                 (A) (A) (A) (A) (A) (A) (A) (A) (A) (A) (A) (A)
                 (A) (A) (A) (A) (A) (A) (A) (A) (A) (A) (A) (A)
                 (A) (A) (A) (A) (A) (A) (A) (A) (A) (A) (A) (A)
                 (A) (A) (A) (A) (A) (A) (A) (A) (A) (A) (A) (A)
                 (A) (A) (A) (A) (A) (A) (A) (A) (A) (A) (A) (A)
                 (A) (A) (A) (A) (A) (A) (A) (A) (A) (A) (A) (A)
                 (A) (A) (A) (A) (A) (A) (A) (A) (A) (A) (A) (A)
                 (A) (A) (A) (A) (A) (A) (A) (A) (A) (A) (A) (A)
                 (A) (A) (A) (A) (A) (A) (A) (A) (A) (A) (A) (A)
                 (A) (A) (A) (A) (A) (A) (A) (A) (A) (A) (A) (A)
                 (A) (A) (A) (A) (A) (A) (A) (A) (A) (A) (A) (A)
                 (A) (A) (A) (A) (A) (A) (A) (A) (A) (A) (A) (A)
                 (A) (A) (A) (A) (A) (A) (A) (A) (A) (A) (A) (A)
                 (A) (A) (A) (A) (A) (A) (A) (A) (A) (A) (A) (A)
                 (A) (A) (A) (A) (A) (A) (A) (A) (A) (A) (A) (A)
                 (A) (A) (A) (A) (A) (A) (A) (A) (A) (A) (A) (A)
                 (A) (A) (A) (A) (A) (A) (A) (A) (A) (A) (A) (A)
                 (A) (A) (A) (A) (A) (A) (A) (A) (A) (A) (A) (A)
                 (A) (A) (A) (A) (A) (A) (A) (A) (A) (A) (A) (A)
                 (A) (A) (A) (A) (A) (A) (A) (A) (A) (A) (A) (A)
                 (A) (A) (A) (A) (A) (A) (A) (A) (A) (A) (A) (A)
                 (A) (A) (A) (A) (A) (A) (A) (A) (A) (A) (A) (A)
                 (A) (A) (A) (A) (A) (A) (A) (A) (A) (A) (A) (A)
                 (A) (A) (A) (A) (A) (A) (A) (A) (A) (A) (A) (A)
                 (A) (A) (A) (A) (A) (A) (A) (A) (A) (A) (A) (A)
                 (A) (A) (A) (A) (A) (A) (A) (A) (A) (A) (A) (A)
                 (A) (A) (A) (A) (A) (A) (A) (A) (A) (A) (A) (A)
                 (A) (A) (A) (A) (A) (A) (A) (A) (A) (A) (A) (A)
                 (A) (A) (A) (A) (A) (A) (A) (A) (A) (A) (A) (A)
                 (A) (A) (A) (A) (A) (A) (A) (A) (A) (A) (A) (A)
                 (A) (A) (A) (A) (A) (A) (A) (A) (A) (A) (A) (A)
                 (A) (A) (A) (A) (A) (A) (A) (A) (A) (A) (A) (A)
                 (A) (A) (A) (A) (A) (A) (A) (A) (A) (A) (A) (A)
                 (A) (A) (A) (A) (A) (A) (A) (A) (A) (A) (A) (A)
                 (A) (A) (A) (A) (A) (A) (A) (A) (A) (A) (A) (A)
                 (A) (A) (A) (A) (A) (A) (A) (A) (A) (A) (A) (A)
                 (A) (A) (A) (A) (A) (A) (A) (A) (A) (A) (A) (A)
                 (A) (A) (A) (A) (A) (A) (A) (A) (A) (A) (A) (A)
                 (A) (A) (A) (A) (A) (A) (A) (A) (A) (A) (A) (A)
                 (A) (A) (A) (A) (A) (A) (A) (A) (A) (A) (A) (A)
                 (A) (A) (A) (A) (A) (A) (A) (A) (A) (A) (A) (A)
                 (A) (A) (A) (A) (A) (A) (A) (A) (A) (A) (A) (A)
                 (A) (A) (A)
 The electronic state is 1-A.
[...]
     9 C(13)  Bbb     0.0000     0.000     0.000     0.000 -0.3167 -0.1873  0.9298
              Bcc     0.0000     0.000     0.000     0.000  0.9007 -0.3667  0.2330
 
              Baa    -0.0000    -0.000    -0.000    -0.000  0.2227  0.8650  0.4496
    10 C(13)  Bbb     0.0000     0.000     0.000     0.000  0.9681 -0.2504  0.0022
              Bcc     0.0000     0.000     0.000     0.000 -0.1145 -0.4348  0.8932
 
              Baa    -0.0000    -0.000    -0.000    -0.000  0.1552  0.9254 -0.3458
    11 C(13)  Bbb    -0.0000    -0.000    -0.000    -0.000  0.1980  0.3138  0.9286
              Bcc     0.0000     0.000     0.000     0.000  0.9678 -0.2126 -0.1345
 
              Baa    -0.0000    -0.000    -0.000    -0.000  0.8727  0.4861  0.0467
    12 C(13)  Bbb    -0.0000    -0.000    -0.000    -0.000  0.1106 -0.2899  0.9507
              Bcc     0.0000     0.000     0.000     0.000 -0.4756  0.8245  0.3067
 
              Baa    -0.0000    -0.000    -0.000    -0.000  0.8330 -0.4549 -0.3149
    13 C(13)  Bbb     0.0000     0.000     0.000     0.000  0.1369 -0.3820  0.9140
              Bcc     0.0000     0.000     0.000     0.000  0.5361  0.8044  0.2559
 
              Baa    -0.0000     0.000     0.000     0.000  0.9565  0.0404  0.2888
    14 O(17)  Bbb    -0.0000     0.000     0.000     0.000  0.0407  0.9621 -0.2697
              Bcc     0.0000    -0.000    -0.000    -0.000 -0.2887  0.2697  0.9186
 
              Baa    -0.0000    -0.000    -0.000    -0.000 -0.3794  0.6015  0.7030
    15 C(13)  Bbb    -0.0000    -0.000    -0.000    -0.000  0.3056 -0.6356  0.7089
              Bcc     0.0000     0.000     0.000     0.000  0.8733  0.4838  0.0573
 
              Baa    -0.0000    -0.000    -0.000    -0.000 -0.4074  0.2495  0.8785
    16 C(13)  Bbb    -0.0000    -0.000    -0.000    -0.000 -0.5629  0.6889 -0.4567
              Bcc     0.0000     0.000     0.000     0.000  0.7191  0.6806  0.1402
 
              Baa    -0.0000    -0.000    -0.000    -0.000  0.0307  0.1529  0.9878
    17 C(13)  Bbb     0.0000     0.000     0.000     0.000  0.9629  0.2607 -0.0703
              Bcc     0.0000     0.000     0.000     0.000 -0.2683  0.9532 -0.1392
 
              Baa    -0.0000    -0.000    -0.000    -0.000 -0.6997  0.7089 -0.0887
    18 C(13)  Bbb     0.0000     0.000     0.000     0.000  0.7130  0.7007 -0.0241
              Bcc     0.0000     0.000     0.000     0.000 -0.0451  0.0802  0.9958
 
              Baa    -0.0000    -0.000    -0.000    -0.000  0.9480  0.3022  0.0999
    19 F(19)  Bbb     0.0000     0.000     0.000     0.000 -0.3167  0.9275  0.1987
              Bcc     0.0000     0.000     0.000     0.000 -0.0326 -0.2200  0.9750
 
              Baa    -0.0000    -0.000    -0.000    -0.000 -0.0837  0.8705 -0.4851
    20 C(13)  Bbb    -0.0000    -0.000    -0.000    -0.000 -0.1980  0.4625  0.8642
              Bcc     0.0000     0.000     0.000     0.000  0.9766  0.1684  0.1336
 
              Baa    -0.0000    -0.000    -0.000    -0.000  0.9759  0.2181 -0.0008
    21 N(14)  Bbb     0.0000     0.000     0.000     0.000 -0.1199  0.5396  0.8334
              Bcc     0.0000     0.000     0.000     0.000 -0.1822  0.8132 -0.5527
 
              Baa    -0.0000    -0.000    -0.000    -0.000  0.4788  0.8708 -0.1119
    22 C(13)  Bbb     0.0000     0.000     0.000     0.000  0.8777 -0.4724  0.0802
              Bcc     0.0000     0.000     0.000     0.000 -0.0170  0.1366  0.9905
 
              Baa    -0.0000    -0.000    -0.000    -0.000  0.1915 -0.4917  0.8494
    23 C(13)  Bbb    -0.0000    -0.000    -0.000    -0.000  0.9814  0.1071 -0.1592
              Bcc     0.0000     0.000     0.000     0.000 -0.0127  0.8641  0.5031
 
              Baa    -0.0000    -0.000    -0.000    -0.000 -0.0288 -0.6520  0.7577
    24 C(13)  Bbb     0.0000     0.000     0.000     0.000  0.2144  0.7363  0.6418
              Bcc     0.0000     0.000     0.000     0.000  0.9763 -0.1809 -0.1186
 
              Baa    -0.0000    -0.000    -0.000    -0.000  0.7256 -0.4802  0.4929
    25 C(13)  Bbb     0.0000     0.000     0.000     0.000 -0.6300 -0.1754  0.7565
              Bcc     0.0000     0.000     0.000     0.000  0.2768  0.8594  0.4298
 
              Baa    -0.0000    -0.000    -0.000    -0.000  0.9916  0.0475 -0.1206
    26 C(13)  Bbb     0.0000     0.000     0.000     0.000  0.1253 -0.5885  0.7987
              Bcc     0.0000     0.000     0.000     0.000  0.0331  0.8071  0.5895
 
              Baa    -0.0000    -0.000    -0.000    -0.000 -0.2590 -0.6464  0.7177
    27 C(13)  Bbb    -0.0000    -0.000    -0.000    -0.000  0.9615 -0.2433  0.1279
              Bcc     0.0000     0.000     0.000     0.000  0.0919  0.7231  0.6845
 
              Baa    -0.0000    -0.000    -0.000    -0.000  0.3721 -0.5269  0.7641
    28 C(13)  Bbb     0.0000     0.000     0.000     0.000  0.9032  0.0157 -0.4290
              Bcc     0.0000     0.000     0.000     0.000  0.2140  0.8498  0.4817
 
              Baa    -0.0000     0.000     0.000     0.000  0.2399  0.9673 -0.0827
    29 O(17)  Bbb     0.0000    -0.000    -0.000    -0.000 -0.5849  0.2120  0.7829
              Bcc     0.0000    -0.000    -0.000    -0.000  0.7748 -0.1394  0.6166
 
              Baa    -0.0000    -0.000    -0.000    -0.000  0.6153  0.5633  0.5515
    30 C(13)  Bbb    -0.0000    -0.000    -0.000    -0.000 -0.5834  0.7959 -0.1619
              Bcc     0.0000     0.000     0.000     0.000 -0.5301 -0.2221  0.8183
 
              Baa    -0.0000    -0.000    -0.000    -0.000  0.9974  0.0641 -0.0334
    31 C(13)  Bbb    -0.0000    -0.000    -0.000    -0.000 -0.0706  0.9627 -0.2610
              Bcc     0.0000     0.000     0.000     0.000  0.0154  0.2627  0.9648
 
              Baa    -0.0000    -0.000    -0.000    -0.000  0.0093  0.2967  0.9549
    32 C(13)  Bbb     0.0000     0.000     0.000     0.000 -0.2514  0.9250 -0.2849
              Bcc     0.0000     0.000     0.000     0.000  0.9678  0.2374 -0.0832
 
              Baa    -0.0000    -0.000    -0.000    -0.000  0.8192 -0.0385 -0.5722
    33 C(13)  Bbb    -0.0000    -0.000    -0.000    -0.000  0.5675  0.1986  0.7991
              Bcc     0.0000     0.000     0.000     0.000 -0.0829  0.9793 -0.1845
 
              Baa    -0.0000    -0.000    -0.000    -0.000 -0.3756  0.7996 -0.4686
    34 F(19)  Bbb     0.0000     0.000     0.000     0.000  0.9150  0.4002 -0.0505
              Bcc     0.0000     0.000     0.000     0.000 -0.1472  0.4477  0.8820
 
              Baa    -0.0000    -0.000    -0.000    -0.000  0.0954  0.9483  0.3026
    35 C(13)  Bbb    -0.0000    -0.000    -0.000    -0.000 -0.6517 -0.1703  0.7391
              Bcc     0.0000     0.000     0.000     0.000  0.7525 -0.2677  0.6017
 
              Baa    -0.0000    -0.000    -0.000    -0.000 -0.1867  0.3828  0.9048
    36 N(14)  Bbb    -0.0000    -0.000    -0.000    -0.000  0.9278 -0.2340  0.2904
              Bcc     0.0000     0.000     0.000     0.000  0.3229  0.8937 -0.3115
 
              Baa    -0.0000    -0.000    -0.000    -0.000  0.0381  0.9813 -0.1885
    37 C(13)  Bbb     0.0000     0.000     0.000     0.000  0.8723 -0.1247 -0.4727
              Bcc     0.0000     0.000     0.000     0.000  0.4874  0.1464  0.8608
 
              Baa    -0.0000    -0.000    -0.000    -0.000  0.3787  0.6489  0.6599
    38 C(13)  Bbb    -0.0000    -0.000    -0.000    -0.000  0.0180  0.7077 -0.7063
              Bcc     0.0000     0.000     0.000     0.000  0.9253 -0.2794 -0.2563
 
              Baa    -0.0000    -0.000    -0.000    -0.000  0.8196  0.5016  0.2769
    39 C(13)  Bbb     0.0000     0.000     0.000     0.000 -0.5706  0.7578  0.3163
              Bcc     0.0000     0.000     0.000     0.000 -0.0512 -0.4173  0.9073
 
              Baa    -0.0000    -0.000    -0.000    -0.000  0.9775 -0.1704 -0.1240
    40 C(13)  Bbb     0.0000     0.000     0.000     0.000  0.2107  0.7890  0.5771
              Bcc     0.0000     0.000     0.000     0.000 -0.0005 -0.5903  0.8072
 
              Baa    -0.0000    -0.000    -0.000    -0.000  0.6728  0.4369  0.5970
    41 C(13)  Bbb    -0.0000    -0.000    -0.000    -0.000  0.1240  0.7290 -0.6732
              Bcc     0.0000     0.000     0.000     0.000  0.7293 -0.5270 -0.4363
 
              Baa    -0.0000    -0.000    -0.000    -0.000  0.9803 -0.1762  0.0891
    42 C(13)  Bbb    -0.0000    -0.000    -0.000    -0.000 -0.1731 -0.5500  0.8171
              Bcc     0.0000     0.000     0.000     0.000  0.0950  0.8164  0.5696
 
              Baa    -0.0000    -0.000    -0.000    -0.000 -0.4594  0.7861  0.4136
    43 C(13)  Bbb     0.0000     0.000     0.000     0.000 -0.2067 -0.5475  0.8109
              Bcc     0.0000     0.000     0.000     0.000  0.8638  0.2870  0.4140
 
              Baa    -0.0000     0.000     0.000     0.000 -0.1964  0.7767  0.5985
    44 O(17)  Bbb    -0.0000     0.000     0.000     0.000  0.9795  0.1271  0.1565
              Bcc     0.0000    -0.000    -0.000    -0.000 -0.0455 -0.6169  0.7857
 
              Baa    -0.0000    -0.000    -0.000    -0.000  0.0286  0.6906  0.7227
    45 C(13)  Bbb     0.0000     0.000     0.000     0.000 -0.4747  0.6456 -0.5981
              Bcc     0.0000     0.000     0.000     0.000  0.8797  0.3260 -0.3463
 
              Baa    -0.0000    -0.000    -0.000    -0.000  0.0261  0.4181  0.9080
    46 H(1)   Bbb    -0.0000    -0.000    -0.000    -0.000  0.1068  0.9019 -0.4184
              Bcc     0.0000     0.000     0.000     0.000  0.9939 -0.1079  0.0211
 
              Baa    -0.0000    -0.000    -0.000    -0.000  0.9322  0.3603  0.0333
    47 H(1)   Bbb    -0.0000    -0.000    -0.000    -0.000 -0.1283  0.2433  0.9614
              Bcc     0.0000     0.000     0.000     0.000 -0.3383  0.9006 -0.2731
 
              Baa    -0.0000    -0.000    -0.000    -0.000  0.9228 -0.1426 -0.3578
    48 H(1)   Bbb    -0.0000    -0.000    -0.000    -0.000  0.3715  0.0840  0.9246
              Bcc     0.0000     0.000     0.000     0.000  0.1018  0.9862 -0.1305
 
              Baa    -0.0000    -0.000    -0.000    -0.000  0.6418  0.6031  0.4737
    49 H(1)   Bbb     0.0000     0.000     0.000     0.000  0.7643 -0.5532 -0.3312
              Bcc     0.0000     0.000     0.000     0.000 -0.0623 -0.5746  0.8160
 
              Baa    -0.0000    -0.000    -0.000    -0.000 -0.5499  0.5126  0.6595
    50 H(1)   Bbb     0.0000     0.000     0.000     0.000  0.2650  0.8558 -0.4442
              Bcc     0.0000     0.000     0.000     0.000  0.7921  0.0695  0.6064
 
              Baa    -0.0000    -0.000    -0.000    -0.000 -0.0462 -0.4787  0.8768
    51 H(1)   Bbb    -0.0000    -0.000    -0.000    -0.000  0.8451  0.4493  0.2898
              Bcc     0.0000     0.000     0.000     0.000 -0.5326  0.7543  0.3838
 
              Baa    -0.0000    -0.000    -0.000    -0.000  0.6059  0.7932  0.0608
    52 H(1)   Bbb     0.0000     0.000     0.000     0.000 -0.3872  0.2272  0.8935
              Bcc     0.0000     0.000     0.000     0.000  0.6950 -0.5649  0.4448
 
              Baa    -0.0000    -0.000    -0.000    -0.000  0.7413  0.3104  0.5951
    53 H(1)   Bbb     0.0000     0.000     0.000     0.000  0.6599 -0.4988 -0.5619
              Bcc     0.0000     0.000     0.000     0.000  0.1224  0.8092 -0.5746
 
              Baa    -0.0000    -0.000    -0.000    -0.000 -0.2882  0.9308  0.2246
    54 H(1)   Bbb     0.0000     0.000     0.000     0.000  0.3272 -0.1247  0.9367
              Bcc     0.0000     0.000     0.000     0.000  0.8999  0.3435 -0.2686
 
              Baa    -0.0000    -0.000    -0.000    -0.000 -0.0092  0.9606 -0.2778
    55 H(1)   Bbb     0.0000     0.000     0.000     0.000  0.9631  0.0832  0.2558
              Bcc     0.0000     0.000     0.000     0.000 -0.2688  0.2652  0.9260
 
              Baa    -0.0000    -0.000    -0.000    -0.000 -0.4251  0.8818 -0.2043
    56 H(1)   Bbb     0.0000     0.000     0.000     0.000  0.2505  0.3315  0.9096
              Bcc     0.0000     0.000     0.000     0.000  0.8698  0.3355 -0.3618
 
              Baa    -0.0000    -0.000    -0.000    -0.000  0.7793 -0.2677  0.5666
    57 H(1)   Bbb     0.0000     0.000     0.000     0.000 -0.6098 -0.1158  0.7840
              Bcc     0.0000     0.000     0.000     0.000  0.1443  0.9565  0.2535
 
              Baa    -0.0000    -0.000    -0.000    -0.000 -0.6082 -0.3086  0.7313
    58 H(1)   Bbb     0.0000     0.000     0.000     0.000  0.4674  0.6054  0.6442
              Bcc     0.0000     0.000     0.000     0.000 -0.6415  0.7337 -0.2239
 
              Baa    -0.0000    -0.000    -0.000    -0.000  0.6055 -0.3760  0.7014
    59 H(1)   Bbb     0.0000     0.000     0.000     0.000  0.7949  0.3292 -0.5096
              Bcc     0.0000     0.000     0.000     0.000 -0.0393  0.8661  0.4982
 
              Baa    -0.0000    -0.000    -0.000    -0.000  0.5085 -0.1059  0.8545
    60 H(1)   Bbb    -0.0000    -0.000    -0.000    -0.000 -0.2949  0.9110  0.2883
              Bcc     0.0000     0.000     0.000     0.000  0.8090  0.3986 -0.4321
 
              Baa    -0.0000    -0.000    -0.000    -0.000  0.5323 -0.3701  0.7614
    61 H(1)   Bbb    -0.0000    -0.000    -0.000    -0.000 -0.4004  0.6824  0.6116
              Bcc     0.0000     0.000     0.000     0.000  0.7459  0.6304 -0.2151
 
              Baa    -0.0000    -0.000    -0.000    -0.000  0.5948  0.8009  0.0688
    62 H(1)   Bbb    -0.0000    -0.000    -0.000    -0.000  0.4321 -0.3908  0.8128
              Bcc     0.0000     0.000     0.000     0.000  0.6779 -0.4537 -0.5785
 
              Baa    -0.0000    -0.000    -0.000    -0.000  0.3275  0.7583 -0.5637
    63 H(1)   Bbb     0.0000     0.000     0.000     0.000  0.0177  0.5916  0.8061
              Bcc     0.0000     0.000     0.000     0.000  0.9447 -0.2739  0.1803
 
              Baa    -0.0000    -0.000    -0.000    -0.000  0.4995 -0.4347  0.7493
    64 H(1)   Bbb    -0.0000    -0.000    -0.000    -0.000 -0.0596  0.8457  0.5304
              Bcc     0.0000     0.000     0.000     0.000  0.8643  0.3096 -0.3965
 
              Baa    -0.0000    -0.000    -0.000    -0.000  0.4872  0.7115  0.5063
    65 H(1)   Bbb     0.0000     0.000     0.000     0.000  0.8553 -0.2719 -0.4410
              Bcc     0.0000     0.000     0.000     0.000  0.1761 -0.6479  0.7411
 
              Baa    -0.0000    -0.000    -0.000    -0.000 -0.1821  0.8216  0.5401
    66 H(1)   Bbb     0.0000     0.000     0.000     0.000  0.4778 -0.4062  0.7789
              Bcc     0.0000     0.000     0.000     0.000  0.8594  0.3999 -0.3187
 
              Baa    -0.0000    -0.000    -0.000    -0.000 -0.2301  0.7631  0.6039
    67 H(1)   Bbb    -0.0000    -0.000    -0.000    -0.000 -0.2354 -0.6458  0.7263
              Bcc     0.0000     0.000     0.000     0.000  0.9443  0.0250  0.3283
 
              Baa    -0.0000    -0.000    -0.000    -0.000  0.6423 -0.4212 -0.6403
    68 H(1)   Bbb    -0.0000    -0.000    -0.000    -0.000 -0.1440  0.7543 -0.6406
              Bcc     0.0000     0.000     0.000     0.000  0.7528  0.5037  0.4238
 
              Baa    -0.0000    -0.000    -0.000    -0.000 -0.5893  0.3346  0.7354
    69 H(1)   Bbb     0.0000     0.000     0.000     0.000  0.7790  0.4768  0.4073
              Bcc     0.0000     0.000     0.000     0.000 -0.2143  0.8129 -0.5416
 
              Baa    -0.0000    -0.000    -0.000    -0.000  0.7584 -0.5697 -0.3165
    70 H(1)   Bbb     0.0000     0.000     0.000     0.000  0.2582  0.7086 -0.6567
              Bcc     0.0000     0.000     0.000     0.000  0.5984  0.4164  0.6845
 
              Baa    -0.0000    -0.000    -0.000    -0.000  0.8133 -0.5370  0.2239
    71 H(1)   Bbb     0.0000     0.000     0.000     0.000  0.4933  0.8405  0.2242
              Bcc     0.0000     0.000     0.000     0.000 -0.3086 -0.0720  0.9485
 

 ---------------------------------------------------------------------------------

 No NMR shielding tensors so no spin-rotation constants.
 Leave Link  601 at Thu Jul 23 22:24:10 2020, MaxMem=  4026531840 cpu:               6.7 elap:               0.9
 (Enter /opt/ohpc/pub/libs/gaussian/g16-A.03/sandybridge/g16/l9999.exe)

 Test job not archived.
 1\1\GINC-SKYLAKE032\FOpt\ULC-wPBE\CC-pVDZ\C36H26F3N3O3\RDU230\23-Jul-2
 020\0\\#P uLC-wPBE/cc-pVDZ iop(3/107=0246900000, 3/108=0246900000) opt
 \\H26 C36 N3 O3 F3\\0,1\C,-12.2534397932,-0.3368836064,-0.1836652822\C
 ,-11.5936148027,0.4937955147,-1.0886063896\C,-10.2060354525,0.51851059
 5,-1.0521501415\F,-9.54441528,1.2660825466,-1.9561693646\C,-9.49522798
 47,-0.2500691969,-0.1170810896\N,-10.1448386282,-1.0682680884,0.727355
 6416\C,-11.4818017812,-1.1047928213,0.6899456904\C,-8.0068385591,-0.26
 44278603,-0.0608068225\C,-7.3388706785,-1.4904783754,-0.0208404194\C,-
 5.9470679482,-1.5630894164,0.0317581491\C,-5.1877375729,-0.3864975989,
 0.0592168076\C,-5.8462145429,0.8544360662,0.0535033742\C,-7.2436843527
 ,0.9220748628,0.00589237\O,-7.9486798679,2.0836879094,0.0651880169\C,-
 7.2272516593,3.3037387728,0.0690410797\C,-3.7026152106,-0.4364121544,0
 .1018257576\C,-3.0179986696,-1.3714575935,0.88803055\C,-1.6313081264,-
 1.3582734507,0.8814196131\F,-0.9729568805,-2.2918937217,1.5949661489\C
 ,-0.9189282604,-0.4128702127,0.1285539106\N,-1.5790586158,0.4565861445
 ,-0.6540518669\C,-2.9142872442,0.438608045,-0.662982123\C,0.5684423876
 ,-0.3688834741,0.0884586092\C,1.2150174616,-0.2922883565,-1.1475665003
 \C,2.6057111587,-0.2505250048,-1.2435877135\C,3.3866582694,-0.27220355
 6,-0.0809778004\C,2.7502815747,-0.3152568964,1.1707248775\C,1.35386639
 07,-0.3512689597,1.2622654263\O,0.6706523449,-0.3246970855,2.438128329
 3\C,1.4135561961,-0.3786685694,3.6439131817\C,4.8710180796,-0.24250377
 31,-0.1566043749\C,5.5468688712,0.5688903846,-1.0766043436\C,6.9332694
 093,0.5481280536,-1.089037668\F,7.5818864515,1.2880846479,-2.009158151
 \C,7.6554419876,-0.2441709002,-0.1839115103\N,7.0027868623,-1.04909662
 63,0.6704802399\C,5.667193246,-1.0442471695,0.6768527168\C,9.143675477
 1,-0.2993744924,-0.1712874356\C,9.7769532184,-1.5454396921,-0.16892721
 16\C,11.1693064679,-1.6533193705,-0.1615817933\C,11.9403110098,-0.4920
 310617,-0.1434335423\C,11.3325541819,0.7668133009,-0.113272941\C,9.935
 0255627,0.869376218,-0.1149415682\O,9.2562039835,2.0468959208,-0.02690
 47113\C,10.0056258616,3.248420742,-0.0378305038\H,-13.3476260631,-0.39
 69353697,-0.1666619183\H,-12.1252386759,1.1061147982,-1.8257592006\H,-
 11.9622559308,-1.7900119293,1.402922665\H,-7.9425904117,-2.4050255296,
 -0.0392924149\H,-5.4496846726,-2.5397506145,0.0234006053\H,-5.25141305
 77,1.7697891294,0.1279187803\H,-6.5978584727,3.4090435823,-0.836938032
 6\H,-6.5889813202,3.4009477024,0.9699963339\H,-7.9855447043,4.10257265
 48,0.0773105672\H,-3.5442313356,-2.1054215868,1.5089840206\H,-3.397647
 3975,1.1579072311,-1.3399231712\H,0.5947444913,-0.2735131614,-2.050971
 0152\H,3.0854413712,-0.2294723452,-2.2288639288\H,3.3621779673,-0.2790
 46163,2.0770663833\H,0.6697289229,-0.3931462127,4.4561693879\H,2.06541
 05635,0.509577358,3.7653434888\H,2.0328348839,-1.295831693,3.701495447
 7\H,5.0139459166,1.2201514623,-1.7788270028\H,5.1900502468,-1.74072854
 69,1.381590683\H,9.1448480657,-2.4410809107,-0.1735168734\H,11.6467573
 304,-2.6396973998,-0.1721739913\H,13.0355043213,-0.5558049926,-0.14251
 5136\H,11.9564970728,1.6649999884,-0.0759060909\H,10.6059714898,3.3481
 650421,-0.9642442239\H,9.2679950488,4.0656518004,0.0038627237\H,10.677
 8778072,3.3225320665,0.8406946911\\Version=EM64L-G16RevA.03\State=1-A\
 HF=-2075.3386851\S2=0.\S2-1=0.\S2A=0.\RMSD=5.656e-09\RMSF=4.799e-06\Di
 pole=-0.840797,1.1586406,0.3264545\Quadrupole=21.7612568,-6.4055222,-1
 5.3557346,5.749222,4.9980326,-0.0793413\PG=C01 [X(C36H26F3N3O3)]\\@


 THERE'S A SUCKER BORN EVERY MINUTE

              -- PHINEAS TAYLOR (P.T.) BARNUM
 Job cpu time:       0 days 19 hours 52 minutes 26.8 seconds.
 Elapsed time:       0 days  2 hours 37 minutes 44.1 seconds.
 File lengths (MBytes):  RWF=    692 Int=      0 D2E=      0 Chk=     64 Scr=      8
 Normal termination of Gaussian 16 at Thu Jul 23 22:24:10 2020.
