 Entering Gaussian System, Link 0=g16
 Input=mols_65_3_03_c-c-COC_opt_0.gjf
 Output=mols_65_3_03_c-c-COC_opt_0.log
 Initial command:
 /opt/ohpc/pub/libs/gaussian/g16-A.03/sandybridge/g16/l1.exe "/mnt/gpfs2_4m/scratch/rdu230/ondemand/projects/dihedral_energies/7trial/wtuning/mols_65_3_03_c-c-COC/Gau-312679.inp" -scrdir="/mnt/gpfs2_4m/scratch/rdu230/ondemand/projects/dihedral_energies/7trial/wtuning/mols_65_3_03_c-c-COC/"
 Entering Link 1 = /opt/ohpc/pub/libs/gaussian/g16-A.03/sandybridge/g16/l1.exe PID=    312680.
  
 Copyright (c) 1988,1990,1992,1993,1995,1998,2003,2009,2016,
            Gaussian, Inc.  All Rights Reserved.
  
 This is part of the Gaussian(R) 16 program.  It is based on
 the Gaussian(R) 09 system (copyright 2009, Gaussian, Inc.),
 the Gaussian(R) 03 system (copyright 2003, Gaussian, Inc.),
 the Gaussian(R) 98 system (copyright 1998, Gaussian, Inc.),
 the Gaussian(R) 94 system (copyright 1995, Gaussian, Inc.),
 the Gaussian 92(TM) system (copyright 1992, Gaussian, Inc.),
 the Gaussian 90(TM) system (copyright 1990, Gaussian, Inc.),
 the Gaussian 88(TM) system (copyright 1988, Gaussian, Inc.),
 the Gaussian 86(TM) system (copyright 1986, Carnegie Mellon
 University), and the Gaussian 82(TM) system (copyright 1983,
 Carnegie Mellon University). Gaussian is a federally registered
 trademark of Gaussian, Inc.
  
 This software contains proprietary and confidential information,
 including trade secrets, belonging to Gaussian, Inc.
  
 This software is provided under written license and may be
 used, copied, transmitted, or stored only in accord with that
 written license.
  
 The following legend is applicable only to US Government
 contracts under FAR:
  
                    RESTRICTED RIGHTS LEGEND
  
 Use, reproduction and disclosure by the US Government is
 subject to restrictions as set forth in subparagraphs (a)
 and (c) of the Commercial Computer Software - Restricted
 Rights clause in FAR 52.227-19.
  
 Gaussian, Inc.
 340 Quinnipiac St., Bldg. 40, Wallingford CT 06492
  
  
 ---------------------------------------------------------------
 Warning -- This program may not be used in any manner that
 competes with the business of Gaussian, Inc. or will provide
 assistance to any competitor of Gaussian, Inc.  The licensee
 of this program is prohibited from giving any competitor of
 Gaussian, Inc. access to this program.  By using this program,
 the user acknowledges that Gaussian, Inc. is engaged in the
 business of creating and licensing software in the field of
 computational chemistry and represents and warrants to the
 licensee that it is not a competitor of Gaussian, Inc. and that
 it will not use this program in any manner prohibited above.
 ---------------------------------------------------------------
  

 Cite this work as:
 Gaussian 16, Revision A.03,
 M. J. Frisch, G. W. Trucks, H. B. Schlegel, G. E. Scuseria, 
 M. A. Robb, J. R. Cheeseman, G. Scalmani, V. Barone, 
 G. A. Petersson, H. Nakatsuji, X. Li, M. Caricato, A. V. Marenich, 
 J. Bloino, B. G. Janesko, R. Gomperts, B. Mennucci, H. P. Hratchian, 
 J. V. Ortiz, A. F. Izmaylov, J. L. Sonnenberg, D. Williams-Young, 
 F. Ding, F. Lipparini, F. Egidi, J. Goings, B. Peng, A. Petrone, 
 T. Henderson, D. Ranasinghe, V. G. Zakrzewski, J. Gao, N. Rega, 
 G. Zheng, W. Liang, M. Hada, M. Ehara, K. Toyota, R. Fukuda, 
 J. Hasegawa, M. Ishida, T. Nakajima, Y. Honda, O. Kitao, H. Nakai, 
 T. Vreven, K. Throssell, J. A. Montgomery, Jr., J. E. Peralta, 
 F. Ogliaro, M. J. Bearpark, J. J. Heyd, E. N. Brothers, K. N. Kudin, 
 V. N. Staroverov, T. A. Keith, R. Kobayashi, J. Normand, 
 K. Raghavachari, A. P. Rendell, J. C. Burant, S. S. Iyengar, 
 J. Tomasi, M. Cossi, J. M. Millam, M. Klene, C. Adamo, R. Cammi, 
 J. W. Ochterski, R. L. Martin, K. Morokuma, O. Farkas, 
 J. B. Foresman, and D. J. Fox, Gaussian, Inc., Wallingford CT, 2016.
 
 ******************************************
 Gaussian 16:  EM64L-G16RevA.03 25-Dec-2016
                25-Jul-2020 
 ******************************************
 %mem=30GB
 %nproc=8
 Will use up to    8 processors via shared memory.
 ---------------------------------------------------------------
 #P uLC-wPBE/cc-pVDZ iop(3/107=0209900000, 3/108=0209900000) opt
 ---------------------------------------------------------------
 1/18=20,19=15,26=3,38=1/1,3;
 2/9=110,12=2,17=6,18=5,40=1/2;
 3/5=16,11=2,25=1,30=1,71=1,74=-41,107=209900000,108=209900000,116=2/1,2,3;
 4//1;
 5/5=2,38=5/2;
 6/7=2,8=2,9=2,10=2,28=1/1;
 7//1,2,3,16;
 1/18=20,19=15,26=3/3(2);
 2/9=110/2;
 99//99;
 2/9=110/2;
 3/5=16,11=2,25=1,30=1,71=1,74=-41,107=209900000,108=209900000,116=2/1,2,3;
 4/5=5,16=3,69=1/1;
 5/5=2,38=5/2;
 7//1,2,3,16;
 1/18=20,19=15,26=3/3(-5);
 2/9=110/2;
 6/7=2,8=2,9=2,10=2,19=2,28=1/1;
 99/9=1/99;
 Leave Link    1 at Sat Jul 25 00:31:45 2020, MaxMem=  4026531840 cpu:               1.0 elap:               0.2
 (Enter /opt/ohpc/pub/libs/gaussian/g16-A.03/sandybridge/g16/l101.exe)
 -------------
 H26 C33 S3 O3
 -------------
 Symbolic Z-matrix:
 Charge =  0 Multiplicity = 1
 C                     11.58521   0.93004   0.15558 
 C                     10.73116   1.51082  -0.70678 
 C                     9.36386   1.02923  -0.77188 
 C                     8.87651  -0.00563   0.00833 
 C                     9.8594   -0.58517   0.94033 
 C                     11.19332  -0.12967   0.94733 
 C                     7.50308  -0.4332   -0.00443 
 C                     6.99242  -1.73658  -0.17412 
 O                     7.88829  -2.78339  -0.25312 
 C                     7.22933  -4.02518  -0.4329 
 C                     5.57429  -1.77251  -0.09642 
 C                     5.04608  -0.54171  -0.04696 
 S                     6.26139   0.65836   0.05723 
 C                     3.59142  -0.15294  -0.01117 
 C                     3.08982   0.80664  -0.9053 
 C                     1.75884   1.2104   -0.90283 
 C                     0.82907   0.56451   0.06014 
 C                     1.41438  -0.41863   0.85935 
 C                     2.72703  -0.75057   0.82517 
 C                    -0.57298   0.88138   0.05617 
 C                    -1.1343    2.22608   0.09469 
 O                    -0.31798   3.31425   0.15953 
 C                    -1.07065   4.49401   0.33498 
 C                    -2.59621   2.05851   0.09321 
 C                    -3.06862   0.7963    0.01617 
 S                    -1.73248  -0.34601  -0.03795 
 C                    -4.38366   0.35052   0.00831 
 C                    -4.87865  -0.6607    0.85316 
 C                    -6.18754  -1.16077   0.78316 
 C                    -7.07581  -0.53006  -0.04923 
 C                    -6.65952   0.48761  -0.82688 
 C                    -5.37713   0.891    -0.8366 
 C                    -8.54483  -0.99401  -0.03678 
 C                    -9.71066  -0.23781  -0.00769 
 O                    -9.63931   1.15785   0.22782 
 C                    -10.89386   1.76745   0.42878 
 C                    -10.83159  -0.9916   -0.06938 
 C                    -10.5927  -2.3365   -0.31446 
 S                    -8.8657   -2.67698  -0.30684 
 H                     12.61831   1.18888   0.16251 
 H                     11.08175   2.26736  -1.35537 
 H                     8.72716   1.48109  -1.51557 
 H                     9.47711  -1.38333   1.59262 
 H                     11.79812  -0.63828   1.64634 
 H                     8.04946  -4.81613  -0.42594 
 H                     6.65529  -4.30443   0.4098 
 H                     6.70578  -4.1138   -1.31707 
 H                     4.99174  -2.59933  -0.20495 
 H                     3.75842   1.35885  -1.66172 
 H                     1.38209   1.95095  -1.59413 
 H                     0.71558  -0.92508   1.59657 
 H                     3.07541  -1.50645   1.56335 
 H                    -1.68843   4.50974   1.18226 
 H                    -1.72768   4.73216  -0.6145 
 H                    -0.28938   5.31242   0.32207 
 H                    -3.2189    2.97264   0.16645 
 H                    -4.13413  -1.19908   1.5319 
 H                    -6.50754  -1.97624   1.46247 
 H                    -7.41162   0.9808   -1.58124 
 H                    -5.0377    1.74154  -1.5473 
 H                    -10.60253   2.81676   0.65846 
 H                    -11.378    1.37363   1.28737 
 H                    -11.44537   1.68385  -0.43285 
 H                    -11.92561  -0.6693   -0.05136 
 H                    -11.30547  -3.18103  -0.39762 
 
 ITRead=  0  0  0  0  0  0  0  0  0  0  0  0  0  0  0  0  0  0  0  0
 ITRead=  0  0  0  0  0  0  0  0  0  0  0  0  0  0  0  0  0  0  0  0
 ITRead=  0  0  0  0  0  0  0  0  0  0  0  0  0  0  0  0  0  0  0  0
 ITRead=  0  0  0  0  0
 MicOpt= -1 -1 -1 -1 -1 -1 -1 -1 -1 -1 -1 -1 -1 -1 -1 -1 -1 -1 -1 -1
 MicOpt= -1 -1 -1 -1 -1 -1 -1 -1 -1 -1 -1 -1 -1 -1 -1 -1 -1 -1 -1 -1
 MicOpt= -1 -1 -1 -1 -1 -1 -1 -1 -1 -1 -1 -1 -1 -1 -1 -1 -1 -1 -1 -1
 MicOpt= -1 -1 -1 -1 -1
 NAtoms=     65 NQM=       65 NQMF=       0 NMMI=      0 NMMIF=      0
                NMic=       0 NMicF=      0.
                    Isotopes and Nuclear Properties:
 (Nuclear quadrupole moments (NQMom) in fm**2, nuclear magnetic moments (NMagM)
  in nuclear magnetons)

  Atom         1           2           3           4           5           6           7           8           9          10
 IAtWgt=          12          12          12          12          12          12          12          12          16          12
 AtmWgt=  12.0000000  12.0000000  12.0000000  12.0000000  12.0000000  12.0000000  12.0000000  12.0000000  15.9949146  12.0000000
 NucSpn=           0           0           0           0           0           0           0           0           0           0
 AtZEff=  -0.0000000  -0.0000000  -0.0000000  -0.0000000  -0.0000000  -0.0000000  -0.0000000  -0.0000000  -0.0000000  -0.0000000
 NQMom=    0.0000000   0.0000000   0.0000000   0.0000000   0.0000000   0.0000000   0.0000000   0.0000000   0.0000000   0.0000000
 NMagM=    0.0000000   0.0000000   0.0000000   0.0000000   0.0000000   0.0000000   0.0000000   0.0000000   0.0000000   0.0000000
 AtZNuc=   6.0000000   6.0000000   6.0000000   6.0000000   6.0000000   6.0000000   6.0000000   6.0000000   8.0000000   6.0000000

  Atom        11          12          13          14          15          16          17          18          19          20
 IAtWgt=          12          12          32          12          12          12          12          12          12          12
 AtmWgt=  12.0000000  12.0000000  31.9720718  12.0000000  12.0000000  12.0000000  12.0000000  12.0000000  12.0000000  12.0000000
 NucSpn=           0           0           0           0           0           0           0           0           0           0
 AtZEff=  -0.0000000  -0.0000000  -0.0000000  -0.0000000  -0.0000000  -0.0000000  -0.0000000  -0.0000000  -0.0000000  -0.0000000
 NQMom=    0.0000000   0.0000000   0.0000000   0.0000000   0.0000000   0.0000000   0.0000000   0.0000000   0.0000000   0.0000000
 NMagM=    0.0000000   0.0000000   0.0000000   0.0000000   0.0000000   0.0000000   0.0000000   0.0000000   0.0000000   0.0000000
 AtZNuc=   6.0000000   6.0000000  16.0000000   6.0000000   6.0000000   6.0000000   6.0000000   6.0000000   6.0000000   6.0000000

  Atom        21          22          23          24          25          26          27          28          29          30
 IAtWgt=          12          16          12          12          12          32          12          12          12          12
 AtmWgt=  12.0000000  15.9949146  12.0000000  12.0000000  12.0000000  31.9720718  12.0000000  12.0000000  12.0000000  12.0000000
 NucSpn=           0           0           0           0           0           0           0           0           0           0
 AtZEff=  -0.0000000  -0.0000000  -0.0000000  -0.0000000  -0.0000000  -0.0000000  -0.0000000  -0.0000000  -0.0000000  -0.0000000
 NQMom=    0.0000000   0.0000000   0.0000000   0.0000000   0.0000000   0.0000000   0.0000000   0.0000000   0.0000000   0.0000000
 NMagM=    0.0000000   0.0000000   0.0000000   0.0000000   0.0000000   0.0000000   0.0000000   0.0000000   0.0000000   0.0000000
 AtZNuc=   6.0000000   8.0000000   6.0000000   6.0000000   6.0000000  16.0000000   6.0000000   6.0000000   6.0000000   6.0000000

  Atom        31          32          33          34          35          36          37          38          39          40
 IAtWgt=          12          12          12          12          16          12          12          12          32           1
 AtmWgt=  12.0000000  12.0000000  12.0000000  12.0000000  15.9949146  12.0000000  12.0000000  12.0000000  31.9720718   1.0078250
 NucSpn=           0           0           0           0           0           0           0           0           0           1
 AtZEff=  -0.0000000  -0.0000000  -0.0000000  -0.0000000  -0.0000000  -0.0000000  -0.0000000  -0.0000000  -0.0000000  -0.0000000
 NQMom=    0.0000000   0.0000000   0.0000000   0.0000000   0.0000000   0.0000000   0.0000000   0.0000000   0.0000000   0.0000000
 NMagM=    0.0000000   0.0000000   0.0000000   0.0000000   0.0000000   0.0000000   0.0000000   0.0000000   0.0000000   2.7928460
 AtZNuc=   6.0000000   6.0000000   6.0000000   6.0000000   8.0000000   6.0000000   6.0000000   6.0000000  16.0000000   1.0000000

  Atom        41          42          43          44          45          46          47          48          49          50
 IAtWgt=           1           1           1           1           1           1           1           1           1           1
 AtmWgt=   1.0078250   1.0078250   1.0078250   1.0078250   1.0078250   1.0078250   1.0078250   1.0078250   1.0078250   1.0078250
 NucSpn=           1           1           1           1           1           1           1           1           1           1
 AtZEff=  -0.0000000  -0.0000000  -0.0000000  -0.0000000  -0.0000000  -0.0000000  -0.0000000  -0.0000000  -0.0000000  -0.0000000
 NQMom=    0.0000000   0.0000000   0.0000000   0.0000000   0.0000000   0.0000000   0.0000000   0.0000000   0.0000000   0.0000000
 NMagM=    2.7928460   2.7928460   2.7928460   2.7928460   2.7928460   2.7928460   2.7928460   2.7928460   2.7928460   2.7928460
 AtZNuc=   1.0000000   1.0000000   1.0000000   1.0000000   1.0000000   1.0000000   1.0000000   1.0000000   1.0000000   1.0000000

  Atom        51          52          53          54          55          56          57          58          59          60
 IAtWgt=           1           1           1           1           1           1           1           1           1           1
 AtmWgt=   1.0078250   1.0078250   1.0078250   1.0078250   1.0078250   1.0078250   1.0078250   1.0078250   1.0078250   1.0078250
 NucSpn=           1           1           1           1           1           1           1           1           1           1
 AtZEff=  -0.0000000  -0.0000000  -0.0000000  -0.0000000  -0.0000000  -0.0000000  -0.0000000  -0.0000000  -0.0000000  -0.0000000
 NQMom=    0.0000000   0.0000000   0.0000000   0.0000000   0.0000000   0.0000000   0.0000000   0.0000000   0.0000000   0.0000000
 NMagM=    2.7928460   2.7928460   2.7928460   2.7928460   2.7928460   2.7928460   2.7928460   2.7928460   2.7928460   2.7928460
 AtZNuc=   1.0000000   1.0000000   1.0000000   1.0000000   1.0000000   1.0000000   1.0000000   1.0000000   1.0000000   1.0000000

  Atom        61          62          63          64          65
 IAtWgt=           1           1           1           1           1
 AtmWgt=   1.0078250   1.0078250   1.0078250   1.0078250   1.0078250
 NucSpn=           1           1           1           1           1
 AtZEff=  -0.0000000  -0.0000000  -0.0000000  -0.0000000  -0.0000000
 NQMom=    0.0000000   0.0000000   0.0000000   0.0000000   0.0000000
 NMagM=    2.7928460   2.7928460   2.7928460   2.7928460   2.7928460
 AtZNuc=   1.0000000   1.0000000   1.0000000   1.0000000   1.0000000
 Leave Link  101 at Sat Jul 25 00:31:45 2020, MaxMem=  4026531840 cpu:               2.5 elap:               0.4
 (Enter /opt/ohpc/pub/libs/gaussian/g16-A.03/sandybridge/g16/l103.exe)

 GradGradGradGradGradGradGradGradGradGradGradGradGradGradGradGradGradGrad
 Berny optimization.
 Initialization pass.
                           ----------------------------
                           !    Initial Parameters    !
                           ! (Angstroms and Degrees)  !
 --------------------------                            --------------------------
 ! Name  Definition              Value          Derivative Info.                !
 --------------------------------------------------------------------------------
 ! R1    R(1,2)                  1.3455         estimate D2E/DX2                !
 ! R2    R(1,6)                  1.3797         estimate D2E/DX2                !
 ! R3    R(1,40)                 1.0651         estimate D2E/DX2                !
 ! R4    R(2,3)                  1.4511         estimate D2E/DX2                !
 ! R5    R(2,41)                 1.0564         estimate D2E/DX2                !
 ! R6    R(3,4)                  1.3846         estimate D2E/DX2                !
 ! R7    R(3,42)                 1.0783         estimate D2E/DX2                !
 ! R8    R(4,5)                  1.4733         estimate D2E/DX2                !
 ! R9    R(4,7)                  1.4385         estimate D2E/DX2                !
 ! R10   R(5,6)                  1.4096         estimate D2E/DX2                !
 ! R11   R(5,43)                 1.0994         estimate D2E/DX2                !
 ! R12   R(6,44)                 1.055          estimate D2E/DX2                !
 ! R13   R(7,8)                  1.4101         estimate D2E/DX2                !
 ! R14   R(7,13)                 1.6544         estimate D2E/DX2                !
 ! R15   R(8,9)                  1.3801         estimate D2E/DX2                !
 ! R16   R(8,11)                 1.4207         estimate D2E/DX2                !
 ! R17   R(9,10)                 1.4173         estimate D2E/DX2                !
 ! R18   R(10,45)                1.1394         estimate D2E/DX2                !
 ! R19   R(10,46)                1.0572         estimate D2E/DX2                !
 ! R20   R(10,47)                1.0314         estimate D2E/DX2                !
 ! R21   R(11,12)                1.3403         estimate D2E/DX2                !
 ! R22   R(11,48)                1.0172         estimate D2E/DX2                !
 ! R23   R(12,13)                1.7111         estimate D2E/DX2                !
 ! R24   R(12,14)                1.5061         estimate D2E/DX2                !
 ! R25   R(14,15)                1.4042         estimate D2E/DX2                !
 ! R26   R(14,19)                1.3431         estimate D2E/DX2                !
 ! R27   R(15,16)                1.3909         estimate D2E/DX2                !
 ! R28   R(15,49)                1.1507         estimate D2E/DX2                !
 ! R29   R(16,17)                1.4863         estimate D2E/DX2                !
 ! R30   R(16,50)                1.0809         estimate D2E/DX2                !
 ! R31   R(17,18)                1.3957         estimate D2E/DX2                !
 ! R32   R(17,20)                1.4374         estimate D2E/DX2                !
 ! R33   R(18,19)                1.3544         estimate D2E/DX2                !
 ! R34   R(18,51)                1.135          estimate D2E/DX2                !
 ! R35   R(19,52)                1.1125         estimate D2E/DX2                !
 ! R36   R(20,21)                1.4577         estimate D2E/DX2                !
 ! R37   R(20,26)                1.6911         estimate D2E/DX2                !
 ! R38   R(21,22)                1.3619         estimate D2E/DX2                !
 ! R39   R(21,24)                1.4715         estimate D2E/DX2                !
 ! R40   R(22,23)                1.4104         estimate D2E/DX2                !
 ! R41   R(23,53)                1.0487         estimate D2E/DX2                !
 ! R42   R(23,54)                1.1789         estimate D2E/DX2                !
 ! R43   R(23,55)                1.1315         estimate D2E/DX2                !
 ! R44   R(24,25)                1.3499         estimate D2E/DX2                !
 ! R45   R(24,56)                1.1085         estimate D2E/DX2                !
 ! R46   R(25,26)                1.7587         estimate D2E/DX2                !
 ! R47   R(25,27)                1.3886         estimate D2E/DX2                !
 ! R48   R(27,28)                1.4076         estimate D2E/DX2                !
 ! R49   R(27,32)                1.4117         estimate D2E/DX2                !
 ! R50   R(28,29)                1.4029         estimate D2E/DX2                !
 ! R51   R(28,57)                1.1423         estimate D2E/DX2                !
 ! R52   R(29,30)                1.371          estimate D2E/DX2                !
 ! R53   R(29,58)                1.1085         estimate D2E/DX2                !
 ! R54   R(30,31)                1.3467         estimate D2E/DX2                !
 ! R55   R(30,33)                1.5406         estimate D2E/DX2                !
 ! R56   R(31,32)                1.3444         estimate D2E/DX2                !
 ! R57   R(31,59)                1.1739         estimate D2E/DX2                !
 ! R58   R(32,60)                1.1592         estimate D2E/DX2                !
 ! R59   R(33,34)                1.3899         estimate D2E/DX2                !
 ! R60   R(33,39)                1.7344         estimate D2E/DX2                !
 ! R61   R(34,35)                1.4172         estimate D2E/DX2                !
 ! R62   R(34,37)                1.3522         estimate D2E/DX2                !
 ! R63   R(35,36)                1.4092         estimate D2E/DX2                !
 ! R64   R(36,61)                1.113          estimate D2E/DX2                !
 ! R65   R(36,62)                1.0614         estimate D2E/DX2                !
 ! R66   R(36,63)                1.0264         estimate D2E/DX2                !
 ! R67   R(37,38)                1.3878         estimate D2E/DX2                !
 ! R68   R(37,64)                1.1407         estimate D2E/DX2                !
 ! R69   R(38,39)                1.7603         estimate D2E/DX2                !
 ! R70   R(38,65)                1.1082         estimate D2E/DX2                !
 ! A1    A(2,1,6)              121.2687         estimate D2E/DX2                !
 ! A2    A(2,1,40)             120.9957         estimate D2E/DX2                !
 ! A3    A(6,1,40)             117.2882         estimate D2E/DX2                !
 ! A4    A(1,2,3)              118.9205         estimate D2E/DX2                !
 ! A5    A(1,2,41)             119.4702         estimate D2E/DX2                !
 ! A6    A(3,2,41)             121.5239         estimate D2E/DX2                !
 ! A7    A(2,3,4)              123.6706         estimate D2E/DX2                !
 ! A8    A(2,3,42)             116.6314         estimate D2E/DX2                !
 ! A9    A(4,3,42)             119.6049         estimate D2E/DX2                !
 ! A10   A(3,4,5)              114.5596         estimate D2E/DX2                !
 ! A11   A(3,4,7)              123.5875         estimate D2E/DX2                !
 ! A12   A(5,4,7)              121.7121         estimate D2E/DX2                !
 ! A13   A(4,5,6)              120.4886         estimate D2E/DX2                !
 ! A14   A(4,5,43)             115.3993         estimate D2E/DX2                !
 ! A15   A(6,5,43)             124.106          estimate D2E/DX2                !
 ! A16   A(1,6,5)              120.942          estimate D2E/DX2                !
 ! A17   A(1,6,44)             125.9923         estimate D2E/DX2                !
 ! A18   A(5,6,44)             112.9543         estimate D2E/DX2                !
 ! A19   A(4,7,8)              128.4309         estimate D2E/DX2                !
 ! A20   A(4,7,13)             121.3414         estimate D2E/DX2                !
 ! A21   A(8,7,13)             110.0315         estimate D2E/DX2                !
 ! A22   A(7,8,9)              118.2232         estimate D2E/DX2                !
 ! A23   A(7,8,11)             112.2274         estimate D2E/DX2                !
 ! A24   A(9,8,11)             129.1915         estimate D2E/DX2                !
 ! A25   A(8,9,10)             111.7183         estimate D2E/DX2                !
 ! A26   A(9,10,45)            105.8301         estimate D2E/DX2                !
 ! A27   A(9,10,46)            112.5061         estimate D2E/DX2                !
 ! A28   A(9,10,47)            114.8382         estimate D2E/DX2                !
 ! A29   A(45,10,46)           101.6897         estimate D2E/DX2                !
 ! A30   A(45,10,47)           108.1185         estimate D2E/DX2                !
 ! A31   A(46,10,47)           112.645          estimate D2E/DX2                !
 ! A32   A(8,11,12)            111.8503         estimate D2E/DX2                !
 ! A33   A(8,11,48)            125.8988         estimate D2E/DX2                !
 ! A34   A(12,11,48)           121.6458         estimate D2E/DX2                !
 ! A35   A(11,12,13)           111.4931         estimate D2E/DX2                !
 ! A36   A(11,12,14)           128.2103         estimate D2E/DX2                !
 ! A37   A(13,12,14)           120.2307         estimate D2E/DX2                !
 ! A38   A(7,13,12)             93.9022         estimate D2E/DX2                !
 ! A39   A(12,14,15)           120.4143         estimate D2E/DX2                !
 ! A40   A(12,14,19)           121.4359         estimate D2E/DX2                !
 ! A41   A(15,14,19)           118.0788         estimate D2E/DX2                !
 ! A42   A(14,15,16)           122.6199         estimate D2E/DX2                !
 ! A43   A(14,15,49)           122.6118         estimate D2E/DX2                !
 ! A44   A(16,15,49)           114.7003         estimate D2E/DX2                !
 ! A45   A(15,16,17)           118.2707         estimate D2E/DX2                !
 ! A46   A(15,16,50)           122.0942         estimate D2E/DX2                !
 ! A47   A(17,16,50)           119.6098         estimate D2E/DX2                !
 ! A48   A(16,17,18)           114.5061         estimate D2E/DX2                !
 ! A49   A(16,17,20)           120.837          estimate D2E/DX2                !
 ! A50   A(18,17,20)           124.4667         estimate D2E/DX2                !
 ! A51   A(17,18,19)           124.3772         estimate D2E/DX2                !
 ! A52   A(17,18,51)           115.3441         estimate D2E/DX2                !
 ! A53   A(19,18,51)           120.2463         estimate D2E/DX2                !
 ! A54   A(14,19,18)           122.0338         estimate D2E/DX2                !
 ! A55   A(14,19,52)           120.9302         estimate D2E/DX2                !
 ! A56   A(18,19,52)           116.9538         estimate D2E/DX2                !
 ! A57   A(17,20,21)           125.3728         estimate D2E/DX2                !
 ! A58   A(17,20,26)           120.5933         estimate D2E/DX2                !
 ! A59   A(21,20,26)           114.0158         estimate D2E/DX2                !
 ! A60   A(20,21,22)           120.5003         estimate D2E/DX2                !
 ! A61   A(20,21,24)           106.111          estimate D2E/DX2                !
 ! A62   A(22,21,24)           133.3574         estimate D2E/DX2                !
 ! A63   A(21,22,23)           110.7579         estimate D2E/DX2                !
 ! A64   A(22,23,53)           115.3047         estimate D2E/DX2                !
 ! A65   A(22,23,54)           111.4815         estimate D2E/DX2                !
 ! A66   A(22,23,55)           103.5991         estimate D2E/DX2                !
 ! A67   A(53,23,54)           108.6232         estimate D2E/DX2                !
 ! A68   A(53,23,55)           113.8983         estimate D2E/DX2                !
 ! A69   A(54,23,55)           103.2676         estimate D2E/DX2                !
 ! A70   A(21,24,25)           117.0147         estimate D2E/DX2                !
 ! A71   A(21,24,56)           117.6531         estimate D2E/DX2                !
 ! A72   A(25,24,56)           125.3285         estimate D2E/DX2                !
 ! A73   A(24,25,26)           110.0716         estimate D2E/DX2                !
 ! A74   A(24,25,27)           129.1929         estimate D2E/DX2                !
 ! A75   A(26,25,27)           120.7174         estimate D2E/DX2                !
 ! A76   A(20,26,25)            92.7387         estimate D2E/DX2                !
 ! A77   A(25,27,28)           124.0747         estimate D2E/DX2                !
 ! A78   A(25,27,32)           123.1576         estimate D2E/DX2                !
 ! A79   A(28,27,32)           112.7544         estimate D2E/DX2                !
 ! A80   A(27,28,29)           123.6568         estimate D2E/DX2                !
 ! A81   A(27,28,57)           117.7764         estimate D2E/DX2                !
 ! A82   A(29,28,57)           118.0171         estimate D2E/DX2                !
 ! A83   A(28,29,30)           118.085          estimate D2E/DX2                !
 ! A84   A(28,29,58)           120.0637         estimate D2E/DX2                !
 ! A85   A(30,29,58)           121.5631         estimate D2E/DX2                !
 ! A86   A(29,30,31)           119.8633         estimate D2E/DX2                !
 ! A87   A(29,30,33)           118.3165         estimate D2E/DX2                !
 ! A88   A(31,30,33)           121.8023         estimate D2E/DX2                !
 ! A89   A(30,31,32)           121.7205         estimate D2E/DX2                !
 ! A90   A(30,31,59)           119.374          estimate D2E/DX2                !
 ! A91   A(32,31,59)           118.7153         estimate D2E/DX2                !
 ! A92   A(27,32,31)           123.5099         estimate D2E/DX2                !
 ! A93   A(27,32,60)           116.2178         estimate D2E/DX2                !
 ! A94   A(31,32,60)           120.2587         estimate D2E/DX2                !
 ! A95   A(30,33,34)           129.5044         estimate D2E/DX2                !
 ! A96   A(30,33,39)           117.8633         estimate D2E/DX2                !
 ! A97   A(34,33,39)           112.0862         estimate D2E/DX2                !
 ! A98   A(33,34,35)           119.8045         estimate D2E/DX2                !
 ! A99   A(33,34,37)           113.0215         estimate D2E/DX2                !
 ! A100  A(35,34,37)           126.748          estimate D2E/DX2                !
 ! A101  A(34,35,36)           113.8838         estimate D2E/DX2                !
 ! A102  A(35,36,61)           101.7848         estimate D2E/DX2                !
 ! A103  A(35,36,62)           111.1562         estimate D2E/DX2                !
 ! A104  A(35,36,63)           108.8683         estimate D2E/DX2                !
 ! A105  A(61,36,62)           107.5942         estimate D2E/DX2                !
 ! A106  A(61,36,63)           112.9959         estimate D2E/DX2                !
 ! A107  A(62,36,63)           113.8113         estimate D2E/DX2                !
 ! A108  A(34,37,38)           113.9279         estimate D2E/DX2                !
 ! A109  A(34,37,64)           129.5564         estimate D2E/DX2                !
 ! A110  A(38,37,64)           116.2141         estimate D2E/DX2                !
 ! A111  A(37,38,39)           110.8289         estimate D2E/DX2                !
 ! A112  A(37,38,65)           129.8702         estimate D2E/DX2                !
 ! A113  A(39,38,65)           118.9421         estimate D2E/DX2                !
 ! A114  A(33,39,38)            89.6843         estimate D2E/DX2                !
 ! D1    D(6,1,2,3)              1.6672         estimate D2E/DX2                !
 ! D2    D(6,1,2,41)          -175.0244         estimate D2E/DX2                !
 ! D3    D(40,1,2,3)           173.7837         estimate D2E/DX2                !
 ! D4    D(40,1,2,41)           -2.9079         estimate D2E/DX2                !
 ! D5    D(2,1,6,5)             -4.0584         estimate D2E/DX2                !
 ! D6    D(2,1,6,44)          -179.9431         estimate D2E/DX2                !
 ! D7    D(40,1,6,5)          -176.456          estimate D2E/DX2                !
 ! D8    D(40,1,6,44)            7.6593         estimate D2E/DX2                !
 ! D9    D(1,2,3,4)             -0.04           estimate D2E/DX2                !
 ! D10   D(1,2,3,42)          -176.5095         estimate D2E/DX2                !
 ! D11   D(41,2,3,4)           176.5809         estimate D2E/DX2                !
 ! D12   D(41,2,3,42)            0.1114         estimate D2E/DX2                !
 ! D13   D(2,3,4,5)              0.7124         estimate D2E/DX2                !
 ! D14   D(2,3,4,7)            176.4565         estimate D2E/DX2                !
 ! D15   D(42,3,4,5)           177.0825         estimate D2E/DX2                !
 ! D16   D(42,3,4,7)            -7.1734         estimate D2E/DX2                !
 ! D17   D(3,4,5,6)             -3.0049         estimate D2E/DX2                !
 ! D18   D(3,4,5,43)           177.8554         estimate D2E/DX2                !
 ! D19   D(7,4,5,6)           -178.8375         estimate D2E/DX2                !
 ! D20   D(7,4,5,43)             2.0228         estimate D2E/DX2                !
 ! D21   D(3,4,7,8)            128.5448         estimate D2E/DX2                !
 ! D22   D(3,4,7,13)           -45.8363         estimate D2E/DX2                !
 ! D23   D(5,4,7,8)            -56.0061         estimate D2E/DX2                !
 ! D24   D(5,4,7,13)           129.6128         estimate D2E/DX2                !
 ! D25   D(4,5,6,1)              4.759          estimate D2E/DX2                !
 ! D26   D(4,5,6,44)          -178.8563         estimate D2E/DX2                !
 ! D27   D(43,5,6,1)          -176.1796         estimate D2E/DX2                !
 ! D28   D(43,5,6,44)            0.2051         estimate D2E/DX2                !
 ! D29   D(4,7,8,9)              4.8419         estimate D2E/DX2                !
 ! D30   D(4,7,8,11)           178.6033         estimate D2E/DX2                !
 ! D31   D(13,7,8,9)           179.7354         estimate D2E/DX2                !
 ! D32   D(13,7,8,11)           -6.5032         estimate D2E/DX2                !
 ! D33   D(4,7,13,12)          178.2491         estimate D2E/DX2                !
 ! D34   D(8,7,13,12)            2.9318         estimate D2E/DX2                !
 ! D35   D(7,8,9,10)          -179.5443         estimate D2E/DX2                !
 ! D36   D(11,8,9,10)            7.9133         estimate D2E/DX2                !
 ! D37   D(7,8,11,12)            7.7533         estimate D2E/DX2                !
 ! D38   D(7,8,11,48)          178.8982         estimate D2E/DX2                !
 ! D39   D(9,8,11,12)         -179.3433         estimate D2E/DX2                !
 ! D40   D(9,8,11,48)           -8.1984         estimate D2E/DX2                !
 ! D41   D(8,9,10,45)         -176.9143         estimate D2E/DX2                !
 ! D42   D(8,9,10,46)          -66.7055         estimate D2E/DX2                !
 ! D43   D(8,9,10,47)           63.9138         estimate D2E/DX2                !
 ! D44   D(8,11,12,13)          -5.4511         estimate D2E/DX2                !
 ! D45   D(8,11,12,14)         177.538          estimate D2E/DX2                !
 ! D46   D(48,11,12,13)       -177.0283         estimate D2E/DX2                !
 ! D47   D(48,11,12,14)          5.9608         estimate D2E/DX2                !
 ! D48   D(11,12,13,7)           1.4833         estimate D2E/DX2                !
 ! D49   D(14,12,13,7)         178.7652         estimate D2E/DX2                !
 ! D50   D(11,12,14,15)       -129.5721         estimate D2E/DX2                !
 ! D51   D(11,12,14,19)         47.3048         estimate D2E/DX2                !
 ! D52   D(13,12,14,15)         53.6471         estimate D2E/DX2                !
 ! D53   D(13,12,14,19)       -129.476          estimate D2E/DX2                !
 ! D54   D(12,14,15,16)       -179.2758         estimate D2E/DX2                !
 ! D55   D(12,14,15,49)         -2.4369         estimate D2E/DX2                !
 ! D56   D(19,14,15,16)          3.7443         estimate D2E/DX2                !
 ! D57   D(19,14,15,49)       -179.4169         estimate D2E/DX2                !
 ! D58   D(12,14,19,18)       -179.418          estimate D2E/DX2                !
 ! D59   D(12,14,19,52)          3.9796         estimate D2E/DX2                !
 ! D60   D(15,14,19,18)         -2.4706         estimate D2E/DX2                !
 ! D61   D(15,14,19,52)       -179.0729         estimate D2E/DX2                !
 ! D62   D(14,15,16,17)         -1.929          estimate D2E/DX2                !
 ! D63   D(14,15,16,50)        179.9088         estimate D2E/DX2                !
 ! D64   D(49,15,16,17)       -178.9983         estimate D2E/DX2                !
 ! D65   D(49,15,16,50)          2.8395         estimate D2E/DX2                !
 ! D66   D(15,16,17,18)         -1.0464         estimate D2E/DX2                !
 ! D67   D(15,16,17,20)       -176.2519         estimate D2E/DX2                !
 ! D68   D(50,16,17,18)        177.1628         estimate D2E/DX2                !
 ! D69   D(50,16,17,20)          1.9573         estimate D2E/DX2                !
 ! D70   D(16,17,18,19)          2.3697         estimate D2E/DX2                !
 ! D71   D(16,17,18,51)       -179.7032         estimate D2E/DX2                !
 ! D72   D(20,17,18,19)        177.376          estimate D2E/DX2                !
 ! D73   D(20,17,18,51)         -4.6969         estimate D2E/DX2                !
 ! D74   D(16,17,20,21)        -51.1043         estimate D2E/DX2                !
 ! D75   D(16,17,20,26)        127.2528         estimate D2E/DX2                !
 ! D76   D(18,17,20,21)        134.1885         estimate D2E/DX2                !
 ! D77   D(18,17,20,26)        -47.4544         estimate D2E/DX2                !
 ! D78   D(17,18,19,14)         -0.6313         estimate D2E/DX2                !
 ! D79   D(17,18,19,52)        176.0992         estimate D2E/DX2                !
 ! D80   D(51,18,19,14)       -178.4627         estimate D2E/DX2                !
 ! D81   D(51,18,19,52)         -1.7322         estimate D2E/DX2                !
 ! D82   D(17,20,21,22)         -1.0053         estimate D2E/DX2                !
 ! D83   D(17,20,21,24)       -179.228          estimate D2E/DX2                !
 ! D84   D(26,20,21,22)       -179.457          estimate D2E/DX2                !
 ! D85   D(26,20,21,24)          2.3203         estimate D2E/DX2                !
 ! D86   D(17,20,26,25)        179.7834         estimate D2E/DX2                !
 ! D87   D(21,20,26,25)         -1.6832         estimate D2E/DX2                !
 ! D88   D(20,21,22,23)       -173.5404         estimate D2E/DX2                !
 ! D89   D(24,21,22,23)          4.1109         estimate D2E/DX2                !
 ! D90   D(20,21,24,25)         -2.05           estimate D2E/DX2                !
 ! D91   D(20,21,24,56)        177.2848         estimate D2E/DX2                !
 ! D92   D(22,21,24,25)       -179.9437         estimate D2E/DX2                !
 ! D93   D(22,21,24,56)         -0.6089         estimate D2E/DX2                !
 ! D94   D(21,22,23,53)         57.5054         estimate D2E/DX2                !
 ! D95   D(21,22,23,54)        -66.9434         estimate D2E/DX2                !
 ! D96   D(21,22,23,55)       -177.3662         estimate D2E/DX2                !
 ! D97   D(21,24,25,26)          0.9217         estimate D2E/DX2                !
 ! D98   D(21,24,25,27)        179.3529         estimate D2E/DX2                !
 ! D99   D(56,24,25,26)       -178.3561         estimate D2E/DX2                !
 ! D100  D(56,24,25,27)          0.0751         estimate D2E/DX2                !
 ! D101  D(24,25,26,20)          0.4402         estimate D2E/DX2                !
 ! D102  D(27,25,26,20)       -178.1455         estimate D2E/DX2                !
 ! D103  D(24,25,27,28)       -129.2851         estimate D2E/DX2                !
 ! D104  D(24,25,27,32)         49.2913         estimate D2E/DX2                !
 ! D105  D(26,25,27,28)         49.0009         estimate D2E/DX2                !
 ! D106  D(26,25,27,32)       -132.4227         estimate D2E/DX2                !
 ! D107  D(25,27,28,29)       -176.0021         estimate D2E/DX2                !
 ! D108  D(25,27,28,57)         -4.6887         estimate D2E/DX2                !
 ! D109  D(32,27,28,29)          5.2902         estimate D2E/DX2                !
 ! D110  D(32,27,28,57)        176.6037         estimate D2E/DX2                !
 ! D111  D(25,27,32,31)       -178.2988         estimate D2E/DX2                !
 ! D112  D(25,27,32,60)          0.3622         estimate D2E/DX2                !
 ! D113  D(28,27,32,31)          0.4226         estimate D2E/DX2                !
 ! D114  D(28,27,32,60)        179.0836         estimate D2E/DX2                !
 ! D115  D(27,28,29,30)         -7.5657         estimate D2E/DX2                !
 ! D116  D(27,28,29,58)        178.5027         estimate D2E/DX2                !
 ! D117  D(57,28,29,30)       -178.8597         estimate D2E/DX2                !
 ! D118  D(57,28,29,58)          7.2087         estimate D2E/DX2                !
 ! D119  D(28,29,30,31)          3.8649         estimate D2E/DX2                !
 ! D120  D(28,29,30,33)       -174.6269         estimate D2E/DX2                !
 ! D121  D(58,29,30,31)        177.7007         estimate D2E/DX2                !
 ! D122  D(58,29,30,33)         -0.7911         estimate D2E/DX2                !
 ! D123  D(29,30,31,32)          1.572          estimate D2E/DX2                !
 ! D124  D(29,30,31,59)        176.4935         estimate D2E/DX2                !
 ! D125  D(33,30,31,32)       -179.9902         estimate D2E/DX2                !
 ! D126  D(33,30,31,59)         -5.0688         estimate D2E/DX2                !
 ! D127  D(29,30,33,34)        134.8775         estimate D2E/DX2                !
 ! D128  D(29,30,33,39)        -54.3438         estimate D2E/DX2                !
 ! D129  D(31,30,33,34)        -43.5836         estimate D2E/DX2                !
 ! D130  D(31,30,33,39)        127.1952         estimate D2E/DX2                !
 ! D131  D(30,31,32,27)         -3.8627         estimate D2E/DX2                !
 ! D132  D(30,31,32,60)        177.5281         estimate D2E/DX2                !
 ! D133  D(59,31,32,27)       -178.8165         estimate D2E/DX2                !
 ! D134  D(59,31,32,60)          2.5743         estimate D2E/DX2                !
 ! D135  D(30,33,34,35)         -9.9563         estimate D2E/DX2                !
 ! D136  D(30,33,34,37)        177.0361         estimate D2E/DX2                !
 ! D137  D(39,33,34,35)        178.8381         estimate D2E/DX2                !
 ! D138  D(39,33,34,37)          5.8305         estimate D2E/DX2                !
 ! D139  D(30,33,39,38)       -174.3868         estimate D2E/DX2                !
 ! D140  D(34,33,39,38)         -2.0549         estimate D2E/DX2                !
 ! D141  D(33,34,35,36)       -171.0749         estimate D2E/DX2                !
 ! D142  D(37,34,35,36)          0.8871         estimate D2E/DX2                !
 ! D143  D(33,34,37,38)         -7.5538         estimate D2E/DX2                !
 ! D144  D(33,34,37,64)        179.0783         estimate D2E/DX2                !
 ! D145  D(35,34,37,38)       -179.9782         estimate D2E/DX2                !
 ! D146  D(35,34,37,64)          6.6538         estimate D2E/DX2                !
 ! D147  D(34,35,36,61)        176.3419         estimate D2E/DX2                !
 ! D148  D(34,35,36,62)         62.0216         estimate D2E/DX2                !
 ! D149  D(34,35,36,63)        -64.1173         estimate D2E/DX2                !
 ! D150  D(34,37,38,39)          5.8404         estimate D2E/DX2                !
 ! D151  D(34,37,38,65)        178.7599         estimate D2E/DX2                !
 ! D152  D(64,37,38,39)       -179.8558         estimate D2E/DX2                !
 ! D153  D(64,37,38,65)         -6.9363         estimate D2E/DX2                !
 ! D154  D(37,38,39,33)         -2.028          estimate D2E/DX2                !
 ! D155  D(65,38,39,33)       -175.8218         estimate D2E/DX2                !
 --------------------------------------------------------------------------------
 Trust Radius=3.00D-01 FncErr=1.00D-07 GrdErr=1.00D-06 EigMax=2.50D+02 EigMin=1.00D-04
 Number of steps in this run=    349 maximum allowed number of steps=    390.
 GradGradGradGradGradGradGradGradGradGradGradGradGradGradGradGradGradGrad

 Leave Link  103 at Sat Jul 25 00:31:45 2020, MaxMem=  4026531840 cpu:               0.2 elap:               0.1
 (Enter /opt/ohpc/pub/libs/gaussian/g16-A.03/sandybridge/g16/l202.exe)
 Stoichiometry    C33H26O3S3
 Framework group  C1[X(C33H26O3S3)]
 Deg. of freedom   189
 Full point group                 C1      NOp   1
 Largest Abelian subgroup         C1      NOp   1
 Largest concise Abelian subgroup C1      NOp   1
                         Standard orientation:                         
 ---------------------------------------------------------------------
 Center     Atomic      Atomic             Coordinates (Angstroms)
 Number     Number       Type             X           Y           Z
 ---------------------------------------------------------------------
      1          6           0       11.588466    0.934167    0.148395
      2          6           0       10.734014    1.512284   -0.715350
      3          6           0        9.366545    1.030858   -0.777953
      4          6           0        8.879413   -0.001241    0.006032
      5          6           0        9.862749   -0.577918    0.939345
      6          6           0       11.196793   -0.122775    0.943950
      7          6           0        7.505855   -0.428471   -0.004398
      8          6           0        6.994725   -1.732267   -0.169383
      9          8           0        7.890261   -2.779584   -0.245448
     10          6           0        7.230843   -4.021795   -0.420639
     11          6           0        5.576637   -1.767539   -0.090651
     12          6           0        5.048806   -0.536436   -0.044985
     13         16           0        6.264508    0.663637    0.054398
     14          6           0        3.594272   -0.147147   -0.009556
     15          6           0        3.092359    0.809567   -0.906581
     16          6           0        1.761496    1.213708   -0.904602
     17          6           0        0.832163    0.571308    0.061127
     18          6           0        1.417717   -0.409309    0.863250
     19          6           0        2.730260   -0.741721    0.829343
     20          6           0       -0.569799    0.888552    0.056993
     21          6           0       -1.130722    2.233527    0.091368
     22          8           0       -0.314063    3.321684    0.152026
     23          6           0       -1.066289    4.502239    0.323999
     24          6           0       -2.592674    2.066362    0.091385
     25          6           0       -3.065490    0.804037    0.018886
     26         16           0       -1.729699   -0.338822   -0.032252
     27          6           0       -4.380651    0.358597    0.013372
     28          6           0       -4.875380   -0.649643    0.861934
     29          6           0       -6.184453   -1.149582    0.794461
     30          6           0       -7.073086   -0.521421   -0.039469
     31          6           0       -6.657012    0.493518   -0.820802
     32          6           0       -5.374521    0.896514   -0.832698
     33          6           0       -8.542224   -0.984924   -0.024512
     34          6           0       -9.707829   -0.228308    0.002787
     35          8           0       -9.635937    1.168115    0.233569
     36          6           0      -10.890192    1.778736    0.433292
     37          6           0      -10.829004   -0.981985   -0.055651
     38          6           0      -10.590642   -2.327764   -0.296367
     39         16           0       -8.863734   -2.668700   -0.288722
     40          1           0       12.621640    1.192743    0.153792
     41          1           0       11.084400    2.266546   -1.366704
     42          1           0        8.729494    1.480401   -1.522746
     43          1           0        9.480660   -1.373779    1.594550
     44          1           0       11.801903   -0.629202    1.644272
     45          1           0        8.050761   -4.812936   -0.411551
     46          1           0        6.657267   -4.298046    0.423370
     47          1           0        6.706695   -4.113230   -1.304165
     48          1           0        4.993791   -2.594559   -0.196031
     49          1           0        3.760623    1.359049   -1.665284
     50          1           0        1.384502    1.952036   -1.598150
     51          1           0        0.719259   -0.913085    1.602622
     52          1           0        3.078904   -1.495217    1.569832
     53          1           0       -1.683521    4.520985    1.171619
     54          1           0       -1.723866    4.737383   -0.625851
     55          1           0       -0.284801    5.320382    0.307835
     56          1           0       -3.215068    2.980910    0.161960
     57          1           0       -4.130571   -1.185950    1.541998
     58          1           0       -6.504237   -1.962678    1.476711
     59          1           0       -7.409464    0.984380   -1.576323
     60          1           0       -5.035320    1.744571   -1.546468
     61          1           0      -10.598422    2.828731    0.659254
     62          1           0      -11.373886    1.387940    1.293504
     63          1           0      -11.442276    1.692400   -0.427698
     64          1           0      -11.922927   -0.659318   -0.038008
     65          1           0      -11.303702   -3.172377   -0.376231
 ---------------------------------------------------------------------
 Rotational constants (GHZ):           0.2773387           0.0182925           0.0173409
 Leave Link  202 at Sat Jul 25 00:31:45 2020, MaxMem=  4026531840 cpu:               0.4 elap:               0.1
 (Enter /opt/ohpc/pub/libs/gaussian/g16-A.03/sandybridge/g16/l301.exe)
 Standard basis: CC-pVDZ (5D, 7F)
 Ernie: Thresh=  0.10000D-02 Tol=  0.10000D-05 Strict=F.
 Ernie:  102 primitive shells out of 1072 were deleted.
 There are   727 symmetry adapted cartesian basis functions of A   symmetry.
 There are   688 symmetry adapted basis functions of A   symmetry.
   688 basis functions,  1583 primitive gaussians,   727 cartesian basis functions
   148 alpha electrons      148 beta electrons
       nuclear repulsion energy      4145.3752711030 Hartrees.
 IExCor=32609 DFT=T Ex+Corr=LC-wPBE ExCW=0 ScaHFX=  1.000000
 ScaDFX=  1.000000  0.000000  1.000000  1.000000 ScalE2=  1.000000  1.000000
 IRadAn=      5 IRanWt=     -1 IRanGd=            0 ICorTp=0 IEmpDi=  4
 HFx  wShort=  0.000000 wLong=  0.209900 cFull=  0.000000 cShort=  0.000000 cLong=  1.000000
 DFx  wShort=  0.000000 wLong=  0.209900 cFull=  0.000000 cShort=  0.000000 cLong=  1.000000
 NAtoms=   65 NActive=   65 NUniq=   65 SFac= 1.00D+00 NAtFMM=   60 NAOKFM=T Big=T
 Integral buffers will be    131072 words long.
 Raffenetti 2 integral format.
 Two-electron integral symmetry is turned on.
 Leave Link  301 at Sat Jul 25 00:31:46 2020, MaxMem=  4026531840 cpu:               0.7 elap:               0.2
 (Enter /opt/ohpc/pub/libs/gaussian/g16-A.03/sandybridge/g16/l302.exe)
 NPDir=0 NMtPBC=     1 NCelOv=     1 NCel=       1 NClECP=     1 NCelD=      1
         NCelK=      1 NCelE2=     1 NClLst=     1 CellRange=     0.0.
 One-electron integrals computed using PRISM.
 One-electron integral symmetry used in STVInt
 NBasis=   688 RedAO= T EigKep=  2.46D-04  NBF=   688
 NBsUse=   688 1.00D-06 EigRej= -1.00D+00 NBFU=   688
 Precomputing XC quadrature grid using
 IXCGrd= 4 IRadAn=           5 IRanWt=          -1 IRanGd=           0 AccXCQ= 0.00D+00.
 Generated NRdTot=       0 NPtTot=           0 NUsed=           0 NTot=          32
 NSgBfM=   636   636   636   636   636 MxSgAt=    65 MxSgA2=    65.
 Leave Link  302 at Sat Jul 25 00:31:47 2020, MaxMem=  4026531840 cpu:              13.4 elap:               1.7
 (Enter /opt/ohpc/pub/libs/gaussian/g16-A.03/sandybridge/g16/l303.exe)
 DipDrv:  MaxL=1.
 Leave Link  303 at Sat Jul 25 00:31:48 2020, MaxMem=  4026531840 cpu:               1.2 elap:               0.3
 (Enter /opt/ohpc/pub/libs/gaussian/g16-A.03/sandybridge/g16/l401.exe)
 ExpMin= 1.22D-01 ExpMax= 1.11D+05 ExpMxC= 1.07D+03 IAcc=3 IRadAn=         5 AccDes= 0.00D+00
 Harris functional with IExCor=32609 and IRadAn=       5 diagonalized for initial guess.
 HarFok:  IExCor=32609 AccDes= 0.00D+00 IRadAn=         5 IDoV= 1 UseB2=F ITyADJ=14
 ICtDFT=  3500011 ScaDFX=  1.000000  1.000000  1.000000  1.000000
 FoFCou: FMM=F IPFlag=           0 FMFlag=      100000 FMFlg1=        2001
         NFxFlg=           0 DoJE=T BraDBF=F KetDBF=T FulRan=T
         wScrn=  0.000000 ICntrl=       500 IOpCl=  0 I1Cent=   200000004 NGrid=           0
         NMat0=    1 NMatS0=      1 NMatT0=    0 NMatD0=    1 NMtDS0=    0 NMtDT0=    0
 Petite list used in FoFCou.
 Harris En= -2691.64613305367    
 JPrj=0 DoOrth=F DoCkMO=F.
 Initial guess <Sx>= 0.0000 <Sy>= 0.0000 <Sz>= 0.0000 <S**2>=-0.0000 S=-0.0000
 Leave Link  401 at Sat Jul 25 00:31:55 2020, MaxMem=  4026531840 cpu:              57.1 elap:               7.2
 (Enter /opt/ohpc/pub/libs/gaussian/g16-A.03/sandybridge/g16/l502.exe)
 Integral symmetry usage will be decided dynamically.
 UHF open shell SCF:
 Using DIIS extrapolation, IDIIS=  1040.
 NGot=  4026531840 LenX=  4025461411 LenY=  4024932155
 Requested convergence on RMS density matrix=1.00D-08 within 128 cycles.
 Requested convergence on MAX density matrix=1.00D-06.
 Requested convergence on             energy=1.00D-06.
 No special actions if energy rises.
 Fock matrices will be formed incrementally for  20 cycles.
 Integral accuracy reduced to 1.0D-05 until final iterations.

 Cycle   1  Pass 0  IDiag  1:
 FoFJK:  IHMeth= 1 ICntrl=       0 DoSepK=T KAlg= 0 I1Cent=           0 FoldK=F
 IRaf=         1 NMat=       1 IRICut=       1 DoRegI=T DoRafI=F ISym2E= 0 IDoP0=0 IntGTp=1.
 FoFCou: FMM=T IPFlag=           0 FMFlag=      100000 FMFlg1=        2001
         NFxFlg=           0 DoJE=T BraDBF=F KetDBF=F FulRan=T
         wScrn=  0.000000 ICntrl=       500 IOpCl=  0 I1Cent=           0 NGrid=           0
         NMat0=    1 NMatS0=      1 NMatT0=    0 NMatD0=    1 NMtDS0=    0 NMtDT0=    0
 Symmetry not used in FoFCou.
 FMM levels:  10  Number of levels for PrismC:   9
 E= -2690.76183371906    
 DIIS: error= 2.41D-02 at cycle   1 NSaved=   1.
 NSaved= 1 IEnMin= 1 EnMin= -2690.76183371906     IErMin= 1 ErrMin= 2.41D-02
 ErrMax= 2.41D-02  0.00D+00 EMaxC= 1.00D-01 BMatC= 2.85D+00 BMatP= 2.85D+00
 IDIUse=3 WtCom= 7.59D-01 WtEn= 2.41D-01
 Coeff-Com:  0.100D+01
 Coeff-En:   0.100D+01
 Coeff:      0.100D+01
 Gap=     0.299 Goal=   None    Shift=    0.000
 Gap=     0.299 Goal=   None    Shift=    0.000
 GapD=    0.299 DampG=1.000 DampE=0.500 DampFc=0.5000 IDamp=-1.
 Damping current iteration by 5.00D-01
 RMSDP=2.89D-03 MaxDP=1.58D-01              OVMax= 2.02D-01

 Cycle   2  Pass 0  IDiag  1:
 RMSU=  1.43D-03    CP:  9.83D-01
 E= -2691.17576289357     Delta-E=       -0.413929174512 Rises=F Damp=T
 DIIS: error= 4.07D-03 at cycle   2 NSaved=   2.
 NSaved= 2 IEnMin= 2 EnMin= -2691.17576289357     IErMin= 2 ErrMin= 4.07D-03
 ErrMax= 4.07D-03  0.00D+00 EMaxC= 1.00D-01 BMatC= 1.13D-01 BMatP= 2.85D+00
 IDIUse=3 WtCom= 9.59D-01 WtEn= 4.07D-02
 Coeff-Com: -0.904D-03 0.100D+01
 Coeff-En:   0.000D+00 0.100D+01
 Coeff:     -0.867D-03 0.100D+01
 Gap=     0.290 Goal=   None    Shift=    0.000
 Gap=     0.290 Goal=   None    Shift=    0.000
 RMSDP=7.09D-04 MaxDP=3.15D-02 DE=-4.14D-01 OVMax= 1.47D-01

 Cycle   3  Pass 0  IDiag  1:
 RMSU=  6.99D-04    CP:  9.75D-01  1.02D+00
 E= -2691.59554625333     Delta-E=       -0.419783359764 Rises=F Damp=F
 DIIS: error= 2.36D-03 at cycle   3 NSaved=   3.
 NSaved= 3 IEnMin= 3 EnMin= -2691.59554625333     IErMin= 3 ErrMin= 2.36D-03
 ErrMax= 2.36D-03  0.00D+00 EMaxC= 1.00D-01 BMatC= 4.99D-02 BMatP= 1.13D-01
 IDIUse=3 WtCom= 9.76D-01 WtEn= 2.36D-02
 Coeff-Com: -0.210D-01 0.387D+00 0.634D+00
 Coeff-En:   0.000D+00 0.000D+00 0.100D+01
 Coeff:     -0.205D-01 0.378D+00 0.642D+00
 Gap=     0.246 Goal=   None    Shift=    0.000
 Gap=     0.246 Goal=   None    Shift=    0.000
 RMSDP=2.60D-04 MaxDP=1.94D-02 DE=-4.20D-01 OVMax= 3.04D-02

 Cycle   4  Pass 0  IDiag  1:
 RMSU=  2.16D-04    CP:  9.76D-01  1.07D+00  8.14D-01
 E= -2691.60684455069     Delta-E=       -0.011298297357 Rises=F Damp=F
 DIIS: error= 1.13D-03 at cycle   4 NSaved=   4.
 NSaved= 4 IEnMin= 4 EnMin= -2691.60684455069     IErMin= 4 ErrMin= 1.13D-03
 ErrMax= 1.13D-03  0.00D+00 EMaxC= 1.00D-01 BMatC= 1.25D-02 BMatP= 4.99D-02
 IDIUse=3 WtCom= 9.89D-01 WtEn= 1.13D-02
 Coeff-Com: -0.366D-02 0.688D-01 0.339D+00 0.596D+00
 Coeff-En:   0.000D+00 0.000D+00 0.144D+00 0.856D+00
 Coeff:     -0.362D-02 0.680D-01 0.337D+00 0.599D+00
 Gap=     0.247 Goal=   None    Shift=    0.000
 Gap=     0.247 Goal=   None    Shift=    0.000
 RMSDP=9.98D-05 MaxDP=7.71D-03 DE=-1.13D-02 OVMax= 1.24D-02

 Cycle   5  Pass 0  IDiag  1:
 RMSU=  6.88D-05    CP:  9.75D-01  1.06D+00  8.82D-01  7.55D-01
 E= -2691.61010209024     Delta-E=       -0.003257539554 Rises=F Damp=F
 DIIS: error= 2.87D-04 at cycle   5 NSaved=   5.
 NSaved= 5 IEnMin= 5 EnMin= -2691.61010209024     IErMin= 5 ErrMin= 2.87D-04
 ErrMax= 2.87D-04  0.00D+00 EMaxC= 1.00D-01 BMatC= 9.39D-04 BMatP= 1.25D-02
 IDIUse=3 WtCom= 9.97D-01 WtEn= 2.87D-03
 Coeff-Com:  0.342D-02-0.150D-01 0.822D-01 0.253D+00 0.676D+00
 Coeff-En:   0.000D+00 0.000D+00 0.000D+00 0.000D+00 0.100D+01
 Coeff:      0.341D-02-0.149D-01 0.819D-01 0.253D+00 0.677D+00
 Gap=     0.248 Goal=   None    Shift=    0.000
 Gap=     0.248 Goal=   None    Shift=    0.000
 RMSDP=4.00D-05 MaxDP=2.14D-03 DE=-3.26D-03 OVMax= 5.21D-03

 Cycle   6  Pass 0  IDiag  1:
 RMSU=  3.29D-05    CP:  9.75D-01  1.05D+00  9.00D-01  8.32D-01  9.43D-01
 E= -2691.61038187548     Delta-E=       -0.000279785238 Rises=F Damp=F
 DIIS: error= 1.91D-04 at cycle   6 NSaved=   6.
 NSaved= 6 IEnMin= 6 EnMin= -2691.61038187548     IErMin= 6 ErrMin= 1.91D-04
 ErrMax= 1.91D-04  0.00D+00 EMaxC= 1.00D-01 BMatC= 2.49D-04 BMatP= 9.39D-04
 IDIUse=3 WtCom= 9.98D-01 WtEn= 1.91D-03
 Coeff-Com:  0.334D-02-0.216D-01-0.966D-02 0.365D-01 0.365D+00 0.627D+00
 Coeff-En:   0.000D+00 0.000D+00 0.000D+00 0.000D+00 0.000D+00 0.100D+01
 Coeff:      0.334D-02-0.215D-01-0.964D-02 0.365D-01 0.364D+00 0.628D+00
 Gap=     0.249 Goal=   None    Shift=    0.000
 Gap=     0.249 Goal=   None    Shift=    0.000
 RMSDP=2.13D-05 MaxDP=1.04D-03 DE=-2.80D-04 OVMax= 2.37D-03

 Cycle   7  Pass 0  IDiag  1:
 RMSU=  1.55D-05    CP:  9.75D-01  1.05D+00  9.09D-01  8.55D-01  1.12D+00
                    CP:  9.39D-01
 E= -2691.61047409848     Delta-E=       -0.000092222998 Rises=F Damp=F
 DIIS: error= 5.26D-05 at cycle   7 NSaved=   7.
 NSaved= 7 IEnMin= 7 EnMin= -2691.61047409848     IErMin= 7 ErrMin= 5.26D-05
 ErrMax= 5.26D-05  0.00D+00 EMaxC= 1.00D-01 BMatC= 2.57D-05 BMatP= 2.49D-04
 IDIUse=1 WtCom= 1.00D+00 WtEn= 0.00D+00
 Coeff-Com:  0.802D-03-0.497D-02-0.154D-01-0.338D-01-0.153D-01 0.212D+00
 Coeff-Com:  0.857D+00
 Coeff:      0.802D-03-0.497D-02-0.154D-01-0.338D-01-0.153D-01 0.212D+00
 Coeff:      0.857D+00
 Gap=     0.249 Goal=   None    Shift=    0.000
 Gap=     0.249 Goal=   None    Shift=    0.000
 RMSDP=2.03D-05 MaxDP=5.98D-04 DE=-9.22D-05 OVMax= 1.77D-03

 Cycle   8  Pass 0  IDiag  1:
 RMSU=  1.60D-05    CP:  9.75D-01  1.05D+00  9.13D-01  8.70D-01  1.18D+00
                    CP:  1.19D+00  1.42D+00
 E= -2691.61049466182     Delta-E=       -0.000020563340 Rises=F Damp=F
 DIIS: error= 4.96D-05 at cycle   8 NSaved=   8.
 NSaved= 8 IEnMin= 8 EnMin= -2691.61049466182     IErMin= 8 ErrMin= 4.96D-05
 ErrMax= 4.96D-05  0.00D+00 EMaxC= 1.00D-01 BMatC= 6.99D-06 BMatP= 2.57D-05
 IDIUse=1 WtCom= 1.00D+00 WtEn= 0.00D+00
 Coeff-Com: -0.562D-04 0.569D-03-0.534D-02-0.218D-01-0.643D-01 0.181D-02
 Coeff-Com:  0.395D+00 0.694D+00
 Coeff:     -0.562D-04 0.569D-03-0.534D-02-0.218D-01-0.643D-01 0.181D-02
 Coeff:      0.395D+00 0.694D+00
 Gap=     0.249 Goal=   None    Shift=    0.000
 Gap=     0.249 Goal=   None    Shift=    0.000
 RMSDP=1.90D-05 MaxDP=5.23D-04 DE=-2.06D-05 OVMax= 6.13D-04

 Cycle   9  Pass 0  IDiag  1:
 RMSU=  1.08D-05    CP:  9.75D-01  1.05D+00  9.15D-01  8.75D-01  1.22D+00
                    CP:  1.31D+00  2.00D+00  1.74D+00
 E= -2691.61049862397     Delta-E=       -0.000003962147 Rises=F Damp=F
 DIIS: error= 4.82D-05 at cycle   9 NSaved=   9.
 NSaved= 9 IEnMin= 9 EnMin= -2691.61049862397     IErMin= 9 ErrMin= 4.82D-05
 ErrMax= 4.82D-05  0.00D+00 EMaxC= 1.00D-01 BMatC= 3.94D-06 BMatP= 6.99D-06
 IDIUse=1 WtCom= 1.00D+00 WtEn= 0.00D+00
 Coeff-Com: -0.444D-04 0.415D-03-0.357D-02-0.152D-01-0.457D-01-0.452D-03
 Coeff-Com:  0.271D+00 0.491D+00 0.302D+00
 Coeff:     -0.444D-04 0.415D-03-0.357D-02-0.152D-01-0.457D-01-0.452D-03
 Coeff:      0.271D+00 0.491D+00 0.302D+00
 Gap=     0.249 Goal=   None    Shift=    0.000
 Gap=     0.249 Goal=   None    Shift=    0.000
 RMSDP=9.20D-06 MaxDP=2.29D-04 DE=-3.96D-06 OVMax= 8.46D-05

 Initial convergence to 1.0D-05 achieved.  Increase integral accuracy.
 Cycle  10  Pass 1  IDiag  1:
 E= -2691.60989816545     Delta-E=        0.000600458519 Rises=F Damp=F
 DIIS: error= 2.90D-04 at cycle   1 NSaved=   1.
 NSaved= 1 IEnMin= 1 EnMin= -2691.60989816545     IErMin= 1 ErrMin= 2.90D-04
 ErrMax= 2.90D-04  0.00D+00 EMaxC= 1.00D-01 BMatC= 1.22D-04 BMatP= 1.22D-04
 IDIUse=3 WtCom= 9.97D-01 WtEn= 2.90D-03
 Coeff-Com:  0.100D+01
 Coeff-En:   0.100D+01
 Coeff:      0.100D+01
 Gap=     0.249 Goal=   None    Shift=    0.000
 Gap=     0.249 Goal=   None    Shift=    0.000
 RMSDP=9.20D-06 MaxDP=2.29D-04 DE= 6.00D-04 OVMax= 5.44D-04

 Cycle  11  Pass 1  IDiag  1:
 RMSU=  1.77D-04    CP:  1.00D+00
 E= -2691.60992398864     Delta-E=       -0.000025823189 Rises=F Damp=F
 DIIS: error= 1.12D-05 at cycle   2 NSaved=   2.
 NSaved= 2 IEnMin= 2 EnMin= -2691.60992398864     IErMin= 2 ErrMin= 1.12D-05
 ErrMax= 1.12D-05  0.00D+00 EMaxC= 1.00D-01 BMatC= 3.05D-07 BMatP= 1.22D-04
 IDIUse=1 WtCom= 1.00D+00 WtEn= 0.00D+00
 Coeff-Com: -0.353D-01 0.104D+01
 Coeff:     -0.353D-01 0.104D+01
 Gap=     0.249 Goal=   None    Shift=    0.000
 Gap=     0.249 Goal=   None    Shift=    0.000
 RMSDP=8.99D-06 MaxDP=2.93D-04 DE=-2.58D-05 OVMax= 1.11D-04

 Cycle  12  Pass 1  IDiag  1:
 RMSU=  2.56D-06    CP:  1.00D+00  1.05D+00
 E= -2691.60992411612     Delta-E=       -0.000000127478 Rises=F Damp=F
 DIIS: error= 3.39D-06 at cycle   3 NSaved=   3.
 NSaved= 3 IEnMin= 3 EnMin= -2691.60992411612     IErMin= 3 ErrMin= 3.39D-06
 ErrMax= 3.39D-06  0.00D+00 EMaxC= 1.00D-01 BMatC= 1.29D-07 BMatP= 3.05D-07
 IDIUse=1 WtCom= 1.00D+00 WtEn= 0.00D+00
 Coeff-Com: -0.173D-01 0.476D+00 0.541D+00
 Coeff:     -0.173D-01 0.476D+00 0.541D+00
 Gap=     0.249 Goal=   None    Shift=    0.000
 Gap=     0.249 Goal=   None    Shift=    0.000
 RMSDP=4.13D-07 MaxDP=2.44D-05 DE=-1.27D-07 OVMax= 5.22D-05

 Cycle  13  Pass 1  IDiag  1:
 RMSU=  3.82D-07    CP:  1.00D+00  1.05D+00  1.03D+00
 E= -2691.60992413492     Delta-E=       -0.000000018801 Rises=F Damp=F
 DIIS: error= 1.25D-06 at cycle   4 NSaved=   4.
 NSaved= 4 IEnMin= 4 EnMin= -2691.60992413492     IErMin= 4 ErrMin= 1.25D-06
 ErrMax= 1.25D-06  0.00D+00 EMaxC= 1.00D-01 BMatC= 1.54D-08 BMatP= 1.29D-07
 IDIUse=1 WtCom= 1.00D+00 WtEn= 0.00D+00
 Coeff-Com:  0.147D-02-0.564D-01 0.217D+00 0.838D+00
 Coeff:      0.147D-02-0.564D-01 0.217D+00 0.838D+00
 Gap=     0.249 Goal=   None    Shift=    0.000
 Gap=     0.249 Goal=   None    Shift=    0.000
 RMSDP=2.55D-07 MaxDP=1.39D-05 DE=-1.88D-08 OVMax= 3.08D-05

 Cycle  14  Pass 1  IDiag  1:
 RMSU=  1.61D-07    CP:  1.00D+00  1.05D+00  1.09D+00  9.84D-01
 E= -2691.60992414272     Delta-E=       -0.000000007798 Rises=F Damp=F
 DIIS: error= 4.49D-07 at cycle   5 NSaved=   5.
 NSaved= 5 IEnMin= 5 EnMin= -2691.60992414272     IErMin= 5 ErrMin= 4.49D-07
 ErrMax= 4.49D-07  0.00D+00 EMaxC= 1.00D-01 BMatC= 2.18D-09 BMatP= 1.54D-08
 IDIUse=1 WtCom= 1.00D+00 WtEn= 0.00D+00
 Coeff-Com:  0.199D-02-0.611D-01 0.370D-01 0.336D+00 0.686D+00
 Coeff:      0.199D-02-0.611D-01 0.370D-01 0.336D+00 0.686D+00
 Gap=     0.249 Goal=   None    Shift=    0.000
 Gap=     0.249 Goal=   None    Shift=    0.000
 RMSDP=7.26D-08 MaxDP=4.38D-06 DE=-7.80D-09 OVMax= 1.36D-05

 Cycle  15  Pass 1  IDiag  1:
 RMSU=  5.74D-08    CP:  1.00D+00  1.05D+00  1.09D+00  1.04D+00  1.20D+00
 E= -2691.60992414373     Delta-E=       -0.000000001010 Rises=F Damp=F
 DIIS: error= 2.01D-07 at cycle   6 NSaved=   6.
 NSaved= 6 IEnMin= 6 EnMin= -2691.60992414373     IErMin= 6 ErrMin= 2.01D-07
 ErrMax= 2.01D-07  0.00D+00 EMaxC= 1.00D-01 BMatC= 5.37D-10 BMatP= 2.18D-09
 IDIUse=1 WtCom= 1.00D+00 WtEn= 0.00D+00
 Coeff-Com:  0.296D-03-0.567D-02-0.563D-01-0.121D+00 0.275D+00 0.909D+00
 Coeff:      0.296D-03-0.567D-02-0.563D-01-0.121D+00 0.275D+00 0.909D+00
 Gap=     0.249 Goal=   None    Shift=    0.000
 Gap=     0.249 Goal=   None    Shift=    0.000
 RMSDP=5.86D-08 MaxDP=4.06D-06 DE=-1.01D-09 OVMax= 1.21D-05

 Cycle  16  Pass 1  IDiag  1:
 RMSU=  2.69D-08    CP:  1.00D+00  1.05D+00  1.10D+00  1.09D+00  1.50D+00
                    CP:  1.14D+00
 E= -2691.60992414432     Delta-E=       -0.000000000594 Rises=F Damp=F
 DIIS: error= 1.36D-07 at cycle   7 NSaved=   7.
 NSaved= 7 IEnMin= 7 EnMin= -2691.60992414432     IErMin= 7 ErrMin= 1.36D-07
 ErrMax= 1.36D-07  0.00D+00 EMaxC= 1.00D-01 BMatC= 1.80D-10 BMatP= 5.37D-10
 IDIUse=1 WtCom= 1.00D+00 WtEn= 0.00D+00
 Coeff-Com: -0.255D-03 0.986D-02-0.435D-01-0.145D+00 0.177D-01 0.539D+00
 Coeff-Com:  0.622D+00
 Coeff:     -0.255D-03 0.986D-02-0.435D-01-0.145D+00 0.177D-01 0.539D+00
 Coeff:      0.622D+00
 Gap=     0.249 Goal=   None    Shift=    0.000
 Gap=     0.249 Goal=   None    Shift=    0.000
 RMSDP=2.23D-08 MaxDP=1.86D-06 DE=-5.94D-10 OVMax= 4.09D-06

 Cycle  17  Pass 1  IDiag  1:
 RMSU=  1.09D-08    CP:  1.00D+00  1.05D+00  1.10D+00  1.11D+00  1.59D+00
                    CP:  1.32D+00  9.33D-01
 E= -2691.60992414443     Delta-E=       -0.000000000106 Rises=F Damp=F
 DIIS: error= 2.80D-08 at cycle   8 NSaved=   8.
 NSaved= 8 IEnMin= 8 EnMin= -2691.60992414443     IErMin= 8 ErrMin= 2.80D-08
 ErrMax= 2.80D-08  0.00D+00 EMaxC= 1.00D-01 BMatC= 6.68D-12 BMatP= 1.80D-10
 IDIUse=1 WtCom= 1.00D+00 WtEn= 0.00D+00
 Coeff-Com: -0.125D-03 0.452D-02-0.158D-01-0.553D-01-0.808D-02 0.180D+00
 Coeff-Com:  0.267D+00 0.628D+00
 Coeff:     -0.125D-03 0.452D-02-0.158D-01-0.553D-01-0.808D-02 0.180D+00
 Coeff:      0.267D+00 0.628D+00
 Gap=     0.249 Goal=   None    Shift=    0.000
 Gap=     0.249 Goal=   None    Shift=    0.000
 RMSDP=3.62D-09 MaxDP=1.84D-07 DE=-1.06D-10 OVMax= 6.13D-07

 SCF Done:  E(ULC-wPBE) =  -2691.60992414     A.U. after   17 cycles
            NFock= 17  Conv=0.36D-08     -V/T= 2.0044
 <Sx>= 0.0000 <Sy>= 0.0000 <Sz>= 0.0000 <S**2>=-0.0000 S=-0.0000
 <L.S>= 0.000000000000E+00
 KE= 2.679945583076D+03 PE=-1.461304511161D+04 EE= 5.096114333290D+03
 Annihilation of the first spin contaminant:
 S**2 before annihilation    -0.0000,   after     0.0000
 Leave Link  502 at Sat Jul 25 00:38:43 2020, MaxMem=  4026531840 cpu:            3189.6 elap:             407.6
 (Enter /opt/ohpc/pub/libs/gaussian/g16-A.03/sandybridge/g16/l601.exe)
 Copying SCF densities to generalized density rwf, IOpCl= 1 IROHF=0.

 **********************************************************************

            Population analysis using the SCF density.

 **********************************************************************

 Orbital symmetries:
 Alpha Orbitals:
       Occupied  (A) (A) (A) (A) (A) (A) (A) (A) (A) (A) (A) (A)
                 (A) (A) (A) (A) (A) (A) (A) (A) (A) (A) (A) (A)
                 (A) (A) (A) (A) (A) (A) (A) (A) (A) (A) (A) (A)
                 (A) (A) (A) (A) (A) (A) (A) (A) (A) (A) (A) (A)
                 (A) (A) (A) (A) (A) (A) (A) (A) (A) (A) (A) (A)
                 (A) (A) (A) (A) (A) (A) (A) (A) (A) (A) (A) (A)
                 (A) (A) (A) (A) (A) (A) (A) (A) (A) (A) (A) (A)
                 (A) (A) (A) (A) (A) (A) (A) (A) (A) (A) (A) (A)
                 (A) (A) (A) (A) (A) (A) (A) (A) (A) (A) (A) (A)
                 (A) (A) (A) (A) (A) (A) (A) (A) (A) (A) (A) (A)
                 (A) (A) (A) (A) (A) (A) (A) (A) (A) (A) (A) (A)
                 (A) (A) (A) (A) (A) (A) (A) (A) (A) (A) (A) (A)
                 (A) (A) (A) (A)
       Virtual   (A) (A) (A) (A) (A) (A) (A) (A) (A) (A) (A) (A)
                 (A) (A) (A) (A) (A) (A) (A) (A) (A) (A) (A) (A)
                 (A) (A) (A) (A) (A) (A) (A) (A) (A) (A) (A) (A)
                 (A) (A) (A) (A) (A) (A) (A) (A) (A) (A) (A) (A)
                 (A) (A) (A) (A) (A) (A) (A) (A) (A) (A) (A) (A)
                 (A) (A) (A) (A) (A) (A) (A) (A) (A) (A) (A) (A)
                 (A) (A) (A) (A) (A) (A) (A) (A) (A) (A) (A) (A)
                 (A) (A) (A) (A) (A) (A) (A) (A) (A) (A) (A) (A)
                 (A) (A) (A) (A) (A) (A) (A) (A) (A) (A) (A) (A)
                 (A) (A) (A) (A) (A) (A) (A) (A) (A) (A) (A) (A)
                 (A) (A) (A) (A) (A) (A) (A) (A) (A) (A) (A) (A)
                 (A) (A) (A) (A) (A) (A) (A) (A) (A) (A) (A) (A)
                 (A) (A) (A) (A) (A) (A) (A) (A) (A) (A) (A) (A)
                 (A) (A) (A) (A) (A) (A) (A) (A) (A) (A) (A) (A)
                 (A) (A) (A) (A) (A) (A) (A) (A) (A) (A) (A) (A)
                 (A) (A) (A) (A) (A) (A) (A) (A) (A) (A) (A) (A)
                 (A) (A) (A) (A) (A) (A) (A) (A) (A) (A) (A) (A)
                 (A) (A) (A) (A) (A) (A) (A) (A) (A) (A) (A) (A)
                 (A) (A) (A) (A) (A) (A) (A) (A) (A) (A) (A) (A)
                 (A) (A) (A) (A) (A) (A) (A) (A) (A) (A) (A) (A)
                 (A) (A) (A) (A) (A) (A) (A) (A) (A) (A) (A) (A)
                 (A) (A) (A) (A) (A) (A) (A) (A) (A) (A) (A) (A)
                 (A) (A) (A) (A) (A) (A) (A) (A) (A) (A) (A) (A)
                 (A) (A) (A) (A) (A) (A) (A) (A) (A) (A) (A) (A)
                 (A) (A) (A) (A) (A) (A) (A) (A) (A) (A) (A) (A)
                 (A) (A) (A) (A) (A) (A) (A) (A) (A) (A) (A) (A)
                 (A) (A) (A) (A) (A) (A) (A) (A) (A) (A) (A) (A)
                 (A) (A) (A) (A) (A) (A) (A) (A) (A) (A) (A) (A)
                 (A) (A) (A) (A) (A) (A) (A) (A) (A) (A) (A) (A)
                 (A) (A) (A) (A) (A) (A) (A) (A) (A) (A) (A) (A)
                 (A) (A) (A) (A) (A) (A) (A) (A) (A) (A) (A) (A)
                 (A) (A) (A) (A) (A) (A) (A) (A) (A) (A) (A) (A)
                 (A) (A) (A) (A) (A) (A) (A) (A) (A) (A) (A) (A)
                 (A) (A) (A) (A) (A) (A) (A) (A) (A) (A) (A) (A)
                 (A) (A) (A) (A) (A) (A) (A) (A) (A) (A) (A) (A)
                 (A) (A) (A) (A) (A) (A) (A) (A) (A) (A) (A) (A)
                 (A) (A) (A) (A) (A) (A) (A) (A) (A) (A) (A) (A)
                 (A) (A) (A) (A) (A) (A) (A) (A) (A) (A) (A) (A)
                 (A) (A) (A) (A) (A) (A) (A) (A) (A) (A) (A) (A)
                 (A) (A) (A) (A) (A) (A) (A) (A) (A) (A) (A) (A)
                 (A) (A) (A) (A) (A) (A) (A) (A) (A) (A) (A) (A)
                 (A) (A) (A) (A) (A) (A) (A) (A) (A) (A) (A) (A)
                 (A) (A) (A) (A) (A) (A) (A) (A) (A) (A) (A) (A)
                 (A) (A) (A) (A) (A) (A) (A) (A) (A) (A) (A) (A)
                 (A) (A) (A) (A) (A) (A) (A) (A) (A) (A) (A) (A)
 Beta  Orbitals:
       Occupied  (A) (A) (A) (A) (A) (A) (A) (A) (A) (A) (A) (A)
                 (A) (A) (A) (A) (A) (A) (A) (A) (A) (A) (A) (A)
                 (A) (A) (A) (A) (A) (A) (A) (A) (A) (A) (A) (A)
                 (A) (A) (A) (A) (A) (A) (A) (A) (A) (A) (A) (A)
                 (A) (A) (A) (A) (A) (A) (A) (A) (A) (A) (A) (A)
                 (A) (A) (A) (A) (A) (A) (A) (A) (A) (A) (A) (A)
                 (A) (A) (A) (A) (A) (A) (A) (A) (A) (A) (A) (A)
                 (A) (A) (A) (A) (A) (A) (A) (A) (A) (A) (A) (A)
                 (A) (A) (A) (A) (A) (A) (A) (A) (A) (A) (A) (A)
                 (A) (A) (A) (A) (A) (A) (A) (A) (A) (A) (A) (A)
                 (A) (A) (A) (A) (A) (A) (A) (A) (A) (A) (A) (A)
                 (A) (A) (A) (A) (A) (A) (A) (A) (A) (A) (A) (A)
                 (A) (A) (A) (A)
       Virtual   (A) (A) (A) (A) (A) (A) (A) (A) (A) (A) (A) (A)
                 (A) (A) (A) (A) (A) (A) (A) (A) (A) (A) (A) (A)
                 (A) (A) (A) (A) (A) (A) (A) (A) (A) (A) (A) (A)
                 (A) (A) (A) (A) (A) (A) (A) (A) (A) (A) (A) (A)
                 (A) (A) (A) (A) (A) (A) (A) (A) (A) (A) (A) (A)
                 (A) (A) (A) (A) (A) (A) (A) (A) (A) (A) (A) (A)
                 (A) (A) (A) (A) (A) (A) (A) (A) (A) (A) (A) (A)
                 (A) (A) (A) (A) (A) (A) (A) (A) (A) (A) (A) (A)
                 (A) (A) (A) (A) (A) (A) (A) (A) (A) (A) (A) (A)
                 (A) (A) (A) (A) (A) (A) (A) (A) (A) (A) (A) (A)
                 (A) (A) (A) (A) (A) (A) (A) (A) (A) (A) (A) (A)
                 (A) (A) (A) (A) (A) (A) (A) (A) (A) (A) (A) (A)
                 (A) (A) (A) (A) (A) (A) (A) (A) (A) (A) (A) (A)
                 (A) (A) (A) (A) (A) (A) (A) (A) (A) (A) (A) (A)
                 (A) (A) (A) (A) (A) (A) (A) (A) (A) (A) (A) (A)
                 (A) (A) (A) (A) (A) (A) (A) (A) (A) (A) (A) (A)
                 (A) (A) (A) (A) (A) (A) (A) (A) (A) (A) (A) (A)
                 (A) (A) (A) (A) (A) (A) (A) (A) (A) (A) (A) (A)
                 (A) (A) (A) (A) (A) (A) (A) (A) (A) (A) (A) (A)
                 (A) (A) (A) (A) (A) (A) (A) (A) (A) (A) (A) (A)
                 (A) (A) (A) (A) (A) (A) (A) (A) (A) (A) (A) (A)
                 (A) (A) (A) (A) (A) (A) (A) (A) (A) (A) (A) (A)
                 (A) (A) (A) (A) (A) (A) (A) (A) (A) (A) (A) (A)
                 (A) (A) (A) (A) (A) (A) (A) (A) (A) (A) (A) (A)
                 (A) (A) (A) (A) (A) (A) (A) (A) (A) (A) (A) (A)
                 (A) (A) (A) (A) (A) (A) (A) (A) (A) (A) (A) (A)
                 (A) (A) (A) (A) (A) (A) (A) (A) (A) (A) (A) (A)
                 (A) (A) (A) (A) (A) (A) (A) (A) (A) (A) (A) (A)
                 (A) (A) (A) (A) (A) (A) (A) (A) (A) (A) (A) (A)
                 (A) (A) (A) (A) (A) (A) (A) (A) (A) (A) (A) (A)
                 (A) (A) (A) (A) (A) (A) (A) (A) (A) (A) (A) (A)
                 (A) (A) (A) (A) (A) (A) (A) (A) (A) (A) (A) (A)
                 (A) (A) (A) (A) (A) (A) (A) (A) (A) (A) (A) (A)
                 (A) (A) (A) (A) (A) (A) (A) (A) (A) (A) (A) (A)
                 (A) (A) (A) (A) (A) (A) (A) (A) (A) (A) (A) (A)
                 (A) (A) (A) (A) (A) (A) (A) (A) (A) (A) (A) (A)
                 (A) (A) (A) (A) (A) (A) (A) (A) (A) (A) (A) (A)
                 (A) (A) (A) (A) (A) (A) (A) (A) (A) (A) (A) (A)
                 (A) (A) (A) (A) (A) (A) (A) (A) (A) (A) (A) (A)
                 (A) (A) (A) (A) (A) (A) (A) (A) (A) (A) (A) (A)
                 (A) (A) (A) (A) (A) (A) (A) (A) (A) (A) (A) (A)
                 (A) (A) (A) (A) (A) (A) (A) (A) (A) (A) (A) (A)
                 (A) (A) (A) (A) (A) (A) (A) (A) (A) (A) (A) (A)
                 (A) (A) (A) (A) (A) (A) (A) (A) (A) (A) (A) (A)
                 (A) (A) (A) (A) (A) (A) (A) (A) (A) (A) (A) (A)
 The electronic state is 1-A.
 Alpha  occ. eigenvalues --  -88.22041 -88.21592 -88.20744 -18.93095 -18.91276
 Alpha  occ. eigenvalues --  -18.90772 -10.08336 -10.07744 -10.07004 -10.06828
 Alpha  occ. eigenvalues --  -10.05744 -10.05619 -10.04937 -10.04584 -10.04461
 Alpha  occ. eigenvalues --  -10.04146 -10.04126 -10.03447 -10.03169 -10.03110
 Alpha  occ. eigenvalues --  -10.03035 -10.02851 -10.02816 -10.02810 -10.02649
 Alpha  occ. eigenvalues --  -10.02595 -10.02314 -10.02263 -10.02255 -10.02048
 Alpha  occ. eigenvalues --  -10.01731 -10.01675 -10.01655 -10.01361 -10.01250
 Alpha  occ. eigenvalues --  -10.00958 -10.00810 -10.00768 -10.00445  -7.82334
 Alpha  occ. eigenvalues --   -7.82011  -7.81349  -5.84311  -5.84001  -5.83882
 Alpha  occ. eigenvalues --   -5.83544  -5.83503  -5.83312  -5.83138  -5.82831
 Alpha  occ. eigenvalues --   -5.82498  -1.11465  -1.09391  -1.08527  -0.94562
 Alpha  occ. eigenvalues --   -0.94085  -0.93347  -0.91450  -0.90509  -0.89189
 Alpha  occ. eigenvalues --   -0.85173  -0.83283  -0.81509  -0.80364  -0.79985
 Alpha  occ. eigenvalues --   -0.79737  -0.79409  -0.79164  -0.78617  -0.78200
 Alpha  occ. eigenvalues --   -0.77477  -0.76712  -0.74256  -0.73455  -0.72027
 Alpha  occ. eigenvalues --   -0.69061  -0.66824  -0.66257  -0.66152  -0.65708
 Alpha  occ. eigenvalues --   -0.64719  -0.62743  -0.61801  -0.61332  -0.61196
 Alpha  occ. eigenvalues --   -0.60685  -0.60446  -0.59756  -0.59298  -0.58890
 Alpha  occ. eigenvalues --   -0.55798  -0.54851  -0.54299  -0.53860  -0.53718
 Alpha  occ. eigenvalues --   -0.53600  -0.52740  -0.52368  -0.52024  -0.51660
 Alpha  occ. eigenvalues --   -0.51088  -0.50570  -0.50162  -0.49484  -0.49438
 Alpha  occ. eigenvalues --   -0.49207  -0.48678  -0.48000  -0.47419  -0.47216
 Alpha  occ. eigenvalues --   -0.47052  -0.46785  -0.46535  -0.46086  -0.45897
 Alpha  occ. eigenvalues --   -0.45724  -0.44931  -0.44664  -0.43761  -0.43309
 Alpha  occ. eigenvalues --   -0.42857  -0.42319  -0.41675  -0.41351  -0.41030
 Alpha  occ. eigenvalues --   -0.40830  -0.40317  -0.39934  -0.39676  -0.39147
 Alpha  occ. eigenvalues --   -0.39093  -0.39032  -0.38757  -0.38292  -0.38223
 Alpha  occ. eigenvalues --   -0.37913  -0.34772  -0.33823  -0.32767  -0.32684
 Alpha  occ. eigenvalues --   -0.32527  -0.31425  -0.30955  -0.30588  -0.30209
 Alpha  occ. eigenvalues --   -0.27434  -0.26144  -0.24868
 Alpha virt. eigenvalues --    0.00025   0.02344   0.03847   0.04864   0.05146
 Alpha virt. eigenvalues --    0.05357   0.05742   0.07248   0.08377   0.09125
 Alpha virt. eigenvalues --    0.10141   0.11758   0.11998   0.12351   0.12675
 Alpha virt. eigenvalues --    0.12979   0.13323   0.13989   0.14255   0.14324
 Alpha virt. eigenvalues --    0.14542   0.14963   0.15254   0.16231   0.16473
 Alpha virt. eigenvalues --    0.16615   0.17041   0.17564   0.18125   0.18299
 Alpha virt. eigenvalues --    0.18564   0.18923   0.19197   0.19558   0.19912
 Alpha virt. eigenvalues --    0.20035   0.20372   0.20543   0.20907   0.21294
 Alpha virt. eigenvalues --    0.21372   0.21570   0.21747   0.22064   0.22666
 Alpha virt. eigenvalues --    0.23076   0.23220   0.23967   0.24404   0.24943
 Alpha virt. eigenvalues --    0.26229   0.26809   0.27373   0.30250   0.30832
 Alpha virt. eigenvalues --    0.31292   0.31745   0.32183   0.32600   0.33311
 Alpha virt. eigenvalues --    0.33799   0.34083   0.35392   0.35635   0.35909
 Alpha virt. eigenvalues --    0.36202   0.36403   0.36969   0.37657   0.38057
 Alpha virt. eigenvalues --    0.38758   0.40176   0.40845   0.41059   0.42532
 Alpha virt. eigenvalues --    0.43229   0.45155   0.45841   0.46587   0.46868
 Alpha virt. eigenvalues --    0.48244   0.48710   0.48808   0.48989   0.49342
 Alpha virt. eigenvalues --    0.49853   0.50169   0.50384   0.50661   0.50866
 Alpha virt. eigenvalues --    0.51034   0.51112   0.51537   0.51742   0.51897
 Alpha virt. eigenvalues --    0.51966   0.52156   0.52273   0.52415   0.52796
 Alpha virt. eigenvalues --    0.53209   0.53401   0.53605   0.53683   0.53870
 Alpha virt. eigenvalues --    0.53996   0.54351   0.54440   0.54823   0.54934
 Alpha virt. eigenvalues --    0.55017   0.55083   0.55582   0.55679   0.55894
 Alpha virt. eigenvalues --    0.56108   0.56534   0.56620   0.56750   0.57436
 Alpha virt. eigenvalues --    0.57647   0.57992   0.58089   0.58329   0.58620
 Alpha virt. eigenvalues --    0.58728   0.58952   0.58993   0.59314   0.59785
[...]
     2 C(13)  Bbb     0.0000     0.000     0.000     0.000  0.0186 -0.3667  0.9301
              Bcc     0.0000     0.000     0.000     0.000 -0.2589  0.8968  0.3587
 
              Baa    -0.0000    -0.000    -0.000    -0.000  0.4059  0.9079 -0.1047
     3 C(13)  Bbb     0.0000     0.000     0.000     0.000 -0.1978  0.1991  0.9598
              Bcc     0.0000     0.000     0.000     0.000  0.8922 -0.3689  0.2604
 
              Baa    -0.0000    -0.000    -0.000    -0.000 -0.3216  0.9446 -0.0658
     4 C(13)  Bbb    -0.0000    -0.000    -0.000    -0.000 -0.1615  0.0137  0.9868
              Bcc     0.0000     0.000     0.000     0.000  0.9330  0.3280  0.1482
 
              Baa    -0.0000    -0.000    -0.000    -0.000  0.9715  0.0094  0.2370
     5 C(13)  Bbb     0.0000     0.000     0.000     0.000 -0.2335  0.2146  0.9484
              Bcc     0.0000     0.000     0.000     0.000  0.0420  0.9766 -0.2107
 
              Baa    -0.0000    -0.000    -0.000    -0.000  0.9032 -0.3621  0.2305
     6 C(13)  Bbb     0.0000     0.000     0.000     0.000 -0.1019  0.3406  0.9347
              Bcc     0.0000     0.000     0.000     0.000  0.4170  0.8677 -0.2707
 
              Baa    -0.0000    -0.000    -0.000    -0.000  0.4940 -0.4683  0.7326
     7 C(13)  Bbb    -0.0000    -0.000    -0.000    -0.000  0.7527 -0.1914 -0.6299
              Bcc     0.0000     0.000     0.000     0.000  0.4352  0.8626  0.2579
 
              Baa    -0.0000    -0.000    -0.000    -0.000 -0.0132 -0.1713  0.9851
     8 C(13)  Bbb     0.0000     0.000     0.000     0.000  0.9818  0.1845  0.0453
              Bcc     0.0000     0.000     0.000     0.000 -0.1895  0.9678  0.1658
 
              Baa    -0.0000     0.000     0.000     0.000  0.9186 -0.1686 -0.3573
     9 O(17)  Bbb    -0.0000     0.000     0.000     0.000  0.3270 -0.1830  0.9271
              Bcc     0.0000    -0.000    -0.000    -0.000  0.2217  0.9686  0.1130
 
              Baa    -0.0000    -0.000    -0.000    -0.000  0.8565 -0.1007 -0.5063
    10 C(13)  Bbb    -0.0000    -0.000    -0.000    -0.000 -0.2463  0.7822 -0.5722
              Bcc     0.0000     0.000     0.000     0.000  0.4537  0.6148  0.6452
 
              Baa    -0.0000    -0.000    -0.000    -0.000 -0.0223 -0.2467  0.9688
    11 C(13)  Bbb    -0.0000    -0.000    -0.000    -0.000 -0.3906  0.8942  0.2187
              Bcc     0.0000     0.000     0.000     0.000  0.9203  0.3735  0.1163
 
              Baa    -0.0000    -0.000    -0.000    -0.000 -0.0347  0.9062  0.4215
    12 C(13)  Bbb    -0.0000    -0.000    -0.000    -0.000 -0.0957 -0.4228  0.9011
              Bcc     0.0000     0.000     0.000     0.000  0.9948 -0.0091  0.1013
 
              Baa    -0.0000    -0.000    -0.000    -0.000  0.6441  0.7412  0.1893
    13 S(33)  Bbb    -0.0000    -0.000    -0.000    -0.000  0.0630 -0.2980  0.9525
              Bcc     0.0000     0.000     0.000     0.000  0.7624 -0.6016 -0.2386
 
              Baa    -0.0000    -0.000    -0.000    -0.000  0.4809  0.7882 -0.3840
    14 C(13)  Bbb     0.0000     0.000     0.000     0.000  0.8525 -0.5227 -0.0052
              Bcc     0.0000     0.000     0.000     0.000  0.2048  0.3249  0.9233
 
              Baa    -0.0000    -0.000    -0.000    -0.000 -0.0711  0.7514 -0.6560
    15 C(13)  Bbb     0.0000     0.000     0.000     0.000  0.4465  0.6121  0.6527
              Bcc     0.0000     0.000     0.000     0.000  0.8920 -0.2465 -0.3790
 
              Baa    -0.0000    -0.000    -0.000    -0.000  0.1187  0.6542  0.7469
    16 C(13)  Bbb    -0.0000    -0.000    -0.000    -0.000  0.0854  0.7427 -0.6641
              Bcc     0.0000     0.000     0.000     0.000  0.9893 -0.1426 -0.0322
 
              Baa    -0.0000    -0.000    -0.000    -0.000 -0.0514  0.3333  0.9414
    17 C(13)  Bbb     0.0000     0.000     0.000     0.000 -0.3004  0.8939 -0.3328
              Bcc     0.0000     0.000     0.000     0.000  0.9524  0.2999 -0.0541
 
              Baa    -0.0000    -0.000    -0.000    -0.000  0.9702 -0.2368 -0.0513
    18 C(13)  Bbb     0.0000     0.000     0.000     0.000  0.2203  0.9503 -0.2200
              Bcc     0.0000     0.000     0.000     0.000  0.1009  0.2022  0.9741
 
              Baa    -0.0000    -0.000    -0.000    -0.000 -0.0228  0.9277 -0.3727
    19 C(13)  Bbb     0.0000     0.000     0.000     0.000 -0.1877  0.3622  0.9130
              Bcc     0.0000     0.000     0.000     0.000  0.9820  0.0907  0.1659
 
              Baa    -0.0000    -0.000    -0.000    -0.000 -0.3205  0.9465  0.0379
    20 C(13)  Bbb     0.0000     0.000     0.000     0.000 -0.0048 -0.0416  0.9991
              Bcc     0.0000     0.000     0.000     0.000  0.9473  0.3200  0.0178
 
              Baa    -0.0000    -0.000    -0.000    -0.000 -0.6090  0.7552 -0.2424
    21 C(13)  Bbb     0.0000     0.000     0.000     0.000 -0.6112 -0.2521  0.7503
              Bcc     0.0000     0.000     0.000     0.000  0.5055  0.6051  0.6151
 
              Baa    -0.0000     0.000     0.000     0.000  0.9494 -0.2962  0.1044
    22 O(17)  Bbb     0.0000    -0.000    -0.000    -0.000  0.0068  0.3519  0.9360
              Bcc     0.0000    -0.000    -0.000    -0.000  0.3140  0.8879 -0.3361
 
              Baa    -0.0000    -0.000    -0.000    -0.000  0.8771  0.2492 -0.4105
    23 C(13)  Bbb     0.0000     0.000     0.000     0.000  0.3521  0.2476  0.9026
              Bcc     0.0000     0.000     0.000     0.000 -0.3265  0.9363 -0.1295
 
              Baa    -0.0000    -0.000    -0.000    -0.000  0.1499  0.0387  0.9879
    24 C(13)  Bbb    -0.0000    -0.000    -0.000    -0.000  0.9885 -0.0239 -0.1490
              Bcc     0.0000     0.000     0.000     0.000  0.0179  0.9990 -0.0418
 
              Baa    -0.0000    -0.000    -0.000    -0.000  0.8711  0.4880 -0.0552
    25 C(13)  Bbb     0.0000     0.000     0.000     0.000  0.3357 -0.5096  0.7922
              Bcc     0.0000     0.000     0.000     0.000 -0.3585  0.7086  0.6077
 
              Baa    -0.0000    -0.000    -0.000    -0.000 -0.4046  0.9100  0.0905
    26 S(33)  Bbb    -0.0000    -0.000    -0.000    -0.000  0.0040 -0.0972  0.9953
              Bcc     0.0000     0.000     0.000     0.000  0.9145  0.4030  0.0357
 
              Baa    -0.0000    -0.000    -0.000    -0.000 -0.0373  0.9865  0.1592
    27 C(13)  Bbb     0.0000     0.000     0.000     0.000  0.3809 -0.1332  0.9150
              Bcc     0.0000     0.000     0.000     0.000  0.9239  0.0948 -0.3708
 
              Baa    -0.0000    -0.000    -0.000    -0.000  0.0740  0.3271  0.9421
    28 C(13)  Bbb    -0.0000    -0.000    -0.000    -0.000  0.7642 -0.6255  0.1571
              Bcc     0.0000     0.000     0.000     0.000  0.6407  0.7083 -0.2963
 
              Baa    -0.0000    -0.000    -0.000    -0.000  0.9141 -0.2930  0.2804
    29 C(13)  Bbb     0.0000     0.000     0.000     0.000 -0.1616  0.3710  0.9145
              Bcc     0.0000     0.000     0.000     0.000  0.3719  0.8812 -0.2917
 
              Baa    -0.0000    -0.000    -0.000    -0.000  0.7352 -0.0209 -0.6775
    30 C(13)  Bbb    -0.0000    -0.000    -0.000    -0.000  0.5521  0.5983  0.5807
              Bcc     0.0000     0.000     0.000     0.000 -0.3933  0.8010 -0.4514
 
              Baa    -0.0000    -0.000    -0.000    -0.000  0.3131  0.9019 -0.2976
    31 C(13)  Bbb    -0.0000    -0.000    -0.000    -0.000 -0.1546  0.3576  0.9210
              Bcc     0.0000     0.000     0.000     0.000  0.9370 -0.2424  0.2514
 
              Baa    -0.0000    -0.000    -0.000    -0.000 -0.3749  0.3302  0.8663
    32 C(13)  Bbb    -0.0000    -0.000    -0.000    -0.000  0.9267  0.1094  0.3594
              Bcc     0.0000     0.000     0.000     0.000  0.0239  0.9376 -0.3470
 
              Baa    -0.0000    -0.000    -0.000    -0.000  0.9888  0.1487  0.0108
    33 C(13)  Bbb     0.0000     0.000     0.000     0.000 -0.0096 -0.0090  0.9999
              Bcc     0.0000     0.000     0.000     0.000 -0.1488  0.9888  0.0075
 
              Baa    -0.0000    -0.000    -0.000    -0.000 -0.2008  0.9092  0.3647
    34 C(13)  Bbb    -0.0000    -0.000    -0.000    -0.000  0.9791  0.1985  0.0444
              Bcc     0.0000     0.000     0.000     0.000  0.0320 -0.3660  0.9301
 
              Baa    -0.0000     0.000     0.000     0.000  0.2992  0.8449 -0.4434
    35 O(17)  Bbb     0.0000    -0.000    -0.000    -0.000  0.3103  0.3533  0.8826
              Bcc     0.0000    -0.000    -0.000    -0.000  0.9023 -0.4016 -0.1565
 
              Baa    -0.0000    -0.000    -0.000    -0.000 -0.1887 -0.0978  0.9771
    36 C(13)  Bbb    -0.0000    -0.000    -0.000    -0.000  0.7335  0.6475  0.2065
              Bcc     0.0000     0.000     0.000     0.000 -0.6529  0.7557 -0.0505
 
              Baa    -0.0000    -0.000    -0.000    -0.000 -0.0711  0.1147  0.9909
    37 C(13)  Bbb     0.0000     0.000     0.000     0.000 -0.4601  0.8776 -0.1346
              Bcc     0.0000     0.000     0.000     0.000  0.8850  0.4655  0.0097
 
              Baa    -0.0000    -0.000    -0.000    -0.000 -0.3571  0.9265 -0.1188
    38 C(13)  Bbb    -0.0000    -0.000    -0.000    -0.000 -0.0933  0.0911  0.9915
              Bcc     0.0000     0.000     0.000     0.000  0.9294  0.3652  0.0539
 
              Baa    -0.0000    -0.000    -0.000    -0.000  0.4552  0.8763 -0.1581
    39 S(33)  Bbb     0.0000     0.000     0.000     0.000  0.8451 -0.3692  0.3867
              Bcc     0.0000     0.000     0.000     0.000 -0.2805  0.3096  0.9085
 
              Baa    -0.0000    -0.000    -0.000    -0.000  0.0133 -0.0553  0.9984
    40 H(1)   Bbb    -0.0000    -0.000    -0.000    -0.000 -0.5863  0.8084  0.0526
              Bcc     0.0000     0.000     0.000     0.000  0.8100  0.5861  0.0217
 
              Baa    -0.0000    -0.000    -0.000    -0.000 -0.0125  0.9945 -0.1035
    41 H(1)   Bbb     0.0000     0.000     0.000     0.000  0.9728  0.0361  0.2288
              Bcc     0.0000     0.000     0.000     0.000 -0.2313  0.0978  0.9679
 
              Baa    -0.0000    -0.000    -0.000    -0.000  0.9595 -0.1740  0.2214
    42 H(1)   Bbb     0.0000     0.000     0.000     0.000  0.1443  0.9790  0.1441
              Bcc     0.0000     0.000     0.000     0.000 -0.2418 -0.1063  0.9645
 
              Baa    -0.0000    -0.000    -0.000    -0.000 -0.4588  0.3198  0.8290
    43 H(1)   Bbb     0.0000     0.000     0.000     0.000  0.7332 -0.3908  0.5565
              Bcc     0.0000     0.000     0.000     0.000  0.5020  0.8631 -0.0552
 
              Baa    -0.0000    -0.000    -0.000    -0.000 -0.6185  0.7541 -0.2211
    44 H(1)   Bbb     0.0000     0.000     0.000     0.000 -0.1002  0.2034  0.9740
              Bcc     0.0000     0.000     0.000     0.000  0.7794  0.6245 -0.0503
 
              Baa    -0.0000    -0.000    -0.000    -0.000 -0.3038 -0.4759  0.8254
    45 H(1)   Bbb    -0.0000    -0.000    -0.000    -0.000  0.4862  0.6675  0.5639
              Bcc     0.0000     0.000     0.000     0.000  0.8193 -0.5726 -0.0286
 
              Baa    -0.0000    -0.000    -0.000    -0.000  0.5824 -0.1921  0.7899
    46 H(1)   Bbb     0.0000     0.000     0.000     0.000  0.8126  0.1097 -0.5725
              Bcc     0.0000     0.000     0.000     0.000  0.0233  0.9752  0.2199
 
              Baa    -0.0000    -0.000    -0.000    -0.000  0.8391  0.0366 -0.5427
    47 H(1)   Bbb    -0.0000    -0.000    -0.000    -0.000  0.0043  0.9973  0.0739
              Bcc     0.0000     0.000     0.000     0.000  0.5439 -0.0643  0.8367
 
              Baa    -0.0000    -0.000    -0.000    -0.000 -0.1321  0.0420  0.9903
    48 H(1)   Bbb     0.0000     0.000     0.000     0.000 -0.1633  0.9845 -0.0636
              Bcc     0.0000     0.000     0.000     0.000  0.9777  0.1701  0.1232
 
              Baa    -0.0000    -0.000    -0.000    -0.000  0.5693  0.3053  0.7634
    49 H(1)   Bbb    -0.0000    -0.000    -0.000    -0.000  0.8189 -0.2928 -0.4936
              Bcc     0.0000     0.000     0.000     0.000  0.0728  0.9061 -0.4167
 
              Baa    -0.0000    -0.000    -0.000    -0.000 -0.0024  0.1702  0.9854
    50 H(1)   Bbb    -0.0000    -0.000    -0.000    -0.000  0.7650  0.6350 -0.1079
              Bcc     0.0000     0.000     0.000     0.000 -0.6441  0.7535 -0.1317
 
              Baa    -0.0000    -0.000    -0.000    -0.000  0.4716  0.7977 -0.3759
    51 H(1)   Bbb     0.0000     0.000     0.000     0.000  0.3349  0.2323  0.9131
              Bcc     0.0000     0.000     0.000     0.000  0.8157 -0.5565 -0.1576
 
              Baa    -0.0000    -0.000    -0.000    -0.000 -0.5297  0.7969 -0.2905
    52 H(1)   Bbb     0.0000     0.000     0.000     0.000  0.3479  0.5165  0.7824
              Bcc     0.0000     0.000     0.000     0.000  0.7735  0.3134 -0.5508
 
              Baa    -0.0000    -0.000    -0.000    -0.000 -0.6363  0.2245  0.7381
    53 H(1)   Bbb     0.0000     0.000     0.000     0.000  0.7305 -0.1324  0.6700
              Bcc     0.0000     0.000     0.000     0.000  0.2481  0.9654 -0.0798
 
              Baa    -0.0000    -0.000    -0.000    -0.000  0.8282 -0.5075  0.2377
    54 H(1)   Bbb    -0.0000    -0.000    -0.000    -0.000 -0.5084 -0.5020  0.6997
              Bcc     0.0000     0.000     0.000     0.000  0.2358  0.7003  0.6738
 
              Baa    -0.0000    -0.000    -0.000    -0.000  0.0521  0.9312  0.3607
    55 H(1)   Bbb    -0.0000    -0.000    -0.000    -0.000  0.0641 -0.3636  0.9294
              Bcc     0.0000     0.000     0.000     0.000  0.9966 -0.0253 -0.0787
 
              Baa    -0.0000    -0.000    -0.000    -0.000  0.7687  0.5699 -0.2904
    56 H(1)   Bbb    -0.0000    -0.000    -0.000    -0.000  0.2462  0.1553  0.9567
              Bcc     0.0000     0.000     0.000     0.000 -0.5903  0.8069  0.0209
 
              Baa    -0.0000    -0.000    -0.000    -0.000 -0.2615 -0.1849  0.9473
    57 H(1)   Bbb    -0.0000    -0.000    -0.000    -0.000  0.1819  0.9545  0.2365
              Bcc     0.0000     0.000     0.000     0.000  0.9479 -0.2341  0.2160
 
              Baa    -0.0000    -0.000    -0.000    -0.000  0.9447 -0.0295  0.3266
    58 H(1)   Bbb    -0.0000    -0.000    -0.000    -0.000 -0.2531  0.5677  0.7833
              Bcc     0.0000     0.000     0.000     0.000  0.2085  0.8227 -0.5288
 
              Baa    -0.0000    -0.000    -0.000    -0.000 -0.1823  0.4600  0.8690
    59 H(1)   Bbb    -0.0000    -0.000    -0.000    -0.000  0.8450  0.5252 -0.1008
              Bcc     0.0000     0.000     0.000     0.000 -0.5028  0.7159 -0.4845
 
              Baa    -0.0000    -0.000    -0.000    -0.000 -0.0924  0.5580  0.8247
    60 H(1)   Bbb    -0.0000    -0.000    -0.000    -0.000  0.9506 -0.1972  0.2399
              Bcc     0.0000     0.000     0.000     0.000  0.2965  0.8061 -0.5122
 
              Baa    -0.0000    -0.000    -0.000    -0.000  0.6840  0.6610 -0.3087
    61 H(1)   Bbb     0.0000     0.000     0.000     0.000  0.3287  0.0985  0.9393
              Bcc     0.0000     0.000     0.000     0.000 -0.6512  0.7439  0.1498
 
              Baa    -0.0000    -0.000    -0.000    -0.000 -0.0172 -0.6189  0.7853
    62 H(1)   Bbb    -0.0000    -0.000    -0.000    -0.000  0.7572  0.5048  0.4145
              Bcc     0.0000     0.000     0.000     0.000  0.6529 -0.6018 -0.4600
 
              Baa    -0.0000    -0.000    -0.000    -0.000  0.0806  0.5535  0.8289
    63 H(1)   Bbb     0.0000     0.000     0.000     0.000  0.6297  0.6164 -0.4728
              Bcc     0.0000     0.000     0.000     0.000  0.7726 -0.5601  0.2989
 
              Baa    -0.0000    -0.000    -0.000    -0.000  0.9493  0.3062 -0.0711
    64 H(1)   Bbb    -0.0000    -0.000    -0.000    -0.000  0.0349  0.1220  0.9919
              Bcc     0.0000     0.000     0.000     0.000 -0.3124  0.9441 -0.1052
 
              Baa    -0.0000    -0.000    -0.000    -0.000  0.9310 -0.3646  0.0150
    65 H(1)   Bbb     0.0000     0.000     0.000     0.000  0.2864  0.7048 -0.6490
              Bcc     0.0000     0.000     0.000     0.000  0.2261  0.6085  0.7606
 

 ---------------------------------------------------------------------------------

 No NMR shielding tensors so no spin-rotation constants.
 Leave Link  601 at Sat Jul 25 02:33:18 2020, MaxMem=  4026531840 cpu:               6.4 elap:               0.9
 (Enter /opt/ohpc/pub/libs/gaussian/g16-A.03/sandybridge/g16/l9999.exe)

 Test job not archived.
 1\1\GINC-SKYLAKE054\FOpt\ULC-wPBE\CC-pVDZ\C33H26O3S3\RDU230\25-Jul-202
 0\0\\#P uLC-wPBE/cc-pVDZ iop(3/107=0209900000, 3/108=0209900000) opt\\
 H26 C33 S3 O3\\0,1\C,11.7274112791,0.8339884049,0.2016663354\C,10.7267
 802367,1.7204069754,-0.2107899035\C,9.3963414794,1.3019753155,-0.27162
 60634\C,9.0282549764,-0.0113377913,0.0879672623\C,10.0466006077,-0.894
 3899351,0.5037483686\C,11.3776891711,-0.4732419898,0.5554322295\C,7.61
 91202513,-0.4369342004,0.0391991324\C,7.0757802058,-1.713163339,-0.075
 2882945\O,7.8872406576,-2.808509396,-0.1606931589\C,7.249671043,-4.058
 8853202,-0.3800364588\C,5.6476740452,-1.7294010361,-0.1112076552\C,5.0
 912610377,-0.4689261941,-0.0183111788\S,6.330848903,0.7373851424,0.128
 5954258\C,3.6650291134,-0.1026819595,-0.0144407771\C,3.2191724907,1.14
 24286985,-0.4945318671\C,1.8667235836,1.480137676,-0.49587248\C,0.8928
 574583,0.5787654041,-0.0174038383\C,1.3431293479,-0.6673728349,0.46754
 13064\C,2.6951389458,-1.0006319838,0.4705479493\C,-0.5388753419,0.9123
 104234,-0.0270611984\C,-1.166682745,2.1540535096,-0.0858715819\O,-0.43
 07497169,3.3019628342,-0.1479724187\C,-1.1509981684,4.5263714354,-0.10
 53650339\C,-2.5927527971,2.0798218178,-0.0533182288\C,-3.0640009673,0.
 7841550373,0.0242156504\S,-1.7470757131,-0.3464765739,0.0419119734\C,-
 4.4628650546,0.3262537992,0.0692584059\C,-4.8281330373,-0.8685048211,0
 .717170778\C,-6.1569078894,-1.283697092,0.7622503826\C,-7.1840993319,-
 0.5267143117,0.1622730735\C,-6.8166800186,0.6704051601,-0.4866868392\C
 ,-5.4858308254,1.0823349583,-0.5328497098\C,-8.5829636504,-0.981829727
 5,0.2043597673\C,-9.7604688596,-0.2516402114,0.0674332977\O,-9.7222276
 695,1.095670537,-0.1504205515\C,-10.9713039004,1.7731117879,-0.1758751
 94\C,-10.9459872965,-1.0465123553,0.1877957867\C,-10.659167672,-2.3714
 242848,0.4072591486\S,-8.965962496,-2.6656076062,0.465831523\H,12.7745
 529222,1.1604647231,0.2453251773\H,10.9839984116,2.7487244164,-0.49723
 05156\H,8.6265448941,2.0052000837,-0.6176419237\H,9.78340879,-1.918088
 5924,0.7881625271\H,12.1523502995,-1.179289557,0.8832940023\H,8.058193
 8173,-4.8058052265,-0.4493256736\H,6.5771374264,-4.3304482925,0.460195
 744\H,6.6700977114,-4.0622161567,-1.3262301168\H,5.0413101961,-2.63101
 62959,-0.2361143682\H,3.9481225461,1.8579227995,-0.8987286097\H,1.5518
 032591,2.4537301765,-0.883504462\H,0.6192212188,-1.385744381,0.8753690
 93\H,3.0093771061,-1.9666435969,0.8861124711\H,-1.7402972524,4.6210932
 337,0.8298456378\H,-1.8293036062,4.6338443991,-0.9771663009\H,-0.39336
 6432,5.3270721908,-0.1376656701\H,-3.2583539632,2.9475637733,-0.051493
 5379\H,-4.0593061304,-1.4716412076,1.2184713916\H,-6.4048440587,-2.210
 4494227,1.2969980182\H,-7.5889171417,1.2760181844,-0.9711029481\H,-5.2
 302035425,2.0022697621,-1.0745294509\H,-10.7365388133,2.8406665168,-0.
 3224567626\H,-11.5222029725,1.650204154,0.7793334648\H,-11.6103800843,
 1.4248870056,-1.0137740537\H,-11.9667028157,-0.6604008939,0.1157691263
 \H,-11.3640974682,-3.197989749,0.5295383755\\Version=EM64L-G16RevA.03\
 State=1-A\HF=-2691.7309486\S2=0.\S2-1=0.\S2A=0.\RMSD=8.057e-09\RMSF=2.
 547e-06\Dipole=-2.3415857,0.3042365,-0.1151873\Quadrupole=19.2101444,8
 .1466282,-27.3567726,-17.2738777,-0.412717,-5.2068675\PG=C01 [X(C33H26
 O3S3)]\\@


 ONE BIG VICE IN A MAN IS APT TO KEEP OUT MANY SMALLER ONES.

                           -- BRET HARTE
 Job cpu time:       0 days 15 hours 50 minutes 14.4 seconds.
 Elapsed time:       0 days  2 hours  1 minutes 30.8 seconds.
 File lengths (MBytes):  RWF=    576 Int=      0 D2E=      0 Chk=     52 Scr=      8
 Normal termination of Gaussian 16 at Sat Jul 25 02:33:18 2020.
