 Entering Gaussian System, Link 0=g16
 Input=mols_65_7_07_c-n-COC_opt_0.gjf
 Output=mols_65_7_07_c-n-COC_opt_0.log
 Initial command:
 /opt/ohpc/pub/libs/gaussian/g16-A.03/sandybridge/g16/l1.exe "/mnt/gpfs2_4m/scratch/rdu230/ondemand/projects/dihedral_energies/7trial/wtuning/mols_65_7_07_c-n-COC/Gau-440815.inp" -scrdir="/mnt/gpfs2_4m/scratch/rdu230/ondemand/projects/dihedral_energies/7trial/wtuning/mols_65_7_07_c-n-COC/"
 Entering Link 1 = /opt/ohpc/pub/libs/gaussian/g16-A.03/sandybridge/g16/l1.exe PID=    440816.
  
 Copyright (c) 1988,1990,1992,1993,1995,1998,2003,2009,2016,
            Gaussian, Inc.  All Rights Reserved.
  
 This is part of the Gaussian(R) 16 program.  It is based on
 the Gaussian(R) 09 system (copyright 2009, Gaussian, Inc.),
 the Gaussian(R) 03 system (copyright 2003, Gaussian, Inc.),
 the Gaussian(R) 98 system (copyright 1998, Gaussian, Inc.),
 the Gaussian(R) 94 system (copyright 1995, Gaussian, Inc.),
 the Gaussian 92(TM) system (copyright 1992, Gaussian, Inc.),
 the Gaussian 90(TM) system (copyright 1990, Gaussian, Inc.),
 the Gaussian 88(TM) system (copyright 1988, Gaussian, Inc.),
 the Gaussian 86(TM) system (copyright 1986, Carnegie Mellon
 University), and the Gaussian 82(TM) system (copyright 1983,
 Carnegie Mellon University). Gaussian is a federally registered
 trademark of Gaussian, Inc.
  
 This software contains proprietary and confidential information,
 including trade secrets, belonging to Gaussian, Inc.
  
 This software is provided under written license and may be
 used, copied, transmitted, or stored only in accord with that
 written license.
  
 The following legend is applicable only to US Government
 contracts under FAR:
  
                    RESTRICTED RIGHTS LEGEND
  
 Use, reproduction and disclosure by the US Government is
 subject to restrictions as set forth in subparagraphs (a)
 and (c) of the Commercial Computer Software - Restricted
 Rights clause in FAR 52.227-19.
  
 Gaussian, Inc.
 340 Quinnipiac St., Bldg. 40, Wallingford CT 06492
  
  
 ---------------------------------------------------------------
 Warning -- This program may not be used in any manner that
 competes with the business of Gaussian, Inc. or will provide
 assistance to any competitor of Gaussian, Inc.  The licensee
 of this program is prohibited from giving any competitor of
 Gaussian, Inc. access to this program.  By using this program,
 the user acknowledges that Gaussian, Inc. is engaged in the
 business of creating and licensing software in the field of
 computational chemistry and represents and warrants to the
 licensee that it is not a competitor of Gaussian, Inc. and that
 it will not use this program in any manner prohibited above.
 ---------------------------------------------------------------
  

 Cite this work as:
 Gaussian 16, Revision A.03,
 M. J. Frisch, G. W. Trucks, H. B. Schlegel, G. E. Scuseria, 
 M. A. Robb, J. R. Cheeseman, G. Scalmani, V. Barone, 
 G. A. Petersson, H. Nakatsuji, X. Li, M. Caricato, A. V. Marenich, 
 J. Bloino, B. G. Janesko, R. Gomperts, B. Mennucci, H. P. Hratchian, 
 J. V. Ortiz, A. F. Izmaylov, J. L. Sonnenberg, D. Williams-Young, 
 F. Ding, F. Lipparini, F. Egidi, J. Goings, B. Peng, A. Petrone, 
 T. Henderson, D. Ranasinghe, V. G. Zakrzewski, J. Gao, N. Rega, 
 G. Zheng, W. Liang, M. Hada, M. Ehara, K. Toyota, R. Fukuda, 
 J. Hasegawa, M. Ishida, T. Nakajima, Y. Honda, O. Kitao, H. Nakai, 
 T. Vreven, K. Throssell, J. A. Montgomery, Jr., J. E. Peralta, 
 F. Ogliaro, M. J. Bearpark, J. J. Heyd, E. N. Brothers, K. N. Kudin, 
 V. N. Staroverov, T. A. Keith, R. Kobayashi, J. Normand, 
 K. Raghavachari, A. P. Rendell, J. C. Burant, S. S. Iyengar, 
 J. Tomasi, M. Cossi, J. M. Millam, M. Klene, C. Adamo, R. Cammi, 
 J. W. Ochterski, R. L. Martin, K. Morokuma, O. Farkas, 
 J. B. Foresman, and D. J. Fox, Gaussian, Inc., Wallingford CT, 2016.
 
 ******************************************
 Gaussian 16:  EM64L-G16RevA.03 25-Dec-2016
                23-Jul-2020 
 ******************************************
 %mem=30GB
 %nproc=8
 Will use up to    8 processors via shared memory.
 ---------------------------------------------------------------
 #P uLC-wPBE/cc-pVDZ iop(3/107=0080500000, 3/108=0080500000) opt
 ---------------------------------------------------------------
 1/18=20,19=15,26=3,38=1/1,3;
 2/9=110,12=2,17=6,18=5,40=1/2;
 3/5=16,11=2,25=1,30=1,71=1,74=-41,107=80500000,108=80500000,116=2/1,2,3;
 4//1;
 5/5=2,38=5/2;
 6/7=2,8=2,9=2,10=2,28=1/1;
 7//1,2,3,16;
 1/18=20,19=15,26=3/3(2);
 2/9=110/2;
 99//99;
 2/9=110/2;
 3/5=16,11=2,25=1,30=1,71=1,74=-41,107=80500000,108=80500000,116=2/1,2,3;
 4/5=5,16=3,69=1/1;
 5/5=2,38=5/2;
 7//1,2,3,16;
 1/18=20,19=15,26=3/3(-5);
 2/9=110/2;
 6/7=2,8=2,9=2,10=2,19=2,28=1/1;
 99/9=1/99;
 Leave Link    1 at Thu Jul 23 23:40:55 2020, MaxMem=  4026531840 cpu:               1.0 elap:               0.2
 (Enter /opt/ohpc/pub/libs/gaussian/g16-A.03/sandybridge/g16/l101.exe)
 ----------------
 H51 C70 S7 N7 O7
 ----------------
 Symbolic Z-matrix:
 Charge =  0 Multiplicity = 1
 C                    -23.81037   6.54546  -0.07362 
 C                    -24.52149   5.55954  -0.7718 
 C                    -23.95492   4.35847  -1.04878 
 C                    -22.70166   3.99868  -0.56018 
 N                    -21.98481   4.90436   0.21369 
 C                    -22.59681   6.11163   0.46875 
 C                    -22.09507   2.63429  -0.75412 
 C                    -22.68834   1.45019  -1.13183 
 O                    -23.95741   1.37587  -1.34737 
 C                    -24.41634  -0.00683  -1.72283 
 C                    -21.65251   0.47725  -1.21588 
 C                    -20.4225   0.87906  -0.85687 
 S                    -20.42721   2.50734  -0.49013 
 C                    -19.12111   0.14031  -0.72496 
 C                    -19.11766  -1.1812   -0.1881 
 C                    -17.89049  -1.80188   0.05479 
 C                    -16.76164  -1.23853  -0.40948 
 N                    -16.7084  -0.04648  -1.02747 
 C                    -17.9053   0.59787  -1.2666 
 C                    -15.43536  -1.87398  -0.27135 
 C                    -15.0607  -3.1622   -0.20055 
 O                    -15.93558  -4.18784  -0.46437 
 C                    -15.43883  -5.42988  -0.59422 
 C                    -13.62217  -3.41148   0.07435 
 C                    -12.99705  -2.21697   0.27064 
 S                    -14.00086  -0.84485   0.08993 
 C                    -11.57758  -1.95541   0.58857 
 C                    -11.12168  -0.94035   1.50422 
 C                    -9.75078  -0.75478   1.75113 
 C                    -8.88609  -1.66033   1.30988 
 N                    -9.21316  -2.65506   0.47006 
 C                    -10.5417  -2.84363   0.16892 
 C                    -7.37757  -1.56769   1.53486 
 C                    -6.74917  -0.96895   2.65741 
 O                    -7.51361  -0.4828    3.65637 
 C                    -6.69483   0.24609   4.65897 
 C                    -5.30583  -1.07422   2.54514 
 C                    -4.97157  -1.68      1.38002 
 S                    -6.31181  -2.20536   0.39155 
 C                    -3.59469  -1.89612   0.90182 
 C                    -3.05945  -3.06107   0.34691 
 C                    -1.70503  -3.20803   0.02805 
 C                    -0.91216  -2.1052    0.13049 
 N                    -1.38012  -0.95931   0.61006 
 C                    -2.60279  -0.87295   0.95544 
 C                     0.5314   -2.18053  -0.12367 
 C                     1.41789  -3.29441  -0.50071 
 O                     0.8845   -4.46855  -0.72842 
 C                     1.78309  -5.50753  -1.0486 
 C                     2.79518  -2.91684  -0.62818 
 C                     2.97926  -1.58699  -0.30224 
 S                     1.52675  -0.72569   0.07028 
 C                     4.26636  -0.76573  -0.2 
 C                     4.45432   0.22994   0.69237 
 C                     5.74445   0.87974   0.76678 
 C                     6.6937    0.48027  -0.14458 
 N                     6.52713  -0.45345  -1.043 
 C                     5.3236   -1.06996  -1.05308 
 C                     7.99843   1.17544  -0.2754 
 C                     8.20902   2.58629  -0.28953 
 O                     7.21475   3.40077  -0.28935 
 C                     7.5652    4.80771  -0.56416 
 C                     9.64426   2.85347  -0.3311 
 C                     10.44334   1.73721  -0.28211 
 S                     9.41996   0.31341  -0.19652 
 C                     11.91388   1.6428   -0.22717 
 C                     12.56762   0.79078  -1.05554 
 C                     14.00795   0.75332  -0.99068 
 C                     14.69351   1.65712  -0.11402 
 N                     13.99357   2.48009   0.71499 
 C                     12.59569   2.36842   0.6822 
 C                     16.0815   1.76377  -0.0499 
 C                     16.85869   2.88615   0.11262 
 O                     16.25357   4.14313   0.13241 
 C                     17.12487   5.11752   0.71878 
 C                     18.2763   2.6281    0.04461 
 C                     18.59866   1.26044  -0.10007 
 S                     17.10747   0.35886  -0.25781 
 C                     19.81468   0.60163  -0.26385 
 C                     20.18949  -0.07692  -1.44039 
 C                     21.45549  -0.60855  -1.47105 
 C                     22.32009  -0.49085  -0.44494 
 N                     21.98879   0.14976   0.70789 
 C                     20.81621   0.66147   0.74353 
 C                     23.70995  -1.06344  -0.51262 
 C                     24.95164  -0.36926  -0.15327 
 O                     24.95133   0.8631    0.17175 
 C                     26.07653   1.3018    1.02347 
 C                     26.08929  -1.28969  -0.30058 
 C                     25.68958  -2.4937   -0.74828 
 S                     23.99133  -2.68292  -0.91981 
 H                    -24.23135   7.51643   0.16852 
 H                    -25.51322   5.91118  -1.16573 
 H                    -24.57752   3.58444  -1.6469 
 H                    -21.90317   6.75848   1.02271 
 H                    -25.53398   0.09866  -1.87571 
 H                    -23.9516  -0.29954  -2.68108 
 H                    -24.14531  -0.70633  -0.97138 
 H                    -21.87231  -0.56695  -1.49083 
 H                    -20.06713  -1.59313   0.19096 
 H                    -17.88469  -2.73784   0.55037 
 H                    -17.85197   1.57989  -1.77071 
 H                    -14.64143  -5.51817  -1.44725 
 H                    -16.23318  -6.08821  -0.91343 
 H                    -15.0669  -5.80278   0.30156 
 H                    -13.12766  -4.33821   0.20175 
 H                    -11.86905  -0.26409   1.89548 
 H                    -9.53347   0.06561   2.42549 
 H                    -10.81251  -3.62465  -0.45845 
 H                    -6.15723   1.09704   4.15659 
 H                    -6.07576  -0.37856   5.20348 
 H                    -7.43795   0.71297   5.38277 
 H                    -4.66194  -0.73527   3.30035 
 H                    -3.75909  -3.97538   0.32813 
 H                    -1.43717  -4.16531  -0.40014 
 H                    -2.92847   0.09955   1.29736 
 H                     1.29163  -6.46746  -1.08744 
 H                     2.51142  -5.673    -0.14073 
 H                     2.34356  -5.33744  -1.90039 
 H                     3.56485  -3.49849  -0.87071 
 H                     3.74029   0.50582   1.37554 
 H                     5.90519   1.72577   1.3916 
 H                     5.21612  -1.92879  -1.79933 
 H                     8.09624   4.85374  -1.61039 
 H                     8.26284   5.20966   0.20046 
 H                     6.62013   5.37868  -0.62123 
 H                     10.06985   3.8437   -0.259 
 H                     12.0958   0.09417  -1.73374 
 H                     14.55917   0.11324  -1.68515 
 H                     12.10608   3.03858   1.38003 
 H                     17.43137   4.91061   1.68445 
 H                     18.02079   5.36786   0.08525 
 H                     16.50278   6.03635   0.78808 
 H                     19.12627   3.36152   0.16784 
 H                     19.49482  -0.17694  -2.25813 
 H                     21.79578  -1.08824  -2.43176 
 H                     20.55825   1.18908   1.73804 
 H                     26.19336   0.61114   1.84392 
 H                     25.84352   2.22322   1.44696 
 H                     27.00258   1.34101   0.43487 
 H                     27.09094  -0.99443  -0.11478 
 H                     26.27118  -3.37871  -1.01059 
 
 ITRead=  0  0  0  0  0  0  0  0  0  0  0  0  0  0  0  0  0  0  0  0
 ITRead=  0  0  0  0  0  0  0  0  0  0  0  0  0  0  0  0  0  0  0  0
 ITRead=  0  0  0  0  0  0  0  0  0  0  0  0  0  0  0  0  0  0  0  0
 ITRead=  0  0  0  0  0  0  0  0  0  0  0  0  0  0  0  0  0  0  0  0
 ITRead=  0  0  0  0  0  0  0  0  0  0  0  0  0  0  0  0  0  0  0  0
 ITRead=  0  0  0  0  0  0  0  0  0  0  0  0  0  0  0  0  0  0  0  0
 ITRead=  0  0  0  0  0  0  0  0  0  0  0  0  0  0  0  0  0  0  0  0
 ITRead=  0  0
 MicOpt= -1 -1 -1 -1 -1 -1 -1 -1 -1 -1 -1 -1 -1 -1 -1 -1 -1 -1 -1 -1
 MicOpt= -1 -1 -1 -1 -1 -1 -1 -1 -1 -1 -1 -1 -1 -1 -1 -1 -1 -1 -1 -1
 MicOpt= -1 -1 -1 -1 -1 -1 -1 -1 -1 -1 -1 -1 -1 -1 -1 -1 -1 -1 -1 -1
 MicOpt= -1 -1 -1 -1 -1 -1 -1 -1 -1 -1 -1 -1 -1 -1 -1 -1 -1 -1 -1 -1
 MicOpt= -1 -1 -1 -1 -1 -1 -1 -1 -1 -1 -1 -1 -1 -1 -1 -1 -1 -1 -1 -1
 MicOpt= -1 -1 -1 -1 -1 -1 -1 -1 -1 -1 -1 -1 -1 -1 -1 -1 -1 -1 -1 -1
 MicOpt= -1 -1 -1 -1 -1 -1 -1 -1 -1 -1 -1 -1 -1 -1 -1 -1 -1 -1 -1 -1
 MicOpt= -1 -1
 NAtoms=    142 NQM=      142 NQMF=       0 NMMI=      0 NMMIF=      0
                NMic=       0 NMicF=      0.
                    Isotopes and Nuclear Properties:
 (Nuclear quadrupole moments (NQMom) in fm**2, nuclear magnetic moments (NMagM)
  in nuclear magnetons)

  Atom         1           2           3           4           5           6           7           8           9          10
 IAtWgt=          12          12          12          12          14          12          12          12          16          12
 AtmWgt=  12.0000000  12.0000000  12.0000000  12.0000000  14.0030740  12.0000000  12.0000000  12.0000000  15.9949146  12.0000000
 NucSpn=           0           0           0           0           2           0           0           0           0           0
 AtZEff=  -0.0000000  -0.0000000  -0.0000000  -0.0000000  -0.0000000  -0.0000000  -0.0000000  -0.0000000  -0.0000000  -0.0000000
 NQMom=    0.0000000   0.0000000   0.0000000   0.0000000   2.0440000   0.0000000   0.0000000   0.0000000   0.0000000   0.0000000
 NMagM=    0.0000000   0.0000000   0.0000000   0.0000000   0.4037610   0.0000000   0.0000000   0.0000000   0.0000000   0.0000000
 AtZNuc=   6.0000000   6.0000000   6.0000000   6.0000000   7.0000000   6.0000000   6.0000000   6.0000000   8.0000000   6.0000000

  Atom        11          12          13          14          15          16          17          18          19          20
 IAtWgt=          12          12          32          12          12          12          12          14          12          12
 AtmWgt=  12.0000000  12.0000000  31.9720718  12.0000000  12.0000000  12.0000000  12.0000000  14.0030740  12.0000000  12.0000000
 NucSpn=           0           0           0           0           0           0           0           2           0           0
 AtZEff=  -0.0000000  -0.0000000  -0.0000000  -0.0000000  -0.0000000  -0.0000000  -0.0000000  -0.0000000  -0.0000000  -0.0000000
 NQMom=    0.0000000   0.0000000   0.0000000   0.0000000   0.0000000   0.0000000   0.0000000   2.0440000   0.0000000   0.0000000
 NMagM=    0.0000000   0.0000000   0.0000000   0.0000000   0.0000000   0.0000000   0.0000000   0.4037610   0.0000000   0.0000000
 AtZNuc=   6.0000000   6.0000000  16.0000000   6.0000000   6.0000000   6.0000000   6.0000000   7.0000000   6.0000000   6.0000000

  Atom        21          22          23          24          25          26          27          28          29          30
 IAtWgt=          12          16          12          12          12          32          12          12          12          12
 AtmWgt=  12.0000000  15.9949146  12.0000000  12.0000000  12.0000000  31.9720718  12.0000000  12.0000000  12.0000000  12.0000000
 NucSpn=           0           0           0           0           0           0           0           0           0           0
 AtZEff=  -0.0000000  -0.0000000  -0.0000000  -0.0000000  -0.0000000  -0.0000000  -0.0000000  -0.0000000  -0.0000000  -0.0000000
 NQMom=    0.0000000   0.0000000   0.0000000   0.0000000   0.0000000   0.0000000   0.0000000   0.0000000   0.0000000   0.0000000
 NMagM=    0.0000000   0.0000000   0.0000000   0.0000000   0.0000000   0.0000000   0.0000000   0.0000000   0.0000000   0.0000000
 AtZNuc=   6.0000000   8.0000000   6.0000000   6.0000000   6.0000000  16.0000000   6.0000000   6.0000000   6.0000000   6.0000000

  Atom        31          32          33          34          35          36          37          38          39          40
 IAtWgt=          14          12          12          12          16          12          12          12          32          12
 AtmWgt=  14.0030740  12.0000000  12.0000000  12.0000000  15.9949146  12.0000000  12.0000000  12.0000000  31.9720718  12.0000000
 NucSpn=           2           0           0           0           0           0           0           0           0           0
 AtZEff=  -0.0000000  -0.0000000  -0.0000000  -0.0000000  -0.0000000  -0.0000000  -0.0000000  -0.0000000  -0.0000000  -0.0000000
 NQMom=    2.0440000   0.0000000   0.0000000   0.0000000   0.0000000   0.0000000   0.0000000   0.0000000   0.0000000   0.0000000
 NMagM=    0.4037610   0.0000000   0.0000000   0.0000000   0.0000000   0.0000000   0.0000000   0.0000000   0.0000000   0.0000000
 AtZNuc=   7.0000000   6.0000000   6.0000000   6.0000000   8.0000000   6.0000000   6.0000000   6.0000000  16.0000000   6.0000000

  Atom        41          42          43          44          45          46          47          48          49          50
 IAtWgt=          12          12          12          14          12          12          12          16          12          12
 AtmWgt=  12.0000000  12.0000000  12.0000000  14.0030740  12.0000000  12.0000000  12.0000000  15.9949146  12.0000000  12.0000000
 NucSpn=           0           0           0           2           0           0           0           0           0           0
 AtZEff=  -0.0000000  -0.0000000  -0.0000000  -0.0000000  -0.0000000  -0.0000000  -0.0000000  -0.0000000  -0.0000000  -0.0000000
 NQMom=    0.0000000   0.0000000   0.0000000   2.0440000   0.0000000   0.0000000   0.0000000   0.0000000   0.0000000   0.0000000
 NMagM=    0.0000000   0.0000000   0.0000000   0.4037610   0.0000000   0.0000000   0.0000000   0.0000000   0.0000000   0.0000000
 AtZNuc=   6.0000000   6.0000000   6.0000000   7.0000000   6.0000000   6.0000000   6.0000000   8.0000000   6.0000000   6.0000000

  Atom        51          52          53          54          55          56          57          58          59          60
 IAtWgt=          12          32          12          12          12          12          14          12          12          12
 AtmWgt=  12.0000000  31.9720718  12.0000000  12.0000000  12.0000000  12.0000000  14.0030740  12.0000000  12.0000000  12.0000000
 NucSpn=           0           0           0           0           0           0           2           0           0           0
 AtZEff=  -0.0000000  -0.0000000  -0.0000000  -0.0000000  -0.0000000  -0.0000000  -0.0000000  -0.0000000  -0.0000000  -0.0000000
 NQMom=    0.0000000   0.0000000   0.0000000   0.0000000   0.0000000   0.0000000   2.0440000   0.0000000   0.0000000   0.0000000
 NMagM=    0.0000000   0.0000000   0.0000000   0.0000000   0.0000000   0.0000000   0.4037610   0.0000000   0.0000000   0.0000000
 AtZNuc=   6.0000000  16.0000000   6.0000000   6.0000000   6.0000000   6.0000000   7.0000000   6.0000000   6.0000000   6.0000000

  Atom        61          62          63          64          65          66          67          68          69          70
 IAtWgt=          16          12          12          12          32          12          12          12          12          14
 AtmWgt=  15.9949146  12.0000000  12.0000000  12.0000000  31.9720718  12.0000000  12.0000000  12.0000000  12.0000000  14.0030740
 NucSpn=           0           0           0           0           0           0           0           0           0           2
 AtZEff=  -0.0000000  -0.0000000  -0.0000000  -0.0000000  -0.0000000  -0.0000000  -0.0000000  -0.0000000  -0.0000000  -0.0000000
 NQMom=    0.0000000   0.0000000   0.0000000   0.0000000   0.0000000   0.0000000   0.0000000   0.0000000   0.0000000   2.0440000
 NMagM=    0.0000000   0.0000000   0.0000000   0.0000000   0.0000000   0.0000000   0.0000000   0.0000000   0.0000000   0.4037610
 AtZNuc=   8.0000000   6.0000000   6.0000000   6.0000000  16.0000000   6.0000000   6.0000000   6.0000000   6.0000000   7.0000000

  Atom        71          72          73          74          75          76          77          78          79          80
 IAtWgt=          12          12          12          16          12          12          12          32          12          12
 AtmWgt=  12.0000000  12.0000000  12.0000000  15.9949146  12.0000000  12.0000000  12.0000000  31.9720718  12.0000000  12.0000000
 NucSpn=           0           0           0           0           0           0           0           0           0           0
 AtZEff=  -0.0000000  -0.0000000  -0.0000000  -0.0000000  -0.0000000  -0.0000000  -0.0000000  -0.0000000  -0.0000000  -0.0000000
 NQMom=    0.0000000   0.0000000   0.0000000   0.0000000   0.0000000   0.0000000   0.0000000   0.0000000   0.0000000   0.0000000
 NMagM=    0.0000000   0.0000000   0.0000000   0.0000000   0.0000000   0.0000000   0.0000000   0.0000000   0.0000000   0.0000000
 AtZNuc=   6.0000000   6.0000000   6.0000000   8.0000000   6.0000000   6.0000000   6.0000000  16.0000000   6.0000000   6.0000000

  Atom        81          82          83          84          85          86          87          88          89          90
 IAtWgt=          12          12          14          12          12          12          16          12          12          12
 AtmWgt=  12.0000000  12.0000000  14.0030740  12.0000000  12.0000000  12.0000000  15.9949146  12.0000000  12.0000000  12.0000000
 NucSpn=           0           0           2           0           0           0           0           0           0           0
 AtZEff=  -0.0000000  -0.0000000  -0.0000000  -0.0000000  -0.0000000  -0.0000000  -0.0000000  -0.0000000  -0.0000000  -0.0000000
 NQMom=    0.0000000   0.0000000   2.0440000   0.0000000   0.0000000   0.0000000   0.0000000   0.0000000   0.0000000   0.0000000
 NMagM=    0.0000000   0.0000000   0.4037610   0.0000000   0.0000000   0.0000000   0.0000000   0.0000000   0.0000000   0.0000000
 AtZNuc=   6.0000000   6.0000000   7.0000000   6.0000000   6.0000000   6.0000000   8.0000000   6.0000000   6.0000000   6.0000000

  Atom        91          92          93          94          95          96          97          98          99         100
 IAtWgt=          32           1           1           1           1           1           1           1           1           1
 AtmWgt=  31.9720718   1.0078250   1.0078250   1.0078250   1.0078250   1.0078250   1.0078250   1.0078250   1.0078250   1.0078250
 NucSpn=           0           1           1           1           1           1           1           1           1           1
 AtZEff=  -0.0000000  -0.0000000  -0.0000000  -0.0000000  -0.0000000  -0.0000000  -0.0000000  -0.0000000  -0.0000000  -0.0000000
 NQMom=    0.0000000   0.0000000   0.0000000   0.0000000   0.0000000   0.0000000   0.0000000   0.0000000   0.0000000   0.0000000
 NMagM=    0.0000000   2.7928460   2.7928460   2.7928460   2.7928460   2.7928460   2.7928460   2.7928460   2.7928460   2.7928460
 AtZNuc=  16.0000000   1.0000000   1.0000000   1.0000000   1.0000000   1.0000000   1.0000000   1.0000000   1.0000000   1.0000000

  Atom       101         102         103         104         105         106         107         108         109         110
 IAtWgt=           1           1           1           1           1           1           1           1           1           1
 AtmWgt=   1.0078250   1.0078250   1.0078250   1.0078250   1.0078250   1.0078250   1.0078250   1.0078250   1.0078250   1.0078250
 NucSpn=           1           1           1           1           1           1           1           1           1           1
 AtZEff=  -0.0000000  -0.0000000  -0.0000000  -0.0000000  -0.0000000  -0.0000000  -0.0000000  -0.0000000  -0.0000000  -0.0000000
 NQMom=    0.0000000   0.0000000   0.0000000   0.0000000   0.0000000   0.0000000   0.0000000   0.0000000   0.0000000   0.0000000
 NMagM=    2.7928460   2.7928460   2.7928460   2.7928460   2.7928460   2.7928460   2.7928460   2.7928460   2.7928460   2.7928460
 AtZNuc=   1.0000000   1.0000000   1.0000000   1.0000000   1.0000000   1.0000000   1.0000000   1.0000000   1.0000000   1.0000000

  Atom       111         112         113         114         115         116         117         118         119         120
 IAtWgt=           1           1           1           1           1           1           1           1           1           1
 AtmWgt=   1.0078250   1.0078250   1.0078250   1.0078250   1.0078250   1.0078250   1.0078250   1.0078250   1.0078250   1.0078250
 NucSpn=           1           1           1           1           1           1           1           1           1           1
 AtZEff=  -0.0000000  -0.0000000  -0.0000000  -0.0000000  -0.0000000  -0.0000000  -0.0000000  -0.0000000  -0.0000000  -0.0000000
 NQMom=    0.0000000   0.0000000   0.0000000   0.0000000   0.0000000   0.0000000   0.0000000   0.0000000   0.0000000   0.0000000
 NMagM=    2.7928460   2.7928460   2.7928460   2.7928460   2.7928460   2.7928460   2.7928460   2.7928460   2.7928460   2.7928460
 AtZNuc=   1.0000000   1.0000000   1.0000000   1.0000000   1.0000000   1.0000000   1.0000000   1.0000000   1.0000000   1.0000000

  Atom       121         122         123         124         125         126         127         128         129         130
 IAtWgt=           1           1           1           1           1           1           1           1           1           1
 AtmWgt=   1.0078250   1.0078250   1.0078250   1.0078250   1.0078250   1.0078250   1.0078250   1.0078250   1.0078250   1.0078250
 NucSpn=           1           1           1           1           1           1           1           1           1           1
 AtZEff=  -0.0000000  -0.0000000  -0.0000000  -0.0000000  -0.0000000  -0.0000000  -0.0000000  -0.0000000  -0.0000000  -0.0000000
 NQMom=    0.0000000   0.0000000   0.0000000   0.0000000   0.0000000   0.0000000   0.0000000   0.0000000   0.0000000   0.0000000
 NMagM=    2.7928460   2.7928460   2.7928460   2.7928460   2.7928460   2.7928460   2.7928460   2.7928460   2.7928460   2.7928460
 AtZNuc=   1.0000000   1.0000000   1.0000000   1.0000000   1.0000000   1.0000000   1.0000000   1.0000000   1.0000000   1.0000000

  Atom       131         132         133         134         135         136         137         138         139         140
 IAtWgt=           1           1           1           1           1           1           1           1           1           1
 AtmWgt=   1.0078250   1.0078250   1.0078250   1.0078250   1.0078250   1.0078250   1.0078250   1.0078250   1.0078250   1.0078250
 NucSpn=           1           1           1           1           1           1           1           1           1           1
 AtZEff=  -0.0000000  -0.0000000  -0.0000000  -0.0000000  -0.0000000  -0.0000000  -0.0000000  -0.0000000  -0.0000000  -0.0000000
 NQMom=    0.0000000   0.0000000   0.0000000   0.0000000   0.0000000   0.0000000   0.0000000   0.0000000   0.0000000   0.0000000
 NMagM=    2.7928460   2.7928460   2.7928460   2.7928460   2.7928460   2.7928460   2.7928460   2.7928460   2.7928460   2.7928460
 AtZNuc=   1.0000000   1.0000000   1.0000000   1.0000000   1.0000000   1.0000000   1.0000000   1.0000000   1.0000000   1.0000000

  Atom       141         142
 IAtWgt=           1           1
 AtmWgt=   1.0078250   1.0078250
 NucSpn=           1           1
 AtZEff=  -0.0000000  -0.0000000
 NQMom=    0.0000000   0.0000000
 NMagM=    2.7928460   2.7928460
 AtZNuc=   1.0000000   1.0000000
 Leave Link  101 at Thu Jul 23 23:40:56 2020, MaxMem=  4026531840 cpu:               3.2 elap:               0.4
 (Enter /opt/ohpc/pub/libs/gaussian/g16-A.03/sandybridge/g16/l103.exe)

 GradGradGradGradGradGradGradGradGradGradGradGradGradGradGradGradGradGrad
 Berny optimization.
 Initialization pass.
                           ----------------------------
                           !    Initial Parameters    !
                           ! (Angstroms and Degrees)  !
 --------------------------                            --------------------------
 ! Name  Definition              Value          Derivative Info.                !
 --------------------------------------------------------------------------------
 ! R1    R(1,2)                  1.4019         estimate D2E/DX2                !
 ! R2    R(1,6)                  1.3982         estimate D2E/DX2                !
 ! R3    R(1,92)                 1.0856         estimate D2E/DX2                !
 ! R4    R(2,3)                  1.3566         estimate D2E/DX2                !
 ! R5    R(2,93)                 1.1236         estimate D2E/DX2                !
 ! R6    R(3,4)                  1.3924         estimate D2E/DX2                !
 ! R7    R(3,94)                 1.1595         estimate D2E/DX2                !
 ! R8    R(4,5)                  1.3903         estimate D2E/DX2                !
 ! R9    R(4,7)                  1.5057         estimate D2E/DX2                !
 ! R10   R(5,6)                  1.3774         estimate D2E/DX2                !
 ! R11   R(6,95)                 1.0984         estimate D2E/DX2                !
 ! R12   R(7,8)                  1.3772         estimate D2E/DX2                !
 ! R13   R(7,13)                 1.6934         estimate D2E/DX2                !
 ! R14   R(8,9)                  1.2894         estimate D2E/DX2                !
 ! R15   R(8,11)                 1.4236         estimate D2E/DX2                !
 ! R16   R(9,10)                 1.5045         estimate D2E/DX2                !
 ! R17   R(10,96)                1.133          estimate D2E/DX2                !
 ! R18   R(10,97)                1.1045         estimate D2E/DX2                !
 ! R19   R(10,98)                1.0618         estimate D2E/DX2                !
 ! R20   R(11,12)                1.3429         estimate D2E/DX2                !
 ! R21   R(11,99)                1.1019         estimate D2E/DX2                !
 ! R22   R(12,13)                1.6691         estimate D2E/DX2                !
 ! R23   R(12,14)                1.5023         estimate D2E/DX2                !
 ! R24   R(14,15)                1.4264         estimate D2E/DX2                !
 ! R25   R(14,19)                1.4075         estimate D2E/DX2                !
 ! R26   R(15,16)                1.3965         estimate D2E/DX2                !
 ! R27   R(15,100)               1.1022         estimate D2E/DX2                !
 ! R28   R(16,17)                1.3443         estimate D2E/DX2                !
 ! R29   R(16,101)               1.0591         estimate D2E/DX2                !
 ! R30   R(17,18)                1.3438         estimate D2E/DX2                !
 ! R31   R(17,20)                1.4771         estimate D2E/DX2                !
 ! R32   R(18,19)                1.3802         estimate D2E/DX2                !
 ! R33   R(19,102)               1.1052         estimate D2E/DX2                !
 ! R34   R(20,21)                1.3435         estimate D2E/DX2                !
 ! R35   R(20,26)                1.8021         estimate D2E/DX2                !
 ! R36   R(21,22)                1.3737         estimate D2E/DX2                !
 ! R37   R(21,24)                1.4856         estimate D2E/DX2                !
 ! R38   R(22,23)                1.344          estimate D2E/DX2                !
 ! R39   R(23,103)               1.171          estimate D2E/DX2                !
 ! R40   R(23,104)               1.0799         estimate D2E/DX2                !
 ! R41   R(23,105)               1.0391         estimate D2E/DX2                !
 ! R42   R(24,25)                1.3624         estimate D2E/DX2                !
 ! R43   R(24,106)               1.0581         estimate D2E/DX2                !
 ! R44   R(25,26)                1.7097         estimate D2E/DX2                !
 ! R45   R(25,27)                1.478          estimate D2E/DX2                !
 ! R46   R(27,28)                1.441          estimate D2E/DX2                !
 ! R47   R(27,32)                1.4276         estimate D2E/DX2                !
 ! R48   R(28,29)                1.4053         estimate D2E/DX2                !
 ! R49   R(28,107)               1.0812         estimate D2E/DX2                !
 ! R50   R(29,30)                1.3276         estimate D2E/DX2                !
 ! R51   R(29,108)               1.084          estimate D2E/DX2                !
 ! R52   R(30,31)                1.3423         estimate D2E/DX2                !
 ! R53   R(30,33)                1.528          estimate D2E/DX2                !
 ! R54   R(31,32)                1.3752         estimate D2E/DX2                !
 ! R55   R(32,109)               1.0377         estimate D2E/DX2                !
 ! R56   R(33,34)                1.419          estimate D2E/DX2                !
 ! R57   R(33,39)                1.6881         estimate D2E/DX2                !
 ! R58   R(34,35)                1.3486         estimate D2E/DX2                !
 ! R59   R(34,37)                1.4515         estimate D2E/DX2                !
 ! R60   R(35,36)                1.4856         estimate D2E/DX2                !
 ! R61   R(36,110)               1.1249         estimate D2E/DX2                !
 ! R62   R(36,111)               1.0344         estimate D2E/DX2                !
 ! R63   R(36,112)               1.1376         estimate D2E/DX2                !
 ! R64   R(37,38)                1.3551         estimate D2E/DX2                !
 ! R65   R(37,113)               1.0487         estimate D2E/DX2                !
 ! R66   R(38,39)                1.7462         estimate D2E/DX2                !
 ! R67   R(38,40)                1.4735         estimate D2E/DX2                !
 ! R68   R(40,41)                1.397          estimate D2E/DX2                !
 ! R69   R(40,45)                1.426          estimate D2E/DX2                !
 ! R70   R(41,42)                1.3992         estimate D2E/DX2                !
 ! R71   R(41,114)               1.1514         estimate D2E/DX2                !
 ! R72   R(42,43)                1.3621         estimate D2E/DX2                !
 ! R73   R(42,115)               1.0823         estimate D2E/DX2                !
 ! R74   R(43,44)                1.3274         estimate D2E/DX2                !
 ! R75   R(43,46)                1.4677         estimate D2E/DX2                !
 ! R76   R(44,45)                1.2735         estimate D2E/DX2                !
 ! R77   R(45,116)               1.0811         estimate D2E/DX2                !
 ! R78   R(46,47)                1.4727         estimate D2E/DX2                !
 ! R79   R(46,52)                1.7734         estimate D2E/DX2                !
 ! R80   R(47,48)                1.3096         estimate D2E/DX2                !
 ! R81   R(47,50)                1.4338         estimate D2E/DX2                !
 ! R82   R(48,49)                1.4105         estimate D2E/DX2                !
 ! R83   R(49,117)               1.0791         estimate D2E/DX2                !
 ! R84   R(49,118)               1.1756         estimate D2E/DX2                !
 ! R85   R(49,119)               1.0337         estimate D2E/DX2                !
 ! R86   R(50,51)                1.3815         estimate D2E/DX2                !
 ! R87   R(50,120)               0.9948         estimate D2E/DX2                !
 ! R88   R(51,52)                1.7293         estimate D2E/DX2                !
 ! R89   R(51,53)                1.5302         estimate D2E/DX2                !
 ! R90   R(53,54)                1.3502         estimate D2E/DX2                !
 ! R91   R(53,58)                1.3921         estimate D2E/DX2                !
 ! R92   R(54,55)                1.4464         estimate D2E/DX2                !
 ! R93   R(54,121)               1.026          estimate D2E/DX2                !
 ! R94   R(55,56)                1.3752         estimate D2E/DX2                !
 ! R95   R(55,122)               1.064          estimate D2E/DX2                !
 ! R96   R(56,57)                1.3064         estimate D2E/DX2                !
 ! R97   R(56,59)                1.4841         estimate D2E/DX2                !
 ! R98   R(57,58)                1.3523         estimate D2E/DX2                !
 ! R99   R(58,123)               1.1428         estimate D2E/DX2                !
 ! R100  R(59,60)                1.4266         estimate D2E/DX2                !
 ! R101  R(59,65)                1.6644         estimate D2E/DX2                !
 ! R102  R(60,61)                1.2853         estimate D2E/DX2                !
 ! R103  R(60,63)                1.4605         estimate D2E/DX2                !
 ! R104  R(61,62)                1.4757         estimate D2E/DX2                !
 ! R105  R(62,124)               1.1742         estimate D2E/DX2                !
 ! R106  R(62,125)               1.1104         estimate D2E/DX2                !
 ! R107  R(62,126)               1.1056         estimate D2E/DX2                !
 ! R108  R(63,64)                1.3737         estimate D2E/DX2                !
 ! R109  R(63,127)               1.0802         estimate D2E/DX2                !
 ! R110  R(64,65)                1.7555         estimate D2E/DX2                !
 ! R111  R(64,66)                1.4746         estimate D2E/DX2                !
 ! R112  R(66,67)                1.3563         estimate D2E/DX2                !
 ! R113  R(66,71)                1.3485         estimate D2E/DX2                !
 ! R114  R(67,68)                1.4423         estimate D2E/DX2                !
 ! R115  R(67,128)               1.0807         estimate D2E/DX2                !
 ! R116  R(68,69)                1.4337         estimate D2E/DX2                !
 ! R117  R(68,129)               1.0935         estimate D2E/DX2                !
 ! R118  R(69,70)                1.3618         estimate D2E/DX2                !
 ! R119  R(69,72)                1.3936         estimate D2E/DX2                !
 ! R120  R(70,71)                1.4027         estimate D2E/DX2                !
 ! R121  R(71,130)               1.0843         estimate D2E/DX2                !
 ! R122  R(72,73)                1.3748         estimate D2E/DX2                !
 ! R123  R(72,78)                1.752          estimate D2E/DX2                !
 ! R124  R(73,74)                1.3952         estimate D2E/DX2                !
 ! R125  R(73,76)                1.4425         estimate D2E/DX2                !
 ! R126  R(74,75)                1.4326         estimate D2E/DX2                !
 ! R127  R(75,131)               1.0341         estimate D2E/DX2                !
 ! R128  R(75,132)               1.1255         estimate D2E/DX2                !
 ! R129  R(75,133)               1.1118         estimate D2E/DX2                !
 ! R130  R(76,77)                1.4126         estimate D2E/DX2                !
 ! R131  R(76,134)               1.1294         estimate D2E/DX2                !
 ! R132  R(77,78)                1.7497         estimate D2E/DX2                !
 ! R133  R(77,79)                1.3927         estimate D2E/DX2                !
 ! R134  R(79,80)                1.409          estimate D2E/DX2                !
 ! R135  R(79,84)                1.4218         estimate D2E/DX2                !
 ! R136  R(80,81)                1.3734         estimate D2E/DX2                !
 ! R137  R(80,135)               1.0776         estimate D2E/DX2                !
 ! R138  R(81,82)                1.347          estimate D2E/DX2                !
 ! R139  R(81,136)               1.1264         estimate D2E/DX2                !
 ! R140  R(82,83)                1.3598         estimate D2E/DX2                !
 ! R141  R(82,85)                1.5047         estimate D2E/DX2                !
 ! R142  R(83,84)                1.2799         estimate D2E/DX2                !
 ! R143  R(84,137)               1.155          estimate D2E/DX2                !
 ! R144  R(85,86)                1.4673         estimate D2E/DX2                !
 ! R145  R(85,91)                1.6934         estimate D2E/DX2                !
 ! R146  R(86,87)                1.2745         estimate D2E/DX2                !
 ! R147  R(86,89)                1.4708         estimate D2E/DX2                !
 ! R148  R(87,88)                1.4778         estimate D2E/DX2                !
 ! R149  R(88,138)               1.0788         estimate D2E/DX2                !
 ! R150  R(88,139)               1.0405         estimate D2E/DX2                !
 ! R151  R(88,140)               1.098          estimate D2E/DX2                !
 ! R152  R(89,90)                1.3453         estimate D2E/DX2                !
 ! R153  R(89,141)               1.0607         estimate D2E/DX2                !
 ! R154  R(90,91)                1.7174         estimate D2E/DX2                !
 ! R155  R(90,142)               1.091          estimate D2E/DX2                !
 ! A1    A(2,1,6)              114.5346         estimate D2E/DX2                !
 ! A2    A(2,1,92)             122.9144         estimate D2E/DX2                !
 ! A3    A(6,1,92)             121.8386         estimate D2E/DX2                !
 ! A4    A(1,2,3)              120.831          estimate D2E/DX2                !
 ! A5    A(1,2,93)             113.7195         estimate D2E/DX2                !
 ! A6    A(3,2,93)             125.0411         estimate D2E/DX2                !
 ! A7    A(2,3,4)              122.2107         estimate D2E/DX2                !
 ! A8    A(2,3,94)             118.1698         estimate D2E/DX2                !
 ! A9    A(4,3,94)             119.4589         estimate D2E/DX2                !
 ! A10   A(3,4,5)              119.4104         estimate D2E/DX2                !
 ! A11   A(3,4,7)              123.4731         estimate D2E/DX2                !
 ! A12   A(5,4,7)              117.0172         estimate D2E/DX2                !
 ! A13   A(4,5,6)              116.4201         estimate D2E/DX2                !
 ! A14   A(1,6,5)              125.8572         estimate D2E/DX2                !
 ! A15   A(1,6,95)             124.1258         estimate D2E/DX2                !
 ! A16   A(5,6,95)             109.2071         estimate D2E/DX2                !
 ! A17   A(4,7,8)              129.8567         estimate D2E/DX2                !
 ! A18   A(4,7,13)             116.4005         estimate D2E/DX2                !
 ! A19   A(8,7,13)             113.7396         estimate D2E/DX2                !
 ! A20   A(7,8,9)              121.2915         estimate D2E/DX2                !
 ! A21   A(7,8,11)             106.8793         estimate D2E/DX2                !
 ! A22   A(9,8,11)             131.8274         estimate D2E/DX2                !
 ! A23   A(8,9,10)             113.2616         estimate D2E/DX2                !
 ! A24   A(9,10,96)            104.419          estimate D2E/DX2                !
 ! A25   A(9,10,97)            109.3736         estimate D2E/DX2                !
 ! A26   A(9,10,98)            110.5469         estimate D2E/DX2                !
 ! A27   A(96,10,97)           108.8255         estimate D2E/DX2                !
 ! A28   A(96,10,98)           114.1191         estimate D2E/DX2                !
 ! A29   A(97,10,98)           109.3916         estimate D2E/DX2                !
 ! A30   A(8,11,12)            116.4996         estimate D2E/DX2                !
 ! A31   A(8,11,99)            121.1463         estimate D2E/DX2                !
 ! A32   A(12,11,99)           122.2052         estimate D2E/DX2                !
 ! A33   A(11,12,13)           110.3689         estimate D2E/DX2                !
 ! A34   A(11,12,14)           132.0536         estimate D2E/DX2                !
 ! A35   A(13,12,14)           117.5739         estimate D2E/DX2                !
 ! A36   A(7,13,12)             92.3878         estimate D2E/DX2                !
 ! A37   A(12,14,15)           119.3893         estimate D2E/DX2                !
 ! A38   A(12,14,19)           123.6882         estimate D2E/DX2                !
 ! A39   A(15,14,19)           116.3557         estimate D2E/DX2                !
 ! A40   A(14,15,16)           118.6434         estimate D2E/DX2                !
 ! A41   A(14,15,100)          118.2687         estimate D2E/DX2                !
 ! A42   A(16,15,100)          122.0769         estimate D2E/DX2                !
 ! A43   A(15,16,17)           119.4448         estimate D2E/DX2                !
 ! A44   A(15,16,101)          118.6189         estimate D2E/DX2                !
 ! A45   A(17,16,101)          121.8264         estimate D2E/DX2                !
 ! A46   A(16,17,18)           124.3215         estimate D2E/DX2                !
 ! A47   A(16,17,20)           122.7783         estimate D2E/DX2                !
 ! A48   A(18,17,20)           112.8958         estimate D2E/DX2                !
 ! A49   A(17,18,19)           117.3523         estimate D2E/DX2                !
 ! A50   A(14,19,18)           122.0509         estimate D2E/DX2                !
 ! A51   A(14,19,102)          120.4047         estimate D2E/DX2                !
 ! A52   A(18,19,102)          116.8736         estimate D2E/DX2                !
 ! A53   A(17,20,21)           131.9002         estimate D2E/DX2                !
 ! A54   A(17,20,26)           119.1965         estimate D2E/DX2                !
 ! A55   A(21,20,26)           108.3634         estimate D2E/DX2                !
 ! A56   A(20,21,22)           121.8844         estimate D2E/DX2                !
 ! A57   A(20,21,24)           116.1474         estimate D2E/DX2                !
 ! A58   A(22,21,24)           121.8003         estimate D2E/DX2                !
 ! A59   A(21,22,23)           118.2403         estimate D2E/DX2                !
 ! A60   A(22,23,103)          113.0628         estimate D2E/DX2                !
 ! A61   A(22,23,104)          108.6664         estimate D2E/DX2                !
 ! A62   A(22,23,105)          112.3729         estimate D2E/DX2                !
 ! A63   A(103,23,104)         103.8624         estimate D2E/DX2                !
 ! A64   A(103,23,105)         110.9264         estimate D2E/DX2                !
 ! A65   A(104,23,105)         107.4165         estimate D2E/DX2                !
 ! A66   A(21,24,25)           108.8951         estimate D2E/DX2                !
 ! A67   A(21,24,106)          128.4459         estimate D2E/DX2                !
 ! A68   A(25,24,106)          122.4193         estimate D2E/DX2                !
 ! A69   A(24,25,26)           114.7734         estimate D2E/DX2                !
 ! A70   A(24,25,27)           128.8167         estimate D2E/DX2                !
 ! A71   A(26,25,27)           116.3976         estimate D2E/DX2                !
 ! A72   A(20,26,25)            91.7325         estimate D2E/DX2                !
 ! A73   A(25,27,28)           124.4154         estimate D2E/DX2                !
 ! A74   A(25,27,32)           121.57           estimate D2E/DX2                !
 ! A75   A(28,27,32)           113.2956         estimate D2E/DX2                !
 ! A76   A(27,28,29)           120.8833         estimate D2E/DX2                !
 ! A77   A(27,28,107)          116.8611         estimate D2E/DX2                !
 ! A78   A(29,28,107)          121.8818         estimate D2E/DX2                !
 ! A79   A(28,29,30)           119.1396         estimate D2E/DX2                !
 ! A80   A(28,29,108)          113.8799         estimate D2E/DX2                !
 ! A81   A(30,29,108)          126.3304         estimate D2E/DX2                !
 ! A82   A(29,30,31)           123.6929         estimate D2E/DX2                !
 ! A83   A(29,30,33)           123.5551         estimate D2E/DX2                !
 ! A84   A(31,30,33)           112.1852         estimate D2E/DX2                !
 ! A85   A(30,31,32)           118.2945         estimate D2E/DX2                !
 ! A86   A(27,32,31)           123.4554         estimate D2E/DX2                !
 ! A87   A(27,32,109)          117.1685         estimate D2E/DX2                !
 ! A88   A(31,32,109)          119.1878         estimate D2E/DX2                !
 ! A89   A(30,33,34)           125.3993         estimate D2E/DX2                !
 ! A90   A(30,33,39)           120.0438         estimate D2E/DX2                !
 ! A91   A(34,33,39)           114.5566         estimate D2E/DX2                !
 ! A92   A(33,34,35)           119.1491         estimate D2E/DX2                !
 ! A93   A(33,34,37)           110.4003         estimate D2E/DX2                !
 ! A94   A(35,34,37)           130.3229         estimate D2E/DX2                !
 ! A95   A(34,35,36)           111.3697         estimate D2E/DX2                !
 ! A96   A(35,36,110)          109.4599         estimate D2E/DX2                !
 ! A97   A(35,36,111)          112.883          estimate D2E/DX2                !
 ! A98   A(35,36,112)          105.7085         estimate D2E/DX2                !
 ! A99   A(110,36,111)         113.9455         estimate D2E/DX2                !
 ! A100  A(110,36,112)         106.6108         estimate D2E/DX2                !
 ! A101  A(111,36,112)         107.6899         estimate D2E/DX2                !
 ! A102  A(34,37,38)           110.1331         estimate D2E/DX2                !
 ! A103  A(34,37,113)          122.0986         estimate D2E/DX2                !
 ! A104  A(38,37,113)          127.7501         estimate D2E/DX2                !
 ! A105  A(37,38,39)           115.5875         estimate D2E/DX2                !
 ! A106  A(37,38,40)           125.1074         estimate D2E/DX2                !
 ! A107  A(39,38,40)           119.2977         estimate D2E/DX2                !
 ! A108  A(33,39,38)            89.2853         estimate D2E/DX2                !
 ! A109  A(38,40,41)           127.5349         estimate D2E/DX2                !
 ! A110  A(38,40,45)           122.1754         estimate D2E/DX2                !
 ! A111  A(41,40,45)           110.2895         estimate D2E/DX2                !
 ! A112  A(40,41,42)           123.2982         estimate D2E/DX2                !
 ! A113  A(40,41,114)          115.8395         estimate D2E/DX2                !
 ! A114  A(42,41,114)          120.07           estimate D2E/DX2                !
 ! A115  A(41,42,43)           117.4699         estimate D2E/DX2                !
 ! A116  A(41,42,115)          115.0003         estimate D2E/DX2                !
 ! A117  A(43,42,115)          126.9971         estimate D2E/DX2                !
 ! A118  A(42,43,44)           121.3917         estimate D2E/DX2                !
 ! A119  A(42,43,46)           121.1937         estimate D2E/DX2                !
 ! A120  A(44,43,46)           116.9754         estimate D2E/DX2                !
 ! A121  A(43,44,45)           119.6699         estimate D2E/DX2                !
 ! A122  A(40,45,44)           127.5151         estimate D2E/DX2                !
 ! A123  A(40,45,116)          116.6014         estimate D2E/DX2                !
 ! A124  A(44,45,116)          115.8502         estimate D2E/DX2                !
 ! A125  A(43,46,47)           132.4712         estimate D2E/DX2                !
 ! A126  A(43,46,52)           119.406          estimate D2E/DX2                !
 ! A127  A(47,46,52)           108.0978         estimate D2E/DX2                !
 ! A128  A(46,47,48)           118.5217         estimate D2E/DX2                !
 ! A129  A(46,47,50)           113.6925         estimate D2E/DX2                !
 ! A130  A(48,47,50)           127.7267         estimate D2E/DX2                !
 ! A131  A(47,48,49)           116.1315         estimate D2E/DX2                !
 ! A132  A(48,49,117)          111.9182         estimate D2E/DX2                !
 ! A133  A(48,49,118)          108.8484         estimate D2E/DX2                !
 ! A134  A(48,49,119)          114.2832         estimate D2E/DX2                !
 ! A135  A(117,49,118)         100.6466         estimate D2E/DX2                !
 ! A136  A(117,49,119)         111.3234         estimate D2E/DX2                !
 ! A137  A(118,49,119)         108.8805         estimate D2E/DX2                !
 ! A138  A(47,50,51)           111.1311         estimate D2E/DX2                !
 ! A139  A(47,50,120)          127.6577         estimate D2E/DX2                !
 ! A140  A(51,50,120)          121.1496         estimate D2E/DX2                !
 ! A141  A(50,51,52)           114.7298         estimate D2E/DX2                !
 ! A142  A(50,51,53)           130.125          estimate D2E/DX2                !
 ! A143  A(52,51,53)           115.1383         estimate D2E/DX2                !
 ! A144  A(46,52,51)            92.2514         estimate D2E/DX2                !
 ! A145  A(51,53,54)           123.8509         estimate D2E/DX2                !
 ! A146  A(51,53,58)           118.7215         estimate D2E/DX2                !
 ! A147  A(54,53,58)           117.4147         estimate D2E/DX2                !
 ! A148  A(53,54,55)           119.3049         estimate D2E/DX2                !
 ! A149  A(53,54,121)          122.7843         estimate D2E/DX2                !
 ! A150  A(55,54,121)          117.7541         estimate D2E/DX2                !
 ! A151  A(54,55,56)           116.8121         estimate D2E/DX2                !
 ! A152  A(54,55,122)          121.4791         estimate D2E/DX2                !
 ! A153  A(56,55,122)          121.056          estimate D2E/DX2                !
 ! A154  A(55,56,57)           125.1234         estimate D2E/DX2                !
 ! A155  A(55,56,59)           121.9488         estimate D2E/DX2                !
 ! A156  A(57,56,59)           112.7209         estimate D2E/DX2                !
 ! A157  A(56,57,58)           116.3877         estimate D2E/DX2                !
 ! A158  A(53,58,57)           124.8687         estimate D2E/DX2                !
 ! A159  A(53,58,123)          119.5344         estimate D2E/DX2                !
 ! A160  A(57,58,123)          115.5428         estimate D2E/DX2                !
 ! A161  A(56,59,60)           126.4336         estimate D2E/DX2                !
 ! A162  A(56,59,65)           120.27           estimate D2E/DX2                !
 ! A163  A(60,59,65)           112.7445         estimate D2E/DX2                !
 ! A164  A(59,60,61)           120.8321         estimate D2E/DX2                !
 ! A165  A(59,60,63)           109.0429         estimate D2E/DX2                !
 ! A166  A(61,60,63)           130.1121         estimate D2E/DX2                !
 ! A167  A(60,61,62)           114.8612         estimate D2E/DX2                !
 ! A168  A(61,62,124)          108.1015         estimate D2E/DX2                !
 ! A169  A(61,62,125)          111.4747         estimate D2E/DX2                !
 ! A170  A(61,62,126)          107.396          estimate D2E/DX2                !
 ! A171  A(124,62,125)         108.3742         estimate D2E/DX2                !
 ! A172  A(124,62,126)         108.6842         estimate D2E/DX2                !
 ! A173  A(125,62,126)         112.6844         estimate D2E/DX2                !
 ! A174  A(60,63,64)           114.9599         estimate D2E/DX2                !
 ! A175  A(60,63,127)          123.5712         estimate D2E/DX2                !
 ! A176  A(64,63,127)          120.8869         estimate D2E/DX2                !
 ! A177  A(63,64,65)           108.7653         estimate D2E/DX2                !
 ! A178  A(63,64,66)           129.3066         estimate D2E/DX2                !
 ! A179  A(65,64,66)           121.8439         estimate D2E/DX2                !
 ! A180  A(59,65,64)            94.3312         estimate D2E/DX2                !
 ! A181  A(64,66,67)           119.8773         estimate D2E/DX2                !
 ! A182  A(64,66,71)           119.6642         estimate D2E/DX2                !
 ! A183  A(67,66,71)           120.4115         estimate D2E/DX2                !
 ! A184  A(66,67,68)           118.0479         estimate D2E/DX2                !
 ! A185  A(66,67,128)          125.2958         estimate D2E/DX2                !
 ! A186  A(68,67,128)          116.5831         estimate D2E/DX2                !
 ! A187  A(67,68,69)           119.2531         estimate D2E/DX2                !
 ! A188  A(67,68,129)          119.3427         estimate D2E/DX2                !
 ! A189  A(69,68,129)          121.0837         estimate D2E/DX2                !
 ! A190  A(68,69,70)           120.4939         estimate D2E/DX2                !
 ! A191  A(68,69,72)           123.5497         estimate D2E/DX2                !
 ! A192  A(70,69,72)           115.9557         estimate D2E/DX2                !
 ! A193  A(69,70,71)           116.7357         estimate D2E/DX2                !
 ! A194  A(66,71,70)           124.228          estimate D2E/DX2                !
 ! A195  A(66,71,130)          122.565          estimate D2E/DX2                !
 ! A196  A(70,71,130)          112.689          estimate D2E/DX2                !
 ! A197  A(69,72,73)           129.1206         estimate D2E/DX2                !
 ! A198  A(69,72,78)           121.0924         estimate D2E/DX2                !
 ! A199  A(73,72,78)           109.7324         estimate D2E/DX2                !
 ! A200  A(72,73,74)           119.4718         estimate D2E/DX2                !
 ! A201  A(72,73,76)           113.8239         estimate D2E/DX2                !
 ! A202  A(74,73,76)           126.0203         estimate D2E/DX2                !
 ! A203  A(73,74,75)           110.7803         estimate D2E/DX2                !
 ! A204  A(74,75,131)          115.2397         estimate D2E/DX2                !
 ! A205  A(74,75,132)          113.8929         estimate D2E/DX2                !
 ! A206  A(74,75,133)          104.3186         estimate D2E/DX2                !
 ! A207  A(131,75,132)         109.5256         estimate D2E/DX2                !
 ! A208  A(131,75,133)         105.8431         estimate D2E/DX2                !
 ! A209  A(132,75,133)         107.258          estimate D2E/DX2                !
 ! A210  A(73,76,77)           113.7219         estimate D2E/DX2                !
 ! A211  A(73,76,134)          128.1914         estimate D2E/DX2                !
 ! A212  A(77,76,134)          117.9156         estimate D2E/DX2                !
 ! A213  A(76,77,78)           108.2789         estimate D2E/DX2                !
 ! A214  A(76,77,79)           132.0141         estimate D2E/DX2                !
 ! A215  A(78,77,79)           119.3277         estimate D2E/DX2                !
 ! A216  A(72,78,77)            94.3118         estimate D2E/DX2                !
 ! A217  A(77,79,80)           123.938          estimate D2E/DX2                !
 ! A218  A(77,79,84)           120.7863         estimate D2E/DX2                !
 ! A219  A(80,79,84)           115.121          estimate D2E/DX2                !
 ! A220  A(79,80,81)           116.7609         estimate D2E/DX2                !
 ! A221  A(79,80,135)          120.456          estimate D2E/DX2                !
 ! A222  A(81,80,135)          122.7748         estimate D2E/DX2                !
 ! A223  A(80,81,82)           122.7418         estimate D2E/DX2                !
 ! A224  A(80,81,136)          117.5382         estimate D2E/DX2                !
 ! A225  A(82,81,136)          119.539          estimate D2E/DX2                !
 ! A226  A(81,82,83)           122.0463         estimate D2E/DX2                !
 ! A227  A(81,82,85)           121.6941         estimate D2E/DX2                !
 ! A228  A(83,82,85)           116.2597         estimate D2E/DX2                !
 ! A229  A(82,83,84)           115.7959         estimate D2E/DX2                !
 ! A230  A(79,84,83)           127.5042         estimate D2E/DX2                !
 ! A231  A(79,84,137)          118.1638         estimate D2E/DX2                !
 ! A232  A(83,84,137)          114.2823         estimate D2E/DX2                !
 ! A233  A(82,85,86)           126.2016         estimate D2E/DX2                !
 ! A234  A(82,85,91)           121.8846         estimate D2E/DX2                !
 ! A235  A(86,85,91)           111.7605         estimate D2E/DX2                !
 ! A236  A(85,86,87)           121.3136         estimate D2E/DX2                !
 ! A237  A(85,86,89)           109.511          estimate D2E/DX2                !
 ! A238  A(87,86,89)           129.1136         estimate D2E/DX2                !
 ! A239  A(86,87,88)           115.711          estimate D2E/DX2                !
 ! A240  A(87,88,138)          109.3124         estimate D2E/DX2                !
 ! A241  A(87,88,139)          109.0839         estimate D2E/DX2                !
 ! A242  A(87,88,140)          110.1091         estimate D2E/DX2                !
 ! A243  A(138,88,139)         106.3591         estimate D2E/DX2                !
 ! A244  A(138,88,140)         109.8292         estimate D2E/DX2                !
 ! A245  A(139,88,140)         112.0514         estimate D2E/DX2                !
 ! A246  A(86,89,90)           111.3214         estimate D2E/DX2                !
 ! A247  A(86,89,141)          122.5965         estimate D2E/DX2                !
 ! A248  A(90,89,141)          126.0164         estimate D2E/DX2                !
 ! A249  A(89,90,91)           115.1926         estimate D2E/DX2                !
 ! A250  A(89,90,142)          130.3619         estimate D2E/DX2                !
 ! A251  A(91,90,142)          114.4411         estimate D2E/DX2                !
 ! A252  A(85,91,90)            92.0014         estimate D2E/DX2                !
 ! D1    D(6,1,2,3)             -9.3376         estimate D2E/DX2                !
 ! D2    D(6,1,2,93)           177.6397         estimate D2E/DX2                !
 ! D3    D(92,1,2,3)          -179.8156         estimate D2E/DX2                !
 ! D4    D(92,1,2,93)            7.1617         estimate D2E/DX2                !
 ! D5    D(2,1,6,5)              9.812          estimate D2E/DX2                !
 ! D6    D(2,1,6,95)           178.3778         estimate D2E/DX2                !
 ! D7    D(92,1,6,5)          -179.5963         estimate D2E/DX2                !
 ! D8    D(92,1,6,95)          -11.0305         estimate D2E/DX2                !
 ! D9    D(1,2,3,4)              5.8097         estimate D2E/DX2                !
 ! D10   D(1,2,3,94)          -178.8246         estimate D2E/DX2                !
 ! D11   D(93,2,3,4)           178.0027         estimate D2E/DX2                !
 ! D12   D(93,2,3,94)           -6.6316         estimate D2E/DX2                !
 ! D13   D(2,3,4,5)             -1.4834         estimate D2E/DX2                !
 ! D14   D(2,3,4,7)            174.7835         estimate D2E/DX2                !
 ! D15   D(94,3,4,5)          -176.7912         estimate D2E/DX2                !
 ! D16   D(94,3,4,7)            -0.5244         estimate D2E/DX2                !
 ! D17   D(3,4,5,6)              1.3357         estimate D2E/DX2                !
 ! D18   D(7,4,5,6)           -175.1692         estimate D2E/DX2                !
 ! D19   D(3,4,7,8)            -16.0831         estimate D2E/DX2                !
 ! D20   D(3,4,7,13)           163.2157         estimate D2E/DX2                !
 ! D21   D(5,4,7,8)            160.2666         estimate D2E/DX2                !
 ! D22   D(5,4,7,13)           -20.4346         estimate D2E/DX2                !
 ! D23   D(4,5,6,1)             -5.9466         estimate D2E/DX2                !
 ! D24   D(4,5,6,95)          -175.9389         estimate D2E/DX2                !
 ! D25   D(4,7,8,9)             -1.9241         estimate D2E/DX2                !
 ! D26   D(4,7,8,11)           177.635          estimate D2E/DX2                !
 ! D27   D(13,7,8,9)           178.762          estimate D2E/DX2                !
 ! D28   D(13,7,8,11)           -1.6789         estimate D2E/DX2                !
 ! D29   D(4,7,13,12)         -179.6886         estimate D2E/DX2                !
 ! D30   D(8,7,13,12)           -0.2766         estimate D2E/DX2                !
 ! D31   D(7,8,9,10)          -178.8367         estimate D2E/DX2                !
 ! D32   D(11,8,9,10)            1.7296         estimate D2E/DX2                !
 ! D33   D(7,8,11,12)            3.5779         estimate D2E/DX2                !
 ! D34   D(7,8,11,99)          179.2366         estimate D2E/DX2                !
 ! D35   D(9,8,11,12)         -176.9277         estimate D2E/DX2                !
 ! D36   D(9,8,11,99)           -1.2691         estimate D2E/DX2                !
 ! D37   D(8,9,10,96)         -179.9713         estimate D2E/DX2                !
 ! D38   D(8,9,10,97)          -63.6382         estimate D2E/DX2                !
 ! D39   D(8,9,10,98)           56.8701         estimate D2E/DX2                !
 ! D40   D(8,11,12,13)          -3.8735         estimate D2E/DX2                !
 ! D41   D(8,11,12,14)         175.3943         estimate D2E/DX2                !
 ! D42   D(99,11,12,13)       -179.4824         estimate D2E/DX2                !
 ! D43   D(99,11,12,14)         -0.2145         estimate D2E/DX2                !
 ! D44   D(11,12,13,7)           2.2977         estimate D2E/DX2                !
 ! D45   D(14,12,13,7)        -177.089          estimate D2E/DX2                !
 ! D46   D(11,12,14,15)        -38.9566         estimate D2E/DX2                !
 ! D47   D(11,12,14,19)        132.0863         estimate D2E/DX2                !
 ! D48   D(13,12,14,15)        140.2691         estimate D2E/DX2                !
 ! D49   D(13,12,14,19)        -48.688          estimate D2E/DX2                !
 ! D50   D(12,14,15,16)       -173.5635         estimate D2E/DX2                !
 ! D51   D(12,14,15,100)        -4.8199         estimate D2E/DX2                !
 ! D52   D(19,14,15,16)         14.7493         estimate D2E/DX2                !
 ! D53   D(19,14,15,100)      -176.507          estimate D2E/DX2                !
 ! D54   D(12,14,19,18)        174.2463         estimate D2E/DX2                !
 ! D55   D(12,14,19,102)         3.9283         estimate D2E/DX2                !
 ! D56   D(15,14,19,18)        -14.4614         estimate D2E/DX2                !
 ! D57   D(15,14,19,102)       175.2205         estimate D2E/DX2                !
 ! D58   D(14,15,16,17)        -10.3428         estimate D2E/DX2                !
 ! D59   D(14,15,16,101)       173.3982         estimate D2E/DX2                !
 ! D60   D(100,15,16,17)      -178.6367         estimate D2E/DX2                !
 ! D61   D(100,15,16,101)        5.1043         estimate D2E/DX2                !
 ! D62   D(15,16,17,18)          4.8632         estimate D2E/DX2                !
 ! D63   D(15,16,17,20)       -175.9528         estimate D2E/DX2                !
 ! D64   D(101,16,17,18)      -179.0021         estimate D2E/DX2                !
 ! D65   D(101,16,17,20)         0.1819         estimate D2E/DX2                !
 ! D66   D(16,17,18,19)         -3.9733         estimate D2E/DX2                !
 ! D67   D(20,17,18,19)        176.7715         estimate D2E/DX2                !
 ! D68   D(16,17,20,21)         28.9861         estimate D2E/DX2                !
 ! D69   D(16,17,20,26)       -141.5037         estimate D2E/DX2                !
 ! D70   D(18,17,20,21)       -151.7455         estimate D2E/DX2                !
 ! D71   D(18,17,20,26)         37.7647         estimate D2E/DX2                !
 ! D72   D(17,18,19,14)          9.063          estimate D2E/DX2                !
 ! D73   D(17,18,19,102)       179.7045         estimate D2E/DX2                !
 ! D74   D(17,20,21,22)         10.5296         estimate D2E/DX2                !
 ! D75   D(17,20,21,24)       -174.1003         estimate D2E/DX2                !
 ! D76   D(26,20,21,22)       -178.2115         estimate D2E/DX2                !
 ! D77   D(26,20,21,24)         -2.8414         estimate D2E/DX2                !
 ! D78   D(17,20,26,25)        173.8732         estimate D2E/DX2                !
 ! D79   D(21,20,26,25)          1.3183         estimate D2E/DX2                !
 ! D80   D(20,21,22,23)        168.9594         estimate D2E/DX2                !
 ! D81   D(24,21,22,23)         -6.1498         estimate D2E/DX2                !
 ! D82   D(20,21,24,25)          3.3191         estimate D2E/DX2                !
 ! D83   D(20,21,24,106)       177.7274         estimate D2E/DX2                !
 ! D84   D(22,21,24,25)        178.6934         estimate D2E/DX2                !
 ! D85   D(22,21,24,106)        -6.8983         estimate D2E/DX2                !
 ! D86   D(21,22,23,103)       -58.5547         estimate D2E/DX2                !
 ! D87   D(21,22,23,104)      -173.3071         estimate D2E/DX2                !
 ! D88   D(21,22,23,105)        67.9613         estimate D2E/DX2                !
 ! D89   D(21,24,25,26)         -2.1513         estimate D2E/DX2                !
 ! D90   D(21,24,25,27)        179.1848         estimate D2E/DX2                !
 ! D91   D(106,24,25,26)      -176.9645         estimate D2E/DX2                !
 ! D92   D(106,24,25,27)         4.3716         estimate D2E/DX2                !
 ! D93   D(24,25,26,20)          0.5933         estimate D2E/DX2                !
 ! D94   D(27,25,26,20)        179.4311         estimate D2E/DX2                !
 ! D95   D(24,25,27,28)       -141.0688         estimate D2E/DX2                !
 ! D96   D(24,25,27,32)         28.5555         estimate D2E/DX2                !
 ! D97   D(26,25,27,28)         40.2855         estimate D2E/DX2                !
 ! D98   D(26,25,27,32)       -150.0901         estimate D2E/DX2                !
 ! D99   D(25,27,28,29)       -179.9442         estimate D2E/DX2                !
 ! D100  D(25,27,28,107)        -6.8344         estimate D2E/DX2                !
 ! D101  D(32,27,28,29)          9.6731         estimate D2E/DX2                !
 ! D102  D(32,27,28,107)      -177.2171         estimate D2E/DX2                !
 ! D103  D(25,27,32,31)       -178.4024         estimate D2E/DX2                !
 ! D104  D(25,27,32,109)         6.6344         estimate D2E/DX2                !
 ! D105  D(28,27,32,31)         -7.7118         estimate D2E/DX2                !
 ! D106  D(28,27,32,109)       177.3251         estimate D2E/DX2                !
 ! D107  D(27,28,29,30)        -11.1093         estimate D2E/DX2                !
 ! D108  D(27,28,29,108)       177.5498         estimate D2E/DX2                !
 ! D109  D(107,28,29,30)       176.1314         estimate D2E/DX2                !
 ! D110  D(107,28,29,108)        4.7905         estimate D2E/DX2                !
 ! D111  D(28,29,30,31)         10.0275         estimate D2E/DX2                !
 ! D112  D(28,29,30,33)       -179.2866         estimate D2E/DX2                !
 ! D113  D(108,29,30,31)      -179.8118         estimate D2E/DX2                !
 ! D114  D(108,29,30,33)        -9.1259         estimate D2E/DX2                !
 ! D115  D(29,30,31,32)         -7.7833         estimate D2E/DX2                !
 ! D116  D(33,30,31,32)       -179.4079         estimate D2E/DX2                !
 ! D117  D(29,30,33,34)         30.9629         estimate D2E/DX2                !
 ! D118  D(29,30,33,39)       -148.8332         estimate D2E/DX2                !
 ! D119  D(31,30,33,34)       -157.3991         estimate D2E/DX2                !
 ! D120  D(31,30,33,39)         22.8049         estimate D2E/DX2                !
 ! D121  D(30,31,32,27)          6.78           estimate D2E/DX2                !
 ! D122  D(30,31,32,109)      -178.3531         estimate D2E/DX2                !
 ! D123  D(30,33,34,35)          3.1149         estimate D2E/DX2                !
 ! D124  D(30,33,34,37)        179.4245         estimate D2E/DX2                !
 ! D125  D(39,33,34,35)       -177.0792         estimate D2E/DX2                !
 ! D126  D(39,33,34,37)         -0.7696         estimate D2E/DX2                !
 ! D127  D(30,33,39,38)        179.5006         estimate D2E/DX2                !
 ! D128  D(34,33,39,38)         -0.3166         estimate D2E/DX2                !
 ! D129  D(33,34,35,36)       -173.17           estimate D2E/DX2                !
 ! D130  D(37,34,35,36)         11.3684         estimate D2E/DX2                !
 ! D131  D(33,34,37,38)          1.7905         estimate D2E/DX2                !
 ! D132  D(33,34,37,113)      -176.7673         estimate D2E/DX2                !
 ! D133  D(35,34,37,38)        177.5622         estimate D2E/DX2                !
 ! D134  D(35,34,37,113)        -0.9957         estimate D2E/DX2                !
 ! D135  D(34,35,36,110)        59.1389         estimate D2E/DX2                !
 ! D136  D(34,35,36,111)       -68.9117         estimate D2E/DX2                !
 ! D137  D(34,35,36,112)       173.6158         estimate D2E/DX2                !
 ! D138  D(34,37,38,39)         -2.1181         estimate D2E/DX2                !
 ! D139  D(34,37,38,40)        176.8793         estimate D2E/DX2                !
 ! D140  D(113,37,38,39)       176.3368         estimate D2E/DX2                !
 ! D141  D(113,37,38,40)        -4.6659         estimate D2E/DX2                !
 ! D142  D(37,38,39,33)          1.4569         estimate D2E/DX2                !
 ! D143  D(40,38,39,33)       -177.6026         estimate D2E/DX2                !
 ! D144  D(37,38,40,41)        134.9703         estimate D2E/DX2                !
 ! D145  D(37,38,40,45)        -45.2175         estimate D2E/DX2                !
 ! D146  D(39,38,40,41)        -46.0667         estimate D2E/DX2                !
 ! D147  D(39,38,40,45)        133.7455         estimate D2E/DX2                !
 ! D148  D(38,40,41,42)       -174.2212         estimate D2E/DX2                !
 ! D149  D(38,40,41,114)        -4.4339         estimate D2E/DX2                !
 ! D150  D(45,40,41,42)          5.9483         estimate D2E/DX2                !
 ! D151  D(45,40,41,114)       175.7356         estimate D2E/DX2                !
 ! D152  D(38,40,45,44)        177.7415         estimate D2E/DX2                !
 ! D153  D(38,40,45,116)        -4.4594         estimate D2E/DX2                !
 ! D154  D(41,40,45,44)         -2.4173         estimate D2E/DX2                !
 ! D155  D(41,40,45,116)       175.3819         estimate D2E/DX2                !
 ! D156  D(40,41,42,43)         -7.486          estimate D2E/DX2                !
 ! D157  D(40,41,42,115)      -179.7078         estimate D2E/DX2                !
 ! D158  D(114,41,42,43)      -176.8603         estimate D2E/DX2                !
 ! D159  D(114,41,42,115)       10.9179         estimate D2E/DX2                !
 ! D160  D(41,42,43,44)          4.9707         estimate D2E/DX2                !
 ! D161  D(41,42,43,46)        177.135          estimate D2E/DX2                !
 ! D162  D(115,42,43,44)       176.1363         estimate D2E/DX2                !
 ! D163  D(115,42,43,46)       -11.6994         estimate D2E/DX2                !
 ! D164  D(42,43,44,45)         -1.6128         estimate D2E/DX2                !
 ! D165  D(46,43,44,45)       -174.0936         estimate D2E/DX2                !
 ! D166  D(42,43,46,47)         -0.2488         estimate D2E/DX2                !
 ! D167  D(42,43,46,52)       -178.1921         estimate D2E/DX2                !
 ! D168  D(44,43,46,47)        172.2479         estimate D2E/DX2                !
 ! D169  D(44,43,46,52)         -5.6955         estimate D2E/DX2                !
 ! D170  D(43,44,45,40)          0.3495         estimate D2E/DX2                !
 ! D171  D(43,44,45,116)      -177.4638         estimate D2E/DX2                !
 ! D172  D(43,46,47,48)          3.5089         estimate D2E/DX2                !
 ! D173  D(43,46,47,50)       -179.0713         estimate D2E/DX2                !
 ! D174  D(52,46,47,48)       -178.3759         estimate D2E/DX2                !
 ! D175  D(52,46,47,50)         -0.9562         estimate D2E/DX2                !
 ! D176  D(43,46,52,51)        177.5915         estimate D2E/DX2                !
 ! D177  D(47,46,52,51)         -0.8126         estimate D2E/DX2                !
 ! D178  D(46,47,48,49)       -178.2622         estimate D2E/DX2                !
 ! D179  D(50,47,48,49)          4.7255         estimate D2E/DX2                !
 ! D180  D(46,47,50,51)          2.7875         estimate D2E/DX2                !
 ! D181  D(46,47,50,120)       179.9277         estimate D2E/DX2                !
 ! D182  D(48,47,50,51)        179.9209         estimate D2E/DX2                !
 ! D183  D(48,47,50,120)        -2.9389         estimate D2E/DX2                !
 ! D184  D(47,48,49,117)       172.0595         estimate D2E/DX2                !
 ! D185  D(47,48,49,118)        61.7076         estimate D2E/DX2                !
 ! D186  D(47,48,49,119)       -60.2394         estimate D2E/DX2                !
 ! D187  D(47,50,51,52)         -3.4658         estimate D2E/DX2                !
 ! D188  D(47,50,51,53)        175.522          estimate D2E/DX2                !
 ! D189  D(120,50,51,52)       179.1795         estimate D2E/DX2                !
 ! D190  D(120,50,51,53)        -1.8327         estimate D2E/DX2                !
 ! D191  D(50,51,52,46)          2.5263         estimate D2E/DX2                !
 ! D192  D(53,51,52,46)       -176.6187         estimate D2E/DX2                !
 ! D193  D(50,51,53,54)       -145.8198         estimate D2E/DX2                !
 ! D194  D(50,51,53,58)         32.834          estimate D2E/DX2                !
 ! D195  D(52,51,53,54)         33.1646         estimate D2E/DX2                !
 ! D196  D(52,51,53,58)       -148.1816         estimate D2E/DX2                !
 ! D197  D(51,53,54,55)        175.6493         estimate D2E/DX2                !
 ! D198  D(51,53,54,121)         0.3048         estimate D2E/DX2                !
 ! D199  D(58,53,54,55)         -3.0208         estimate D2E/DX2                !
 ! D200  D(58,53,54,121)      -178.3653         estimate D2E/DX2                !
 ! D201  D(51,53,58,57)       -177.9295         estimate D2E/DX2                !
 ! D202  D(51,53,58,123)        -0.731          estimate D2E/DX2                !
 ! D203  D(54,53,58,57)          0.8111         estimate D2E/DX2                !
 ! D204  D(54,53,58,123)       178.0096         estimate D2E/DX2                !
 ! D205  D(53,54,55,56)          3.4276         estimate D2E/DX2                !
 ! D206  D(53,54,55,122)       174.2584         estimate D2E/DX2                !
 ! D207  D(121,54,55,56)       179.0053         estimate D2E/DX2                !
 ! D208  D(121,54,55,122)      -10.1639         estimate D2E/DX2                !
 ! D209  D(54,55,56,57)         -1.5992         estimate D2E/DX2                !
 ! D210  D(54,55,56,59)        172.7874         estimate D2E/DX2                !
 ! D211  D(122,55,56,57)      -172.4714         estimate D2E/DX2                !
 ! D212  D(122,55,56,59)         1.9152         estimate D2E/DX2                !
 ! D213  D(55,56,57,58)         -0.5643         estimate D2E/DX2                !
[...]
  Beta virt. eigenvalues --    2.11660   2.12684   2.12714   2.12968   2.13112
  Beta virt. eigenvalues --    2.13240   2.13440   2.14472   2.14778   2.14933
  Beta virt. eigenvalues --    2.15388   2.15916   2.16743   2.17376   2.18119
  Beta virt. eigenvalues --    2.22360   2.22833   2.23509   2.24109   2.24299
  Beta virt. eigenvalues --    2.24415   2.24470   2.24770   2.26659   2.26947
  Beta virt. eigenvalues --    2.27245   2.27555   2.27844   2.28346   2.28503
  Beta virt. eigenvalues --    2.28677   2.28784   2.28828   2.28980   2.29171
  Beta virt. eigenvalues --    2.30127   2.30985   2.32351   2.32727   2.32972
  Beta virt. eigenvalues --    2.33205   2.33508   2.33705   2.33824   2.33965
  Beta virt. eigenvalues --    2.33967   2.34039   2.34118   2.34140   2.34211
  Beta virt. eigenvalues --    2.34466   2.34780   2.34960   2.35080   2.35241
  Beta virt. eigenvalues --    2.35375   2.35742   2.36963   2.37093   2.37279
  Beta virt. eigenvalues --    2.37442   2.37576   2.37666   2.38122   2.38495
  Beta virt. eigenvalues --    2.38909   2.39125   2.39167   2.39190   2.39252
  Beta virt. eigenvalues --    2.39634   2.39646   2.40281   2.40411   2.40619
  Beta virt. eigenvalues --    2.40789   2.40985   2.41512   2.41878   2.41997
  Beta virt. eigenvalues --    2.42153   2.42371   2.42470   2.42553   2.42784
  Beta virt. eigenvalues --    2.43075   2.43250   2.43410   2.43658   2.43802
  Beta virt. eigenvalues --    2.43967   2.44385   2.45251   2.45660   2.46108
  Beta virt. eigenvalues --    2.46407   2.46692   2.47094   2.47411   2.47595
  Beta virt. eigenvalues --    2.50430   2.53447   2.53999   2.54039   2.54137
  Beta virt. eigenvalues --    2.54335   2.54682   2.57010   2.58189   2.59070
  Beta virt. eigenvalues --    2.59779   2.60069   2.60676   2.61057   2.64720
  Beta virt. eigenvalues --    2.65486   2.66098   2.66408   2.66794   2.66965
  Beta virt. eigenvalues --    2.67128   2.67719   2.70087   2.70316   2.70693
  Beta virt. eigenvalues --    2.70953   2.71215   2.71492   2.75544   2.76105
  Beta virt. eigenvalues --    2.76427   2.76795   2.77030   2.78956   2.80897
  Beta virt. eigenvalues --    2.82098   2.82119   2.82154   2.82179   2.82290
  Beta virt. eigenvalues --    2.82723   2.83253   2.83320   2.83555   2.84210
  Beta virt. eigenvalues --    2.84352   2.84553   2.84597   2.84960   2.85154
  Beta virt. eigenvalues --    2.87080   2.87679   2.88188   2.88984   2.89713
  Beta virt. eigenvalues --    2.90810   2.91416   2.92738   2.93433   2.93922
  Beta virt. eigenvalues --    2.94446   2.94652   2.94734   2.94739   2.94865
  Beta virt. eigenvalues --    2.94986   2.95399   2.95905   2.96220   2.96782
  Beta virt. eigenvalues --    2.97881   2.99423   3.00780   3.00867   3.01026
  Beta virt. eigenvalues --    3.01153   3.01283   3.29350   3.29428   3.29561
  Beta virt. eigenvalues --    3.29638   3.29692   3.29889   3.30394   3.33379
  Beta virt. eigenvalues --    3.33613   3.33836   3.34149   3.34620   3.35149
  Beta virt. eigenvalues --    3.37571   3.38889   3.39399   3.39964   3.40625
  Beta virt. eigenvalues --    3.41190   3.41465   3.44631
          Condensed to atoms (all electrons):
          Atomic-Atomic Spin Densities.
 Mulliken charges and spin densities:
               1          2
     1  C   -0.028074  -0.000000
     2  C    0.077964   0.000000
     3  C    0.001502   0.000000
     4  C    0.132797  -0.000000
     5  N   -0.220488   0.000000
     6  C    0.092807   0.000000
     7  C   -0.145437   0.000000
     8  C    0.116293   0.000000
     9  O   -0.244956  -0.000000
    10  C    0.068080  -0.000000
    11  C    0.006871  -0.000000
    12  C   -0.150851   0.000000
    13  S    0.177065   0.000000
    14  C    0.022675   0.000000
    15  C    0.054566  -0.000000
    16  C    0.020388   0.000000
    17  C    0.144205   0.000000
    18  N   -0.219814  -0.000000
    19  C    0.086205  -0.000000
    20  C   -0.148938   0.000000
    21  C    0.109206  -0.000000
    22  O   -0.245195  -0.000000
    23  C    0.067363  -0.000000
    24  C    0.009195   0.000000
    25  C   -0.147408  -0.000000
    26  S    0.174744  -0.000000
    27  C    0.017934   0.000000
    28  C    0.057454  -0.000000
    29  C    0.021384   0.000000
    30  C    0.141432  -0.000000
    31  N   -0.220788   0.000000
    32  C    0.084845  -0.000000
    33  C   -0.148015   0.000000
    34  C    0.111158   0.000000
    35  O   -0.244182   0.000000
    36  C    0.066938   0.000000
    37  C    0.009300  -0.000000
    38  C   -0.146907   0.000000
    39  S    0.170861   0.000000
    40  C    0.018302  -0.000000
    41  C    0.057354   0.000000
    42  C    0.021325  -0.000000
    43  C    0.141589  -0.000000
    44  N   -0.220672   0.000000
    45  C    0.085024   0.000000
    46  C   -0.148161   0.000000
    47  C    0.110783   0.000000
    48  O   -0.244362  -0.000000
    49  C    0.066972  -0.000000
    50  C    0.009519  -0.000000
    51  C   -0.147138   0.000000
    52  S    0.171401   0.000000
    53  C    0.017908   0.000000
    54  C    0.057591  -0.000000
    55  C    0.021187   0.000000
    56  C    0.141636  -0.000000
    57  N   -0.220562   0.000000
    58  C    0.085179  -0.000000
    59  C   -0.148186   0.000000
    60  C    0.110763  -0.000000
    61  O   -0.244336  -0.000000
    62  C    0.067089  -0.000000
    63  C    0.009671  -0.000000
    64  C   -0.146040   0.000000
    65  S    0.171331  -0.000000
    66  C    0.022699  -0.000000
    67  C    0.048994   0.000000
    68  C    0.016517  -0.000000
    69  C    0.105597   0.000000
    70  N   -0.189203  -0.000000
    71  C    0.070793   0.000000
    72  C   -0.155472   0.000000
    73  C    0.151702  -0.000000
    74  O   -0.199010   0.000000
    75  C    0.060988  -0.000000
    76  C    0.002563  -0.000000
    77  C   -0.137193   0.000000
    78  S    0.116000   0.000000
    79  C    0.027250  -0.000000
    80  C    0.045333   0.000000
    81  C    0.016951  -0.000000
    82  C    0.120091   0.000000
    83  N   -0.188997   0.000000
    84  C    0.070560   0.000000
    85  C   -0.173219  -0.000000
    86  C    0.134782   0.000000
    87  O   -0.196828  -0.000000
    88  C    0.057806  -0.000000
    89  C    0.034865  -0.000000
    90  C   -0.112680   0.000000
    91  S    0.136764   0.000000
    92  H   -0.020644   0.000000
    93  H   -0.016629  -0.000000
    94  H   -0.022438  -0.000000
    95  H   -0.004046  -0.000000
    96  H    0.048951   0.000000
    97  H    0.047273   0.000000
    98  H    0.044665   0.000000
    99  H   -0.024140  -0.000000
   100  H   -0.031772  -0.000000
   101  H   -0.025190   0.000000
   102  H    0.003251   0.000000
   103  H    0.046952   0.000000
   104  H    0.048740  -0.000000
   105  H    0.048551  -0.000000
   106  H   -0.019967  -0.000000
   107  H   -0.013429   0.000000
   108  H   -0.022634   0.000000
   109  H   -0.012392  -0.000000
   110  H    0.047298   0.000000
   111  H    0.048391   0.000000
   112  H    0.050723  -0.000000
   113  H   -0.019537  -0.000000
   114  H   -0.014768   0.000000
   115  H   -0.023199  -0.000000
   116  H   -0.011845   0.000000
   117  H    0.050176   0.000000
   118  H    0.048675  -0.000000
   119  H    0.047316  -0.000000
   120  H   -0.019282   0.000000
   121  H   -0.014805   0.000000
   122  H   -0.023175   0.000000
   123  H   -0.011858   0.000000
   124  H    0.048679   0.000000
   125  H    0.046941  -0.000000
   126  H    0.050130  -0.000000
   127  H   -0.019388  -0.000000
   128  H   -0.014356   0.000000
   129  H   -0.013168   0.000000
   130  H   -0.015234  -0.000000
   131  H    0.042653   0.000000
   132  H    0.043605  -0.000000
   133  H    0.050865   0.000000
   134  H   -0.017999   0.000000
   135  H   -0.016506   0.000000
   136  H   -0.013510  -0.000000
   137  H   -0.012679  -0.000000
   138  H    0.042577  -0.000000
   139  H    0.052018   0.000000
   140  H    0.042195  -0.000000
   141  H   -0.012591   0.000000
   142  H    0.021562   0.000000
 Sum of Mulliken charges =  -0.00000  -0.00000
 Mulliken charges and spin densities with hydrogens summed into heavy atoms:
               1          2
     1  C   -0.048718  -0.000000
     2  C    0.061335   0.000000
     3  C   -0.020937   0.000000
     4  C    0.132797  -0.000000
     5  N   -0.220488   0.000000
     6  C    0.088761  -0.000000
     7  C   -0.145437   0.000000
     8  C    0.116293   0.000000
     9  O   -0.244956  -0.000000
    10  C    0.208969   0.000000
    11  C   -0.017270  -0.000000
    12  C   -0.150851   0.000000
    13  S    0.177065   0.000000
    14  C    0.022675   0.000000
    15  C    0.022793  -0.000000
    16  C   -0.004803   0.000000
    17  C    0.144205   0.000000
    18  N   -0.219814  -0.000000
    19  C    0.089456  -0.000000
    20  C   -0.148938   0.000000
    21  C    0.109206  -0.000000
    22  O   -0.245195  -0.000000
    23  C    0.211606  -0.000000
    24  C   -0.010772   0.000000
    25  C   -0.147408  -0.000000
    26  S    0.174744  -0.000000
    27  C    0.017934   0.000000
    28  C    0.044026  -0.000000
    29  C   -0.001250   0.000000
    30  C    0.141432  -0.000000
    31  N   -0.220788   0.000000
    32  C    0.072454  -0.000000
    33  C   -0.148015   0.000000
    34  C    0.111158   0.000000
    35  O   -0.244182   0.000000
    36  C    0.213349   0.000000
    37  C   -0.010237  -0.000000
    38  C   -0.146907   0.000000
    39  S    0.170861   0.000000
    40  C    0.018302  -0.000000
    41  C    0.042586   0.000000
    42  C   -0.001875  -0.000000
    43  C    0.141589  -0.000000
    44  N   -0.220672   0.000000
    45  C    0.073180   0.000000
    46  C   -0.148161   0.000000
    47  C    0.110783   0.000000
    48  O   -0.244362  -0.000000
    49  C    0.213139  -0.000000
    50  C   -0.009764  -0.000000
    51  C   -0.147138   0.000000
    52  S    0.171401   0.000000
    53  C    0.017908   0.000000
    54  C    0.042786  -0.000000
    55  C   -0.001988   0.000000
    56  C    0.141636  -0.000000
    57  N   -0.220562   0.000000
    58  C    0.073321  -0.000000
    59  C   -0.148186   0.000000
    60  C    0.110763  -0.000000
    61  O   -0.244336  -0.000000
    62  C    0.212838  -0.000000
    63  C   -0.009717  -0.000000
    64  C   -0.146040   0.000000
    65  S    0.171331  -0.000000
    66  C    0.022699  -0.000000
    67  C    0.034638   0.000000
    68  C    0.003350  -0.000000
    69  C    0.105597   0.000000
    70  N   -0.189203  -0.000000
    71  C    0.055560   0.000000
    72  C   -0.155472   0.000000
    73  C    0.151702  -0.000000
    74  O   -0.199010   0.000000
    75  C    0.198111  -0.000000
    76  C   -0.015436  -0.000000
    77  C   -0.137193   0.000000
    78  S    0.116000   0.000000
    79  C    0.027250  -0.000000
    80  C    0.028827   0.000000
    81  C    0.003441  -0.000000
    82  C    0.120091   0.000000
    83  N   -0.188997   0.000000
    84  C    0.057881   0.000000
    85  C   -0.173219  -0.000000
    86  C    0.134782   0.000000
    87  O   -0.196828  -0.000000
    88  C    0.194597  -0.000000
    89  C    0.022275  -0.000000
    90  C   -0.091118   0.000000
    91  S    0.136764   0.000000
 Electronic spatial extent (au):  <R**2>=         627905.2259
 Charge=             -0.0000 electrons
 Dipole moment (field-independent basis, Debye):
    X=              5.2924    Y=             -2.7239    Z=              1.4772  Tot=              6.1328
 Quadrupole moment (field-independent basis, Debye-Ang):
   XX=           -313.2544   YY=           -460.4579   ZZ=           -572.0939
   XY=             73.7236   XZ=            -18.2625   YZ=            -17.3877
 Traceless Quadrupole moment (field-independent basis, Debye-Ang):
   XX=            135.3477   YY=            -11.8558   ZZ=           -123.4919
   XY=             73.7236   XZ=            -18.2625   YZ=            -17.3877
 Octapole moment (field-independent basis, Debye-Ang**2):
  XXX=           3740.9449  YYY=             86.9688  ZZZ=             48.4470  XYY=            -20.6446
  XXY=          -2101.9941  XXZ=           -301.2934  XZZ=            -56.6562  YZZ=            -62.0882
  YYZ=             -4.4782  XYZ=            176.1294
 Hexadecapole moment (field-independent basis, Debye-Ang**3):
 XXXX=        -548304.5011 YYYY=         -18420.7435 ZZZZ=          -6119.9476 XXXY=          19218.1508
 XXXZ=           5744.8448 YYYX=           2291.9821 YYYZ=           -262.6113 ZZZX=            -15.5521
 ZZZY=           -261.5957 XXYY=        -116034.2622 XXZZ=        -142675.2300 YYZZ=          -4396.6841
 XXYZ=            333.3149 YYXZ=          -1108.8079 ZZXY=            295.7259
 N-N= 1.316474942107D+04 E-N=-4.134500336488D+04  KE= 6.361037891269D+03
 Leave Link  601 at Fri Jul 24 10:30:39 2020, MaxMem=  4026531840 cpu:              28.1 elap:               4.2
 (Enter /opt/ohpc/pub/libs/gaussian/g16-A.03/sandybridge/g16/l9999.exe)

 Test job not archived.
 1\1\GINC-SKYLAKE041\FOpt\ULC-wPBE\CC-pVDZ\C70H51N7O7S7\RDU230\24-Jul-2
 020\0\\#P uLC-wPBE/cc-pVDZ iop(3/107=0080500000, 3/108=0080500000) opt
 \\H51 C70 S7 N7 O7\\0,1\C,-25.6553213045,3.8870244269,-0.5067133135\C,
 -26.0899584804,2.8087601135,-1.291845619\C,-25.1941993604,1.7830290798
 ,-1.6069745483\C,-23.866417115,1.8676408663,-1.1196420123\N,-23.441032
 5168,2.9123421324,-0.3578700027\C,-24.3211866298,3.8815772753,-0.07009
 50808\C,-22.8509233453,0.8557040082,-1.3856972945\C,-22.8913191826,-0.
 3421625543,-2.1128361186\O,-24.0424288998,-0.7339800006,-2.7391524033\
 C,-23.9908270983,-1.9643163869,-3.4604310639\C,-21.6516094627,-1.04553
 61831,-2.1179638291\C,-20.6549454941,-0.3918961806,-1.3985456358\S,-21
 .2553604827,1.0981669963,-0.6993169658\C,-19.2717301622,-0.8209268657,
 -1.1982218035\C,-18.8660002252,-2.1635247421,-1.3841908529\C,-17.53565
 2728,-2.5288830747,-1.1933458277\C,-16.600386647,-1.5391463719,-0.7993
 980645\N,-16.974287015,-0.2425190075,-0.6139144603\C,-18.2519561997,0.
 0855170236,-0.8135536436\C,-15.1920321701,-1.8119165105,-0.5628654635\
 C,-14.4426886993,-2.9956851104,-0.642793648\O,-15.0448084306,-4.172210
 4138,-0.9924375637\C,-14.2077028562,-5.3277182487,-1.0454686803\C,-13.
 0658841076,-2.8196784803,-0.3220856131\C,-12.7497112211,-1.5031186629,
 0.0044329038\S,-14.1625223011,-0.4714768783,-0.0923598686\C,-11.445859
 8025,-0.9606205063,0.3810596555\C,-11.2942358147,0.2706292726,1.060915
 8127\C,-10.02614614,0.7369366931,1.3980622318\C,-8.8937305095,-0.04534
 74602,1.0593785387\N,-9.0207796442,-1.2302710454,0.3984595197\C,-10.24
 5140461,-1.650522398,0.075667566\C,-7.5276631721,0.338191068,1.3753853
 746\C,-7.0015110044,1.4589643671,2.0362842695\O,-7.8337004059,2.428772
 9099,2.5197412888\C,-7.2144988793,3.5356070755,3.1763521494\C,-5.58052
 61692,1.4442238688,2.1369034979\C,-5.0074343624,0.3161234253,1.5549850
 001\S,-6.2328043949,-0.7328335015,0.8704951856\C,-3.5894082485,-0.0275
 389289,1.4705960734\C,-3.1316467399,-1.3418494262,1.2172871732\C,-1.76
 70775348,-1.6116781428,1.1511143102\C,-0.846646855,-0.5526280929,1.351
 9377713\N,-1.2699514748,0.720597035,1.5901741738\C,-2.5821082044,0.956
 6786345,1.6372666159\C,0.596474268,-0.7236962478,1.3191901695\C,1.3983
 565335,-1.8563887028,1.1100937941\O,0.8248952457,-3.077632916,0.893881
 486\C,1.7146119784,-4.1757450462,0.6884606429\C,2.7952102938,-1.581150
 7408,1.1606632429\C,3.0746944659,-0.2392633336,1.4073867299\S,1.600318
 9988,0.6933348041,1.570669966\C,4.3850990093,0.3975790359,1.5228169345
 \C,4.5773062004,1.6500116795,2.1517617025\C,5.8505908421,2.2076132288,
 2.2356623085\C,6.9492807204,1.4970792553,1.6904604133\N,6.7812184176,0
 .2933194186,1.0741482721\C,5.5505856232,-0.2158881981,0.9971334695\C,8
 .3208029689,1.9760897227,1.738167991\C,8.8840175421,3.1446817943,2.273
 956001\O,8.0905688612,4.0790832669,2.877719146\C,8.7458521897,5.237643
 6864,3.3951817559\C,10.2963623787,3.224145412,2.1054714764\C,10.825955
 9373,2.1202604839,1.4416283174\S,9.570565978,0.969655903,1.0282600858\
 C,12.2234639264,1.8652168614,1.099409448\C,12.6122028967,0.9421829767,
 0.1000131989\C,13.9604877185,0.7504963395,-0.1804014973\C,14.939554044
 ,1.4896084703,0.5354729724\N,14.5820082591,2.3739927061,1.5047857951\C
 ,13.2817700298,2.5355044495,1.7625688593\C,16.3654736822,1.3318825093,
 0.266861801\C,17.4716368399,2.0117979678,0.8128661238\O,17.3053249755,
 2.9944821041,1.7331077362\C,18.490360718,3.6235191684,2.2180464263\C,1
 8.7241339115,1.5695045779,0.2884273634\C,18.6068287109,0.5562228704,-0
 .6551062502\S,16.9252546183,0.1341000627,-0.8931950714\C,19.6663652567
 ,-0.1321157587,-1.3881733704\C,19.4341155632,-0.8434158827,-2.58858397
 69\C,20.4910490708,-1.4716225961,-3.2380739222\C,21.8005140755,-1.3842
 278387,-2.696042144\N,22.0374719511,-0.7117912102,-1.5389064464\C,21.0
 056613557,-0.1262104094,-0.9253641514\C,22.9459676956,-2.0113027002,-3
 .3523171378\C,24.3023634877,-2.0311546454,-2.9784115797\O,24.733155711
 2,-1.4038377253,-1.8549533692\C,26.1277635058,-1.4918753644,-1.5685433
 231\C,25.1301053852,-2.7633514335,-3.8938901549\C,24.4160695302,-3.291
 5030393,-4.9473571879\S,22.7327879307,-2.912884526,-4.8494494348\H,-26
 .3289621034,4.7124166869,-0.2378614136\H,-27.1259766879,2.7652939547,-
 1.6593126795\H,-25.4968081079,0.9243453071,-2.2175456734\H,-23.9342239
 899,4.7083455566,0.5497696028\H,-25.0010158553,-2.1121663844,-3.882406
 9105\H,-23.2503311081,-1.9213444007,-4.2888022518\H,-23.7434077468,-2.
 8186908199,-2.7931377935\H,-21.4779103932,-1.9840216983,-2.6561864253\
 H,-19.6050072259,-2.9294370825,-1.6611282121\H,-17.2070125577,-3.56576
 90376,-1.3291654313\H,-18.4978993817,1.1526014647,-0.6715810285\H,-13.
 3940861114,-5.2076068544,-1.7935475699\H,-14.8625930062,-6.1637737555,
 -1.3494389075\H,-13.7613330578,-5.553669105,-0.0526279159\H,-12.330438
 7385,-3.6312376228,-0.297889139\H,-12.1828360294,0.8572846889,1.339384
 6329\H,-9.8941751966,1.6872436344,1.9279236143\H,-10.2871938482,-2.600
 4712585,-0.4836472345\H,-6.5280710453,4.0819383218,2.4935695791\H,-6.6
 520889034,3.2112234035,4.0788080163\H,-8.0372186308,4.2067277461,3.481
 0035396\H,-4.9914419447,2.2155207458,2.6449759483\H,-3.8562324373,-2.1
 59924292,1.0866327576\H,-1.3984814834,-2.6258786158,0.9592252065\H,-2.
 8677871885,2.0090904339,1.8039373161\H,1.072919139,-5.0592455485,0.521
 7918948\H,2.3572279415,-4.351513764,1.5784557621\H,2.3592767458,-4.016
 1565307,-0.2030435967\H,3.5768341405,-2.3410696554,1.0526926255\H,3.71
 93810699,2.1807503317,2.591814524\H,6.0147110038,3.1749523048,2.724143
 3621\H,5.4690293829,-1.1778394079,0.463307976\H,9.2500431178,5.8144007
 882,2.5895380306\H,9.4913195437,4.9696037979,4.1751401302\H,7.95209367
 47,5.8591583303,3.8466277123\H,10.9086867265,4.07338824,2.4277585452\H
 ,11.8491940251,0.3896683961,-0.4687959181\H,14.2575273864,0.0399017108
 ,-0.965571853\H,13.0492492185,3.2430356215,2.5772553123\H,19.165680602
 9,2.8974379581,2.7220740243\H,19.0487487678,4.135637402,1.4035112257\H
 ,18.1502739681,4.3744494014,2.953305029\H,19.6910284663,2.0014638706,0
 .5676982555\H,18.4219889538,-0.8869538328,-3.0186693237\H,20.305740294
 6,-2.0201790072,-4.1731498192\H,21.2491288441,0.3800512085,0.024692541
 3\H,26.4528293856,-2.5451504978,-1.4187175285\H,26.2757626785,-0.92943
 13996,-0.6293915317\H,26.7442136369,-1.0308203442,-2.3716687175\H,26.2
 116625866,-2.8962102426,-3.7814384262\H,24.7919381281,-3.8887766862,-5
 .7844822101\\Version=EM64L-G16RevA.03\State=1-A\HF=-6390.7908544\S2=0.
 \S2-1=0.\S2A=0.\RMSD=3.406e-09\RMSF=7.025e-07\Dipole=2.0833997,-1.1968
 199,-0.2209884\Quadrupole=100.6635987,-28.053395,-72.6102037,51.831787
 9,22.4407942,37.2305488\PG=C01 [X(C70H51N7O7S7)]\\@


 THERE'S NOTHING WRONG WITH FOLLOWING A TRAIN OF THOUGHT...
 AS LONG AS IT ULTIMATELY PULLS INTO THE STATION.
 Job cpu time:       3 days 13 hours 15 minutes 10.6 seconds.
 Elapsed time:       0 days 10 hours 49 minutes 40.2 seconds.
 File lengths (MBytes):  RWF=   2692 Int=      0 D2E=      0 Chk=    244 Scr=      8
 Normal termination of Gaussian 16 at Fri Jul 24 10:30:39 2020.
