 Entering Gaussian System, Link 0=g16
 Input=mols_65_5_07_c-n-COC_opt_0.gjf
 Output=mols_65_5_07_c-n-COC_opt_0.log
 Initial command:
 /opt/ohpc/pub/libs/gaussian/g16-A.03/sandybridge/g16/l1.exe "/mnt/gpfs2_4m/scratch/rdu230/ondemand/projects/dihedral_energies/7trial/wtuning/mols_65_5_07_c-n-COC/Gau-4715.inp" -scrdir="/mnt/gpfs2_4m/scratch/rdu230/ondemand/projects/dihedral_energies/7trial/wtuning/mols_65_5_07_c-n-COC/"
 Entering Link 1 = /opt/ohpc/pub/libs/gaussian/g16-A.03/sandybridge/g16/l1.exe PID=      4716.
  
 Copyright (c) 1988,1990,1992,1993,1995,1998,2003,2009,2016,
            Gaussian, Inc.  All Rights Reserved.
  
 This is part of the Gaussian(R) 16 program.  It is based on
 the Gaussian(R) 09 system (copyright 2009, Gaussian, Inc.),
 the Gaussian(R) 03 system (copyright 2003, Gaussian, Inc.),
 the Gaussian(R) 98 system (copyright 1998, Gaussian, Inc.),
 the Gaussian(R) 94 system (copyright 1995, Gaussian, Inc.),
 the Gaussian 92(TM) system (copyright 1992, Gaussian, Inc.),
 the Gaussian 90(TM) system (copyright 1990, Gaussian, Inc.),
 the Gaussian 88(TM) system (copyright 1988, Gaussian, Inc.),
 the Gaussian 86(TM) system (copyright 1986, Carnegie Mellon
 University), and the Gaussian 82(TM) system (copyright 1983,
 Carnegie Mellon University). Gaussian is a federally registered
 trademark of Gaussian, Inc.
  
 This software contains proprietary and confidential information,
 including trade secrets, belonging to Gaussian, Inc.
  
 This software is provided under written license and may be
 used, copied, transmitted, or stored only in accord with that
 written license.
  
 The following legend is applicable only to US Government
 contracts under FAR:
  
                    RESTRICTED RIGHTS LEGEND
  
 Use, reproduction and disclosure by the US Government is
 subject to restrictions as set forth in subparagraphs (a)
 and (c) of the Commercial Computer Software - Restricted
 Rights clause in FAR 52.227-19.
  
 Gaussian, Inc.
 340 Quinnipiac St., Bldg. 40, Wallingford CT 06492
  
  
 ---------------------------------------------------------------
 Warning -- This program may not be used in any manner that
 competes with the business of Gaussian, Inc. or will provide
 assistance to any competitor of Gaussian, Inc.  The licensee
 of this program is prohibited from giving any competitor of
 Gaussian, Inc. access to this program.  By using this program,
 the user acknowledges that Gaussian, Inc. is engaged in the
 business of creating and licensing software in the field of
 computational chemistry and represents and warrants to the
 licensee that it is not a competitor of Gaussian, Inc. and that
 it will not use this program in any manner prohibited above.
 ---------------------------------------------------------------
  

 Cite this work as:
 Gaussian 16, Revision A.03,
 M. J. Frisch, G. W. Trucks, H. B. Schlegel, G. E. Scuseria, 
 M. A. Robb, J. R. Cheeseman, G. Scalmani, V. Barone, 
 G. A. Petersson, H. Nakatsuji, X. Li, M. Caricato, A. V. Marenich, 
 J. Bloino, B. G. Janesko, R. Gomperts, B. Mennucci, H. P. Hratchian, 
 J. V. Ortiz, A. F. Izmaylov, J. L. Sonnenberg, D. Williams-Young, 
 F. Ding, F. Lipparini, F. Egidi, J. Goings, B. Peng, A. Petrone, 
 T. Henderson, D. Ranasinghe, V. G. Zakrzewski, J. Gao, N. Rega, 
 G. Zheng, W. Liang, M. Hada, M. Ehara, K. Toyota, R. Fukuda, 
 J. Hasegawa, M. Ishida, T. Nakajima, Y. Honda, O. Kitao, H. Nakai, 
 T. Vreven, K. Throssell, J. A. Montgomery, Jr., J. E. Peralta, 
 F. Ogliaro, M. J. Bearpark, J. J. Heyd, E. N. Brothers, K. N. Kudin, 
 V. N. Staroverov, T. A. Keith, R. Kobayashi, J. Normand, 
 K. Raghavachari, A. P. Rendell, J. C. Burant, S. S. Iyengar, 
 J. Tomasi, M. Cossi, J. M. Millam, M. Klene, C. Adamo, R. Cammi, 
 J. W. Ochterski, R. L. Martin, K. Morokuma, O. Farkas, 
 J. B. Foresman, and D. J. Fox, Gaussian, Inc., Wallingford CT, 2016.
 
 ******************************************
 Gaussian 16:  EM64L-G16RevA.03 25-Dec-2016
                25-Jul-2020 
 ******************************************
 %mem=30GB
 %nproc=8
 Will use up to    8 processors via shared memory.
 ---------------------------------------------------------------
 #P uLC-wPBE/cc-pVDZ iop(3/107=0093200000, 3/108=0093200000) opt
 ---------------------------------------------------------------
 1/18=20,19=15,26=3,38=1/1,3;
 2/9=110,12=2,17=6,18=5,40=1/2;
 3/5=16,11=2,25=1,30=1,71=1,74=-41,107=93200000,108=93200000,116=2/1,2,3;
 4//1;
 5/5=2,38=5/2;
 6/7=2,8=2,9=2,10=2,28=1/1;
 7//1,2,3,16;
 1/18=20,19=15,26=3/3(2);
 2/9=110/2;
 99//99;
 2/9=110/2;
 3/5=16,11=2,25=1,30=1,71=1,74=-41,107=93200000,108=93200000,116=2/1,2,3;
 4/5=5,16=3,69=1/1;
 5/5=2,38=5/2;
 7//1,2,3,16;
 1/18=20,19=15,26=3/3(-5);
 2/9=110/2;
 6/7=2,8=2,9=2,10=2,19=2,28=1/1;
 99/9=1/99;
 Leave Link    1 at Sat Jul 25 04:25:07 2020, MaxMem=  4026531840 cpu:               1.7 elap:               0.2
 (Enter /opt/ohpc/pub/libs/gaussian/g16-A.03/sandybridge/g16/l101.exe)
 ----------------
 H37 C50 S5 N5 O5
 ----------------
 Symbolic Z-matrix:
 Charge =  0 Multiplicity = 1
 C                    -18.42347   2.89836  -0.42379 
 C                    -17.73591   3.94099  -0.93213 
 C                    -16.36282   3.93217  -0.85941 
 C                    -15.75149   2.9137   -0.25897 
 N                    -16.42241   1.85711   0.17202 
 C                    -17.73052   1.89427   0.10698 
 C                    -14.23061   2.7692   -0.13092 
 C                    -13.35197   3.79905   0.07957 
 O                    -13.6985   5.09022   0.27127 
 C                    -12.71632   6.08514   0.6012 
 C                    -11.99358   3.25915   0.18336 
 C                    -11.96911   1.9381    0.05355 
 S                    -13.43739   1.25921  -0.26324 
 C                    -10.78927   1.06054   0.1493 
 C                    -10.76129  -0.18864   0.85651 
 C                    -9.66673  -0.9225    0.85563 
 C                    -8.4544   -0.56501   0.1422 
 N                    -8.43024   0.65229  -0.51188 
 C                    -9.53442   1.4197   -0.53811 
 C                    -7.30822  -1.43106   0.04807 
 C                    -7.18188  -2.78852  -0.09662 
 O                    -8.34544  -3.47531  -0.29704 
 C                    -8.15679  -4.82156  -0.7313 
 C                    -5.92539  -3.23353  -0.03498 
 C                    -4.94669  -2.21801   0.18493 
 S                    -5.76506  -0.70026   0.30348 
 C                    -3.5191   -2.39741   0.35835 
 C                    -2.94046  -3.21727   1.28467 
 C                    -1.62558  -3.40019   1.33219 
 C                    -0.83903  -2.81344   0.3683 
 N                    -1.25537  -2.03597  -0.59005 
 C                    -2.61833  -1.75026  -0.58705 
 C                     0.59079  -3.21309   0.25796 
 C                     1.23978  -4.41111   0.38377 
 O                     0.42783  -5.5316    0.5071 
 C                     1.20796  -6.7266    0.40007 
 C                     2.68468  -4.36163   0.18213 
 C                     3.12916  -3.05895   0.03688 
 S                     1.74542  -1.90319   0.04274 
 C                     4.43053  -2.57655  -0.08571 
 C                     5.33486  -3.21101  -1.02475 
 C                     6.66263  -2.75738  -1.11717 
 C                     7.10316  -1.79716  -0.28589 
 N                     6.31438  -1.17454   0.60742 
 C                     4.99416  -1.57027   0.70062 
 C                     8.5533   -1.50488  -0.23846 
 C                     9.69414  -2.24092  -0.32416 
 O                     9.49177  -3.62477  -0.50533 
 C                     10.74137  -4.30554  -0.38929 
 C                     10.92627  -1.51666  -0.34853 
 C                     10.7073  -0.12031  -0.14055 
 S                     8.9914    0.17525  -0.04236 
 C                     11.70093   0.96514  -0.09996 
 C                     12.88666   0.84345  -0.88852 
 C                     13.7545   1.8447   -0.85776 
 C                     13.54799   2.94753  -0.05601 
 N                     12.38726   3.05151   0.75416 
 C                     11.53756   2.01478   0.69867 
 C                     14.48006   4.06042   0.10339 
 C                     15.83988   4.07488   0.05191 
 O                     16.60683   2.91954   0.02165 
 C                     17.91957   3.00892   0.19501 
 C                     16.43671   5.46147   0.14827 
 C                     15.46533   6.40407   0.14151 
 S                     13.86027   5.75095   0.16494 
 H                    -19.55088   2.82511  -0.51887 
 H                    -18.2155   4.85751  -1.42604 
 H                    -15.75673   4.85126  -1.27927 
 H                    -18.28123   0.97847   0.44521 
 H                    -13.21117   7.05734   0.6936 
 H                    -12.30063   5.7561    1.54362 
 H                    -11.94057   6.06264  -0.19534 
 H                    -11.12596   3.87474   0.40532 
 H                    -11.62425  -0.4267    1.37588 
 H                    -9.66466  -1.94143   1.42489 
 H                    -9.41316   2.28741  -1.05859 
 H                    -7.69768  -5.42262  -0.03118 
 H                    -7.57054  -4.84883  -1.66793 
 H                    -9.15     -5.29034  -1.04703 
 H                    -5.56858  -4.31557  -0.18299 
 H                    -3.62613  -3.65807   2.0427 
 H                    -1.20444  -4.08233   2.04581 
 H                    -2.99878  -1.18523  -1.38119 
 H                     1.95588  -6.88044   1.18881 
 H                     1.6227   -6.85374  -0.60196 
 H                     0.50448  -7.60453   0.51402 
 H                     3.29608  -5.13265   0.19961 
 H                     4.94238  -3.91938  -1.75912 
 H                     7.29626  -3.28005  -1.81742 
 H                     4.49887  -1.06857   1.41913 
 H                     11.25597  -4.17253   0.55515 
 H                     11.41349  -4.07333  -1.2052 
 H                     10.51685  -5.45666  -0.48523 
 H                     11.85575  -1.94381  -0.34117 
 H                     12.98689   0.04777  -1.54217 
 H                     14.72046   1.84495  -1.46287 
 H                     10.66778   2.15592   1.30591 
 H                     18.42544   3.60942  -0.68217 
 H                     18.353    2.05241   0.17676 
 H                     18.23558   3.51736   1.17324 
 H                     17.51738   5.70107   0.11915 
 H                     15.54045   7.45938   0.19031 
 
 ITRead=  0  0  0  0  0  0  0  0  0  0  0  0  0  0  0  0  0  0  0  0
 ITRead=  0  0  0  0  0  0  0  0  0  0  0  0  0  0  0  0  0  0  0  0
 ITRead=  0  0  0  0  0  0  0  0  0  0  0  0  0  0  0  0  0  0  0  0
 ITRead=  0  0  0  0  0  0  0  0  0  0  0  0  0  0  0  0  0  0  0  0
 ITRead=  0  0  0  0  0  0  0  0  0  0  0  0  0  0  0  0  0  0  0  0
 ITRead=  0  0
 MicOpt= -1 -1 -1 -1 -1 -1 -1 -1 -1 -1 -1 -1 -1 -1 -1 -1 -1 -1 -1 -1
 MicOpt= -1 -1 -1 -1 -1 -1 -1 -1 -1 -1 -1 -1 -1 -1 -1 -1 -1 -1 -1 -1
 MicOpt= -1 -1 -1 -1 -1 -1 -1 -1 -1 -1 -1 -1 -1 -1 -1 -1 -1 -1 -1 -1
 MicOpt= -1 -1 -1 -1 -1 -1 -1 -1 -1 -1 -1 -1 -1 -1 -1 -1 -1 -1 -1 -1
 MicOpt= -1 -1 -1 -1 -1 -1 -1 -1 -1 -1 -1 -1 -1 -1 -1 -1 -1 -1 -1 -1
 MicOpt= -1 -1
 NAtoms=    102 NQM=      102 NQMF=       0 NMMI=      0 NMMIF=      0
                NMic=       0 NMicF=      0.
                    Isotopes and Nuclear Properties:
 (Nuclear quadrupole moments (NQMom) in fm**2, nuclear magnetic moments (NMagM)
  in nuclear magnetons)

  Atom         1           2           3           4           5           6           7           8           9          10
 IAtWgt=          12          12          12          12          14          12          12          12          16          12
 AtmWgt=  12.0000000  12.0000000  12.0000000  12.0000000  14.0030740  12.0000000  12.0000000  12.0000000  15.9949146  12.0000000
 NucSpn=           0           0           0           0           2           0           0           0           0           0
 AtZEff=  -0.0000000  -0.0000000  -0.0000000  -0.0000000  -0.0000000  -0.0000000  -0.0000000  -0.0000000  -0.0000000  -0.0000000
 NQMom=    0.0000000   0.0000000   0.0000000   0.0000000   2.0440000   0.0000000   0.0000000   0.0000000   0.0000000   0.0000000
 NMagM=    0.0000000   0.0000000   0.0000000   0.0000000   0.4037610   0.0000000   0.0000000   0.0000000   0.0000000   0.0000000
 AtZNuc=   6.0000000   6.0000000   6.0000000   6.0000000   7.0000000   6.0000000   6.0000000   6.0000000   8.0000000   6.0000000

  Atom        11          12          13          14          15          16          17          18          19          20
 IAtWgt=          12          12          32          12          12          12          12          14          12          12
 AtmWgt=  12.0000000  12.0000000  31.9720718  12.0000000  12.0000000  12.0000000  12.0000000  14.0030740  12.0000000  12.0000000
 NucSpn=           0           0           0           0           0           0           0           2           0           0
 AtZEff=  -0.0000000  -0.0000000  -0.0000000  -0.0000000  -0.0000000  -0.0000000  -0.0000000  -0.0000000  -0.0000000  -0.0000000
 NQMom=    0.0000000   0.0000000   0.0000000   0.0000000   0.0000000   0.0000000   0.0000000   2.0440000   0.0000000   0.0000000
 NMagM=    0.0000000   0.0000000   0.0000000   0.0000000   0.0000000   0.0000000   0.0000000   0.4037610   0.0000000   0.0000000
 AtZNuc=   6.0000000   6.0000000  16.0000000   6.0000000   6.0000000   6.0000000   6.0000000   7.0000000   6.0000000   6.0000000

  Atom        21          22          23          24          25          26          27          28          29          30
 IAtWgt=          12          16          12          12          12          32          12          12          12          12
 AtmWgt=  12.0000000  15.9949146  12.0000000  12.0000000  12.0000000  31.9720718  12.0000000  12.0000000  12.0000000  12.0000000
 NucSpn=           0           0           0           0           0           0           0           0           0           0
 AtZEff=  -0.0000000  -0.0000000  -0.0000000  -0.0000000  -0.0000000  -0.0000000  -0.0000000  -0.0000000  -0.0000000  -0.0000000
 NQMom=    0.0000000   0.0000000   0.0000000   0.0000000   0.0000000   0.0000000   0.0000000   0.0000000   0.0000000   0.0000000
 NMagM=    0.0000000   0.0000000   0.0000000   0.0000000   0.0000000   0.0000000   0.0000000   0.0000000   0.0000000   0.0000000
 AtZNuc=   6.0000000   8.0000000   6.0000000   6.0000000   6.0000000  16.0000000   6.0000000   6.0000000   6.0000000   6.0000000

  Atom        31          32          33          34          35          36          37          38          39          40
 IAtWgt=          14          12          12          12          16          12          12          12          32          12
 AtmWgt=  14.0030740  12.0000000  12.0000000  12.0000000  15.9949146  12.0000000  12.0000000  12.0000000  31.9720718  12.0000000
 NucSpn=           2           0           0           0           0           0           0           0           0           0
 AtZEff=  -0.0000000  -0.0000000  -0.0000000  -0.0000000  -0.0000000  -0.0000000  -0.0000000  -0.0000000  -0.0000000  -0.0000000
 NQMom=    2.0440000   0.0000000   0.0000000   0.0000000   0.0000000   0.0000000   0.0000000   0.0000000   0.0000000   0.0000000
 NMagM=    0.4037610   0.0000000   0.0000000   0.0000000   0.0000000   0.0000000   0.0000000   0.0000000   0.0000000   0.0000000
 AtZNuc=   7.0000000   6.0000000   6.0000000   6.0000000   8.0000000   6.0000000   6.0000000   6.0000000  16.0000000   6.0000000

  Atom        41          42          43          44          45          46          47          48          49          50
 IAtWgt=          12          12          12          14          12          12          12          16          12          12
 AtmWgt=  12.0000000  12.0000000  12.0000000  14.0030740  12.0000000  12.0000000  12.0000000  15.9949146  12.0000000  12.0000000
 NucSpn=           0           0           0           2           0           0           0           0           0           0
 AtZEff=  -0.0000000  -0.0000000  -0.0000000  -0.0000000  -0.0000000  -0.0000000  -0.0000000  -0.0000000  -0.0000000  -0.0000000
 NQMom=    0.0000000   0.0000000   0.0000000   2.0440000   0.0000000   0.0000000   0.0000000   0.0000000   0.0000000   0.0000000
 NMagM=    0.0000000   0.0000000   0.0000000   0.4037610   0.0000000   0.0000000   0.0000000   0.0000000   0.0000000   0.0000000
 AtZNuc=   6.0000000   6.0000000   6.0000000   7.0000000   6.0000000   6.0000000   6.0000000   8.0000000   6.0000000   6.0000000

  Atom        51          52          53          54          55          56          57          58          59          60
 IAtWgt=          12          32          12          12          12          12          14          12          12          12
 AtmWgt=  12.0000000  31.9720718  12.0000000  12.0000000  12.0000000  12.0000000  14.0030740  12.0000000  12.0000000  12.0000000
 NucSpn=           0           0           0           0           0           0           2           0           0           0
 AtZEff=  -0.0000000  -0.0000000  -0.0000000  -0.0000000  -0.0000000  -0.0000000  -0.0000000  -0.0000000  -0.0000000  -0.0000000
 NQMom=    0.0000000   0.0000000   0.0000000   0.0000000   0.0000000   0.0000000   2.0440000   0.0000000   0.0000000   0.0000000
 NMagM=    0.0000000   0.0000000   0.0000000   0.0000000   0.0000000   0.0000000   0.4037610   0.0000000   0.0000000   0.0000000
 AtZNuc=   6.0000000  16.0000000   6.0000000   6.0000000   6.0000000   6.0000000   7.0000000   6.0000000   6.0000000   6.0000000

  Atom        61          62          63          64          65          66          67          68          69          70
 IAtWgt=          16          12          12          12          32           1           1           1           1           1
 AtmWgt=  15.9949146  12.0000000  12.0000000  12.0000000  31.9720718   1.0078250   1.0078250   1.0078250   1.0078250   1.0078250
 NucSpn=           0           0           0           0           0           1           1           1           1           1
 AtZEff=  -0.0000000  -0.0000000  -0.0000000  -0.0000000  -0.0000000  -0.0000000  -0.0000000  -0.0000000  -0.0000000  -0.0000000
 NQMom=    0.0000000   0.0000000   0.0000000   0.0000000   0.0000000   0.0000000   0.0000000   0.0000000   0.0000000   0.0000000
 NMagM=    0.0000000   0.0000000   0.0000000   0.0000000   0.0000000   2.7928460   2.7928460   2.7928460   2.7928460   2.7928460
 AtZNuc=   8.0000000   6.0000000   6.0000000   6.0000000  16.0000000   1.0000000   1.0000000   1.0000000   1.0000000   1.0000000

  Atom        71          72          73          74          75          76          77          78          79          80
 IAtWgt=           1           1           1           1           1           1           1           1           1           1
 AtmWgt=   1.0078250   1.0078250   1.0078250   1.0078250   1.0078250   1.0078250   1.0078250   1.0078250   1.0078250   1.0078250
 NucSpn=           1           1           1           1           1           1           1           1           1           1
 AtZEff=  -0.0000000  -0.0000000  -0.0000000  -0.0000000  -0.0000000  -0.0000000  -0.0000000  -0.0000000  -0.0000000  -0.0000000
 NQMom=    0.0000000   0.0000000   0.0000000   0.0000000   0.0000000   0.0000000   0.0000000   0.0000000   0.0000000   0.0000000
 NMagM=    2.7928460   2.7928460   2.7928460   2.7928460   2.7928460   2.7928460   2.7928460   2.7928460   2.7928460   2.7928460
 AtZNuc=   1.0000000   1.0000000   1.0000000   1.0000000   1.0000000   1.0000000   1.0000000   1.0000000   1.0000000   1.0000000

  Atom        81          82          83          84          85          86          87          88          89          90
 IAtWgt=           1           1           1           1           1           1           1           1           1           1
 AtmWgt=   1.0078250   1.0078250   1.0078250   1.0078250   1.0078250   1.0078250   1.0078250   1.0078250   1.0078250   1.0078250
 NucSpn=           1           1           1           1           1           1           1           1           1           1
 AtZEff=  -0.0000000  -0.0000000  -0.0000000  -0.0000000  -0.0000000  -0.0000000  -0.0000000  -0.0000000  -0.0000000  -0.0000000
 NQMom=    0.0000000   0.0000000   0.0000000   0.0000000   0.0000000   0.0000000   0.0000000   0.0000000   0.0000000   0.0000000
 NMagM=    2.7928460   2.7928460   2.7928460   2.7928460   2.7928460   2.7928460   2.7928460   2.7928460   2.7928460   2.7928460
 AtZNuc=   1.0000000   1.0000000   1.0000000   1.0000000   1.0000000   1.0000000   1.0000000   1.0000000   1.0000000   1.0000000

  Atom        91          92          93          94          95          96          97          98          99         100
 IAtWgt=           1           1           1           1           1           1           1           1           1           1
 AtmWgt=   1.0078250   1.0078250   1.0078250   1.0078250   1.0078250   1.0078250   1.0078250   1.0078250   1.0078250   1.0078250
 NucSpn=           1           1           1           1           1           1           1           1           1           1
 AtZEff=  -0.0000000  -0.0000000  -0.0000000  -0.0000000  -0.0000000  -0.0000000  -0.0000000  -0.0000000  -0.0000000  -0.0000000
 NQMom=    0.0000000   0.0000000   0.0000000   0.0000000   0.0000000   0.0000000   0.0000000   0.0000000   0.0000000   0.0000000
 NMagM=    2.7928460   2.7928460   2.7928460   2.7928460   2.7928460   2.7928460   2.7928460   2.7928460   2.7928460   2.7928460
 AtZNuc=   1.0000000   1.0000000   1.0000000   1.0000000   1.0000000   1.0000000   1.0000000   1.0000000   1.0000000   1.0000000

  Atom       101         102
 IAtWgt=           1           1
 AtmWgt=   1.0078250   1.0078250
 NucSpn=           1           1
 AtZEff=  -0.0000000  -0.0000000
 NQMom=    0.0000000   0.0000000
 NMagM=    2.7928460   2.7928460
 AtZNuc=   1.0000000   1.0000000
 Leave Link  101 at Sat Jul 25 04:25:08 2020, MaxMem=  4026531840 cpu:               4.0 elap:               0.5
 (Enter /opt/ohpc/pub/libs/gaussian/g16-A.03/sandybridge/g16/l103.exe)

 GradGradGradGradGradGradGradGradGradGradGradGradGradGradGradGradGradGrad
 Berny optimization.
 Initialization pass.
                           ----------------------------
                           !    Initial Parameters    !
                           ! (Angstroms and Degrees)  !
 --------------------------                            --------------------------
 ! Name  Definition              Value          Derivative Info.                !
 --------------------------------------------------------------------------------
 ! R1    R(1,2)                  1.3484         estimate D2E/DX2                !
 ! R2    R(1,6)                  1.3305         estimate D2E/DX2                !
 ! R3    R(1,66)                 1.1338         estimate D2E/DX2                !
 ! R4    R(2,3)                  1.375          estimate D2E/DX2                !
 ! R5    R(2,67)                 1.1463         estimate D2E/DX2                !
 ! R6    R(3,4)                  1.331          estimate D2E/DX2                !
 ! R7    R(3,68)                 1.1783         estimate D2E/DX2                !
 ! R8    R(4,5)                  1.3237         estimate D2E/DX2                !
 ! R9    R(4,7)                  1.5331         estimate D2E/DX2                !
 ! R10   R(5,6)                  1.3103         estimate D2E/DX2                !
 ! R11   R(6,69)                 1.1209         estimate D2E/DX2                !
 ! R12   R(7,8)                  1.37           estimate D2E/DX2                !
 ! R13   R(7,13)                 1.7108         estimate D2E/DX2                !
 ! R14   R(8,9)                  1.3505         estimate D2E/DX2                !
 ! R15   R(8,11)                 1.4654         estimate D2E/DX2                !
 ! R16   R(9,10)                 1.4365         estimate D2E/DX2                !
 ! R17   R(10,70)                1.0948         estimate D2E/DX2                !
 ! R18   R(10,71)                1.0813         estimate D2E/DX2                !
 ! R19   R(10,72)                1.1121         estimate D2E/DX2                !
 ! R20   R(11,12)                1.3276         estimate D2E/DX2                !
 ! R21   R(11,73)                1.0867         estimate D2E/DX2                !
 ! R22   R(12,13)                1.6484         estimate D2E/DX2                !
 ! R23   R(12,14)                1.4735         estimate D2E/DX2                !
 ! R24   R(14,15)                1.4357         estimate D2E/DX2                !
 ! R25   R(14,19)                1.4752         estimate D2E/DX2                !
 ! R26   R(15,16)                1.3178         estimate D2E/DX2                !
 ! R27   R(15,74)                1.035          estimate D2E/DX2                !
 ! R28   R(16,17)                1.4514         estimate D2E/DX2                !
 ! R29   R(16,75)                1.1672         estimate D2E/DX2                !
 ! R30   R(17,18)                1.3821         estimate D2E/DX2                !
 ! R31   R(17,20)                1.4397         estimate D2E/DX2                !
 ! R32   R(18,19)                1.3449         estimate D2E/DX2                !
 ! R33   R(19,76)                1.0191         estimate D2E/DX2                !
 ! R34   R(20,21)                1.371          estimate D2E/DX2                !
 ! R35   R(20,26)                1.7265         estimate D2E/DX2                !
 ! R36   R(21,22)                1.3659         estimate D2E/DX2                !
 ! R37   R(21,24)                1.3344         estimate D2E/DX2                !
 ! R38   R(22,23)                1.4271         estimate D2E/DX2                !
 ! R39   R(23,77)                1.0306         estimate D2E/DX2                !
 ! R40   R(23,78)                1.1053         estimate D2E/DX2                !
 ! R41   R(23,79)                1.1428         estimate D2E/DX2                !
 ! R42   R(24,25)                1.4274         estimate D2E/DX2                !
 ! R43   R(24,80)                1.1489         estimate D2E/DX2                !
 ! R44   R(25,26)                1.7284         estimate D2E/DX2                !
 ! R45   R(25,27)                1.4492         estimate D2E/DX2                !
 ! R46   R(27,28)                1.3657         estimate D2E/DX2                !
 ! R47   R(27,32)                1.4574         estimate D2E/DX2                !
 ! R48   R(28,29)                1.3284         estimate D2E/DX2                !
 ! R49   R(28,81)                1.1131         estimate D2E/DX2                !
 ! R50   R(29,30)                1.3755         estimate D2E/DX2                !
 ! R51   R(29,82)                1.0733         estimate D2E/DX2                !
 ! R52   R(30,31)                1.3024         estimate D2E/DX2                !
 ! R53   R(30,33)                1.4887         estimate D2E/DX2                !
 ! R54   R(31,32)                1.3926         estimate D2E/DX2                !
 ! R55   R(32,83)                1.0463         estimate D2E/DX2                !
 ! R56   R(33,34)                1.3683         estimate D2E/DX2                !
 ! R57   R(33,39)                1.7594         estimate D2E/DX2                !
 ! R58   R(34,35)                1.3892         estimate D2E/DX2                !
 ! R59   R(34,37)                1.4597         estimate D2E/DX2                !
 ! R60   R(35,36)                1.4311         estimate D2E/DX2                !
 ! R61   R(36,84)                1.0978         estimate D2E/DX2                !
 ! R62   R(36,85)                1.0919         estimate D2E/DX2                !
 ! R63   R(36,86)                1.1308         estimate D2E/DX2                !
 ! R64   R(37,38)                1.3841         estimate D2E/DX2                !
 ! R65   R(37,87)                0.9842         estimate D2E/DX2                !
 ! R66   R(38,39)                1.8029         estimate D2E/DX2                !
 ! R67   R(38,40)                1.3933         estimate D2E/DX2                !
 ! R68   R(40,41)                1.4499         estimate D2E/DX2                !
 ! R69   R(40,45)                1.3959         estimate D2E/DX2                !
 ! R70   R(41,42)                1.4062         estimate D2E/DX2                !
 ! R71   R(41,88)                1.0932         estimate D2E/DX2                !
 ! R72   R(42,43)                1.3443         estimate D2E/DX2                !
 ! R73   R(42,89)                1.0794         estimate D2E/DX2                !
 ! R74   R(43,44)                1.3446         estimate D2E/DX2                !
 ! R75   R(43,46)                1.4801         estimate D2E/DX2                !
 ! R76   R(44,45)                1.3814         estimate D2E/DX2                !
 ! R77   R(45,90)                1.0066         estimate D2E/DX2                !
 ! R78   R(46,47)                1.3604         estimate D2E/DX2                !
 ! R79   R(46,52)                1.7473         estimate D2E/DX2                !
 ! R80   R(47,48)                1.4103         estimate D2E/DX2                !
 ! R81   R(47,50)                1.4294         estimate D2E/DX2                !
 ! R82   R(48,49)                1.4277         estimate D2E/DX2                !
 ! R83   R(49,91)                1.0837         estimate D2E/DX2                !
 ! R84   R(49,92)                1.0823         estimate D2E/DX2                !
 ! R85   R(49,93)                1.1767         estimate D2E/DX2                !
 ! R86   R(50,51)                1.4286         estimate D2E/DX2                !
 ! R87   R(50,94)                1.023          estimate D2E/DX2                !
 ! R88   R(51,52)                1.7439         estimate D2E/DX2                !
 ! R89   R(51,53)                1.4721         estimate D2E/DX2                !
 ! R90   R(53,54)                1.4292         estimate D2E/DX2                !
 ! R91   R(53,58)                1.329          estimate D2E/DX2                !
 ! R92   R(54,55)                1.3254         estimate D2E/DX2                !
 ! R93   R(54,95)                1.0346         estimate D2E/DX2                !
 ! R94   R(55,56)                1.379          estimate D2E/DX2                !
 ! R95   R(55,96)                1.1398         estimate D2E/DX2                !
 ! R96   R(56,57)                1.4193         estimate D2E/DX2                !
 ! R97   R(56,59)                1.4604         estimate D2E/DX2                !
 ! R98   R(57,58)                1.3416         estimate D2E/DX2                !
 ! R99   R(58,97)                1.0701         estimate D2E/DX2                !
 ! R100  R(59,60)                1.3609         estimate D2E/DX2                !
 ! R101  R(59,65)                1.8016         estimate D2E/DX2                !
 ! R102  R(60,61)                1.3871         estimate D2E/DX2                !
 ! R103  R(60,63)                1.5127         estimate D2E/DX2                !
 ! R104  R(61,62)                1.3272         estimate D2E/DX2                !
 ! R105  R(62,98)                1.1773         estimate D2E/DX2                !
 ! R106  R(62,99)                1.0503         estimate D2E/DX2                !
 ! R107  R(62,100)               1.1469         estimate D2E/DX2                !
 ! R108  R(63,64)                1.3536         estimate D2E/DX2                !
 ! R109  R(63,101)               1.1073         estimate D2E/DX2                !
 ! R110  R(64,65)                1.733          estimate D2E/DX2                !
 ! R111  R(64,102)               1.0591         estimate D2E/DX2                !
 ! A1    A(2,1,6)              117.9285         estimate D2E/DX2                !
 ! A2    A(2,1,66)             121.6941         estimate D2E/DX2                !
 ! A3    A(6,1,66)             120.1727         estimate D2E/DX2                !
 ! A4    A(1,2,3)              118.9656         estimate D2E/DX2                !
 ! A5    A(1,2,67)             124.5649         estimate D2E/DX2                !
 ! A6    A(3,2,67)             116.4686         estimate D2E/DX2                !
 ! A7    A(2,3,4)              119.1709         estimate D2E/DX2                !
 ! A8    A(2,3,68)             119.3273         estimate D2E/DX2                !
 ! A9    A(4,3,68)             121.4243         estimate D2E/DX2                !
 ! A10   A(3,4,5)              121.659          estimate D2E/DX2                !
 ! A11   A(3,4,7)              124.4338         estimate D2E/DX2                !
 ! A12   A(5,4,7)              113.6013         estimate D2E/DX2                !
 ! A13   A(4,5,6)              117.8534         estimate D2E/DX2                !
 ! A14   A(1,6,5)              124.1384         estimate D2E/DX2                !
 ! A15   A(1,6,69)             118.757          estimate D2E/DX2                !
 ! A16   A(5,6,69)             116.896          estimate D2E/DX2                !
 ! A17   A(4,7,8)              125.325          estimate D2E/DX2                !
 ! A18   A(4,7,13)             122.4595         estimate D2E/DX2                !
 ! A19   A(8,7,13)             112.2101         estimate D2E/DX2                !
 ! A20   A(7,8,9)              125.1639         estimate D2E/DX2                !
 ! A21   A(7,8,11)             109.1734         estimate D2E/DX2                !
 ! A22   A(9,8,11)             125.452          estimate D2E/DX2                !
 ! A23   A(8,9,10)             121.288          estimate D2E/DX2                !
 ! A24   A(9,10,70)            108.9897         estimate D2E/DX2                !
 ! A25   A(9,10,71)            104.612          estimate D2E/DX2                !
 ! A26   A(9,10,72)            107.3633         estimate D2E/DX2                !
 ! A27   A(70,10,71)           111.7421         estimate D2E/DX2                !
 ! A28   A(70,10,72)           113.186          estimate D2E/DX2                !
 ! A29   A(71,10,72)           110.4824         estimate D2E/DX2                !
 ! A30   A(8,11,12)            112.1331         estimate D2E/DX2                !
 ! A31   A(8,11,73)            123.0816         estimate D2E/DX2                !
 ! A32   A(12,11,73)           124.6735         estimate D2E/DX2                !
 ! A33   A(11,12,13)           114.3424         estimate D2E/DX2                !
 ! A34   A(11,12,14)           126.9416         estimate D2E/DX2                !
 ! A35   A(13,12,14)           118.7125         estimate D2E/DX2                !
 ! A36   A(7,13,12)             91.9839         estimate D2E/DX2                !
 ! A37   A(12,14,15)           124.4557         estimate D2E/DX2                !
 ! A38   A(12,14,19)           120.3858         estimate D2E/DX2                !
 ! A39   A(15,14,19)           115.1369         estimate D2E/DX2                !
 ! A40   A(14,15,16)           120.0246         estimate D2E/DX2                !
 ! A41   A(14,15,74)           115.5356         estimate D2E/DX2                !
 ! A42   A(16,15,74)           124.3887         estimate D2E/DX2                !
 ! A43   A(15,16,17)           123.8454         estimate D2E/DX2                !
 ! A44   A(15,16,75)           119.1634         estimate D2E/DX2                !
 ! A45   A(17,16,75)           116.9544         estimate D2E/DX2                !
 ! A46   A(16,17,18)           117.6558         estimate D2E/DX2                !
 ! A47   A(16,17,20)           123.2974         estimate D2E/DX2                !
 ! A48   A(18,17,20)           119.0107         estimate D2E/DX2                !
 ! A49   A(17,18,19)           119.8307         estimate D2E/DX2                !
 ! A50   A(14,19,18)           123.3917         estimate D2E/DX2                !
 ! A51   A(14,19,76)           123.1279         estimate D2E/DX2                !
 ! A52   A(18,19,76)           113.4607         estimate D2E/DX2                !
 ! A53   A(17,20,21)           132.5238         estimate D2E/DX2                !
 ! A54   A(17,20,26)           116.5712         estimate D2E/DX2                !
 ! A55   A(21,20,26)           110.6319         estimate D2E/DX2                !
 ! A56   A(20,21,22)           115.7745         estimate D2E/DX2                !
 ! A57   A(20,21,24)           114.337          estimate D2E/DX2                !
 ! A58   A(22,21,24)           129.8828         estimate D2E/DX2                !
 ! A59   A(21,22,23)           113.9767         estimate D2E/DX2                !
 ! A60   A(22,23,77)           113.7235         estimate D2E/DX2                !
 ! A61   A(22,23,78)           110.564          estimate D2E/DX2                !
 ! A62   A(22,23,79)           110.8643         estimate D2E/DX2                !
 ! A63   A(77,23,78)           108.9648         estimate D2E/DX2                !
 ! A64   A(77,23,79)           109.6099         estimate D2E/DX2                !
 ! A65   A(78,23,79)           102.5177         estimate D2E/DX2                !
 ! A66   A(21,24,25)           114.5495         estimate D2E/DX2                !
 ! A67   A(21,24,80)           126.9098         estimate D2E/DX2                !
 ! A68   A(25,24,80)           118.4854         estimate D2E/DX2                !
 ! A69   A(24,25,26)           108.0989         estimate D2E/DX2                !
 ! A70   A(24,25,27)           127.2852         estimate D2E/DX2                !
 ! A71   A(26,25,27)           124.5347         estimate D2E/DX2                !
 ! A72   A(20,26,25)            92.3705         estimate D2E/DX2                !
 ! A73   A(25,27,28)           124.9497         estimate D2E/DX2                !
 ! A74   A(25,27,32)           118.4407         estimate D2E/DX2                !
 ! A75   A(28,27,32)           116.4042         estimate D2E/DX2                !
 ! A76   A(27,28,29)           121.7574         estimate D2E/DX2                !
 ! A77   A(27,28,81)           116.0176         estimate D2E/DX2                !
 ! A78   A(29,28,81)           122.0613         estimate D2E/DX2                !
 ! A79   A(28,29,30)           118.8294         estimate D2E/DX2                !
 ! A80   A(28,29,82)           119.9801         estimate D2E/DX2                !
 ! A81   A(30,29,82)           120.8413         estimate D2E/DX2                !
 ! A82   A(29,30,31)           125.9788         estimate D2E/DX2                !
 ! A83   A(29,30,33)           119.1193         estimate D2E/DX2                !
 ! A84   A(31,30,33)           114.377          estimate D2E/DX2                !
 ! A85   A(30,31,32)           115.7064         estimate D2E/DX2                !
 ! A86   A(27,32,31)           121.0119         estimate D2E/DX2                !
 ! A87   A(27,32,83)           120.4931         estimate D2E/DX2                !
 ! A88   A(31,32,83)           117.7141         estimate D2E/DX2                !
 ! A89   A(30,33,34)           133.1384         estimate D2E/DX2                !
 ! A90   A(30,33,39)           116.0729         estimate D2E/DX2                !
 ! A91   A(34,33,39)           110.6004         estimate D2E/DX2                !
 ! A92   A(33,34,35)           115.9208         estimate D2E/DX2                !
 ! A93   A(33,34,37)           115.2837         estimate D2E/DX2                !
 ! A94   A(35,34,37)           128.1789         estimate D2E/DX2                !
 ! A95   A(34,35,36)           110.3796         estimate D2E/DX2                !
 ! A96   A(35,36,84)           115.7643         estimate D2E/DX2                !
 ! A97   A(35,36,85)           111.896          estimate D2E/DX2                !
 ! A98   A(35,36,86)           107.5556         estimate D2E/DX2                !
 ! A99   A(84,36,85)           112.5975         estimate D2E/DX2                !
 ! A100  A(84,36,86)           104.0423         estimate D2E/DX2                !
 ! A101  A(85,36,86)           103.7905         estimate D2E/DX2                !
 ! A102  A(34,37,38)           111.3631         estimate D2E/DX2                !
 ! A103  A(34,37,87)           125.8671         estimate D2E/DX2                !
 ! A104  A(38,37,87)           122.6645         estimate D2E/DX2                !
 ! A105  A(37,38,39)           110.8874         estimate D2E/DX2                !
 ! A106  A(37,38,40)           129.4241         estimate D2E/DX2                !
 ! A107  A(39,38,40)           119.6824         estimate D2E/DX2                !
 ! A108  A(33,39,38)            91.5364         estimate D2E/DX2                !
 ! A109  A(38,40,41)           119.2126         estimate D2E/DX2                !
 ! A110  A(38,40,45)           125.2509         estimate D2E/DX2                !
 ! A111  A(41,40,45)           115.3682         estimate D2E/DX2                !
 ! A112  A(40,41,42)           119.3642         estimate D2E/DX2                !
 ! A113  A(40,41,88)           119.6492         estimate D2E/DX2                !
 ! A114  A(42,41,88)           120.2572         estimate D2E/DX2                !
 ! A115  A(41,42,43)           119.9486         estimate D2E/DX2                !
 ! A116  A(41,42,89)           116.1509         estimate D2E/DX2                !
 ! A117  A(43,42,89)           123.6899         estimate D2E/DX2                !
 ! A118  A(42,43,44)           123.3233         estimate D2E/DX2                !
 ! A119  A(42,43,46)           118.813          estimate D2E/DX2                !
 ! A120  A(44,43,46)           117.5196         estimate D2E/DX2                !
 ! A121  A(43,44,45)           118.2185         estimate D2E/DX2                !
 ! A122  A(40,45,44)           123.6693         estimate D2E/DX2                !
 ! A123  A(40,45,90)           124.2424         estimate D2E/DX2                !
 ! A124  A(44,45,90)           112.0625         estimate D2E/DX2                !
 ! A125  A(43,46,47)           135.4638         estimate D2E/DX2                !
 ! A126  A(43,46,52)           116.0485         estimate D2E/DX2                !
 ! A127  A(47,46,52)           108.4843         estimate D2E/DX2                !
 ! A128  A(46,47,48)           114.7509         estimate D2E/DX2                !
 ! A129  A(46,47,50)           116.731          estimate D2E/DX2                !
 ! A130  A(48,47,50)           128.2208         estimate D2E/DX2                !
 ! A131  A(47,48,49)           109.3813         estimate D2E/DX2                !
 ! A132  A(48,49,91)           115.335          estimate D2E/DX2                !
 ! A133  A(48,49,92)           112.3312         estimate D2E/DX2                !
 ! A134  A(48,49,93)           107.0269         estimate D2E/DX2                !
 ! A135  A(91,49,92)           109.6188         estimate D2E/DX2                !
 ! A136  A(91,49,93)           106.3621         estimate D2E/DX2                !
 ! A137  A(92,49,93)           105.4802         estimate D2E/DX2                !
 ! A138  A(47,50,51)           111.1388         estimate D2E/DX2                !
 ! A139  A(47,50,94)           124.8552         estimate D2E/DX2                !
 ! A140  A(51,50,94)           123.1171         estimate D2E/DX2                !
 ! A141  A(50,51,52)           108.9446         estimate D2E/DX2                !
 ! A142  A(50,51,53)           128.4061         estimate D2E/DX2                !
 ! A143  A(52,51,53)           122.5205         estimate D2E/DX2                !
 ! A144  A(46,52,51)            94.4402         estimate D2E/DX2                !
 ! A145  A(51,53,54)           118.8159         estimate D2E/DX2                !
 ! A146  A(51,53,58)           121.0603         estimate D2E/DX2                !
 ! A147  A(54,53,58)           120.0524         estimate D2E/DX2                !
 ! A148  A(53,54,55)           117.783          estimate D2E/DX2                !
 ! A149  A(53,54,95)           119.6327         estimate D2E/DX2                !
 ! A150  A(55,54,95)           122.1558         estimate D2E/DX2                !
 ! A151  A(54,55,56)           121.3047         estimate D2E/DX2                !
 ! A152  A(54,55,96)           122.8711         estimate D2E/DX2                !
 ! A153  A(56,55,96)           115.8091         estimate D2E/DX2                !
 ! A154  A(55,56,57)           120.8586         estimate D2E/DX2                !
 ! A155  A(55,56,59)           125.2623         estimate D2E/DX2                !
 ! A156  A(57,56,59)           113.8173         estimate D2E/DX2                !
 ! A157  A(56,57,58)           115.9595         estimate D2E/DX2                !
 ! A158  A(53,58,57)           123.8706         estimate D2E/DX2                !
 ! A159  A(53,58,97)           123.0296         estimate D2E/DX2                !
 ! A160  A(57,58,97)           112.9162         estimate D2E/DX2                !
 ! A161  A(56,59,60)           129.9199         estimate D2E/DX2                !
 ! A162  A(56,59,65)           119.9493         estimate D2E/DX2                !
 ! A163  A(60,59,65)           109.5771         estimate D2E/DX2                !
 ! A164  A(59,60,61)           122.989          estimate D2E/DX2                !
 ! A165  A(59,60,63)           113.6775         estimate D2E/DX2                !
 ! A166  A(61,60,63)           123.1441         estimate D2E/DX2                !
 ! A167  A(60,61,62)           119.2082         estimate D2E/DX2                !
 ! A168  A(61,62,98)           111.2262         estimate D2E/DX2                !
 ! A169  A(61,62,99)           110.157          estimate D2E/DX2                !
 ! A170  A(61,62,100)          114.445          estimate D2E/DX2                !
 ! A171  A(98,62,99)           105.9181         estimate D2E/DX2                !
 ! A172  A(98,62,100)          106.9185         estimate D2E/DX2                !
 ! A173  A(99,62,100)          107.7497         estimate D2E/DX2                !
 ! A174  A(60,63,64)           110.7856         estimate D2E/DX2                !
 ! A175  A(60,63,101)          125.5738         estimate D2E/DX2                !
 ! A176  A(64,63,101)          123.3378         estimate D2E/DX2                !
 ! A177  A(63,64,65)           113.7129         estimate D2E/DX2                !
 ! A178  A(63,64,102)          129.9979         estimate D2E/DX2                !
 ! A179  A(65,64,102)          116.1411         estimate D2E/DX2                !
 ! A180  A(59,65,64)            91.9798         estimate D2E/DX2                !
 ! D1    D(6,1,2,3)             -1.1237         estimate D2E/DX2                !
 ! D2    D(6,1,2,67)           179.2374         estimate D2E/DX2                !
 ! D3    D(66,1,2,3)          -175.9302         estimate D2E/DX2                !
 ! D4    D(66,1,2,67)            4.4309         estimate D2E/DX2                !
 ! D5    D(2,1,6,5)              0.3008         estimate D2E/DX2                !
 ! D6    D(2,1,6,69)          -174.2794         estimate D2E/DX2                !
 ! D7    D(66,1,6,5)           175.1896         estimate D2E/DX2                !
 ! D8    D(66,1,6,69)            0.6093         estimate D2E/DX2                !
 ! D9    D(1,2,3,4)             -1.758          estimate D2E/DX2                !
 ! D10   D(1,2,3,68)          -178.6037         estimate D2E/DX2                !
 ! D11   D(67,2,3,4)           177.9098         estimate D2E/DX2                !
 ! D12   D(67,2,3,68)            1.0642         estimate D2E/DX2                !
 ! D13   D(2,3,4,5)              5.661          estimate D2E/DX2                !
 ! D14   D(2,3,4,7)            178.8968         estimate D2E/DX2                !
 ! D15   D(68,3,4,5)          -177.5618         estimate D2E/DX2                !
 ! D16   D(68,3,4,7)            -4.326          estimate D2E/DX2                !
 ! D17   D(3,4,5,6)             -6.4112         estimate D2E/DX2                !
 ! D18   D(7,4,5,6)            179.6743         estimate D2E/DX2                !
 ! D19   D(3,4,7,8)             36.878          estimate D2E/DX2                !
 ! D20   D(3,4,7,13)          -142.2112         estimate D2E/DX2                !
 ! D21   D(5,4,7,8)           -149.4031         estimate D2E/DX2                !
 ! D22   D(5,4,7,13)            31.5076         estimate D2E/DX2                !
 ! D23   D(4,5,6,1)              3.4083         estimate D2E/DX2                !
 ! D24   D(4,5,6,69)           178.0809         estimate D2E/DX2                !
 ! D25   D(4,7,8,9)              3.4178         estimate D2E/DX2                !
 ! D26   D(4,7,8,11)           178.3722         estimate D2E/DX2                !
 ! D27   D(13,7,8,9)          -177.4123         estimate D2E/DX2                !
 ! D28   D(13,7,8,11)           -2.4579         estimate D2E/DX2                !
 ! D29   D(4,7,13,12)         -177.2702         estimate D2E/DX2                !
 ! D30   D(8,7,13,12)            3.5325         estimate D2E/DX2                !
 ! D31   D(7,8,9,10)           174.472          estimate D2E/DX2                !
 ! D32   D(11,8,9,10)            0.325          estimate D2E/DX2                !
 ! D33   D(7,8,11,12)           -0.2127         estimate D2E/DX2                !
 ! D34   D(7,8,11,73)         -176.5274         estimate D2E/DX2                !
 ! D35   D(9,8,11,12)          174.7237         estimate D2E/DX2                !
 ! D36   D(9,8,11,73)           -1.591          estimate D2E/DX2                !
 ! D37   D(8,9,10,70)          179.0403         estimate D2E/DX2                !
 ! D38   D(8,9,10,71)          -61.3191         estimate D2E/DX2                !
 ! D39   D(8,9,10,72)           56.0936         estimate D2E/DX2                !
 ! D40   D(8,11,12,13)           2.936          estimate D2E/DX2                !
 ! D41   D(8,11,12,14)        -177.7574         estimate D2E/DX2                !
 ! D42   D(73,11,12,13)        179.1812         estimate D2E/DX2                !
 ! D43   D(73,11,12,14)         -1.5122         estimate D2E/DX2                !
 ! D44   D(11,12,13,7)          -3.724          estimate D2E/DX2                !
 ! D45   D(14,12,13,7)         176.9078         estimate D2E/DX2                !
 ! D46   D(11,12,14,15)        136.4822         estimate D2E/DX2                !
 ! D47   D(11,12,14,19)        -45.2943         estimate D2E/DX2                !
 ! D48   D(13,12,14,15)        -44.238          estimate D2E/DX2                !
 ! D49   D(13,12,14,19)        133.9855         estimate D2E/DX2                !
 ! D50   D(12,14,15,16)        178.1789         estimate D2E/DX2                !
 ! D51   D(12,14,15,74)         -4.3068         estimate D2E/DX2                !
 ! D52   D(19,14,15,16)         -0.1283         estimate D2E/DX2                !
 ! D53   D(19,14,15,74)        177.386          estimate D2E/DX2                !
 ! D54   D(12,14,19,18)       -178.7357         estimate D2E/DX2                !
 ! D55   D(12,14,19,76)          2.983          estimate D2E/DX2                !
 ! D56   D(15,14,19,18)         -0.3538         estimate D2E/DX2                !
 ! D57   D(15,14,19,76)       -178.635          estimate D2E/DX2                !
 ! D58   D(14,15,16,17)         -1.5538         estimate D2E/DX2                !
 ! D59   D(14,15,16,75)       -179.2784         estimate D2E/DX2                !
 ! D60   D(74,15,16,17)       -178.8357         estimate D2E/DX2                !
 ! D61   D(74,15,16,75)          3.4398         estimate D2E/DX2                !
 ! D62   D(15,16,17,18)          3.658          estimate D2E/DX2                !
 ! D63   D(15,16,17,20)       -174.1304         estimate D2E/DX2                !
 ! D64   D(75,16,17,18)       -178.5711         estimate D2E/DX2                !
 ! D65   D(75,16,17,20)          3.6404         estimate D2E/DX2                !
 ! D66   D(16,17,18,19)         -3.9818         estimate D2E/DX2                !
 ! D67   D(20,17,18,19)        173.9045         estimate D2E/DX2                !
 ! D68   D(16,17,20,21)         37.8998         estimate D2E/DX2                !
 ! D69   D(16,17,20,26)       -135.4341         estimate D2E/DX2                !
 ! D70   D(18,17,20,21)       -139.8602         estimate D2E/DX2                !
 ! D71   D(18,17,20,26)         46.8059         estimate D2E/DX2                !
 ! D72   D(17,18,19,14)          2.5195         estimate D2E/DX2                !
 ! D73   D(17,18,19,76)       -179.0495         estimate D2E/DX2                !
 ! D74   D(17,20,21,22)          6.0004         estimate D2E/DX2                !
 ! D75   D(17,20,21,24)       -174.7844         estimate D2E/DX2                !
 ! D76   D(26,20,21,22)        179.6311         estimate D2E/DX2                !
 ! D77   D(26,20,21,24)         -1.1538         estimate D2E/DX2                !
 ! D78   D(17,20,26,25)        175.7828         estimate D2E/DX2                !
 ! D79   D(21,20,26,25)          1.0279         estimate D2E/DX2                !
 ! D80   D(20,21,22,23)        166.9788         estimate D2E/DX2                !
 ! D81   D(24,21,22,23)        -12.0893         estimate D2E/DX2                !
 ! D82   D(20,21,24,25)          0.669          estimate D2E/DX2                !
 ! D83   D(20,21,24,80)       -176.5625         estimate D2E/DX2                !
 ! D84   D(22,21,24,25)        179.7479         estimate D2E/DX2                !
 ! D85   D(22,21,24,80)          2.5164         estimate D2E/DX2                !
 ! D86   D(21,22,23,77)         65.3109         estimate D2E/DX2                !
 ! D87   D(21,22,23,78)        -57.6461         estimate D2E/DX2                !
 ! D88   D(21,22,23,79)       -170.6459         estimate D2E/DX2                !
 ! D89   D(21,24,25,26)          0.1292         estimate D2E/DX2                !
 ! D90   D(21,24,25,27)        176.9441         estimate D2E/DX2                !
 ! D91   D(80,24,25,26)        177.6108         estimate D2E/DX2                !
 ! D92   D(80,24,25,27)         -5.5743         estimate D2E/DX2                !
 ! D93   D(24,25,26,20)         -0.6527         estimate D2E/DX2                !
 ! D94   D(27,25,26,20)       -177.5765         estimate D2E/DX2                !
 ! D95   D(24,25,27,28)        -54.4544         estimate D2E/DX2                !
 ! D96   D(24,25,27,32)        120.1375         estimate D2E/DX2                !
 ! D97   D(26,25,27,28)        121.8698         estimate D2E/DX2                !
 ! D98   D(26,25,27,32)        -63.5383         estimate D2E/DX2                !
 ! D99   D(25,27,28,29)        175.5772         estimate D2E/DX2                !
 ! D100  D(25,27,28,81)         -8.9839         estimate D2E/DX2                !
 ! D101  D(32,27,28,29)          0.8862         estimate D2E/DX2                !
 ! D102  D(32,27,28,81)        176.3251         estimate D2E/DX2                !
 ! D103  D(25,27,32,31)       -170.7763         estimate D2E/DX2                !
 ! D104  D(25,27,32,83)         -1.1283         estimate D2E/DX2                !
 ! D105  D(28,27,32,31)          4.2758         estimate D2E/DX2                !
 ! D106  D(28,27,32,83)        173.9238         estimate D2E/DX2                !
 ! D107  D(27,28,29,30)         -4.1936         estimate D2E/DX2                !
 ! D108  D(27,28,29,82)       -177.4673         estimate D2E/DX2                !
 ! D109  D(81,28,29,30)       -179.3563         estimate D2E/DX2                !
 ! D110  D(81,28,29,82)          7.3699         estimate D2E/DX2                !
 ! D111  D(28,29,30,31)          2.5612         estimate D2E/DX2                !
 ! D112  D(28,29,30,33)       -168.6357         estimate D2E/DX2                !
 ! D113  D(82,29,30,31)        175.7751         estimate D2E/DX2                !
 ! D114  D(82,29,30,33)          4.5782         estimate D2E/DX2                !
 ! D115  D(29,30,31,32)          2.4443         estimate D2E/DX2                !
 ! D116  D(33,30,31,32)        174.0038         estimate D2E/DX2                !
 ! D117  D(29,30,33,34)         38.4225         estimate D2E/DX2                !
 ! D118  D(29,30,33,39)       -136.0257         estimate D2E/DX2                !
 ! D119  D(31,30,33,34)       -133.763          estimate D2E/DX2                !
 ! D120  D(31,30,33,39)         51.7888         estimate D2E/DX2                !
 ! D121  D(30,31,32,27)         -5.7775         estimate D2E/DX2                !
 ! D122  D(30,31,32,83)       -175.7043         estimate D2E/DX2                !
 ! D123  D(30,33,34,35)          7.7565         estimate D2E/DX2                !
 ! D124  D(30,33,34,37)        179.5031         estimate D2E/DX2                !
 ! D125  D(39,33,34,35)       -177.5703         estimate D2E/DX2                !
 ! D126  D(39,33,34,37)         -5.8237         estimate D2E/DX2                !
 ! D127  D(30,33,39,38)        178.6903         estimate D2E/DX2                !
 ! D128  D(34,33,39,38)          3.0155         estimate D2E/DX2                !
 ! D129  D(33,34,35,36)        170.0991         estimate D2E/DX2                !
 ! D130  D(37,34,35,36)         -0.3965         estimate D2E/DX2                !
 ! D131  D(33,34,37,38)          6.3083         estimate D2E/DX2                !
 ! D132  D(33,34,37,87)       -177.3605         estimate D2E/DX2                !
 ! D133  D(35,34,37,38)        176.8549         estimate D2E/DX2                !
 ! D134  D(35,34,37,87)         -6.8139         estimate D2E/DX2                !
 ! D135  D(34,35,36,84)         63.7996         estimate D2E/DX2                !
 ! D136  D(34,35,36,85)        -67.0313         estimate D2E/DX2                !
 ! D137  D(34,35,36,86)        179.6024         estimate D2E/DX2                !
 ! D138  D(34,37,38,39)         -3.6842         estimate D2E/DX2                !
 ! D139  D(34,37,38,40)        175.3991         estimate D2E/DX2                !
 ! D140  D(87,37,38,39)        179.8472         estimate D2E/DX2                !
 ! D141  D(87,37,38,40)         -1.0695         estimate D2E/DX2                !
 ! D142  D(37,38,39,33)          0.5033         estimate D2E/DX2                !
 ! D143  D(40,38,39,33)       -178.6816         estimate D2E/DX2                !
 ! D144  D(37,38,40,41)         47.7268         estimate D2E/DX2                !
 ! D145  D(37,38,40,45)       -127.3278         estimate D2E/DX2                !
 ! D146  D(39,38,40,41)       -133.2591         estimate D2E/DX2                !
 ! D147  D(39,38,40,45)         51.6864         estimate D2E/DX2                !
 ! D148  D(38,40,41,42)       -177.7706         estimate D2E/DX2                !
 ! D149  D(38,40,41,88)         11.9863         estimate D2E/DX2                !
 ! D150  D(45,40,41,42)         -2.2392         estimate D2E/DX2                !
 ! D151  D(45,40,41,88)       -172.4823         estimate D2E/DX2                !
 ! D152  D(38,40,45,44)        175.7712         estimate D2E/DX2                !
 ! D153  D(38,40,45,90)         -2.2317         estimate D2E/DX2                !
 ! D154  D(41,40,45,44)          0.5479         estimate D2E/DX2                !
 ! D155  D(41,40,45,90)       -177.455          estimate D2E/DX2                !
 ! D156  D(40,41,42,43)          3.8176         estimate D2E/DX2                !
 ! D157  D(40,41,42,89)        178.7385         estimate D2E/DX2                !
 ! D158  D(88,41,42,43)        174.0002         estimate D2E/DX2                !
 ! D159  D(88,41,42,89)        -11.0789         estimate D2E/DX2                !
 ! D160  D(41,42,43,44)         -3.7262         estimate D2E/DX2                !
 ! D161  D(41,42,43,46)        169.3642         estimate D2E/DX2                !
 ! D162  D(89,42,43,44)       -178.2456         estimate D2E/DX2                !
 ! D163  D(89,42,43,46)         -5.1551         estimate D2E/DX2                !
 ! D164  D(42,43,44,45)          1.9394         estimate D2E/DX2                !
 ! D165  D(46,43,44,45)       -171.2345         estimate D2E/DX2                !
 ! D166  D(42,43,46,47)        -36.4754         estimate D2E/DX2                !
 ! D167  D(42,43,46,52)        142.7655         estimate D2E/DX2                !
 ! D168  D(44,43,46,47)        137.0163         estimate D2E/DX2                !
 ! D169  D(44,43,46,52)        -43.7428         estimate D2E/DX2                !
 ! D170  D(43,44,45,40)         -0.3302         estimate D2E/DX2                !
 ! D171  D(43,44,45,90)        177.8885         estimate D2E/DX2                !
 ! D172  D(43,46,47,48)          0.1553         estimate D2E/DX2                !
 ! D173  D(43,46,47,50)        174.414          estimate D2E/DX2                !
 ! D174  D(52,46,47,48)       -179.1256         estimate D2E/DX2                !
 ! D175  D(52,46,47,50)         -4.8669         estimate D2E/DX2                !
 ! D176  D(43,46,52,51)       -177.3448         estimate D2E/DX2                !
 ! D177  D(47,46,52,51)          2.0938         estimate D2E/DX2                !
 ! D178  D(46,47,48,49)       -171.8027         estimate D2E/DX2                !
 ! D179  D(50,47,48,49)         14.7274         estimate D2E/DX2                !
 ! D180  D(46,47,50,51)          5.8106         estimate D2E/DX2                !
 ! D181  D(46,47,50,94)        175.2651         estimate D2E/DX2                !
 ! D182  D(48,47,50,51)        179.1703         estimate D2E/DX2                !
 ! D183  D(48,47,50,94)        -11.3753         estimate D2E/DX2                !
 ! D184  D(47,48,49,91)         58.733          estimate D2E/DX2                !
 ! D185  D(47,48,49,92)        -67.857          estimate D2E/DX2                !
 ! D186  D(47,48,49,93)        176.8298         estimate D2E/DX2                !
 ! D187  D(47,50,51,52)         -3.7687         estimate D2E/DX2                !
 ! D188  D(47,50,51,53)       -179.6707         estimate D2E/DX2                !
 ! D189  D(94,50,51,52)       -173.439          estimate D2E/DX2                !
 ! D190  D(94,50,51,53)         10.659          estimate D2E/DX2                !
 ! D191  D(50,51,52,46)          1.0214         estimate D2E/DX2                !
 ! D192  D(53,51,52,46)        177.2135         estimate D2E/DX2                !
 ! D193  D(50,51,53,54)         30.7377         estimate D2E/DX2                !
 ! D194  D(50,51,53,58)       -146.1897         estimate D2E/DX2                !
 ! D195  D(52,51,53,54)       -144.6645         estimate D2E/DX2                !
 ! D196  D(52,51,53,58)         38.4081         estimate D2E/DX2                !
 ! D197  D(51,53,54,55)        178.6514         estimate D2E/DX2                !
 ! D198  D(51,53,54,95)          6.0004         estimate D2E/DX2                !
 ! D199  D(58,53,54,55)         -4.3894         estimate D2E/DX2                !
 ! D200  D(58,53,54,95)       -177.0404         estimate D2E/DX2                !
 ! D201  D(51,53,58,57)       -178.1131         estimate D2E/DX2                !
 ! D202  D(51,53,58,97)         -3.3887         estimate D2E/DX2                !
 ! D203  D(54,53,58,57)          4.9972         estimate D2E/DX2                !
 ! D204  D(54,53,58,97)        179.7216         estimate D2E/DX2                !
 ! D205  D(53,54,55,56)          2.3028         estimate D2E/DX2                !
 ! D206  D(53,54,55,96)       -179.1638         estimate D2E/DX2                !
 ! D207  D(95,54,55,56)        174.7564         estimate D2E/DX2                !
 ! D208  D(95,54,55,96)         -6.7102         estimate D2E/DX2                !
 ! D209  D(54,55,56,57)         -0.6783         estimate D2E/DX2                !
 ! D210  D(54,55,56,59)        176.2828         estimate D2E/DX2                !
 ! D211  D(96,55,56,57)       -179.3101         estimate D2E/DX2                !
 ! D212  D(96,55,56,59)         -2.3489         estimate D2E/DX2                !
 ! D213  D(55,56,57,58)          0.9377         estimate D2E/DX2                !
 ! D214  D(59,56,57,58)       -176.3503         estimate D2E/DX2                !
 ! D215  D(55,56,59,60)        -31.5589         estimate D2E/DX2                !
 ! D216  D(55,56,59,65)        138.9538         estimate D2E/DX2                !
 ! D217  D(57,56,59,60)        145.5898         estimate D2E/DX2                !
 ! D218  D(57,56,59,65)        -43.8975         estimate D2E/DX2                !
 ! D219  D(56,57,58,53)         -3.191          estimate D2E/DX2                !
 ! D220  D(56,57,58,97)       -178.3902         estimate D2E/DX2                !
 ! D221  D(56,59,60,61)         -9.9431         estimate D2E/DX2                !
 ! D222  D(56,59,60,63)        174.9193         estimate D2E/DX2                !
 ! D223  D(65,59,60,61)        178.7755         estimate D2E/DX2                !
 ! D224  D(65,59,60,63)          3.6379         estimate D2E/DX2                !
 ! D225  D(56,59,65,64)       -173.0518         estimate D2E/DX2                !
 ! D226  D(60,59,65,64)         -0.7624         estimate D2E/DX2                !
 ! D227  D(59,60,61,62)       -168.9096         estimate D2E/DX2                !
 ! D228  D(63,60,61,62)          5.7706         estimate D2E/DX2                !
 ! D229  D(59,60,63,64)         -5.6737         estimate D2E/DX2                !
 ! D230  D(59,60,63,101)      -179.5021         estimate D2E/DX2                !
 ! D231  D(61,60,63,64)        179.1974         estimate D2E/DX2                !
 ! D232  D(61,60,63,101)         5.369          estimate D2E/DX2                !
 ! D233  D(60,61,62,98)        -64.7017         estimate D2E/DX2                !
 ! D234  D(60,61,62,99)        178.1694         estimate D2E/DX2                !
 ! D235  D(60,61,62,100)        56.5961         estimate D2E/DX2                !
 ! D236  D(60,63,64,65)          4.9876         estimate D2E/DX2                !
 ! D237  D(60,63,64,102)      -179.6727         estimate D2E/DX2                !
 ! D238  D(101,63,64,65)       178.9797         estimate D2E/DX2                !
 ! D239  D(101,63,64,102)       -5.6806         estimate D2E/DX2                !
 ! D240  D(63,64,65,59)         -2.6386         estimate D2E/DX2                !
 ! D241  D(102,64,65,59)      -178.6629         estimate D2E/DX2                !
 --------------------------------------------------------------------------------
 Trust Radius=3.00D-01 FncErr=1.00D-07 GrdErr=1.00D-06 EigMax=2.50D+02 EigMin=1.00D-04
 Number of steps in this run=    542 maximum allowed number of steps=    612.
 GradGradGradGradGradGradGradGradGradGradGradGradGradGradGradGradGradGrad

 Leave Link  103 at Sat Jul 25 04:25:08 2020, MaxMem=  4026531840 cpu:               0.2 elap:               0.0
 (Enter /opt/ohpc/pub/libs/gaussian/g16-A.03/sandybridge/g16/l202.exe)
 Stoichiometry    C50H37N5O5S5
 Framework group  C1[X(C50H37N5O5S5)]
 Deg. of freedom   300
 Full point group                 C1      NOp   1
 Largest Abelian subgroup         C1      NOp   1
 Largest concise Abelian subgroup C1      NOp   1
                         Standard orientation:                         
 ---------------------------------------------------------------------
 Center     Atomic      Atomic             Coordinates (Angstroms)
 Number     Number       Type             X           Y           Z
 ---------------------------------------------------------------------
      1          6           0      -18.421942    2.892971   -0.426136
      2          6           0      -17.734376    3.935599   -0.934472
      3          6           0      -16.361283    3.926775   -0.861757
      4          6           0      -15.749961    2.908309   -0.261320
      5          7           0      -16.420881    1.851720    0.169674
      6          6           0      -17.728990    1.888878    0.104633
      7          6           0      -14.229078    2.763799   -0.133263
      8          6           0      -13.350434    3.793649    0.077221
      9          8           0      -13.696963    5.084819    0.268926
     10          6           0      -12.714788    6.079742    0.598853
     11          6           0      -11.992053    3.253747    0.181017
     12          6           0      -11.967582    1.932702    0.051205
     13         16           0      -13.435860    1.253810   -0.265591
     14          6           0      -10.787740    1.055134    0.146951
     15          6           0      -10.759763   -0.194042    0.854164
     16          6           0       -9.665210   -0.927902    0.853280
     17          6           0       -8.452875   -0.570419    0.139854
     18          7           0       -8.428715    0.646886   -0.514222
     19          6           0       -9.532888    1.414292   -0.540461
     20          6           0       -7.306697   -1.436467    0.045726
     21          6           0       -7.180359   -2.793931   -0.098965
     22          8           0       -8.343922   -3.480720   -0.299385
     23          6           0       -8.155270   -4.826972   -0.733650
     24          6           0       -5.923875   -3.238942   -0.037325
     25          6           0       -4.945168   -2.223426    0.182578
     26         16           0       -5.763534   -0.705670    0.301131
     27          6           0       -3.517582   -2.402822    0.356002
     28          6           0       -2.938943   -3.222688    1.282319
     29          6           0       -1.624060   -3.405609    1.329841
     30          6           0       -0.837510   -2.818866    0.365954
     31          7           0       -1.253844   -2.041388   -0.592395
     32          6           0       -2.616810   -1.755676   -0.589401
     33          6           0        0.592309   -3.218515    0.255616
     34          6           0        1.241293   -4.416532    0.381420
     35          8           0        0.429341   -5.537019    0.504755
     36          6           0        1.209475   -6.732021    0.397719
     37          6           0        2.686198   -4.367055    0.179779
     38          6           0        3.130683   -3.064380    0.034534
     39         16           0        1.746943   -1.908619    0.040395
     40          6           0        4.432046   -2.581983   -0.088053
     41          6           0        5.336380   -3.216441   -1.027096
     42          6           0        6.664150   -2.762815   -1.119516
     43          6           0        7.104680   -1.802595   -0.288238
     44          7           0        6.315898   -1.179977    0.605072
     45          6           0        4.995684   -1.575705    0.698268
     46          6           0        8.554817   -1.510323   -0.240804
     47          6           0        9.695662   -2.246362   -0.326510
     48          8           0        9.493288   -3.630211   -0.507677
     49          6           0       10.742886   -4.310980   -0.391640
     50          6           0       10.927792   -1.522101   -0.350872
     51          6           0       10.708822   -0.125752   -0.142895
     52         16           0        8.992925    0.169808   -0.044711
     53          6           0       11.702456    0.959692   -0.102311
     54          6           0       12.888188    0.838003   -0.890862
     55          6           0       13.756023    1.839250   -0.860109
     56          6           0       13.549521    2.942077   -0.058356
     57          7           0       12.388795    3.046060    0.751810
     58          6           0       11.539091    2.009330    0.696323
     59          6           0       14.481591    4.054967    0.101045
     60          6           0       15.841409    4.069426    0.049559
     61          8           0       16.608356    2.914087    0.019299
     62          6           0       17.921104    3.003460    0.192663
     63          6           0       16.438248    5.456014    0.145920
     64          6           0       15.466866    6.398614    0.139165
     65         16           0       13.861801    5.745499    0.162595
     66          1           0      -19.549346    2.819722   -0.521213
     67          1           0      -18.213962    4.852116   -1.428391
     68          1           0      -15.755199    4.845867   -1.281619
     69          1           0      -18.279706    0.973084    0.442865
     70          1           0      -13.209628    7.051939    0.691257
     71          1           0      -12.299093    5.750697    1.541269
     72          1           0      -11.939033    6.057234   -0.197685
     73          1           0      -11.124425    3.869334    0.402975
     74          1           0      -11.622729   -0.432105    1.373533
     75          1           0       -9.663139   -1.946833    1.422541
     76          1           0       -9.411628    2.282007   -1.060933
     77          1           0       -7.696165   -5.428028   -0.033523
     78          1           0       -7.569024   -4.854243   -1.670277
     79          1           0       -9.148489   -5.295749   -1.049378
     80          1           0       -5.567067   -4.320985   -0.185335
     81          1           0       -3.624613   -3.663487    2.040351
     82          1           0       -1.202918   -4.087750    2.043461
     83          1           0       -2.997260   -1.190646   -1.383539
     84          1           0        1.957388   -6.885871    1.186462
     85          1           0        1.624208   -6.859168   -0.604311
     86          1           0        0.505988   -7.609952    0.511669
     87          1           0        3.297598   -5.138084    0.197264
     88          1           0        4.943895   -3.924814   -1.761468
     89          1           0        7.297782   -3.285491   -1.819771
     90          1           0        4.500394   -1.073999    1.416785
     91          1           0       11.257490   -4.177980    0.552805
     92          1           0       11.415003   -4.078775   -1.207547
     93          1           0       10.518363   -5.462104   -0.487581
     94          1           0       11.857272   -1.949258   -0.343518
     95          1           0       12.988411    0.042323   -1.544512
     96          1           0       14.721991    1.839494   -1.465212
     97          1           0       10.669307    2.150476    1.303563
     98          1           0       18.426973    3.603956   -0.684521
     99          1           0       18.354528    2.046956    0.174415
    100          1           0       18.237110    3.511904    1.170897
    101          1           0       17.518912    5.695615    0.116802
    102          1           0       15.541986    7.453927    0.187964
 ---------------------------------------------------------------------
 Rotational constants (GHZ):           0.0502854           0.0046365           0.0042638
 Leave Link  202 at Sat Jul 25 04:25:08 2020, MaxMem=  4026531840 cpu:               0.1 elap:               0.0
 (Enter /opt/ohpc/pub/libs/gaussian/g16-A.03/sandybridge/g16/l301.exe)
 Standard basis: CC-pVDZ (5D, 7F)
 Ernie: Thresh=  0.10000D-02 Tol=  0.10000D-05 Strict=F.
 Ernie:  170 primitive shells out of 1755 were deleted.
 There are  1180 symmetry adapted cartesian basis functions of A   symmetry.
 There are  1115 symmetry adapted basis functions of A   symmetry.
  1115 basis functions,  2594 primitive gaussians,  1180 cartesian basis functions
   246 alpha electrons      246 beta electrons
       nuclear repulsion energy      8448.4307887647 Hartrees.
 IExCor=32609 DFT=T Ex+Corr=LC-wPBE ExCW=0 ScaHFX=  1.000000
 ScaDFX=  1.000000  0.000000  1.000000  1.000000 ScalE2=  1.000000  1.000000
 IRadAn=      5 IRanWt=     -1 IRanGd=            0 ICorTp=0 IEmpDi=  4
 HFx  wShort=  0.000000 wLong=  0.093200 cFull=  0.000000 cShort=  0.000000 cLong=  1.000000
 DFx  wShort=  0.000000 wLong=  0.093200 cFull=  0.000000 cShort=  0.000000 cLong=  1.000000
 NAtoms=  102 NActive=  102 NUniq=  102 SFac= 1.00D+00 NAtFMM=   60 NAOKFM=T Big=T
 Integral buffers will be    131072 words long.
 Raffenetti 2 integral format.
 Two-electron integral symmetry is turned on.
 Leave Link  301 at Sat Jul 25 04:25:08 2020, MaxMem=  4026531840 cpu:               0.5 elap:               0.1
 (Enter /opt/ohpc/pub/libs/gaussian/g16-A.03/sandybridge/g16/l302.exe)
 NPDir=0 NMtPBC=     1 NCelOv=     1 NCel=       1 NClECP=     1 NCelD=      1
         NCelK=      1 NCelE2=     1 NClLst=     1 CellRange=     0.0.
 One-electron integrals computed using PRISM.
 One-electron integral symmetry used in STVInt
 NBasis=  1115 RedAO= T EigKep=  3.22D-04  NBF=  1115
 NBsUse=  1115 1.00D-06 EigRej= -1.00D+00 NBFU=  1115
 Precomputing XC quadrature grid using
 IXCGrd= 4 IRadAn=           5 IRanWt=          -1 IRanGd=           0 AccXCQ= 0.00D+00.
 Generated NRdTot=       0 NPtTot=           0 NUsed=           0 NTot=          32
 NSgBfM=   715   715   715   715   715 MxSgAt=   102 MxSgA2=    92.
 Leave Link  302 at Sat Jul 25 04:25:15 2020, MaxMem=  4026531840 cpu:              55.9 elap:               7.1
 (Enter /opt/ohpc/pub/libs/gaussian/g16-A.03/sandybridge/g16/l303.exe)
 DipDrv:  MaxL=1.
 Leave Link  303 at Sat Jul 25 04:25:15 2020, MaxMem=  4026531840 cpu:               3.1 elap:               0.4
 (Enter /opt/ohpc/pub/libs/gaussian/g16-A.03/sandybridge/g16/l401.exe)
 ExpMin= 1.22D-01 ExpMax= 1.11D+05 ExpMxC= 1.07D+03 IAcc=3 IRadAn=         5 AccDes= 0.00D+00
 Harris functional with IExCor=32609 and IRadAn=       5 diagonalized for initial guess.
 HarFok:  IExCor=32609 AccDes= 0.00D+00 IRadAn=         5 IDoV= 1 UseB2=F ITyADJ=14
 ICtDFT=  3500011 ScaDFX=  1.000000  1.000000  1.000000  1.000000
 FoFCou: FMM=F IPFlag=           0 FMFlag=      100000 FMFlg1=        2001
         NFxFlg=           0 DoJE=T BraDBF=F KetDBF=T FulRan=T
         wScrn=  0.000000 ICntrl=       500 IOpCl=  0 I1Cent=   200000004 NGrid=           0
         NMat0=    1 NMatS0=      1 NMatT0=    0 NMatD0=    1 NMtDS0=    0 NMtDT0=    0
 Petite list used in FoFCou.
 Harris En= -4565.27780989319    
 JPrj=0 DoOrth=F DoCkMO=F.
 Initial guess <Sx>= 0.0000 <Sy>= 0.0000 <Sz>= 0.0000 <S**2>=-0.0000 S=-0.0000
 Leave Link  401 at Sat Jul 25 04:25:37 2020, MaxMem=  4026531840 cpu:             174.1 elap:              21.9
 (Enter /opt/ohpc/pub/libs/gaussian/g16-A.03/sandybridge/g16/l502.exe)
 Integral symmetry usage will be decided dynamically.
 UHF open shell SCF:
 Using DIIS extrapolation, IDIIS=  1040.
 NGot=  4026531840 LenX=  4023725560 LenY=  4022331980
 Requested convergence on RMS density matrix=1.00D-08 within 128 cycles.
 Requested convergence on MAX density matrix=1.00D-06.
 Requested convergence on             energy=1.00D-06.
 No special actions if energy rises.
 Fock matrices will be formed incrementally for  20 cycles.
 Integral accuracy reduced to 1.0D-05 until final iterations.

 Cycle   1  Pass 0  IDiag  1:
 FoFJK:  IHMeth= 1 ICntrl=       0 DoSepK=T KAlg= 0 I1Cent=           0 FoldK=F
 IRaf=         1 NMat=       1 IRICut=       1 DoRegI=T DoRafI=F ISym2E= 0 IDoP0=0 IntGTp=1.
 FoFCou: FMM=T IPFlag=           0 FMFlag=      100000 FMFlg1=        2001
         NFxFlg=           0 DoJE=T BraDBF=F KetDBF=F FulRan=T
         wScrn=  0.000000 ICntrl=       500 IOpCl=  0 I1Cent=           0 NGrid=           0
         NMat0=    1 NMatS0=      1 NMatT0=    0 NMatD0=    1 NMtDS0=    0 NMtDT0=    0
 Symmetry not used in FoFCou.
 FMM levels:  10  Number of levels for PrismC:   9
 E= -4563.79664791402    
 DIIS: error= 1.62D-02 at cycle   1 NSaved=   1.
 NSaved= 1 IEnMin= 1 EnMin= -4563.79664791402     IErMin= 1 ErrMin= 1.62D-02
 ErrMax= 1.62D-02  0.00D+00 EMaxC= 1.00D-01 BMatC= 4.08D+00 BMatP= 4.08D+00
 IDIUse=3 WtCom= 8.38D-01 WtEn= 1.62D-01
 Coeff-Com:  0.100D+01
 Coeff-En:   0.100D+01
 Coeff:      0.100D+01
 Gap=     0.221 Goal=   None    Shift=    0.000
 Gap=     0.221 Goal=   None    Shift=    0.000
 GapD=    0.221 DampG=1.000 DampE=0.500 DampFc=0.5000 IDamp=-1.
 Damping current iteration by 5.00D-01
 RMSDP=2.45D-03 MaxDP=1.93D-01              OVMax= 2.27D-01

[...]
  Beta virt. eigenvalues --    1.09651   1.10445   1.10853   1.11017   1.11841
  Beta virt. eigenvalues --    1.11908   1.12300   1.12504   1.13411   1.13574
  Beta virt. eigenvalues --    1.13937   1.14615   1.14890   1.15333   1.15446
  Beta virt. eigenvalues --    1.15559   1.15869   1.16071   1.16850   1.16903
  Beta virt. eigenvalues --    1.17020   1.17453   1.18019   1.18674   1.18923
  Beta virt. eigenvalues --    1.19334   1.19515   1.19564   1.19647   1.19795
  Beta virt. eigenvalues --    1.19968   1.20520   1.20767   1.21223   1.21580
  Beta virt. eigenvalues --    1.22049   1.23222   1.23351   1.23980   1.24373
  Beta virt. eigenvalues --    1.24451   1.25155   1.25287   1.25493   1.25640
  Beta virt. eigenvalues --    1.25748   1.26385   1.26545   1.26884   1.27876
  Beta virt. eigenvalues --    1.29313   1.29462   1.30058   1.30289   1.31073
  Beta virt. eigenvalues --    1.31677   1.31881   1.32071   1.32467   1.32600
  Beta virt. eigenvalues --    1.33002   1.33219   1.33642   1.33707   1.33994
  Beta virt. eigenvalues --    1.34107   1.34234   1.34714   1.35270   1.35699
  Beta virt. eigenvalues --    1.36111   1.36717   1.36753   1.36771   1.36833
  Beta virt. eigenvalues --    1.37100   1.37252   1.37329   1.37722   1.37977
  Beta virt. eigenvalues --    1.38216   1.40043   1.40418   1.40779   1.40945
  Beta virt. eigenvalues --    1.41218   1.41675   1.41825   1.42845   1.43665
  Beta virt. eigenvalues --    1.43776   1.44082   1.44732   1.44966   1.45319
  Beta virt. eigenvalues --    1.45739   1.45911   1.45996   1.46400   1.46643
  Beta virt. eigenvalues --    1.47064   1.47453   1.47579   1.47673   1.47848
  Beta virt. eigenvalues --    1.48012   1.48222   1.48481   1.48914   1.49249
  Beta virt. eigenvalues --    1.49536   1.49807   1.50125   1.50526   1.50616
  Beta virt. eigenvalues --    1.50851   1.51231   1.51310   1.51975   1.52202
  Beta virt. eigenvalues --    1.52348   1.52733   1.52932   1.53133   1.53252
  Beta virt. eigenvalues --    1.53479   1.53879   1.54469   1.54759   1.55100
  Beta virt. eigenvalues --    1.55504   1.55979   1.56223   1.56348   1.56667
  Beta virt. eigenvalues --    1.56761   1.56855   1.57029   1.57310   1.57440
  Beta virt. eigenvalues --    1.58415   1.58435   1.58719   1.59190   1.59289
  Beta virt. eigenvalues --    1.59420   1.59529   1.59707   1.59777   1.59913
  Beta virt. eigenvalues --    1.60059   1.60245   1.60600   1.60755   1.60894
  Beta virt. eigenvalues --    1.61256   1.61433   1.61556   1.61698   1.61993
  Beta virt. eigenvalues --    1.62196   1.62564   1.62702   1.62894   1.63177
  Beta virt. eigenvalues --    1.63365   1.63650   1.63765   1.63880   1.63935
  Beta virt. eigenvalues --    1.64122   1.64283   1.65065   1.65605   1.65671
  Beta virt. eigenvalues --    1.65715   1.65932   1.66417   1.66597   1.66869
  Beta virt. eigenvalues --    1.66886   1.67073   1.67249   1.67590   1.67715
  Beta virt. eigenvalues --    1.68094   1.68287   1.68662   1.69238   1.69294
  Beta virt. eigenvalues --    1.69466   1.69646   1.69714   1.69773   1.69835
  Beta virt. eigenvalues --    1.70132   1.70524   1.70737   1.70881   1.71350
  Beta virt. eigenvalues --    1.71411   1.71852   1.72431   1.72892   1.73576
  Beta virt. eigenvalues --    1.73654   1.74044   1.74788   1.75295   1.75888
  Beta virt. eigenvalues --    1.76108   1.76256   1.76679   1.76984   1.77600
  Beta virt. eigenvalues --    1.78393   1.78601   1.79449   1.79768   1.80174
  Beta virt. eigenvalues --    1.80418   1.80636   1.81323   1.82229   1.82857
  Beta virt. eigenvalues --    1.83165   1.83274   1.83502   1.83915   1.84905
  Beta virt. eigenvalues --    1.85142   1.85410   1.85489   1.85721   1.85880
  Beta virt. eigenvalues --    1.86082   1.86466   1.86711   1.86834   1.87492
  Beta virt. eigenvalues --    1.87553   1.87884   1.88351   1.88663   1.88810
  Beta virt. eigenvalues --    1.89035   1.89309   1.89340   1.89412   1.89798
  Beta virt. eigenvalues --    1.89943   1.89995   1.90107   1.90534   1.91392
  Beta virt. eigenvalues --    1.91520   1.91848   1.93199   1.93719   1.94112
  Beta virt. eigenvalues --    1.94489   1.94636   1.95249   1.95640   1.95743
  Beta virt. eigenvalues --    1.96091   1.96693   1.97015   1.97540   1.97562
  Beta virt. eigenvalues --    1.98398   1.98991   1.99086   1.99268   1.99515
  Beta virt. eigenvalues --    1.99749   2.00052   2.00242   2.00363   2.00830
  Beta virt. eigenvalues --    2.00966   2.01185   2.01393   2.01525   2.01844
  Beta virt. eigenvalues --    2.01978   2.02301   2.03643   2.04090   2.04238
  Beta virt. eigenvalues --    2.04362   2.04567   2.04995   2.05293   2.05594
  Beta virt. eigenvalues --    2.05994   2.06065   2.06167   2.06588   2.07482
  Beta virt. eigenvalues --    2.07556   2.07799   2.07964   2.08086   2.08452
  Beta virt. eigenvalues --    2.08486   2.08685   2.08991   2.09641   2.10234
  Beta virt. eigenvalues --    2.10706   2.11137   2.12407   2.13360   2.13956
  Beta virt. eigenvalues --    2.14014   2.14598   2.14802   2.15194   2.16213
  Beta virt. eigenvalues --    2.16557   2.17125   2.17495   2.23486   2.23980
  Beta virt. eigenvalues --    2.24516   2.24778   2.25800   2.27453   2.27661
  Beta virt. eigenvalues --    2.27985   2.28257   2.29104   2.29434   2.29504
  Beta virt. eigenvalues --    2.29559   2.29700   2.32996   2.33146   2.33415
  Beta virt. eigenvalues --    2.33663   2.34440   2.34486   2.34524   2.34580
  Beta virt. eigenvalues --    2.34685   2.35139   2.35381   2.35540   2.35637
  Beta virt. eigenvalues --    2.35825   2.36053   2.36734   2.37679   2.37864
  Beta virt. eigenvalues --    2.37954   2.38035   2.38294   2.39982   2.40004
  Beta virt. eigenvalues --    2.40053   2.40076   2.40194   2.40322   2.40863
  Beta virt. eigenvalues --    2.41180   2.41401   2.41691   2.41719   2.42561
  Beta virt. eigenvalues --    2.42625   2.42839   2.43245   2.43494   2.43565
  Beta virt. eigenvalues --    2.44367   2.44482   2.44555   2.44907   2.46401
  Beta virt. eigenvalues --    2.46969   2.47497   2.47982   2.48336   2.50438
  Beta virt. eigenvalues --    2.54396   2.54591   2.54743   2.55098   2.57827
  Beta virt. eigenvalues --    2.58348   2.59693   2.60825   2.61597   2.65405
  Beta virt. eigenvalues --    2.65838   2.66521   2.67773   2.68301   2.70156
  Beta virt. eigenvalues --    2.70864   2.71030   2.71490   2.72049   2.77196
  Beta virt. eigenvalues --    2.79118   2.79638   2.79913   2.81805   2.82746
  Beta virt. eigenvalues --    2.82786   2.82803   2.82959   2.83173   2.85083
  Beta virt. eigenvalues --    2.85291   2.85418   2.85631   2.86018   2.86493
  Beta virt. eigenvalues --    2.87341   2.88774   2.89418   2.91274   2.92362
  Beta virt. eigenvalues --    2.93434   2.94337   2.95076   2.95256   2.95269
  Beta virt. eigenvalues --    2.95394   2.95580   2.95622   2.95797   3.00536
  Beta virt. eigenvalues --    3.01505   3.01632   3.01780   3.02046   3.29513
  Beta virt. eigenvalues --    3.29978   3.30063   3.30364   3.30798   3.34213
  Beta virt. eigenvalues --    3.34575   3.35190   3.35958   3.38408   3.39159
  Beta virt. eigenvalues --    3.40384   3.41674   3.42621   3.45405
          Condensed to atoms (all electrons):
          Atomic-Atomic Spin Densities.
 Mulliken charges and spin densities:
               1          2
     1  C   -0.028629   0.000000
     2  C    0.077913   0.000000
     3  C    0.001230  -0.000000
     4  C    0.132708  -0.000000
     5  N   -0.221305   0.000000
     6  C    0.092574  -0.000000
     7  C   -0.146558   0.000000
     8  C    0.116137  -0.000000
     9  O   -0.245649   0.000000
    10  C    0.066859   0.000000
    11  C    0.007668   0.000000
    12  C   -0.148681   0.000000
    13  S    0.172435   0.000000
    14  C    0.016603  -0.000000
    15  C    0.058766   0.000000
    16  C    0.020008  -0.000000
    17  C    0.142172   0.000000
    18  N   -0.220459  -0.000000
    19  C    0.086086   0.000000
    20  C   -0.150443   0.000000
    21  C    0.111727  -0.000000
    22  O   -0.244664   0.000000
    23  C    0.067617  -0.000000
    24  C    0.008790  -0.000000
    25  C   -0.151484   0.000000
    26  S    0.179984   0.000000
    27  C    0.020565  -0.000000
    28  C    0.055276  -0.000000
    29  C    0.019912   0.000000
    30  C    0.144954   0.000000
    31  N   -0.219558   0.000000
    32  C    0.087299  -0.000000
    33  C   -0.151801  -0.000000
    34  C    0.110101  -0.000000
    35  O   -0.245430  -0.000000
    36  C    0.067715   0.000000
    37  C    0.009725   0.000000
    38  C   -0.152379  -0.000000
    39  S    0.184179  -0.000000
    40  C    0.019021   0.000000
    41  C    0.056067  -0.000000
    42  C    0.019482  -0.000000
    43  C    0.145207   0.000000
    44  N   -0.219438   0.000000
    45  C    0.088095   0.000000
    46  C   -0.152037  -0.000000
    47  C    0.110061  -0.000000
    48  O   -0.245475   0.000000
    49  C    0.067695   0.000000
    50  C    0.009841  -0.000000
    51  C   -0.151655  -0.000000
    52  S    0.184342   0.000000
    53  C    0.018263   0.000000
    54  C    0.055532   0.000000
    55  C    0.018796   0.000000
    56  C    0.156447  -0.000000
    57  N   -0.220553  -0.000000
    58  C    0.086670   0.000000
    59  C   -0.166379  -0.000000
    60  C    0.095311   0.000000
    61  O   -0.243358   0.000000
    62  C    0.064330  -0.000000
    63  C    0.038472   0.000000
    64  C   -0.122585   0.000000
    65  S    0.192676   0.000000
    66  H   -0.020579   0.000000
    67  H   -0.016157   0.000000
    68  H   -0.021228  -0.000000
    69  H   -0.004784  -0.000000
    70  H    0.048947  -0.000000
    71  H    0.048209  -0.000000
    72  H    0.047119  -0.000000
    73  H   -0.018996  -0.000000
    74  H   -0.014569   0.000000
    75  H   -0.023117  -0.000000
    76  H   -0.010739   0.000000
    77  H    0.044924   0.000000
    78  H    0.047732  -0.000000
    79  H    0.050305   0.000000
    80  H   -0.023112  -0.000000
    81  H   -0.031154  -0.000000
    82  H   -0.024769   0.000000
    83  H    0.004351   0.000000
    84  H    0.048042  -0.000000
    85  H    0.045117  -0.000000
    86  H    0.049034  -0.000000
    87  H   -0.023066  -0.000000
    88  H   -0.031191  -0.000000
    89  H   -0.024653   0.000000
    90  H    0.004671   0.000000
    91  H    0.047771  -0.000000
    92  H    0.045505  -0.000000
    93  H    0.048973   0.000000
    94  H   -0.023046  -0.000000
    95  H   -0.031007   0.000000
    96  H   -0.023815  -0.000000
    97  H    0.004406  -0.000000
    98  H    0.046684   0.000000
    99  H    0.049067   0.000000
   100  H    0.046223  -0.000000
   101  H   -0.014763   0.000000
   102  H    0.016874  -0.000000
 Sum of Mulliken charges =  -0.00000  -0.00000
 Mulliken charges and spin densities with hydrogens summed into heavy atoms:
               1          2
     1  C   -0.049207   0.000000
     2  C    0.061757   0.000000
     3  C   -0.019998  -0.000000
     4  C    0.132708  -0.000000
     5  N   -0.221305   0.000000
     6  C    0.087789  -0.000000
     7  C   -0.146558   0.000000
     8  C    0.116137  -0.000000
     9  O   -0.245649   0.000000
    10  C    0.211133  -0.000000
    11  C   -0.011328   0.000000
    12  C   -0.148681   0.000000
    13  S    0.172435   0.000000
    14  C    0.016603  -0.000000
    15  C    0.044197   0.000000
    16  C   -0.003109  -0.000000
    17  C    0.142172   0.000000
    18  N   -0.220459  -0.000000
    19  C    0.075347   0.000000
    20  C   -0.150443   0.000000
    21  C    0.111727  -0.000000
    22  O   -0.244664   0.000000
    23  C    0.210579  -0.000000
    24  C   -0.014322  -0.000000
    25  C   -0.151484   0.000000
    26  S    0.179984   0.000000
    27  C    0.020565  -0.000000
    28  C    0.024121  -0.000000
    29  C   -0.004857   0.000000
    30  C    0.144954   0.000000
    31  N   -0.219558   0.000000
    32  C    0.091650  -0.000000
    33  C   -0.151801  -0.000000
    34  C    0.110101  -0.000000
    35  O   -0.245430  -0.000000
    36  C    0.209908   0.000000
    37  C   -0.013341   0.000000
    38  C   -0.152379  -0.000000
    39  S    0.184179  -0.000000
    40  C    0.019021   0.000000
    41  C    0.024876  -0.000000
    42  C   -0.005171  -0.000000
    43  C    0.145207   0.000000
    44  N   -0.219438   0.000000
    45  C    0.092766   0.000000
    46  C   -0.152037  -0.000000
    47  C    0.110061  -0.000000
    48  O   -0.245475   0.000000
    49  C    0.209945  -0.000000
    50  C   -0.013205  -0.000000
    51  C   -0.151655  -0.000000
    52  S    0.184342   0.000000
    53  C    0.018263   0.000000
    54  C    0.024525   0.000000
    55  C   -0.005018   0.000000
    56  C    0.156447  -0.000000
    57  N   -0.220553  -0.000000
    58  C    0.091077  -0.000000
    59  C   -0.166379  -0.000000
    60  C    0.095311   0.000000
    61  O   -0.243358   0.000000
    62  C    0.206304  -0.000000
    63  C    0.023709   0.000000
    64  C   -0.105711  -0.000000
    65  S    0.192676   0.000000
 Electronic spatial extent (au):  <R**2>=         196746.3008
 Charge=              0.0000 electrons
 Dipole moment (field-independent basis, Debye):
    X=              6.7571    Y=             -4.4436    Z=             -0.1324  Tot=              8.0883
 Quadrupole moment (field-independent basis, Debye-Ang):
   XX=           -260.8087   YY=           -284.9518   ZZ=           -412.7757
   XY=              1.8378   XZ=            -33.7696   YZ=              3.7203
 Traceless Quadrupole moment (field-independent basis, Debye-Ang):
   XX=             58.7034   YY=             34.5603   ZZ=            -93.2637
   XY=              1.8378   XZ=            -33.7696   YZ=              3.7203
 Octapole moment (field-independent basis, Debye-Ang**2):
  XXX=           2455.8195  YYY=           -186.0958  ZZZ=              2.8403  XYY=             63.9556
  XXY=            421.7483  XXZ=           -373.9129  XZZ=             23.4595  YZZ=             14.5244
  YYZ=             79.9087  XYZ=           -158.4421
 Hexadecapole moment (field-independent basis, Debye-Ang**3):
 XXXX=        -178214.6504 YYYY=         -35505.5340 ZZZZ=          -1372.5169 XXXY=           6181.4449
 XXXZ=          -5598.0444 YYYX=            938.3805 YYYZ=            115.5597 ZZZX=           -230.6520
 ZZZY=             35.8393 XXYY=         -31650.9049 XXZZ=         -38202.2575 YYZZ=          -7499.8680
 XXYZ=           -204.5703 YYXZ=           -696.8553 ZZXY=             29.9016
 N-N= 8.493010884224D+03 E-N=-2.771247756965D+04  KE= 4.543885352787D+03
 Leave Link  601 at Sat Jul 25 13:02:47 2020, MaxMem=  4026531840 cpu:              22.2 elap:               3.5
 (Enter /opt/ohpc/pub/libs/gaussian/g16-A.03/sandybridge/g16/l9999.exe)

 Test job not archived.
 1\1\GINC-SKYLAKE049\FOpt\ULC-wPBE\CC-pVDZ\C50H37N5O5S5\RDU230\25-Jul-2
 020\0\\#P uLC-wPBE/cc-pVDZ iop(3/107=0093200000, 3/108=0093200000) opt
 \\H37 C50 S5 N5 O5\\0,1\C,-16.3698169476,5.5009717154,-1.3305916639\C,
 -15.4703281355,6.3638496693,-0.6874418843\C,-14.2105611199,5.888348216
 1,-0.3129871612\C,-13.8819202893,4.5401043652,-0.5972436599\N,-14.7519
 314067,3.6997934894,-1.2204582624\C,-15.9528955584,4.1823996517,-1.569
 3298113\C,-12.5972822388,3.9410629597,-0.2529693059\C,-11.4626267633,4
 .4624946366,0.3830155655\O,-11.4432574268,5.7606596627,0.8114031202\C,
 -10.2444182021,6.2070805775,1.4449296433\C,-10.4047439806,3.516814878,
 0.5232984167\C,-10.7223970143,2.2689211925,-0.0040543063\S,-12.3350371
 27,2.2625829047,-0.6854784485\C,-9.8849188658,1.0697314535,-0.03748894
 96\C,-10.414195753,-0.2308982918,-0.2010302249\C,-9.5681511537,-1.3373
 318492,-0.221859541\C,-8.1743659412,-1.1383084748,-0.0661386798\N,-7.6
 468703661,0.1078291021,0.0851200608\C,-8.4759300982,1.1533737246,0.090
 5279632\C,-7.2025016682,-2.2214803543,-0.0535714908\C,-7.3513949425,-3
 .6098818057,-0.1816053702\O,-8.5899700759,-4.1583553786,-0.3646222337\
 C,-8.6484992317,-5.5786256226,-0.491432215\C,-6.1190823692,-4.32175414
 53,-0.1083312121\C,-5.0210259436,-3.4860884785,0.0738038328\S,-5.51263
 82736,-1.8081920148,0.166750012\C,-3.6147615978,-3.8722988218,0.187418
 2307\C,-3.2221254631,-5.1874855797,0.5281253065\C,-1.871781707,-5.5173
 771768,0.6156400109\C,-0.902127306,-4.5135684428,0.3708817035\N,-1.262
 6776833,-3.2421668862,0.0443049135\C,-2.5620460073,-2.952757146,-0.045
 0762678\C,0.5325038161,-4.7449712067,0.4456412225\C,1.2780388416,-5.89
 42938435,0.7451335332\O,0.6469170664,-7.0697412163,1.0444214859\C,1.48
 38544548,-8.1859303927,1.3447837451\C,2.6866937192,-5.682940044,0.7062
 521245\C,3.028321351,-4.3736951768,0.3798457638\S,1.6015609715,-3.3969
 948993,0.1061268814\C,4.3712275484,-3.8070869742,0.2552285609\C,5.5095
 54641,-4.616031559,0.032575257\C,6.7730011356,-4.0385346809,-0.0681790
 11\C,6.8959578813,-2.6313967565,0.0448337281\N,5.810419786,-1.83805950
 18,0.2578023901\C,4.6115666901,-2.4146718237,0.3604215175\C,8.16301955
 02,-1.9234699625,-0.0584292374\C,9.4717998265,-2.3790117216,-0.2726280
 829\O,9.7246682395,-3.715128071,-0.4155127259\C,11.0852175961,-4.08863
 56827,-0.6300868428\C,10.4379970833,-1.3321584048,-0.3098182444\C,9.87
 7480926,-0.0721490477,-0.1222308005\S,8.1429665451,-0.1761083215,0.088
 8671704\C,10.5692109378,1.2169466945,-0.0953708207\C,11.8418618141,1.3
 983116833,-0.6838250576\C,12.4718856951,2.6395151358,-0.6261583529\C,1
 1.8130755846,3.7149008124,0.0188226506\N,10.5874958522,3.5579620379,0.
 5887971411\C,10.0079880623,2.357211198,0.5304968569\C,12.3750000454,5.
 0550010136,0.1244630163\C,13.5852094755,5.5954617996,-0.3301404738\O,1
 4.48348853,4.817511556,-1.0075805955\C,15.684496819,5.4569247204,-1.43
 78535672\C,13.7424926972,6.981977034,-0.0096626781\C,12.6544085372,7.4
 757692715,0.6821108429\S,11.4328768692,6.2819836516,0.953910046\H,-17.
 3689734652,5.8369565441,-1.6404432819\H,-15.7483160425,7.4071943973,-0
 .4770677446\H,-13.4804587986,6.5322411238,0.1908453785\H,-16.626166818
 6,3.4675564279,-2.0724697347\H,-10.414543972,7.267166557,1.704601992\H
 ,-10.034501179,5.6317203266,2.3727229217\H,-9.370151618,6.1320887627,0
 .7624041604\H,-9.4521991851,3.7267525364,1.0219118224\H,-11.5012739085
 ,-0.3730519497,-0.2969206798\H,-9.9646285535,-2.3517434708,-0.34390180
 18\H,-7.9928786342,2.1403721508,0.1864739683\H,-8.2623493081,-6.085634
 3465,0.4195897005\H,-8.0775848032,-5.9328731245,-1.3771966405\H,-9.716
 4267028,-5.828444445,-0.6226928489\H,-6.0276412871,-5.4080529862,-0.21
 76728043\H,-3.9828337237,-5.9512114847,0.7456052519\H,-1.5517502034,-6
 .5310251222,0.8829006525\H,-2.8000368951,-1.9142052638,-0.3346272942\H
 ,2.1120000013,-7.9951179201,2.2420203895\H,2.1413048644,-8.4453796734,
 0.486540346\H,0.8024329434,-9.0307139881,1.550269568\H,3.4324989885,-6
 .4502883298,0.9415200247\H,5.3983187188,-5.7039700564,-0.0831400186\H,
 7.6642976998,-4.651153491,-0.2460547253\H,3.7678463648,-1.72954113,0.5
 546941465\H,11.7285188376,-3.7977002654,0.2287265239\H,11.4906425427,-
 3.6353423936,-1.5607857894\H,11.0867013737,-5.1887493938,-0.7299051573
 \H,11.5149027476,-1.4904070357,-0.4348953178\H,12.3303797956,0.5643629
 824,-1.2085370108\H,13.4561020367,2.7978935587,-1.0818681362\H,9.02510
 23329,2.277286431,1.027108099\H,15.4732999436,6.2917769946,-2.14106008
 44\H,16.2721052242,4.6808858984,-1.9601931631\H,16.272204566,5.8438762
 151,-0.577017494\H,14.6147911364,7.5897617375,-0.2746314127\H,12.51074
 90489,8.4975241754,1.0497916599\\Version=EM64L-G16RevA.03\State=1-A\HF
 =-4565.2301713\S2=0.\S2-1=0.\S2A=0.\RMSD=5.342e-09\RMSF=1.854e-06\Dipo
 le=2.6409836,-1.7750814,0.0248072\Quadrupole=44.0313137,25.7649411,-69
 .7962549,0.3764314,-24.2727975,-0.0685947\PG=C01 [X(C50H37N5O5S5)]\\@


 SUPPORT THE RIGHT TO ARM BEARS!
 (ADD A CLAWS TO THE BILL OF RIGHTS)
 Job cpu time:       2 days 19 hours 56 minutes 38.8 seconds.
 Elapsed time:       0 days  8 hours 37 minutes 37.0 seconds.
 File lengths (MBytes):  RWF=   1412 Int=      0 D2E=      0 Chk=    128 Scr=      8
 Normal termination of Gaussian 16 at Sat Jul 25 13:02:48 2020.
