 Entering Gaussian System, Link 0=g16
 Input=mols_65_5_22_n-cF-CF_opt_0.gjf
 Output=mols_65_5_22_n-cF-CF_opt_0.log
 Initial command:
 /opt/ohpc/pub/libs/gaussian/g16-A.03/sandybridge/g16/l1.exe "/mnt/gpfs2_4m/scratch/rdu230/ondemand/projects/dihedral_energies/7trial/wtuning/mols_65_5_22_n-cF-CF/Gau-41580.inp" -scrdir="/mnt/gpfs2_4m/scratch/rdu230/ondemand/projects/dihedral_energies/7trial/wtuning/mols_65_5_22_n-cF-CF/"
 Entering Link 1 = /opt/ohpc/pub/libs/gaussian/g16-A.03/sandybridge/g16/l1.exe PID=     41581.
  
 Copyright (c) 1988,1990,1992,1993,1995,1998,2003,2009,2016,
            Gaussian, Inc.  All Rights Reserved.
  
 This is part of the Gaussian(R) 16 program.  It is based on
 the Gaussian(R) 09 system (copyright 2009, Gaussian, Inc.),
 the Gaussian(R) 03 system (copyright 2003, Gaussian, Inc.),
 the Gaussian(R) 98 system (copyright 1998, Gaussian, Inc.),
 the Gaussian(R) 94 system (copyright 1995, Gaussian, Inc.),
 the Gaussian 92(TM) system (copyright 1992, Gaussian, Inc.),
 the Gaussian 90(TM) system (copyright 1990, Gaussian, Inc.),
 the Gaussian 88(TM) system (copyright 1988, Gaussian, Inc.),
 the Gaussian 86(TM) system (copyright 1986, Carnegie Mellon
 University), and the Gaussian 82(TM) system (copyright 1983,
 Carnegie Mellon University). Gaussian is a federally registered
 trademark of Gaussian, Inc.
  
 This software contains proprietary and confidential information,
 including trade secrets, belonging to Gaussian, Inc.
  
 This software is provided under written license and may be
 used, copied, transmitted, or stored only in accord with that
 written license.
  
 The following legend is applicable only to US Government
 contracts under FAR:
  
                    RESTRICTED RIGHTS LEGEND
  
 Use, reproduction and disclosure by the US Government is
 subject to restrictions as set forth in subparagraphs (a)
 and (c) of the Commercial Computer Software - Restricted
 Rights clause in FAR 52.227-19.
  
 Gaussian, Inc.
 340 Quinnipiac St., Bldg. 40, Wallingford CT 06492
  
  
 ---------------------------------------------------------------
 Warning -- This program may not be used in any manner that
 competes with the business of Gaussian, Inc. or will provide
 assistance to any competitor of Gaussian, Inc.  The licensee
 of this program is prohibited from giving any competitor of
 Gaussian, Inc. access to this program.  By using this program,
 the user acknowledges that Gaussian, Inc. is engaged in the
 business of creating and licensing software in the field of
 computational chemistry and represents and warrants to the
 licensee that it is not a competitor of Gaussian, Inc. and that
 it will not use this program in any manner prohibited above.
 ---------------------------------------------------------------
  

 Cite this work as:
 Gaussian 16, Revision A.03,
 M. J. Frisch, G. W. Trucks, H. B. Schlegel, G. E. Scuseria, 
 M. A. Robb, J. R. Cheeseman, G. Scalmani, V. Barone, 
 G. A. Petersson, H. Nakatsuji, X. Li, M. Caricato, A. V. Marenich, 
 J. Bloino, B. G. Janesko, R. Gomperts, B. Mennucci, H. P. Hratchian, 
 J. V. Ortiz, A. F. Izmaylov, J. L. Sonnenberg, D. Williams-Young, 
 F. Ding, F. Lipparini, F. Egidi, J. Goings, B. Peng, A. Petrone, 
 T. Henderson, D. Ranasinghe, V. G. Zakrzewski, J. Gao, N. Rega, 
 G. Zheng, W. Liang, M. Hada, M. Ehara, K. Toyota, R. Fukuda, 
 J. Hasegawa, M. Ishida, T. Nakajima, Y. Honda, O. Kitao, H. Nakai, 
 T. Vreven, K. Throssell, J. A. Montgomery, Jr., J. E. Peralta, 
 F. Ogliaro, M. J. Bearpark, J. J. Heyd, E. N. Brothers, K. N. Kudin, 
 V. N. Staroverov, T. A. Keith, R. Kobayashi, J. Normand, 
 K. Raghavachari, A. P. Rendell, J. C. Burant, S. S. Iyengar, 
 J. Tomasi, M. Cossi, J. M. Millam, M. Klene, C. Adamo, R. Cammi, 
 J. W. Ochterski, R. L. Martin, K. Morokuma, O. Farkas, 
 J. B. Foresman, and D. J. Fox, Gaussian, Inc., Wallingford CT, 2016.
 
 ******************************************
 Gaussian 16:  EM64L-G16RevA.03 25-Dec-2016
                24-Jul-2020 
 ******************************************
 %mem=30GB
 %nproc=8
 Will use up to    8 processors via shared memory.
 ---------------------------------------------------------------
 #P uLC-wPBE/cc-pVDZ iop(3/107=0369100000, 3/108=0369100000) opt
 ---------------------------------------------------------------
 1/18=20,19=15,26=3,38=1/1,3;
 2/9=110,12=2,17=6,18=5,40=1/2;
 3/5=16,11=2,25=1,30=1,71=1,74=-41,107=369100000,108=369100000,116=2/1,2,3;
 4//1;
 5/5=2,38=5/2;
 6/7=2,8=2,9=2,10=2,28=1/1;
 7//1,2,3,16;
 1/18=20,19=15,26=3/3(2);
 2/9=110/2;
 99//99;
 2/9=110/2;
 3/5=16,11=2,25=1,30=1,71=1,74=-41,107=369100000,108=369100000,116=2/1,2,3;
 4/5=5,16=3,69=1/1;
 5/5=2,38=5/2;
 7//1,2,3,16;
 1/18=20,19=15,26=3/3(-5);
 2/9=110/2;
 6/7=2,8=2,9=2,10=2,19=2,28=1/1;
 99/9=1/99;
 Leave Link    1 at Fri Jul 24 04:10:36 2020, MaxMem=  4026531840 cpu:               2.1 elap:               0.3
 (Enter /opt/ohpc/pub/libs/gaussian/g16-A.03/sandybridge/g16/l101.exe)
 -----------------
 H17 C45 S5 N5 F10
 -----------------
 Symbolic Z-matrix:
 Charge =  0 Multiplicity = 1
 C                     19.19126   0.75829  -0.1066 
 C                     18.38386  -0.22474   0.34807 
 N                     17.05459  -0.0134    0.49549 
 C                     16.49811   1.09584   0.02001 
 C                     17.32525   2.18289  -0.49687 
 F                     16.81486   3.33092  -0.99916 
 C                     18.64403   1.94892  -0.64603 
 C                     15.02293   1.33659   0.16168 
 C                     14.33181   2.43924   0.47707 
 F                     14.80147   3.60187   0.79547 
 C                     12.86967   2.20706   0.49419 
 C                     12.62617   0.86884   0.20887 
 S                     14.02408  -0.03839  -0.19107 
 C                     11.28656   0.30019   0.04959 
 C                     10.21168   0.99731  -0.4633 
 N                     8.96499   0.46935  -0.58866 
 C                     8.67143  -0.7898   -0.11115 
 C                     9.70626  -1.55592   0.47955 
 F                     9.48482  -2.72911   0.93572 
 C                     10.95722  -0.97152   0.55557 
 C                     7.30813  -1.23051  -0.25785 
 C                     6.90831  -2.48109  -0.65801 
 F                     7.67048  -3.56448  -0.89934 
 C                     5.4426   -2.585    -0.70778 
 C                     4.78638  -1.4261   -0.32579 
 S                     5.98793  -0.18807   0.02668 
 C                     3.3642   -1.13152  -0.26185 
 C                     2.82951   0.11033  -0.61556 
 N                     1.50246   0.42382  -0.51988 
 C                     0.69038  -0.61043   0.04762 
 C                     1.20178  -1.76807   0.48895 
 F                     0.41265  -2.68809   1.00716 
 C                     2.51457  -2.11571   0.36559 
 C                    -0.72116  -0.18398   0.16813 
 C                    -1.22514   1.0845    0.51388 
 F                    -0.45195   2.15618   0.87565 
 C                    -2.60225   1.21142   0.56261 
 C                    -3.23248  -0.00862   0.19707 
 S                    -1.99814  -1.16731  -0.15333 
 C                    -4.63042  -0.34201   0.08012 
 C                    -5.52704   0.57304  -0.40865 
 N                    -6.90553   0.34339  -0.54583 
 C                    -7.34648  -0.81697  -0.00738 
 C                    -6.50253  -1.77292   0.57316 
 F                    -6.96981  -2.98858   1.0323 
 C                    -5.16297  -1.51771   0.63572 
 C                    -8.74412  -1.07156  -0.16332 
 C                    -9.51649  -2.20623  -0.40795 
 F                    -8.92803  -3.32639  -0.70131 
 C                    -10.88966  -1.96343  -0.4553 
 C                    -11.23633  -0.73188  -0.23272 
 S                    -9.84244   0.31486   0.0768 
 C                    -12.60512  -0.14423  -0.16592 
 C                    -13.72891  -0.79925   0.30735 
 N                    -14.94933  -0.31033   0.41074 
 C                    -15.23948   0.89191  -0.04421 
 C                    -14.15079   1.70307  -0.51204 
 F                    -14.44377   2.97458  -1.03308 
 C                    -12.82842   1.21063  -0.62513 
 C                    -16.60155   1.34799   0.04204 
 C                    -17.07417   2.57628   0.41847 
 F                    -16.23541   3.60925   0.77193 
 C                    -18.46075   2.67691   0.42344 
 C                    -19.06098   1.52179  -0.01863 
 S                    -17.86107   0.37384  -0.3161 
 H                     20.27745   0.50327  -0.1977 
 H                     18.74908  -1.19618   0.75213 
 H                     19.27985   2.67562  -1.02281 
 H                     12.20761   2.91087   0.79758 
 H                     10.33548   1.99872  -0.85675 
 H                     11.72584  -1.60154   1.07026 
 H                     4.95753  -3.49655  -0.94276 
 H                     3.42559   0.84012  -1.13475 
 H                     2.91534  -3.07605   0.71396 
 H                    -3.10735   2.03778   0.88632 
 H                    -5.21967   1.52661  -0.84131 
 H                    -4.54461  -2.30869   1.06414 
 H                    -11.63018  -2.75517  -0.72767 
 H                    -13.55221  -1.843     0.75551 
 H                    -12.09425   1.84473  -1.00248 
 H                    -18.97517   3.62382   0.7199 
 H                    -20.0755   1.36474  -0.12213 
 
 ITRead=  0  0  0  0  0  0  0  0  0  0  0  0  0  0  0  0  0  0  0  0
 ITRead=  0  0  0  0  0  0  0  0  0  0  0  0  0  0  0  0  0  0  0  0
 ITRead=  0  0  0  0  0  0  0  0  0  0  0  0  0  0  0  0  0  0  0  0
 ITRead=  0  0  0  0  0  0  0  0  0  0  0  0  0  0  0  0  0  0  0  0
 ITRead=  0  0
 MicOpt= -1 -1 -1 -1 -1 -1 -1 -1 -1 -1 -1 -1 -1 -1 -1 -1 -1 -1 -1 -1
 MicOpt= -1 -1 -1 -1 -1 -1 -1 -1 -1 -1 -1 -1 -1 -1 -1 -1 -1 -1 -1 -1
 MicOpt= -1 -1 -1 -1 -1 -1 -1 -1 -1 -1 -1 -1 -1 -1 -1 -1 -1 -1 -1 -1
 MicOpt= -1 -1 -1 -1 -1 -1 -1 -1 -1 -1 -1 -1 -1 -1 -1 -1 -1 -1 -1 -1
 MicOpt= -1 -1
 NAtoms=     82 NQM=       82 NQMF=       0 NMMI=      0 NMMIF=      0
                NMic=       0 NMicF=      0.
                    Isotopes and Nuclear Properties:
 (Nuclear quadrupole moments (NQMom) in fm**2, nuclear magnetic moments (NMagM)
  in nuclear magnetons)

  Atom         1           2           3           4           5           6           7           8           9          10
 IAtWgt=          12          12          14          12          12          19          12          12          12          19
 AtmWgt=  12.0000000  12.0000000  14.0030740  12.0000000  12.0000000  18.9984033  12.0000000  12.0000000  12.0000000  18.9984033
 NucSpn=           0           0           2           0           0           1           0           0           0           1
 AtZEff=  -0.0000000  -0.0000000  -0.0000000  -0.0000000  -0.0000000  -0.0000000  -0.0000000  -0.0000000  -0.0000000  -0.0000000
 NQMom=    0.0000000   0.0000000   2.0440000   0.0000000   0.0000000   0.0000000   0.0000000   0.0000000   0.0000000   0.0000000
 NMagM=    0.0000000   0.0000000   0.4037610   0.0000000   0.0000000   2.6288670   0.0000000   0.0000000   0.0000000   2.6288670
 AtZNuc=   6.0000000   6.0000000   7.0000000   6.0000000   6.0000000   9.0000000   6.0000000   6.0000000   6.0000000   9.0000000

  Atom        11          12          13          14          15          16          17          18          19          20
 IAtWgt=          12          12          32          12          12          14          12          12          19          12
 AtmWgt=  12.0000000  12.0000000  31.9720718  12.0000000  12.0000000  14.0030740  12.0000000  12.0000000  18.9984033  12.0000000
 NucSpn=           0           0           0           0           0           2           0           0           1           0
 AtZEff=  -0.0000000  -0.0000000  -0.0000000  -0.0000000  -0.0000000  -0.0000000  -0.0000000  -0.0000000  -0.0000000  -0.0000000
 NQMom=    0.0000000   0.0000000   0.0000000   0.0000000   0.0000000   2.0440000   0.0000000   0.0000000   0.0000000   0.0000000
 NMagM=    0.0000000   0.0000000   0.0000000   0.0000000   0.0000000   0.4037610   0.0000000   0.0000000   2.6288670   0.0000000
 AtZNuc=   6.0000000   6.0000000  16.0000000   6.0000000   6.0000000   7.0000000   6.0000000   6.0000000   9.0000000   6.0000000

  Atom        21          22          23          24          25          26          27          28          29          30
 IAtWgt=          12          12          19          12          12          32          12          12          14          12
 AtmWgt=  12.0000000  12.0000000  18.9984033  12.0000000  12.0000000  31.9720718  12.0000000  12.0000000  14.0030740  12.0000000
 NucSpn=           0           0           1           0           0           0           0           0           2           0
 AtZEff=  -0.0000000  -0.0000000  -0.0000000  -0.0000000  -0.0000000  -0.0000000  -0.0000000  -0.0000000  -0.0000000  -0.0000000
 NQMom=    0.0000000   0.0000000   0.0000000   0.0000000   0.0000000   0.0000000   0.0000000   0.0000000   2.0440000   0.0000000
 NMagM=    0.0000000   0.0000000   2.6288670   0.0000000   0.0000000   0.0000000   0.0000000   0.0000000   0.4037610   0.0000000
 AtZNuc=   6.0000000   6.0000000   9.0000000   6.0000000   6.0000000  16.0000000   6.0000000   6.0000000   7.0000000   6.0000000

  Atom        31          32          33          34          35          36          37          38          39          40
 IAtWgt=          12          19          12          12          12          19          12          12          32          12
 AtmWgt=  12.0000000  18.9984033  12.0000000  12.0000000  12.0000000  18.9984033  12.0000000  12.0000000  31.9720718  12.0000000
 NucSpn=           0           1           0           0           0           1           0           0           0           0
 AtZEff=  -0.0000000  -0.0000000  -0.0000000  -0.0000000  -0.0000000  -0.0000000  -0.0000000  -0.0000000  -0.0000000  -0.0000000
 NQMom=    0.0000000   0.0000000   0.0000000   0.0000000   0.0000000   0.0000000   0.0000000   0.0000000   0.0000000   0.0000000
 NMagM=    0.0000000   2.6288670   0.0000000   0.0000000   0.0000000   2.6288670   0.0000000   0.0000000   0.0000000   0.0000000
 AtZNuc=   6.0000000   9.0000000   6.0000000   6.0000000   6.0000000   9.0000000   6.0000000   6.0000000  16.0000000   6.0000000

  Atom        41          42          43          44          45          46          47          48          49          50
 IAtWgt=          12          14          12          12          19          12          12          12          19          12
 AtmWgt=  12.0000000  14.0030740  12.0000000  12.0000000  18.9984033  12.0000000  12.0000000  12.0000000  18.9984033  12.0000000
 NucSpn=           0           2           0           0           1           0           0           0           1           0
 AtZEff=  -0.0000000  -0.0000000  -0.0000000  -0.0000000  -0.0000000  -0.0000000  -0.0000000  -0.0000000  -0.0000000  -0.0000000
 NQMom=    0.0000000   2.0440000   0.0000000   0.0000000   0.0000000   0.0000000   0.0000000   0.0000000   0.0000000   0.0000000
 NMagM=    0.0000000   0.4037610   0.0000000   0.0000000   2.6288670   0.0000000   0.0000000   0.0000000   2.6288670   0.0000000
 AtZNuc=   6.0000000   7.0000000   6.0000000   6.0000000   9.0000000   6.0000000   6.0000000   6.0000000   9.0000000   6.0000000

  Atom        51          52          53          54          55          56          57          58          59          60
 IAtWgt=          12          32          12          12          14          12          12          19          12          12
 AtmWgt=  12.0000000  31.9720718  12.0000000  12.0000000  14.0030740  12.0000000  12.0000000  18.9984033  12.0000000  12.0000000
 NucSpn=           0           0           0           0           2           0           0           1           0           0
 AtZEff=  -0.0000000  -0.0000000  -0.0000000  -0.0000000  -0.0000000  -0.0000000  -0.0000000  -0.0000000  -0.0000000  -0.0000000
 NQMom=    0.0000000   0.0000000   0.0000000   0.0000000   2.0440000   0.0000000   0.0000000   0.0000000   0.0000000   0.0000000
 NMagM=    0.0000000   0.0000000   0.0000000   0.0000000   0.4037610   0.0000000   0.0000000   2.6288670   0.0000000   0.0000000
 AtZNuc=   6.0000000  16.0000000   6.0000000   6.0000000   7.0000000   6.0000000   6.0000000   9.0000000   6.0000000   6.0000000

  Atom        61          62          63          64          65          66          67          68          69          70
 IAtWgt=          12          19          12          12          32           1           1           1           1           1
 AtmWgt=  12.0000000  18.9984033  12.0000000  12.0000000  31.9720718   1.0078250   1.0078250   1.0078250   1.0078250   1.0078250
 NucSpn=           0           1           0           0           0           1           1           1           1           1
 AtZEff=  -0.0000000  -0.0000000  -0.0000000  -0.0000000  -0.0000000  -0.0000000  -0.0000000  -0.0000000  -0.0000000  -0.0000000
 NQMom=    0.0000000   0.0000000   0.0000000   0.0000000   0.0000000   0.0000000   0.0000000   0.0000000   0.0000000   0.0000000
 NMagM=    0.0000000   2.6288670   0.0000000   0.0000000   0.0000000   2.7928460   2.7928460   2.7928460   2.7928460   2.7928460
 AtZNuc=   6.0000000   9.0000000   6.0000000   6.0000000  16.0000000   1.0000000   1.0000000   1.0000000   1.0000000   1.0000000

  Atom        71          72          73          74          75          76          77          78          79          80
 IAtWgt=           1           1           1           1           1           1           1           1           1           1
 AtmWgt=   1.0078250   1.0078250   1.0078250   1.0078250   1.0078250   1.0078250   1.0078250   1.0078250   1.0078250   1.0078250
 NucSpn=           1           1           1           1           1           1           1           1           1           1
 AtZEff=  -0.0000000  -0.0000000  -0.0000000  -0.0000000  -0.0000000  -0.0000000  -0.0000000  -0.0000000  -0.0000000  -0.0000000
 NQMom=    0.0000000   0.0000000   0.0000000   0.0000000   0.0000000   0.0000000   0.0000000   0.0000000   0.0000000   0.0000000
 NMagM=    2.7928460   2.7928460   2.7928460   2.7928460   2.7928460   2.7928460   2.7928460   2.7928460   2.7928460   2.7928460
 AtZNuc=   1.0000000   1.0000000   1.0000000   1.0000000   1.0000000   1.0000000   1.0000000   1.0000000   1.0000000   1.0000000

  Atom        81          82
 IAtWgt=           1           1
 AtmWgt=   1.0078250   1.0078250
 NucSpn=           1           1
 AtZEff=  -0.0000000  -0.0000000
 NQMom=    0.0000000   0.0000000
 NMagM=    2.7928460   2.7928460
 AtZNuc=   1.0000000   1.0000000
 Leave Link  101 at Fri Jul 24 04:10:37 2020, MaxMem=  4026531840 cpu:               3.8 elap:               0.5
 (Enter /opt/ohpc/pub/libs/gaussian/g16-A.03/sandybridge/g16/l103.exe)

 GradGradGradGradGradGradGradGradGradGradGradGradGradGradGradGradGradGrad
 Berny optimization.
 Initialization pass.
                           ----------------------------
                           !    Initial Parameters    !
                           ! (Angstroms and Degrees)  !
 --------------------------                            --------------------------
 ! Name  Definition              Value          Derivative Info.                !
 --------------------------------------------------------------------------------
 ! R1    R(1,2)                  1.3509         estimate D2E/DX2                !
 ! R2    R(1,7)                  1.4171         estimate D2E/DX2                !
 ! R3    R(1,66)                 1.1194         estimate D2E/DX2                !
 ! R4    R(2,3)                  1.354          estimate D2E/DX2                !
 ! R5    R(2,67)                 1.1137         estimate D2E/DX2                !
 ! R6    R(3,4)                  1.329          estimate D2E/DX2                !
 ! R7    R(4,5)                  1.4605         estimate D2E/DX2                !
 ! R8    R(4,8)                  1.5014         estimate D2E/DX2                !
 ! R9    R(5,6)                  1.3531         estimate D2E/DX2                !
 ! R10   R(5,7)                  1.3477         estimate D2E/DX2                !
 ! R11   R(7,68)                 1.0365         estimate D2E/DX2                !
 ! R12   R(8,9)                  1.339          estimate D2E/DX2                !
 ! R13   R(8,13)                 1.7357         estimate D2E/DX2                !
 ! R14   R(9,10)                 1.2937         estimate D2E/DX2                !
 ! R15   R(9,11)                 1.4806         estimate D2E/DX2                !
 ! R16   R(11,12)                1.3898         estimate D2E/DX2                !
 ! R17   R(11,69)                1.0128         estimate D2E/DX2                !
 ! R18   R(12,13)                1.7138         estimate D2E/DX2                !
 ! R19   R(12,14)                1.464          estimate D2E/DX2                !
 ! R20   R(14,15)                1.38           estimate D2E/DX2                !
 ! R21   R(14,20)                1.4077         estimate D2E/DX2                !
 ! R22   R(15,16)                1.3597         estimate D2E/DX2                !
 ! R23   R(15,70)                1.083          estimate D2E/DX2                !
 ! R24   R(16,17)                1.3783         estimate D2E/DX2                !
 ! R25   R(17,18)                1.4166         estimate D2E/DX2                !
 ! R26   R(17,21)                1.4403         estimate D2E/DX2                !
 ! R27   R(18,19)                1.2781         estimate D2E/DX2                !
 ! R28   R(18,20)                1.3828         estimate D2E/DX2                !
 ! R29   R(20,71)                1.1192         estimate D2E/DX2                !
 ! R30   R(21,22)                1.3726         estimate D2E/DX2                !
 ! R31   R(21,26)                1.706          estimate D2E/DX2                !
 ! R32   R(22,23)                1.3464         estimate D2E/DX2                !
 ! R33   R(22,24)                1.4702         estimate D2E/DX2                !
 ! R34   R(24,25)                1.3855         estimate D2E/DX2                !
 ! R35   R(24,72)                1.059          estimate D2E/DX2                !
 ! R36   R(25,26)                1.7609         estimate D2E/DX2                !
 ! R37   R(25,27)                1.4538         estimate D2E/DX2                !
 ! R38   R(27,28)                1.3976         estimate D2E/DX2                !
 ! R39   R(27,33)                1.4437         estimate D2E/DX2                !
 ! R40   R(28,29)                1.3669         estimate D2E/DX2                !
 ! R41   R(28,73)                1.0759         estimate D2E/DX2                !
 ! R42   R(29,30)                1.4322         estimate D2E/DX2                !
 ! R43   R(30,31)                1.3403         estimate D2E/DX2                !
 ! R44   R(30,34)                1.4795         estimate D2E/DX2                !
 ! R45   R(31,32)                1.3182         estimate D2E/DX2                !
 ! R46   R(31,33)                1.3636         estimate D2E/DX2                !
 ! R47   R(33,74)                1.0974         estimate D2E/DX2                !
 ! R48   R(34,35)                1.408          estimate D2E/DX2                !
 ! R49   R(34,39)                1.6435         estimate D2E/DX2                !
 ! R50   R(35,36)                1.3701         estimate D2E/DX2                !
 ! R51   R(35,37)                1.3838         estimate D2E/DX2                !
 ! R52   R(37,38)                1.421          estimate D2E/DX2                !
 ! R53   R(37,75)                1.0212         estimate D2E/DX2                !
 ! R54   R(38,39)                1.7289         estimate D2E/DX2                !
 ! R55   R(38,40)                1.4419         estimate D2E/DX2                !
 ! R56   R(40,41)                1.3712         estimate D2E/DX2                !
 ! R57   R(40,46)                1.4052         estimate D2E/DX2                !
 ! R58   R(41,42)                1.4042         estimate D2E/DX2                !
 ! R59   R(41,76)                1.0913         estimate D2E/DX2                !
 ! R60   R(42,43)                1.3531         estimate D2E/DX2                !
 ! R61   R(43,44)                1.4011         estimate D2E/DX2                !
 ! R62   R(43,47)                1.4292         estimate D2E/DX2                !
 ! R63   R(44,45)                1.3809         estimate D2E/DX2                !
 ! R64   R(44,46)                1.3651         estimate D2E/DX2                !
 ! R65   R(46,77)                1.0916         estimate D2E/DX2                !
 ! R66   R(47,48)                1.3942         estimate D2E/DX2                !
 ! R67   R(47,52)                1.785          estimate D2E/DX2                !
 ! R68   R(48,49)                1.2989         estimate D2E/DX2                !
 ! R69   R(48,50)                1.3953         estimate D2E/DX2                !
 ! R70   R(50,51)                1.2986         estimate D2E/DX2                !
 ! R71   R(50,78)                1.1178         estimate D2E/DX2                !
 ! R72   R(51,52)                1.7704         estimate D2E/DX2                !
 ! R73   R(51,53)                1.4911         estimate D2E/DX2                !
 ! R74   R(53,54)                1.3842         estimate D2E/DX2                !
 ! R75   R(53,59)                1.4479         estimate D2E/DX2                !
 ! R76   R(54,55)                1.3188         estimate D2E/DX2                !
 ! R77   R(54,79)                1.1496         estimate D2E/DX2                !
 ! R78   R(55,56)                1.3178         estimate D2E/DX2                !
 ! R79   R(56,57)                1.436          estimate D2E/DX2                !
 ! R80   R(56,60)                1.439          estimate D2E/DX2                !
 ! R81   R(57,58)                1.405          estimate D2E/DX2                !
 ! R82   R(57,59)                1.4156         estimate D2E/DX2                !
 ! R83   R(59,80)                1.0409         estimate D2E/DX2                !
 ! R84   R(60,61)                1.3689         estimate D2E/DX2                !
 ! R85   R(60,65)                1.6321         estimate D2E/DX2                !
 ! R86   R(61,62)                1.3768         estimate D2E/DX2                !
 ! R87   R(61,63)                1.3902         estimate D2E/DX2                !
 ! R88   R(63,64)                1.3748         estimate D2E/DX2                !
 ! R89   R(63,81)                1.1177         estimate D2E/DX2                !
 ! R90   R(64,65)                1.687          estimate D2E/DX2                !
 ! R91   R(64,82)                1.0318         estimate D2E/DX2                !
 ! A1    A(2,1,7)              120.5785         estimate D2E/DX2                !
 ! A2    A(2,1,66)             116.2018         estimate D2E/DX2                !
 ! A3    A(7,1,66)             122.3533         estimate D2E/DX2                !
 ! A4    A(1,2,3)              120.6514         estimate D2E/DX2                !
 ! A5    A(1,2,67)             124.1136         estimate D2E/DX2                !
 ! A6    A(3,2,67)             114.745          estimate D2E/DX2                !
 ! A7    A(2,3,4)              120.1589         estimate D2E/DX2                !
 ! A8    A(3,4,5)              120.7122         estimate D2E/DX2                !
 ! A9    A(3,4,8)              120.7636         estimate D2E/DX2                !
 ! A10   A(5,4,8)              118.0667         estimate D2E/DX2                !
 ! A11   A(4,5,6)              123.3176         estimate D2E/DX2                !
 ! A12   A(4,5,7)              117.6558         estimate D2E/DX2                !
 ! A13   A(6,5,7)              118.3819         estimate D2E/DX2                !
 ! A14   A(1,7,5)              118.7927         estimate D2E/DX2                !
 ! A15   A(1,7,68)             119.3782         estimate D2E/DX2                !
 ! A16   A(5,7,68)             121.2517         estimate D2E/DX2                !
 ! A17   A(4,8,9)              131.4066         estimate D2E/DX2                !
 ! A18   A(4,8,13)             114.7854         estimate D2E/DX2                !
 ! A19   A(9,8,13)             113.7772         estimate D2E/DX2                !
 ! A20   A(8,9,10)             127.6358         estimate D2E/DX2                !
 ! A21   A(8,9,11)             112.5383         estimate D2E/DX2                !
 ! A22   A(10,9,11)            119.776          estimate D2E/DX2                !
 ! A23   A(9,11,12)            108.7633         estimate D2E/DX2                !
 ! A24   A(9,11,69)            122.6873         estimate D2E/DX2                !
 ! A25   A(12,11,69)           128.0324         estimate D2E/DX2                !
 ! A26   A(11,12,13)           114.501          estimate D2E/DX2                !
 ! A27   A(11,12,14)           123.8257         estimate D2E/DX2                !
 ! A28   A(13,12,14)           121.0216         estimate D2E/DX2                !
 ! A29   A(8,13,12)             90.1505         estimate D2E/DX2                !
 ! A30   A(12,14,15)           123.8443         estimate D2E/DX2                !
 ! A31   A(12,14,20)           121.7261         estimate D2E/DX2                !
 ! A32   A(15,14,20)           114.061          estimate D2E/DX2                !
 ! A33   A(14,15,16)           123.5242         estimate D2E/DX2                !
 ! A34   A(14,15,70)           120.8687         estimate D2E/DX2                !
 ! A35   A(16,15,70)           115.4903         estimate D2E/DX2                !
 ! A36   A(15,16,17)           121.2043         estimate D2E/DX2                !
 ! A37   A(16,17,18)           118.8783         estimate D2E/DX2                !
 ! A38   A(16,17,21)           116.4786         estimate D2E/DX2                !
 ! A39   A(18,17,21)           124.643          estimate D2E/DX2                !
 ! A40   A(17,18,19)           121.2448         estimate D2E/DX2                !
 ! A41   A(17,18,20)           117.0786         estimate D2E/DX2                !
 ! A42   A(19,18,20)           121.6711         estimate D2E/DX2                !
 ! A43   A(14,20,18)           125.0057         estimate D2E/DX2                !
 ! A44   A(14,20,71)           120.8738         estimate D2E/DX2                !
 ! A45   A(18,20,71)           114.1204         estimate D2E/DX2                !
 ! A46   A(17,21,22)           125.748          estimate D2E/DX2                !
 ! A47   A(17,21,26)           121.9062         estimate D2E/DX2                !
 ! A48   A(22,21,26)           112.33           estimate D2E/DX2                !
 ! A49   A(21,22,23)           128.352          estimate D2E/DX2                !
 ! A50   A(21,22,24)           111.3864         estimate D2E/DX2                !
 ! A51   A(23,22,24)           120.0924         estimate D2E/DX2                !
 ! A52   A(22,24,25)           113.8118         estimate D2E/DX2                !
 ! A53   A(22,24,72)           121.6676         estimate D2E/DX2                !
 ! A54   A(25,24,72)           124.3489         estimate D2E/DX2                !
 ! A55   A(24,25,26)           108.6682         estimate D2E/DX2                !
 ! A56   A(24,25,27)           130.1627         estimate D2E/DX2                !
 ! A57   A(26,25,27)           121.0818         estimate D2E/DX2                !
 ! A58   A(21,26,25)            93.7297         estimate D2E/DX2                !
 ! A59   A(25,27,28)           122.9014         estimate D2E/DX2                !
 ! A60   A(25,27,33)           117.1747         estimate D2E/DX2                !
 ! A61   A(28,27,33)           119.3805         estimate D2E/DX2                !
 ! A62   A(27,28,29)           123.8825         estimate D2E/DX2                !
 ! A63   A(27,28,73)           120.8581         estimate D2E/DX2                !
 ! A64   A(29,28,73)           114.589          estimate D2E/DX2                !
 ! A65   A(28,29,30)           114.3681         estimate D2E/DX2                !
 ! A66   A(29,30,31)           122.5369         estimate D2E/DX2                !
 ! A67   A(29,30,34)           111.4137         estimate D2E/DX2                !
 ! A68   A(31,30,34)           125.8864         estimate D2E/DX2                !
 ! A69   A(30,31,32)           120.254          estimate D2E/DX2                !
 ! A70   A(30,31,33)           123.8991         estimate D2E/DX2                !
 ! A71   A(32,31,33)           115.7188         estimate D2E/DX2                !
 ! A72   A(27,33,31)           115.6009         estimate D2E/DX2                !
 ! A73   A(27,33,74)           121.3085         estimate D2E/DX2                !
 ! A74   A(31,33,74)           123.0906         estimate D2E/DX2                !
 ! A75   A(30,34,35)           128.4021         estimate D2E/DX2                !
 ! A76   A(30,34,39)           123.5682         estimate D2E/DX2                !
 ! A77   A(35,34,39)           107.9955         estimate D2E/DX2                !
 ! A78   A(34,35,36)           124.5764         estimate D2E/DX2                !
 ! A79   A(34,35,37)           116.582          estimate D2E/DX2                !
 ! A80   A(36,35,37)           118.7216         estimate D2E/DX2                !
 ! A81   A(35,37,38)           110.7047         estimate D2E/DX2                !
 ! A82   A(35,37,75)           125.2841         estimate D2E/DX2                !
 ! A83   A(38,37,75)           123.8446         estimate D2E/DX2                !
 ! A84   A(37,38,39)           108.1138         estimate D2E/DX2                !
 ! A85   A(37,38,40)           130.4936         estimate D2E/DX2                !
 ! A86   A(39,38,40)           121.3858         estimate D2E/DX2                !
 ! A87   A(34,39,38)            96.552          estimate D2E/DX2                !
 ! A88   A(38,40,41)           120.5692         estimate D2E/DX2                !
 ! A89   A(38,40,46)           121.9259         estimate D2E/DX2                !
 ! A90   A(41,40,46)           116.8382         estimate D2E/DX2                !
 ! A91   A(40,41,42)           124.5837         estimate D2E/DX2                !
 ! A92   A(40,41,76)           122.7016         estimate D2E/DX2                !
 ! A93   A(42,41,76)           112.3747         estimate D2E/DX2                !
 ! A94   A(41,42,43)           114.9165         estimate D2E/DX2                !
 ! A95   A(42,43,44)           123.6206         estimate D2E/DX2                !
 ! A96   A(42,43,47)           115.3432         estimate D2E/DX2                !
 ! A97   A(44,43,47)           120.8459         estimate D2E/DX2                !
 ! A98   A(43,44,45)           122.3141         estimate D2E/DX2                !
 ! A99   A(43,44,46)           118.8495         estimate D2E/DX2                !
 ! A100  A(45,44,46)           118.7765         estimate D2E/DX2                !
 ! A101  A(40,46,44)           120.6777         estimate D2E/DX2                !
 ! A102  A(40,46,77)           123.1453         estimate D2E/DX2                !
 ! A103  A(44,46,77)           116.0015         estimate D2E/DX2                !
 ! A104  A(43,47,48)           134.8997         estimate D2E/DX2                !
 ! A105  A(43,47,52)           116.6604         estimate D2E/DX2                !
 ! A106  A(48,47,52)           108.3521         estimate D2E/DX2                !
 ! A107  A(47,48,49)           119.3736         estimate D2E/DX2                !
 ! A108  A(47,48,50)           114.1755         estimate D2E/DX2                !
 ! A109  A(49,48,50)           126.0349         estimate D2E/DX2                !
 ! A110  A(48,50,51)           114.9566         estimate D2E/DX2                !
 ! A111  A(48,50,78)           122.4808         estimate D2E/DX2                !
 ! A112  A(51,50,78)           122.4554         estimate D2E/DX2                !
 ! A113  A(50,51,52)           112.3638         estimate D2E/DX2                !
 ! A114  A(50,51,53)           128.7905         estimate D2E/DX2                !
 ! A115  A(52,51,53)           118.8098         estimate D2E/DX2                !
 ! A116  A(47,52,51)            90.0978         estimate D2E/DX2                !
 ! A117  A(51,53,54)           125.0377         estimate D2E/DX2                !
 ! A118  A(51,53,59)           119.7452         estimate D2E/DX2                !
 ! A119  A(54,53,59)           115.2166         estimate D2E/DX2                !
 ! A120  A(53,54,55)           127.0638         estimate D2E/DX2                !
 ! A121  A(53,54,79)           115.9867         estimate D2E/DX2                !
 ! A122  A(55,54,79)           116.6345         estimate D2E/DX2                !
 ! A123  A(54,55,56)           120.9926         estimate D2E/DX2                !
 ! A124  A(55,56,57)           117.4449         estimate D2E/DX2                !
 ! A125  A(55,56,60)           118.4819         estimate D2E/DX2                !
 ! A126  A(57,56,60)           123.9247         estimate D2E/DX2                !
 ! A127  A(56,57,58)           118.2894         estimate D2E/DX2                !
 ! A128  A(56,57,59)           122.5291         estimate D2E/DX2                !
 ! A129  A(58,57,59)           118.6842         estimate D2E/DX2                !
 ! A130  A(53,59,57)           116.3751         estimate D2E/DX2                !
 ! A131  A(53,59,80)           125.1866         estimate D2E/DX2                !
 ! A132  A(57,59,80)           118.4185         estimate D2E/DX2                !
 ! A133  A(56,60,61)           128.8803         estimate D2E/DX2                !
 ! A134  A(56,60,65)           121.8804         estimate D2E/DX2                !
 ! A135  A(61,60,65)           109.2373         estimate D2E/DX2                !
 ! A136  A(60,61,62)           122.2418         estimate D2E/DX2                !
 ! A137  A(60,61,63)           114.223          estimate D2E/DX2                !
 ! A138  A(62,61,63)           123.5321         estimate D2E/DX2                !
 ! A139  A(61,63,64)           111.9311         estimate D2E/DX2                !
 ! A140  A(61,63,81)           121.4213         estimate D2E/DX2                !
 ! A141  A(64,63,81)           126.5983         estimate D2E/DX2                !
 ! A142  A(63,64,65)           108.536          estimate D2E/DX2                !
 ! A143  A(63,64,82)           126.1166         estimate D2E/DX2                !
 ! A144  A(65,64,82)           125.3158         estimate D2E/DX2                !
 ! A145  A(60,65,64)            95.9725         estimate D2E/DX2                !
 ! D1    D(7,1,2,3)            -10.5333         estimate D2E/DX2                !
 ! D2    D(7,1,2,67)           177.9274         estimate D2E/DX2                !
 ! D3    D(66,1,2,3)           179.8759         estimate D2E/DX2                !
 ! D4    D(66,1,2,67)            8.3366         estimate D2E/DX2                !
 ! D5    D(2,1,7,5)             10.9323         estimate D2E/DX2                !
 ! D6    D(2,1,7,68)          -177.6688         estimate D2E/DX2                !
 ! D7    D(66,1,7,5)           179.8685         estimate D2E/DX2                !
 ! D8    D(66,1,7,68)           -8.7326         estimate D2E/DX2                !
 ! D9    D(1,2,3,4)              9.4924         estimate D2E/DX2                !
 ! D10   D(67,2,3,4)          -178.2159         estimate D2E/DX2                !
 ! D11   D(2,3,4,5)             -8.6335         estimate D2E/DX2                !
 ! D12   D(2,3,4,8)            179.2769         estimate D2E/DX2                !
 ! D13   D(3,4,5,6)            179.6419         estimate D2E/DX2                !
 ! D14   D(3,4,5,7)              9.0086         estimate D2E/DX2                !
 ! D15   D(8,4,5,6)             -8.0601         estimate D2E/DX2                !
 ! D16   D(8,4,5,7)           -178.6933         estimate D2E/DX2                !
 ! D17   D(3,4,8,9)            138.256          estimate D2E/DX2                !
 ! D18   D(3,4,8,13)           -43.919          estimate D2E/DX2                !
 ! D19   D(5,4,8,9)            -34.0379         estimate D2E/DX2                !
 ! D20   D(5,4,8,13)           143.7871         estimate D2E/DX2                !
 ! D21   D(4,5,7,1)             -9.7838         estimate D2E/DX2                !
 ! D22   D(4,5,7,68)           178.9847         estimate D2E/DX2                !
 ! D23   D(6,5,7,1)            179.1089         estimate D2E/DX2                !
 ! D24   D(6,5,7,68)             7.8774         estimate D2E/DX2                !
 ! D25   D(4,8,9,10)            -2.8025         estimate D2E/DX2                !
 ! D26   D(4,8,9,11)           179.8029         estimate D2E/DX2                !
 ! D27   D(13,8,9,10)          179.3553         estimate D2E/DX2                !
 ! D28   D(13,8,9,11)            1.9607         estimate D2E/DX2                !
 ! D29   D(4,8,13,12)          177.8326         estimate D2E/DX2                !
 ! D30   D(9,8,13,12)           -3.9498         estimate D2E/DX2                !
 ! D31   D(8,9,11,12)            1.7381         estimate D2E/DX2                !
 ! D32   D(8,9,11,69)          174.0937         estimate D2E/DX2                !
 ! D33   D(10,9,11,12)        -175.885          estimate D2E/DX2                !
 ! D34   D(10,9,11,69)          -3.5293         estimate D2E/DX2                !
 ! D35   D(9,11,12,13)          -4.7777         estimate D2E/DX2                !
 ! D36   D(9,11,12,14)        -175.5831         estimate D2E/DX2                !
 ! D37   D(69,11,12,13)       -176.6061         estimate D2E/DX2                !
 ! D38   D(69,11,12,14)         12.5885         estimate D2E/DX2                !
 ! D39   D(11,12,13,8)           5.0564         estimate D2E/DX2                !
 ! D40   D(14,12,13,8)         176.1456         estimate D2E/DX2                !
 ! D41   D(11,12,14,15)         32.2271         estimate D2E/DX2                !
 ! D42   D(11,12,14,20)       -140.384          estimate D2E/DX2                !
 ! D43   D(13,12,14,15)       -138.0044         estimate D2E/DX2                !
 ! D44   D(13,12,14,20)         49.3845         estimate D2E/DX2                !
 ! D45   D(12,14,15,16)       -178.9155         estimate D2E/DX2                !
 ! D46   D(12,14,15,70)          5.1928         estimate D2E/DX2                !
 ! D47   D(20,14,15,16)         -5.7958         estimate D2E/DX2                !
 ! D48   D(20,14,15,70)        178.3125         estimate D2E/DX2                !
 ! D49   D(12,14,20,18)        177.9423         estimate D2E/DX2                !
 ! D50   D(12,14,20,71)         -1.9229         estimate D2E/DX2                !
 ! D51   D(15,14,20,18)          4.6599         estimate D2E/DX2                !
 ! D52   D(15,14,20,71)       -175.2053         estimate D2E/DX2                !
 ! D53   D(14,15,16,17)          4.8424         estimate D2E/DX2                !
 ! D54   D(70,15,16,17)       -179.0639         estimate D2E/DX2                !
 ! D55   D(15,16,17,18)         -2.0977         estimate D2E/DX2                !
 ! D56   D(15,16,17,21)        177.9824         estimate D2E/DX2                !
 ! D57   D(16,17,18,19)       -179.9241         estimate D2E/DX2                !
 ! D58   D(16,17,18,20)          0.9109         estimate D2E/DX2                !
 ! D59   D(21,17,18,19)         -0.0112         estimate D2E/DX2                !
 ! D60   D(21,17,18,20)       -179.1763         estimate D2E/DX2                !
 ! D61   D(16,17,21,22)        137.1892         estimate D2E/DX2                !
 ! D62   D(16,17,21,26)        -41.2524         estimate D2E/DX2                !
 ! D63   D(18,17,21,22)        -42.7256         estimate D2E/DX2                !
 ! D64   D(18,17,21,26)        138.8328         estimate D2E/DX2                !
 ! D65   D(17,18,20,14)         -2.397          estimate D2E/DX2                !
 ! D66   D(17,18,20,71)        177.4763         estimate D2E/DX2                !
 ! D67   D(19,18,20,14)        178.4418         estimate D2E/DX2                !
 ! D68   D(19,18,20,71)         -1.685          estimate D2E/DX2                !
 ! D69   D(17,21,22,23)          5.1859         estimate D2E/DX2                !
 ! D70   D(17,21,22,24)       -179.6067         estimate D2E/DX2                !
 ! D71   D(26,21,22,23)       -176.2443         estimate D2E/DX2                !
 ! D72   D(26,21,22,24)         -1.0369         estimate D2E/DX2                !
 ! D73   D(17,21,26,25)       -179.2635         estimate D2E/DX2                !
 ! D74   D(22,21,26,25)          2.1038         estimate D2E/DX2                !
 ! D75   D(21,22,24,25)         -0.992          estimate D2E/DX2                !
 ! D76   D(21,22,24,72)       -176.4258         estimate D2E/DX2                !
 ! D77   D(23,22,24,25)        174.665          estimate D2E/DX2                !
 ! D78   D(23,22,24,72)         -0.7688         estimate D2E/DX2                !
 ! D79   D(22,24,25,26)          2.4424         estimate D2E/DX2                !
 ! D80   D(22,24,25,27)        179.0039         estimate D2E/DX2                !
 ! D81   D(72,24,25,26)        177.7349         estimate D2E/DX2                !
 ! D82   D(72,24,25,27)         -5.7036         estimate D2E/DX2                !
 ! D83   D(24,25,26,21)         -2.5827         estimate D2E/DX2                !
 ! D84   D(27,25,26,21)       -179.5148         estimate D2E/DX2                !
 ! D85   D(24,25,27,28)       -141.8153         estimate D2E/DX2                !
 ! D86   D(24,25,27,33)         46.7046         estimate D2E/DX2                !
 ! D87   D(26,25,27,28)         34.3805         estimate D2E/DX2                !
 ! D88   D(26,25,27,33)       -137.0996         estimate D2E/DX2                !
 ! D89   D(25,27,28,29)       -177.6708         estimate D2E/DX2                !
 ! D90   D(25,27,28,73)         12.228          estimate D2E/DX2                !
 ! D91   D(33,27,28,29)         -6.3703         estimate D2E/DX2                !
 ! D92   D(33,27,28,73)       -176.4716         estimate D2E/DX2                !
 ! D93   D(25,27,33,31)        175.7642         estimate D2E/DX2                !
 ! D94   D(25,27,33,74)         -4.2806         estimate D2E/DX2                !
 ! D95   D(28,27,33,31)          3.9712         estimate D2E/DX2                !
 ! D96   D(28,27,33,74)       -176.0736         estimate D2E/DX2                !
 ! D97   D(27,28,29,30)          3.1918         estimate D2E/DX2                !
 ! D98   D(73,28,29,30)        173.852          estimate D2E/DX2                !
 ! D99   D(28,29,30,31)          2.212          estimate D2E/DX2                !
 ! D100  D(28,29,30,34)        177.8228         estimate D2E/DX2                !
 ! D101  D(29,30,31,32)        179.8042         estimate D2E/DX2                !
 ! D102  D(29,30,31,33)         -4.4915         estimate D2E/DX2                !
 ! D103  D(34,30,31,32)          4.8494         estimate D2E/DX2                !
 ! D104  D(34,30,31,33)       -179.4464         estimate D2E/DX2                !
 ! D105  D(29,30,34,35)        -37.7193         estimate D2E/DX2                !
 ! D106  D(29,30,34,39)        139.8903         estimate D2E/DX2                !
 ! D107  D(31,30,34,35)        137.7131         estimate D2E/DX2                !
 ! D108  D(31,30,34,39)        -44.6773         estimate D2E/DX2                !
 ! D109  D(30,31,33,27)          1.2176         estimate D2E/DX2                !
 ! D110  D(30,31,33,74)       -178.7366         estimate D2E/DX2                !
 ! D111  D(32,31,33,27)        177.0993         estimate D2E/DX2                !
 ! D112  D(32,31,33,74)         -2.855          estimate D2E/DX2                !
 ! D113  D(30,34,35,36)         -3.6197         estimate D2E/DX2                !
 ! D114  D(30,34,35,37)       -179.5722         estimate D2E/DX2                !
 ! D115  D(39,34,35,36)        178.4743         estimate D2E/DX2                !
 ! D116  D(39,34,35,37)          2.5218         estimate D2E/DX2                !
 ! D117  D(30,34,39,38)       -179.9349         estimate D2E/DX2                !
 ! D118  D(35,34,39,38)         -1.9043         estimate D2E/DX2                !
 ! D119  D(34,35,37,38)         -1.8686         estimate D2E/DX2                !
 ! D120  D(34,35,37,75)        173.5747         estimate D2E/DX2                !
 ! D121  D(36,35,37,38)       -178.0689         estimate D2E/DX2                !
 ! D122  D(36,35,37,75)         -2.6255         estimate D2E/DX2                !
 ! D123  D(35,37,38,39)          0.3456         estimate D2E/DX2                !
 ! D124  D(35,37,38,40)       -178.6922         estimate D2E/DX2                !
 ! D125  D(75,37,38,39)       -175.1761         estimate D2E/DX2                !
 ! D126  D(75,37,38,40)          5.786          estimate D2E/DX2                !
 ! D127  D(37,38,39,34)          0.9479         estimate D2E/DX2                !
 ! D128  D(40,38,39,34)       -179.9092         estimate D2E/DX2                !
 ! D129  D(37,38,40,41)         37.2071         estimate D2E/DX2                !
 ! D130  D(37,38,40,46)       -133.1374         estimate D2E/DX2                !
 ! D131  D(39,38,40,41)       -141.7217         estimate D2E/DX2                !
 ! D132  D(39,38,40,46)         47.9338         estimate D2E/DX2                !
 ! D133  D(38,40,41,42)       -179.3356         estimate D2E/DX2                !
 ! D134  D(38,40,41,76)          7.8752         estimate D2E/DX2                !
 ! D135  D(46,40,41,42)         -8.5156         estimate D2E/DX2                !
 ! D136  D(46,40,41,76)        178.6952         estimate D2E/DX2                !
 ! D137  D(38,40,46,44)        176.4081         estimate D2E/DX2                !
 ! D138  D(38,40,46,77)         -8.6027         estimate D2E/DX2                !
 ! D139  D(41,40,46,44)          5.7222         estimate D2E/DX2                !
 ! D140  D(41,40,46,77)       -179.2887         estimate D2E/DX2                !
 ! D141  D(40,41,42,43)          7.5574         estimate D2E/DX2                !
 ! D142  D(76,41,42,43)       -179.0015         estimate D2E/DX2                !
 ! D143  D(41,42,43,44)         -3.887          estimate D2E/DX2                !
 ! D144  D(41,42,43,47)       -178.9007         estimate D2E/DX2                !
 ! D145  D(42,43,44,45)       -175.4485         estimate D2E/DX2                !
 ! D146  D(42,43,44,46)          1.7029         estimate D2E/DX2                !
 ! D147  D(47,43,44,45)         -0.698          estimate D2E/DX2                !
 ! D148  D(47,43,44,46)        176.4534         estimate D2E/DX2                !
 ! D149  D(42,43,47,48)        142.2961         estimate D2E/DX2                !
 ! D150  D(42,43,47,52)        -41.587          estimate D2E/DX2                !
 ! D151  D(44,43,47,48)        -32.868          estimate D2E/DX2                !
 ! D152  D(44,43,47,52)        143.2489         estimate D2E/DX2                !
 ! D153  D(43,44,46,40)         -2.5382         estimate D2E/DX2                !
 ! D154  D(43,44,46,77)       -177.871          estimate D2E/DX2                !
 ! D155  D(45,44,46,40)        174.7152         estimate D2E/DX2                !
 ! D156  D(45,44,46,77)         -0.6175         estimate D2E/DX2                !
 ! D157  D(43,47,48,49)         -8.1668         estimate D2E/DX2                !
 ! D158  D(43,47,48,50)        178.7914         estimate D2E/DX2                !
 ! D159  D(52,47,48,49)        175.4892         estimate D2E/DX2                !
 ! D160  D(52,47,48,50)          2.4473         estimate D2E/DX2                !
 ! D161  D(43,47,52,51)       -179.1424         estimate D2E/DX2                !
 ! D162  D(48,47,52,51)         -2.0394         estimate D2E/DX2                !
 ! D163  D(47,48,50,51)         -1.6211         estimate D2E/DX2                !
 ! D164  D(47,48,50,78)        174.6963         estimate D2E/DX2                !
 ! D165  D(49,48,50,51)       -174.1197         estimate D2E/DX2                !
 ! D166  D(49,48,50,78)          2.1977         estimate D2E/DX2                !
 ! D167  D(48,50,51,52)         -0.0776         estimate D2E/DX2                !
 ! D168  D(48,50,51,53)       -177.8422         estimate D2E/DX2                !
 ! D169  D(78,50,51,52)       -176.396          estimate D2E/DX2                !
 ! D170  D(78,50,51,53)          5.8394         estimate D2E/DX2                !
 ! D171  D(50,51,52,47)          1.2559         estimate D2E/DX2                !
 ! D172  D(53,51,52,47)        179.2675         estimate D2E/DX2                !
 ! D173  D(50,51,53,54)         33.3481         estimate D2E/DX2                !
 ! D174  D(50,51,53,59)       -146.3584         estimate D2E/DX2                !
 ! D175  D(52,51,53,54)       -144.2925         estimate D2E/DX2                !
 ! D176  D(52,51,53,59)         36.001          estimate D2E/DX2                !
 ! D177  D(51,53,54,55)        178.4471         estimate D2E/DX2                !
 ! D178  D(51,53,54,79)          5.154          estimate D2E/DX2                !
 ! D179  D(59,53,54,55)         -1.8346         estimate D2E/DX2                !
 ! D180  D(59,53,54,79)       -175.1276         estimate D2E/DX2                !
 ! D181  D(51,53,59,57)       -179.1507         estimate D2E/DX2                !
 ! D182  D(51,53,59,80)         -0.8016         estimate D2E/DX2                !
 ! D183  D(54,53,59,57)          1.1149         estimate D2E/DX2                !
 ! D184  D(54,53,59,80)        179.464          estimate D2E/DX2                !
 ! D185  D(53,54,55,56)          5.0818         estimate D2E/DX2                !
 ! D186  D(79,54,55,56)        178.3371         estimate D2E/DX2                !
 ! D187  D(54,55,56,57)         -7.024          estimate D2E/DX2                !
 ! D188  D(54,55,56,60)        177.2299         estimate D2E/DX2                !
 ! D189  D(55,56,57,58)        178.3755         estimate D2E/DX2                !
 ! D190  D(55,56,57,59)          6.5785         estimate D2E/DX2                !
 ! D191  D(60,56,57,58)         -6.1311         estimate D2E/DX2                !
 ! D192  D(60,56,57,59)       -177.9281         estimate D2E/DX2                !
 ! D193  D(55,56,60,61)        136.9948         estimate D2E/DX2                !
 ! D194  D(55,56,60,65)        -42.4491         estimate D2E/DX2                !
 ! D195  D(57,56,60,61)        -38.455          estimate D2E/DX2                !
 ! D196  D(57,56,60,65)        142.1011         estimate D2E/DX2                !
 ! D197  D(56,57,59,53)         -3.5929         estimate D2E/DX2                !
 ! D198  D(56,57,59,80)        177.9412         estimate D2E/DX2                !
 ! D199  D(58,57,59,53)       -175.3589         estimate D2E/DX2                !
 ! D200  D(58,57,59,80)          6.1751         estimate D2E/DX2                !
 ! D201  D(56,60,61,62)          0.8834         estimate D2E/DX2                !
 ! D202  D(56,60,61,63)       -178.4992         estimate D2E/DX2                !
 ! D203  D(65,60,61,62)       -179.6166         estimate D2E/DX2                !
 ! D204  D(65,60,61,63)          1.0007         estimate D2E/DX2                !
 ! D205  D(56,60,65,64)       -179.5904         estimate D2E/DX2                !
 ! D206  D(61,60,65,64)          0.8681         estimate D2E/DX2                !
 ! D207  D(60,61,63,64)         -2.916          estimate D2E/DX2                !
 ! D208  D(60,61,63,81)        179.4764         estimate D2E/DX2                !
 ! D209  D(62,61,63,64)        177.7104         estimate D2E/DX2                !
 ! D210  D(62,61,63,81)          0.1028         estimate D2E/DX2                !
 ! D211  D(61,63,64,65)          3.3596         estimate D2E/DX2                !
 ! D212  D(61,63,64,82)       -178.6055         estimate D2E/DX2                !
 ! D213  D(81,63,64,65)       -179.1835         estimate D2E/DX2                !
 ! D214  D(81,63,64,82)         -1.1486         estimate D2E/DX2                !
 ! D215  D(63,64,65,60)         -2.4715         estimate D2E/DX2                !
 ! D216  D(82,64,65,60)        179.474          estimate D2E/DX2                !
 --------------------------------------------------------------------------------
 Trust Radius=3.00D-01 FncErr=1.00D-07 GrdErr=1.00D-06 EigMax=2.50D+02 EigMin=1.00D-04
 Number of steps in this run=    462 maximum allowed number of steps=    492.
 GradGradGradGradGradGradGradGradGradGradGradGradGradGradGradGradGradGrad

 Leave Link  103 at Fri Jul 24 04:10:37 2020, MaxMem=  4026531840 cpu:               0.2 elap:               0.0
 (Enter /opt/ohpc/pub/libs/gaussian/g16-A.03/sandybridge/g16/l202.exe)
 Stoichiometry    C45H17F10N5S5
 Framework group  C1[X(C45H17F10N5S5)]
 Deg. of freedom   240
 Full point group                 C1      NOp   1
 Largest Abelian subgroup         C1      NOp   1
 Largest concise Abelian subgroup C1      NOp   1
                         Standard orientation:                         
 ---------------------------------------------------------------------
 Center     Atomic      Atomic             Coordinates (Angstroms)
 Number     Number       Type             X           Y           Z
 ---------------------------------------------------------------------
      1          6           0       19.189582    0.748367   -0.109053
      2          6           0       18.382266   -0.237170    0.340286
      3          7           0       17.053024   -0.026643    0.489146
      4          6           0       16.496464    1.085228    0.019968
      5          6           0       17.323503    2.175131   -0.491015
      6          9           0       16.813028    3.325951   -0.986795
      7          6           0       18.642255    1.941986   -0.641731
      8          6           0       15.021313    1.325195    0.163266
      9          6           0       14.330264    2.426081    0.484938
     10          9           0       14.799998    3.586912    0.809710
     11          6           0       12.868120    2.193813    0.501047
     12          6           0       12.624550    0.857207    0.208326
     13         16           0       14.022381   -0.047788   -0.196944
     14          6           0       11.284912    0.289462    0.046144
     15          6           0       10.209935    0.989439   -0.462643
     16          7           0        8.963216    0.462194   -0.590690
     17          6           0        8.669741   -0.799598   -0.120146
     18          6           0        9.704676   -1.569002    0.466067
     19          9           0        9.483318   -2.744715    0.915739
     20          6           0       10.955661   -0.985043    0.545095
     21          6           0        7.306401   -1.239472   -0.269033
     22          6           0        6.906495   -2.487802   -0.676073
     23          9           0        7.668609   -3.569827   -0.923592
     24          6           0        5.440776   -2.591415   -0.726135
     25          6           0        4.784641   -1.434656   -0.337561
     26         16           0        5.986273   -0.198618    0.021559
     27          6           0        3.362473   -1.140426   -0.271697
     28          6           0        2.827724    0.103377   -0.618374
     29          7           0        1.500693    0.416331   -0.520687
     30          6           0        0.688720   -0.621056    0.041202
     31          6           0        1.200200   -1.781142    0.475964
     32          9           0        0.411165   -2.704025    0.989203
     33          6           0        2.512964   -2.128090    0.350413
     34          6           0       -0.722794   -0.195268    0.164365
     35          6           0       -1.226695    1.071265    0.517271
     36          9           0       -0.453424    2.140907    0.884859
     37          6           0       -2.603787    1.197926    0.566982
     38          6           0       -3.234103   -0.020056    0.194773
     39         16           0       -1.999844   -1.176784   -0.162321
     40          6           0       -4.632071   -0.352781    0.076246
     41          6           0       -5.528777    0.564984   -0.407243
     42          7           0       -6.907294    0.336111   -0.545429
     43          6           0       -7.348151   -0.827230   -0.013357
     44          6           0       -6.504092   -1.786401    0.561674
     45          9           0       -6.971290   -3.004597    1.014130
     46          6           0       -5.164524   -1.531550    0.625386
     47          6           0       -8.745828   -1.080929   -0.170438
     48          6           0       -9.518254   -2.214215   -0.421233
     49          9           0       -8.929864   -3.332724   -0.720946
     50          6           0      -10.891426   -1.971146   -0.466962
     51          6           0      -11.238042   -0.740848   -0.237450
     52         16           0       -9.844083    0.304138    0.077617
     53          6           0      -12.606816   -0.153579   -0.167105
     54          6           0      -13.730519   -0.811214    0.302721
     55          7           0      -14.950915   -0.322866    0.409080
     56          6           0      -15.241146    0.881886   -0.039105
     57          6           0      -14.152536    1.695640   -0.502627
     58          9           0      -14.445613    2.970029   -1.016518
     59          6           0      -12.830196    1.203824   -0.618717
     60          6           0      -16.603196    1.337495    0.049950
     61          6           0      -17.075733    2.563671    0.433318
     62          9           0      -16.236885    3.594651    0.792362
     63          6           0      -18.462307    2.664278    0.439118
     64          6           0      -19.062635    1.511648   -0.009266
     65         16           0      -17.862795    0.365359   -0.313359
     66          1           0       20.275747    0.493850   -0.201785
     67          1           0       18.747558   -1.210853    0.738860
     68          1           0       19.278010    2.670777   -1.014588
     69          1           0       12.206129    2.895926    0.808486
     70          1           0       10.333667    1.993029   -0.850531
     71          1           0       11.724380   -1.617928    1.056114
     72          1           0        4.955652   -3.501641   -0.966090
     73          1           0        3.423712    0.836042   -1.133615
     74          1           0        2.913788   -3.090365    0.693352
     75          1           0       -3.108822    2.022466    0.895390
     76          1           0       -5.221487    1.520952   -0.834642
     77          1           0       -4.546085   -2.324916    1.049274
     78          1           0      -11.632007   -2.761346   -0.743592
     79          1           0      -13.553739   -1.857446    0.745030
     80          1           0      -12.096095    1.840013   -0.992671
     81          1           0      -18.976661    3.609527    0.740949
     82          1           0      -20.077176    1.355186   -0.113430
 ---------------------------------------------------------------------
 Rotational constants (GHZ):           0.1458471           0.0039575           0.0038695
 Leave Link  202 at Fri Jul 24 04:10:37 2020, MaxMem=  4026531840 cpu:               0.2 elap:               0.1
 (Enter /opt/ohpc/pub/libs/gaussian/g16-A.03/sandybridge/g16/l301.exe)
 Standard basis: CC-pVDZ (5D, 7F)
 Ernie: Thresh=  0.10000D-02 Tol=  0.10000D-05 Strict=F.
 Ernie:  170 primitive shells out of 1655 were deleted.
 There are  1080 symmetry adapted cartesian basis functions of A   symmetry.
 There are  1015 symmetry adapted basis functions of A   symmetry.
  1015 basis functions,  2454 primitive gaussians,  1080 cartesian basis functions
   246 alpha electrons      246 beta electrons
       nuclear repulsion energy      8549.9635898036 Hartrees.
 IExCor=32609 DFT=T Ex+Corr=LC-wPBE ExCW=0 ScaHFX=  1.000000
 ScaDFX=  1.000000  0.000000  1.000000  1.000000 ScalE2=  1.000000  1.000000
 IRadAn=      5 IRanWt=     -1 IRanGd=            0 ICorTp=0 IEmpDi=  4
 HFx  wShort=  0.000000 wLong=  0.369100 cFull=  0.000000 cShort=  0.000000 cLong=  1.000000
 DFx  wShort=  0.000000 wLong=  0.369100 cFull=  0.000000 cShort=  0.000000 cLong=  1.000000
 NAtoms=   82 NActive=   82 NUniq=   82 SFac= 1.00D+00 NAtFMM=   60 NAOKFM=T Big=T
 Integral buffers will be    131072 words long.
 Raffenetti 2 integral format.
 Two-electron integral symmetry is turned on.
 Leave Link  301 at Fri Jul 24 04:10:37 2020, MaxMem=  4026531840 cpu:               0.5 elap:               0.1
 (Enter /opt/ohpc/pub/libs/gaussian/g16-A.03/sandybridge/g16/l302.exe)
 NPDir=0 NMtPBC=     1 NCelOv=     1 NCel=       1 NClECP=     1 NCelD=      1
         NCelK=      1 NCelE2=     1 NClLst=     1 CellRange=     0.0.
 One-electron integrals computed using PRISM.
 One-electron integral symmetry used in STVInt
 NBasis=  1015 RedAO= T EigKep=  3.71D-04  NBF=  1015
 NBsUse=  1015 1.00D-06 EigRej= -1.00D+00 NBFU=  1015
 Precomputing XC quadrature grid using
 IXCGrd= 4 IRadAn=           5 IRanWt=          -1 IRanGd=           0 AccXCQ= 0.00D+00.
 Generated NRdTot=       0 NPtTot=           0 NUsed=           0 NTot=          32
 NSgBfM=   605   605   605   605   605 MxSgAt=    82 MxSgA2=    71.
 Leave Link  302 at Fri Jul 24 04:10:41 2020, MaxMem=  4026531840 cpu:              25.5 elap:               3.2
 (Enter /opt/ohpc/pub/libs/gaussian/g16-A.03/sandybridge/g16/l303.exe)
 DipDrv:  MaxL=1.
 Leave Link  303 at Fri Jul 24 04:10:41 2020, MaxMem=  4026531840 cpu:               1.6 elap:               0.2
 (Enter /opt/ohpc/pub/libs/gaussian/g16-A.03/sandybridge/g16/l401.exe)
 ExpMin= 1.22D-01 ExpMax= 1.11D+05 ExpMxC= 1.07D+03 IAcc=3 IRadAn=         5 AccDes= 0.00D+00
 Harris functional with IExCor=32609 and IRadAn=       5 diagonalized for initial guess.
 HarFok:  IExCor=32609 AccDes= 0.00D+00 IRadAn=         5 IDoV= 1 UseB2=F ITyADJ=14
 ICtDFT=  3500011 ScaDFX=  1.000000  1.000000  1.000000  1.000000
 FoFCou: FMM=F IPFlag=           0 FMFlag=      100000 FMFlg1=        2001
         NFxFlg=           0 DoJE=T BraDBF=F KetDBF=T FulRan=T
         wScrn=  0.000000 ICntrl=       500 IOpCl=  0 I1Cent=   200000004 NGrid=           0
         NMat0=    1 NMatS0=      1 NMatT0=    0 NMatD0=    1 NMtDS0=    0 NMtDT0=    0
 Petite list used in FoFCou.
 Harris En= -4984.65042751813    
 JPrj=0 DoOrth=F DoCkMO=F.
 Initial guess <Sx>= 0.0000 <Sy>= 0.0000 <Sz>= 0.0000 <S**2>=-0.0000 S=-0.0000
 Leave Link  401 at Fri Jul 24 04:10:51 2020, MaxMem=  4026531840 cpu:              81.4 elap:              10.2
 (Enter /opt/ohpc/pub/libs/gaussian/g16-A.03/sandybridge/g16/l502.exe)
 Integral symmetry usage will be decided dynamically.
 UHF open shell SCF:
 Using DIIS extrapolation, IDIIS=  1040.
 NGot=  4026531840 LenX=  4024179904 LenY=  4023012424
 Requested convergence on RMS density matrix=1.00D-08 within 128 cycles.
 Requested convergence on MAX density matrix=1.00D-06.
 Requested convergence on             energy=1.00D-06.
 No special actions if energy rises.
 Fock matrices will be formed incrementally for  20 cycles.
 Integral accuracy reduced to 1.0D-05 until final iterations.

 Cycle   1  Pass 0  IDiag  1:
 FoFJK:  IHMeth= 1 ICntrl=       0 DoSepK=T KAlg= 0 I1Cent=           0 FoldK=F
 IRaf=         1 NMat=       1 IRICut=       1 DoRegI=T DoRafI=F ISym2E= 0 IDoP0=0 IntGTp=1.
 FoFCou: FMM=T IPFlag=           0 FMFlag=      100000 FMFlg1=        2001
         NFxFlg=           0 DoJE=T BraDBF=F KetDBF=F FulRan=T
         wScrn=  0.000000 ICntrl=       500 IOpCl=  0 I1Cent=           0 NGrid=           0
         NMat0=    1 NMatS0=      1 NMatT0=    0 NMatD0=    1 NMtDS0=    0 NMtDT0=    0
 Symmetry not used in FoFCou.
 FMM levels:  10  Number of levels for PrismC:   9
 E= -4984.41416347442    
 DIIS: error= 1.74D-02 at cycle   1 NSaved=   1.
 NSaved= 1 IEnMin= 1 EnMin= -4984.41416347442     IErMin= 1 ErrMin= 1.74D-02
 ErrMax= 1.74D-02  0.00D+00 EMaxC= 1.00D-01 BMatC= 3.67D+00 BMatP= 3.67D+00
 IDIUse=3 WtCom= 8.26D-01 WtEn= 1.74D-01
 Coeff-Com:  0.100D+01
 Coeff-En:   0.100D+01
 Coeff:      0.100D+01
 Gap=     0.299 Goal=   None    Shift=    0.000
 Gap=     0.299 Goal=   None    Shift=    0.000
 GapD=    0.299 DampG=1.000 DampE=0.500 DampFc=0.5000 IDamp=-1.
 Damping current iteration by 5.00D-01
 RMSDP=1.92D-03 MaxDP=1.31D-01              OVMax= 1.74D-01

 Cycle   2  Pass 0  IDiag  1:
 RMSU=  9.56D-04    CP:  9.93D-01
 E= -4984.94153720222     Delta-E=       -0.527373727800 Rises=F Damp=T
 DIIS: error= 4.47D-03 at cycle   2 NSaved=   2.
 NSaved= 2 IEnMin= 2 EnMin= -4984.94153720222     IErMin= 2 ErrMin= 4.47D-03
 ErrMax= 4.47D-03  0.00D+00 EMaxC= 1.00D-01 BMatC= 2.09D-01 BMatP= 3.67D+00
 IDIUse=3 WtCom= 9.55D-01 WtEn= 4.47D-02
 Coeff-Com: -0.101D+00 0.110D+01
 Coeff-En:   0.000D+00 0.100D+01
 Coeff:     -0.968D-01 0.110D+01
 Gap=     0.283 Goal=   None    Shift=    0.000
 Gap=     0.283 Goal=   None    Shift=    0.000
 RMSDP=6.36D-04 MaxDP=2.35D-02 DE=-5.27D-01 OVMax= 9.60D-02

 Cycle   3  Pass 0  IDiag  1:
 RMSU=  5.66D-04    CP:  9.88D-01  1.30D+00
 E= -4985.42466773611     Delta-E=       -0.483130533894 Rises=F Damp=F
 DIIS: error= 1.95D-03 at cycle   3 NSaved=   3.
 NSaved= 3 IEnMin= 3 EnMin= -4985.42466773611     IErMin= 3 ErrMin= 1.95D-03
 ErrMax= 1.95D-03  0.00D+00 EMaxC= 1.00D-01 BMatC= 5.55D-02 BMatP= 2.09D-01
 IDIUse=3 WtCom= 9.81D-01 WtEn= 1.95D-02
 Coeff-Com: -0.560D-01 0.355D+00 0.701D+00
 Coeff-En:   0.000D+00 0.000D+00 0.100D+01
 Coeff:     -0.549D-01 0.348D+00 0.707D+00
 Gap=     0.274 Goal=   None    Shift=    0.000
 Gap=     0.274 Goal=   None    Shift=    0.000
 RMSDP=1.79D-04 MaxDP=1.35D-02 DE=-4.83D-01 OVMax= 2.59D-02

 Cycle   4  Pass 0  IDiag  1:
 RMSU=  1.65D-04    CP:  9.87D-01  1.34D+00  9.00D-01
 E= -4985.43773100572     Delta-E=       -0.013063269605 Rises=F Damp=F
 DIIS: error= 1.00D-03 at cycle   4 NSaved=   4.
 NSaved= 4 IEnMin= 4 EnMin= -4985.43773100572     IErMin= 4 ErrMin= 1.00D-03
 ErrMax= 1.00D-03  0.00D+00 EMaxC= 1.00D-01 BMatC= 1.54D-02 BMatP= 5.55D-02
 IDIUse=3 WtCom= 9.90D-01 WtEn= 1.00D-02
 Coeff-Com: -0.462D-02 0.140D-01 0.334D+00 0.657D+00
 Coeff-En:   0.000D+00 0.000D+00 0.732D-01 0.927D+00
 Coeff:     -0.458D-02 0.139D-01 0.331D+00 0.659D+00
 Gap=     0.276 Goal=   None    Shift=    0.000
 Gap=     0.276 Goal=   None    Shift=    0.000
 RMSDP=7.82D-05 MaxDP=6.62D-03 DE=-1.31D-02 OVMax= 1.03D-02

 Cycle   5  Pass 0  IDiag  1:
 RMSU=  5.94D-05    CP:  9.87D-01  1.34D+00  9.77D-01  8.46D-01
 E= -4985.44228777425     Delta-E=       -0.004556768532 Rises=F Damp=F
 DIIS: error= 3.10D-04 at cycle   5 NSaved=   5.
 NSaved= 5 IEnMin= 5 EnMin= -4985.44228777425     IErMin= 5 ErrMin= 3.10D-04
 ErrMax= 3.10D-04  0.00D+00 EMaxC= 1.00D-01 BMatC= 1.35D-03 BMatP= 1.54D-02
 IDIUse=3 WtCom= 9.97D-01 WtEn= 3.10D-03
 Coeff-Com:  0.903D-02-0.446D-01 0.300D-01 0.221D+00 0.784D+00
 Coeff-En:   0.000D+00 0.000D+00 0.000D+00 0.000D+00 0.100D+01
 Coeff:      0.900D-02-0.445D-01 0.299D-01 0.221D+00 0.785D+00
 Gap=     0.278 Goal=   None    Shift=    0.000
 Gap=     0.278 Goal=   None    Shift=    0.000
 RMSDP=3.53D-05 MaxDP=2.06D-03 DE=-4.56D-03 OVMax= 7.04D-03

 Cycle   6  Pass 0  IDiag  1:
 RMSU=  2.59D-05    CP:  9.87D-01  1.34D+00  1.00D+00  9.61D-01  1.09D+00
 E= -4985.44297361379     Delta-E=       -0.000685839539 Rises=F Damp=F
 DIIS: error= 1.33D-04 at cycle   6 NSaved=   6.
 NSaved= 6 IEnMin= 6 EnMin= -4985.44297361379     IErMin= 6 ErrMin= 1.33D-04
 ErrMax= 1.33D-04  0.00D+00 EMaxC= 1.00D-01 BMatC= 2.82D-04 BMatP= 1.35D-03
 IDIUse=3 WtCom= 9.99D-01 WtEn= 1.33D-03
 Coeff-Com:  0.589D-02-0.228D-01-0.504D-01-0.398D-01 0.278D+00 0.829D+00
 Coeff-En:   0.000D+00 0.000D+00 0.000D+00 0.000D+00 0.000D+00 0.100D+01
 Coeff:      0.588D-02-0.227D-01-0.503D-01-0.398D-01 0.277D+00 0.829D+00
 Gap=     0.279 Goal=   None    Shift=    0.000
 Gap=     0.279 Goal=   None    Shift=    0.000
 RMSDP=2.05D-05 MaxDP=1.52D-03 DE=-6.86D-04 OVMax= 4.69D-03

 Cycle   7  Pass 0  IDiag  1:
 RMSU=  1.24D-05    CP:  9.87D-01  1.34D+00  1.01D+00  1.00D+00  1.30D+00
                    CP:  1.15D+00
 E= -4985.44317844045     Delta-E=       -0.000204826660 Rises=F Damp=F
 DIIS: error= 6.30D-05 at cycle   7 NSaved=   7.
 NSaved= 7 IEnMin= 7 EnMin= -4985.44317844045     IErMin= 7 ErrMin= 6.30D-05
 ErrMax= 6.30D-05  0.00D+00 EMaxC= 1.00D-01 BMatC= 5.66D-05 BMatP= 2.82D-04
 IDIUse=1 WtCom= 1.00D+00 WtEn= 0.00D+00
 Coeff-Com:  0.583D-03 0.266D-03-0.201D-01-0.539D-01-0.843D-01 0.267D+00
 Coeff-Com:  0.891D+00
 Coeff:      0.583D-03 0.266D-03-0.201D-01-0.539D-01-0.843D-01 0.267D+00
 Coeff:      0.891D+00
 Gap=     0.280 Goal=   None    Shift=    0.000
 Gap=     0.280 Goal=   None    Shift=    0.000
 RMSDP=1.33D-05 MaxDP=7.62D-04 DE=-2.05D-04 OVMax= 2.35D-03

 Cycle   8  Pass 0  IDiag  1:
 RMSU=  7.87D-06    CP:  9.87D-01  1.34D+00  1.02D+00  1.03D+00  1.38D+00
                    CP:  1.44D+00  1.28D+00
 E= -4985.44322339053     Delta-E=       -0.000044950077 Rises=F Damp=F
 DIIS: error= 2.84D-05 at cycle   8 NSaved=   8.
 NSaved= 8 IEnMin= 8 EnMin= -4985.44322339053     IErMin= 8 ErrMin= 2.84D-05
 ErrMax= 2.84D-05  0.00D+00 EMaxC= 1.00D-01 BMatC= 1.25D-05 BMatP= 5.66D-05
 IDIUse=1 WtCom= 1.00D+00 WtEn= 0.00D+00
 Coeff-Com: -0.728D-03 0.413D-02 0.205D-02-0.130D-01-0.892D-01-0.514D-01
 Coeff-Com:  0.352D+00 0.796D+00
 Coeff:     -0.728D-03 0.413D-02 0.205D-02-0.130D-01-0.892D-01-0.514D-01
 Coeff:      0.352D+00 0.796D+00
 Gap=     0.280 Goal=   None    Shift=    0.000
 Gap=     0.280 Goal=   None    Shift=    0.000
 RMSDP=8.81D-06 MaxDP=2.91D-04 DE=-4.50D-05 OVMax= 9.55D-04

 Initial convergence to 1.0D-05 achieved.  Increase integral accuracy.
 Cycle   9  Pass 1  IDiag  1:
 E= -4985.44235741758     Delta-E=        0.000865972948 Rises=F Damp=F
 DIIS: error= 1.50D-04 at cycle   1 NSaved=   1.
 NSaved= 1 IEnMin= 1 EnMin= -4985.44235741758     IErMin= 1 ErrMin= 1.50D-04
 ErrMax= 1.50D-04  0.00D+00 EMaxC= 1.00D-01 BMatC= 1.44D-04 BMatP= 1.44D-04
 IDIUse=3 WtCom= 9.99D-01 WtEn= 1.50D-03
 Coeff-Com:  0.100D+01
 Coeff-En:   0.100D+01
 Coeff:      0.100D+01
 Gap=     0.280 Goal=   None    Shift=    0.000
 Gap=     0.280 Goal=   None    Shift=    0.000
 RMSDP=8.81D-06 MaxDP=2.91D-04 DE= 8.66D-04 OVMax= 3.65D-04

 Cycle  10  Pass 1  IDiag  1:
 RMSU=  1.03D-04    CP:  1.00D+00
 E= -4985.44238712072     Delta-E=       -0.000029703144 Rises=F Damp=F
 DIIS: error= 8.70D-06 at cycle   2 NSaved=   2.
 NSaved= 2 IEnMin= 2 EnMin= -4985.44238712072     IErMin= 2 ErrMin= 8.70D-06
 ErrMax= 8.70D-06  0.00D+00 EMaxC= 1.00D-01 BMatC= 1.49D-06 BMatP= 1.44D-04
 IDIUse=1 WtCom= 1.00D+00 WtEn= 0.00D+00
 Coeff-Com: -0.224D-01 0.102D+01
 Coeff:     -0.224D-01 0.102D+01
 Gap=     0.280 Goal=   None    Shift=    0.000
 Gap=     0.280 Goal=   None    Shift=    0.000
 RMSDP=5.54D-06 MaxDP=2.60D-04 DE=-2.97D-05 OVMax= 1.81D-04

 Cycle  11  Pass 1  IDiag  1:
 RMSU=  2.13D-06    CP:  1.00D+00  1.05D+00
 E= -4985.44238731986     Delta-E=       -0.000000199139 Rises=F Damp=F
 DIIS: error= 1.19D-05 at cycle   3 NSaved=   3.
 NSaved= 3 IEnMin= 3 EnMin= -4985.44238731986     IErMin= 2 ErrMin= 8.70D-06
 ErrMax= 1.19D-05  0.00D+00 EMaxC= 1.00D-01 BMatC= 1.98D-06 BMatP= 1.49D-06
 IDIUse=1 WtCom= 1.00D+00 WtEn= 0.00D+00
 Coeff-Com: -0.214D-01 0.561D+00 0.460D+00
 Coeff:     -0.214D-01 0.561D+00 0.460D+00
 Gap=     0.280 Goal=   None    Shift=    0.000
 Gap=     0.280 Goal=   None    Shift=    0.000
 RMSDP=7.11D-07 MaxDP=8.07D-05 DE=-1.99D-07 OVMax= 1.28D-04

 Cycle  12  Pass 1  IDiag  1:
 RMSU=  6.49D-07    CP:  1.00D+00  1.05D+00  8.86D-01
 E= -4985.44238778086     Delta-E=       -0.000000460999 Rises=F Damp=F
 DIIS: error= 1.50D-06 at cycle   4 NSaved=   4.
 NSaved= 4 IEnMin= 4 EnMin= -4985.44238778086     IErMin= 4 ErrMin= 1.50D-06
 ErrMax= 1.50D-06  0.00D+00 EMaxC= 1.00D-01 BMatC= 3.31D-08 BMatP= 1.49D-06
 IDIUse=1 WtCom= 1.00D+00 WtEn= 0.00D+00
 Coeff-Com:  0.452D-03-0.394D-01 0.210D-01 0.102D+01
 Coeff:      0.452D-03-0.394D-01 0.210D-01 0.102D+01
 Gap=     0.280 Goal=   None    Shift=    0.000
 Gap=     0.280 Goal=   None    Shift=    0.000
 RMSDP=3.07D-07 MaxDP=1.98D-05 DE=-4.61D-07 OVMax= 5.59D-05

 Cycle  13  Pass 1  IDiag  1:
 RMSU=  2.16D-07    CP:  1.00D+00  1.05D+00  9.67D-01  1.14D+00
 E= -4985.44238781544     Delta-E=       -0.000000034581 Rises=F Damp=F
 DIIS: error= 1.18D-06 at cycle   5 NSaved=   5.
 NSaved= 5 IEnMin= 5 EnMin= -4985.44238781544     IErMin= 5 ErrMin= 1.18D-06
 ErrMax= 1.18D-06  0.00D+00 EMaxC= 1.00D-01 BMatC= 1.45D-08 BMatP= 3.31D-08
 IDIUse=1 WtCom= 1.00D+00 WtEn= 0.00D+00
 Coeff-Com:  0.561D-02-0.159D+00-0.107D+00 0.434D+00 0.827D+00
 Coeff:      0.561D-02-0.159D+00-0.107D+00 0.434D+00 0.827D+00
 Gap=     0.280 Goal=   None    Shift=    0.000
 Gap=     0.280 Goal=   None    Shift=    0.000
 RMSDP=1.78D-07 MaxDP=1.09D-05 DE=-3.46D-08 OVMax= 3.51D-05

 Cycle  14  Pass 1  IDiag  1:
 RMSU=  1.02D-07    CP:  1.00D+00  1.05D+00  9.98D-01  1.26D+00  1.46D+00
 E= -4985.44238782692     Delta-E=       -0.000000011485 Rises=F Damp=F
 DIIS: error= 3.86D-07 at cycle   6 NSaved=   6.
 NSaved= 6 IEnMin= 6 EnMin= -4985.44238782692     IErMin= 6 ErrMin= 3.86D-07
 ErrMax= 3.86D-07  0.00D+00 EMaxC= 1.00D-01 BMatC= 2.43D-09 BMatP= 1.45D-08
 IDIUse=1 WtCom= 1.00D+00 WtEn= 0.00D+00
 Coeff-Com:  0.130D-02-0.308D-01-0.320D-01-0.133D+00 0.237D+00 0.958D+00
 Coeff:      0.130D-02-0.308D-01-0.320D-01-0.133D+00 0.237D+00 0.958D+00
 Gap=     0.280 Goal=   None    Shift=    0.000
 Gap=     0.280 Goal=   None    Shift=    0.000
 RMSDP=8.80D-08 MaxDP=5.53D-06 DE=-1.15D-08 OVMax= 2.10D-05

 Cycle  15  Pass 1  IDiag  1:
 RMSU=  3.56D-08    CP:  1.00D+00  1.05D+00  1.00D+00  1.29D+00  1.80D+00
                    CP:  1.20D+00
 E= -4985.44238782164     Delta-E=        0.000000005281 Rises=F Damp=F
 DIIS: error= 1.82D-07 at cycle   7 NSaved=   7.
 NSaved= 7 IEnMin= 6 EnMin= -4985.44238782692     IErMin= 7 ErrMin= 1.82D-07
 ErrMax= 1.82D-07  0.00D+00 EMaxC= 1.00D-01 BMatC= 5.92D-10 BMatP= 2.43D-09
 IDIUse=1 WtCom= 1.00D+00 WtEn= 0.00D+00
 Coeff-Com: -0.398D-03 0.142D-01 0.386D-02-0.148D+00-0.327D-01 0.459D+00
 Coeff-Com:  0.703D+00
 Coeff:     -0.398D-03 0.142D-01 0.386D-02-0.148D+00-0.327D-01 0.459D+00
 Coeff:      0.703D+00
 Gap=     0.280 Goal=   None    Shift=    0.000
 Gap=     0.280 Goal=   None    Shift=    0.000
 RMSDP=2.94D-08 MaxDP=1.98D-06 DE= 5.28D-09 OVMax= 5.96D-06

 Cycle  16  Pass 1  IDiag  1:
 RMSU=  1.42D-08    CP:  1.00D+00  1.05D+00  1.00D+00  1.29D+00  1.89D+00
                    CP:  1.34D+00  1.00D+00
 E= -4985.44238782255     Delta-E=       -0.000000000908 Rises=F Damp=F
 DIIS: error= 5.95D-08 at cycle   8 NSaved=   8.
 NSaved= 8 IEnMin= 6 EnMin= -4985.44238782692     IErMin= 8 ErrMin= 5.95D-08
 ErrMax= 5.95D-08  0.00D+00 EMaxC= 1.00D-01 BMatC= 4.56D-11 BMatP= 5.92D-10
 IDIUse=1 WtCom= 1.00D+00 WtEn= 0.00D+00
 Coeff-Com: -0.243D-03 0.747D-02 0.363D-02-0.437D-01-0.293D-01 0.865D-01
 Coeff-Com:  0.252D+00 0.724D+00
 Coeff:     -0.243D-03 0.747D-02 0.363D-02-0.437D-01-0.293D-01 0.865D-01
 Coeff:      0.252D+00 0.724D+00
 Gap=     0.280 Goal=   None    Shift=    0.000
 Gap=     0.280 Goal=   None    Shift=    0.000
 RMSDP=7.22D-09 MaxDP=3.96D-07 DE=-9.08D-10 OVMax= 1.49D-06

 SCF Done:  E(ULC-wPBE) =  -4985.44238782     A.U. after   16 cycles
            NFock= 16  Conv=0.72D-08     -V/T= 2.0045
 <Sx>= 0.0000 <Sy>= 0.0000 <Sz>= 0.0000 <S**2>=-0.0000 S=-0.0000
 <L.S>= 0.000000000000E+00
 KE= 4.963246108002D+03 PE=-2.884754245797D+04 EE= 1.034889037235D+04
 Annihilation of the first spin contaminant:
 S**2 before annihilation    -0.0000,   after    -0.0000
[...]
    22 C(13)  Bbb     0.0000     0.000     0.000     0.000  0.8586 -0.3849 -0.3386
              Bcc     0.0000     0.000     0.000     0.000  0.1266 -0.4809  0.8676
 
              Baa    -0.0000    -0.000    -0.000    -0.000  1.0000  0.0049 -0.0038
    23 F(19)  Bbb     0.0000     0.000     0.000     0.000 -0.0059  0.9371 -0.3491
              Bcc     0.0000     0.000     0.000     0.000  0.0018  0.3491  0.9371
 
              Baa    -0.0000    -0.000    -0.000    -0.000  0.5420  0.7937  0.2763
    24 C(13)  Bbb     0.0000     0.000     0.000     0.000  0.8265 -0.5629 -0.0044
              Bcc     0.0000     0.000     0.000     0.000 -0.1520 -0.2307  0.9611
 
              Baa    -0.0000    -0.000    -0.000    -0.000 -0.0866 -0.3610  0.9285
    25 C(13)  Bbb    -0.0000    -0.000    -0.000    -0.000  0.9237  0.3201  0.2106
              Bcc     0.0000     0.000     0.000     0.000 -0.3733  0.8759  0.3057
 
              Baa    -0.0000    -0.000    -0.000    -0.000 -0.1140  0.9784  0.1722
    26 S(33)  Bbb     0.0000     0.000     0.000     0.000 -0.0256 -0.1762  0.9840
              Bcc     0.0000     0.000     0.000     0.000  0.9931  0.1078  0.0452
 
              Baa    -0.0000    -0.000    -0.000    -0.000  0.0782  0.0945  0.9925
    27 C(13)  Bbb     0.0000     0.000     0.000     0.000  0.3605  0.9254 -0.1165
              Bcc     0.0000     0.000     0.000     0.000  0.9295 -0.3669 -0.0383
 
              Baa    -0.0000    -0.000    -0.000    -0.000 -0.5124  0.8288 -0.2247
    28 C(13)  Bbb    -0.0000    -0.000    -0.000    -0.000 -0.0403  0.2381  0.9704
              Bcc     0.0000     0.000     0.000     0.000  0.8578  0.5063 -0.0886
 
              Baa    -0.0000    -0.000    -0.000    -0.000  0.0126  0.9984 -0.0556
    29 N(14)  Bbb     0.0000     0.000     0.000     0.000  0.1767  0.0525  0.9829
              Bcc     0.0000     0.000     0.000     0.000  0.9842 -0.0222 -0.1758
 
              Baa    -0.0000    -0.000    -0.000    -0.000  0.2504  0.2044  0.9463
    30 C(13)  Bbb    -0.0000    -0.000    -0.000    -0.000  0.9363  0.1975 -0.2904
              Bcc     0.0000     0.000     0.000     0.000 -0.2462  0.9588 -0.1419
 
              Baa    -0.0000    -0.000    -0.000    -0.000  0.1239  0.0048  0.9923
    31 C(13)  Bbb     0.0000     0.000     0.000     0.000  0.1165  0.9930 -0.0194
              Bcc     0.0000     0.000     0.000     0.000  0.9854 -0.1180 -0.1225
 
              Baa    -0.0000    -0.000    -0.000    -0.000  0.6403  0.7632 -0.0871
    32 F(19)  Bbb     0.0000     0.000     0.000     0.000  0.5104 -0.3380  0.7907
              Bcc     0.0000     0.000     0.000     0.000 -0.5740  0.5508  0.6059
 
              Baa    -0.0000    -0.000    -0.000    -0.000  0.3170  0.9344 -0.1621
    33 C(13)  Bbb     0.0000     0.000     0.000     0.000  0.9430 -0.2924  0.1589
              Bcc     0.0000     0.000     0.000     0.000 -0.1011  0.2033  0.9739
 
              Baa    -0.0000    -0.000    -0.000    -0.000 -0.3010  0.9330 -0.1973
    34 C(13)  Bbb    -0.0000    -0.000    -0.000    -0.000  0.0593  0.2249  0.9726
              Bcc     0.0000     0.000     0.000     0.000  0.9518  0.2810 -0.1230
 
              Baa    -0.0000    -0.000    -0.000    -0.000  0.8917  0.4142 -0.1826
    35 C(13)  Bbb    -0.0000    -0.000    -0.000    -0.000  0.1226  0.1674  0.9782
              Bcc     0.0000     0.000     0.000     0.000 -0.4357  0.8947 -0.0985
 
              Baa    -0.0000    -0.000    -0.000    -0.000 -0.4934  0.8680 -0.0552
    36 F(19)  Bbb     0.0000     0.000     0.000     0.000  0.6370  0.4038  0.6567
              Bcc     0.0000     0.000     0.000     0.000 -0.5923 -0.2889  0.7522
 
              Baa    -0.0000    -0.000    -0.000    -0.000  0.8948 -0.1681 -0.4136
    37 C(13)  Bbb    -0.0000    -0.000    -0.000    -0.000  0.3809 -0.1958  0.9037
              Bcc     0.0000     0.000     0.000     0.000  0.2329  0.9661  0.1112
 
              Baa    -0.0000    -0.000    -0.000    -0.000  0.1577  0.9842 -0.0805
    38 C(13)  Bbb     0.0000     0.000     0.000     0.000  0.7057 -0.1693 -0.6880
              Bcc     0.0000     0.000     0.000     0.000  0.6908 -0.0517  0.7212
 
              Baa    -0.0000    -0.000    -0.000    -0.000  0.1533  0.9878 -0.0273
    39 S(33)  Bbb     0.0000     0.000     0.000     0.000  0.1245  0.0081  0.9922
              Bcc     0.0000     0.000     0.000     0.000  0.9803 -0.1555 -0.1218
 
              Baa    -0.0000    -0.000    -0.000    -0.000  0.7998  0.5195 -0.3007
    40 C(13)  Bbb     0.0000     0.000     0.000     0.000 -0.4184  0.8417  0.3414
              Bcc     0.0000     0.000     0.000     0.000  0.4305 -0.1473  0.8905
 
              Baa    -0.0000    -0.000    -0.000    -0.000 -0.3282  0.9247  0.1932
    41 C(13)  Bbb     0.0000     0.000     0.000     0.000  0.0225 -0.1968  0.9802
              Bcc     0.0000     0.000     0.000     0.000  0.9444  0.3260  0.0438
 
              Baa    -0.0000    -0.000    -0.000    -0.000 -0.2830  0.9499  0.1329
    42 N(14)  Bbb     0.0000     0.000     0.000     0.000 -0.1659 -0.1849  0.9686
              Bcc     0.0000     0.000     0.000     0.000  0.9447  0.2521  0.2099
 
              Baa    -0.0000    -0.000    -0.000    -0.000 -0.3822  0.9107  0.1565
    43 C(13)  Bbb     0.0000     0.000     0.000     0.000 -0.1346 -0.2225  0.9656
              Bcc     0.0000     0.000     0.000     0.000  0.9142  0.3480  0.2076
 
              Baa    -0.0000    -0.000    -0.000    -0.000  0.8423  0.3429 -0.4158
    44 C(13)  Bbb    -0.0000    -0.000    -0.000    -0.000 -0.1771  0.9048  0.3873
              Bcc     0.0000     0.000     0.000     0.000  0.5091 -0.2526  0.8228
 
              Baa    -0.0000    -0.000    -0.000    -0.000 -0.4526  0.7441 -0.4913
    45 F(19)  Bbb    -0.0000    -0.000    -0.000    -0.000  0.1043  0.5914  0.7996
              Bcc     0.0000     0.000     0.000     0.000  0.8856  0.3107 -0.3453
 
              Baa    -0.0000    -0.000    -0.000    -0.000  0.7217  0.3752 -0.5817
    46 C(13)  Bbb     0.0000     0.000     0.000     0.000  0.6489 -0.0738  0.7573
              Bcc     0.0000     0.000     0.000     0.000 -0.2412  0.9240  0.2967
 
              Baa    -0.0000    -0.000    -0.000    -0.000  0.6728  0.1933  0.7141
    47 C(13)  Bbb    -0.0000    -0.000    -0.000    -0.000  0.7339 -0.0522 -0.6773
              Bcc     0.0000     0.000     0.000     0.000 -0.0937  0.9798 -0.1769
 
              Baa    -0.0000    -0.000    -0.000    -0.000  0.9408 -0.3284  0.0838
    48 C(13)  Bbb     0.0000     0.000     0.000     0.000  0.3114  0.9352  0.1686
              Bcc     0.0000     0.000     0.000     0.000 -0.1337 -0.1325  0.9821
 
              Baa    -0.0000    -0.000    -0.000    -0.000  0.9581 -0.2466  0.1460
    49 F(19)  Bbb     0.0000     0.000     0.000     0.000  0.2865  0.8320 -0.4751
              Bcc     0.0000     0.000     0.000     0.000 -0.0043  0.4971  0.8677
 
              Baa    -0.0000    -0.000    -0.000    -0.000 -0.1467  0.4508  0.8805
    50 C(13)  Bbb    -0.0000    -0.000    -0.000    -0.000  0.8396 -0.4139  0.3519
              Bcc     0.0000     0.000     0.000     0.000  0.5231  0.7908 -0.3178
 
              Baa    -0.0000    -0.000    -0.000    -0.000  0.8656  0.4899 -0.1039
    51 C(13)  Bbb    -0.0000    -0.000    -0.000    -0.000 -0.4938  0.8694 -0.0145
              Bcc     0.0000     0.000     0.000     0.000  0.0832  0.0639  0.9945
 
              Baa    -0.0000    -0.000    -0.000    -0.000  0.9775 -0.1683  0.1273
    52 S(33)  Bbb     0.0000     0.000     0.000     0.000 -0.0821  0.2529  0.9640
              Bcc     0.0000     0.000     0.000     0.000  0.1944  0.9528 -0.2334
 
              Baa    -0.0000    -0.000    -0.000    -0.000  0.7564  0.1581 -0.6347
    53 C(13)  Bbb    -0.0000    -0.000    -0.000    -0.000  0.0222  0.9636  0.2665
              Bcc     0.0000     0.000     0.000     0.000  0.6537 -0.2156  0.7253
 
              Baa    -0.0000    -0.000    -0.000    -0.000  0.8537  0.3995 -0.3340
    54 C(13)  Bbb    -0.0000    -0.000    -0.000    -0.000  0.0449  0.5825  0.8116
              Bcc     0.0000     0.000     0.000     0.000 -0.5188  0.7079 -0.4793
 
              Baa    -0.0000    -0.000    -0.000    -0.000  0.5213  0.6803  0.5151
    55 N(14)  Bbb     0.0000     0.000     0.000     0.000  0.8513 -0.3725 -0.3696
              Bcc     0.0000     0.000     0.000     0.000  0.0596 -0.6312  0.7733
 
              Baa    -0.0000    -0.000    -0.000    -0.000  0.6833  0.7278 -0.0576
    56 C(13)  Bbb    -0.0000    -0.000    -0.000    -0.000  0.7247 -0.6665  0.1752
              Bcc     0.0000     0.000     0.000     0.000 -0.0891  0.1615  0.9828
 
              Baa    -0.0000    -0.000    -0.000    -0.000 -0.3527  0.8534 -0.3839
    57 C(13)  Bbb     0.0000     0.000     0.000     0.000  0.0642  0.4314  0.8999
              Bcc     0.0000     0.000     0.000     0.000  0.9335  0.2927 -0.2069
 
              Baa    -0.0000    -0.000    -0.000    -0.000  0.7302 -0.6790  0.0757
    58 F(19)  Bbb    -0.0000    -0.000    -0.000    -0.000  0.3329  0.4505  0.8284
              Bcc     0.0000     0.000     0.000     0.000  0.5966  0.5797 -0.5550
 
              Baa    -0.0000    -0.000    -0.000    -0.000 -0.1150 -0.1665  0.9793
    59 C(13)  Bbb     0.0000     0.000     0.000     0.000 -0.5634  0.8229  0.0737
              Bcc     0.0000     0.000     0.000     0.000  0.8182  0.5432  0.1885
 
              Baa    -0.0000    -0.000    -0.000    -0.000 -0.6757  0.7223 -0.1476
    60 C(13)  Bbb     0.0000     0.000     0.000     0.000  0.7344  0.6420 -0.2204
              Bcc     0.0000     0.000     0.000     0.000  0.0644  0.2573  0.9642
 
              Baa    -0.0000    -0.000    -0.000    -0.000 -0.5315  0.6066 -0.5912
    61 C(13)  Bbb    -0.0000    -0.000    -0.000    -0.000 -0.2526  0.5526  0.7942
              Bcc     0.0000     0.000     0.000     0.000  0.8085  0.5715 -0.1405
 
              Baa    -0.0000    -0.000    -0.000    -0.000  0.9192  0.3855 -0.0807
    62 F(19)  Bbb     0.0000     0.000     0.000     0.000 -0.1193  0.4677  0.8758
              Bcc     0.0000     0.000     0.000     0.000 -0.3754  0.7954 -0.4759
 
              Baa    -0.0000    -0.000    -0.000    -0.000 -0.0597  0.2025  0.9775
    63 C(13)  Bbb     0.0000     0.000     0.000     0.000  0.9489  0.3154 -0.0074
              Bcc     0.0000     0.000     0.000     0.000 -0.3097  0.9271 -0.2110
 
              Baa    -0.0000    -0.000    -0.000    -0.000  0.0064  0.2532  0.9674
    64 C(13)  Bbb    -0.0000    -0.000    -0.000    -0.000  1.0000 -0.0043 -0.0055
              Bcc     0.0000     0.000     0.000     0.000  0.0028  0.9674 -0.2532
 
              Baa    -0.0000    -0.000    -0.000    -0.000  0.3766  0.9228 -0.0816
    65 S(33)  Bbb    -0.0000    -0.000    -0.000    -0.000 -0.0810  0.1206  0.9894
              Bcc     0.0000     0.000     0.000     0.000  0.9228 -0.3660  0.1201
 
              Baa    -0.0000    -0.000    -0.000    -0.000  0.0572  0.0612  0.9965
    66 H(1)   Bbb    -0.0000    -0.000    -0.000    -0.000  0.0451  0.9969 -0.0638
              Bcc     0.0000     0.000     0.000     0.000  0.9973 -0.0486 -0.0543
 
              Baa    -0.0000    -0.000    -0.000    -0.000  0.5773  0.4209  0.6997
    67 H(1)   Bbb    -0.0000    -0.000    -0.000    -0.000 -0.6529 -0.2767  0.7051
              Bcc     0.0000     0.000     0.000     0.000 -0.4904  0.8639 -0.1151
 
              Baa    -0.0000    -0.000    -0.000    -0.000  0.0765  0.0580  0.9954
    68 H(1)   Bbb    -0.0000    -0.000    -0.000    -0.000  0.8518  0.5152 -0.0955
              Bcc     0.0000     0.000     0.000     0.000 -0.5183  0.8551 -0.0100
 
              Baa    -0.0000    -0.000    -0.000    -0.000  0.8472 -0.2587 -0.4641
    69 H(1)   Bbb     0.0000     0.000     0.000     0.000  0.3455  0.9318  0.1113
              Bcc     0.0000     0.000     0.000     0.000  0.4037 -0.2546  0.8787
 
              Baa    -0.0000    -0.000    -0.000    -0.000  0.1016  0.9900 -0.0978
    70 H(1)   Bbb    -0.0000    -0.000    -0.000    -0.000  0.9858 -0.1134 -0.1235
              Bcc     0.0000     0.000     0.000     0.000  0.1333  0.0839  0.9875
 
              Baa    -0.0000    -0.000    -0.000    -0.000 -0.1859  0.0623  0.9806
    71 H(1)   Bbb    -0.0000    -0.000    -0.000    -0.000  0.4774  0.8780  0.0347
              Bcc     0.0000     0.000     0.000     0.000  0.8588 -0.4746  0.1929
 
              Baa    -0.0000    -0.000    -0.000    -0.000  0.2341  0.7332  0.6384
    72 H(1)   Bbb     0.0000     0.000     0.000     0.000  0.9017 -0.4093  0.1394
              Bcc     0.0000     0.000     0.000     0.000 -0.3635 -0.5430  0.7570
 
              Baa    -0.0000    -0.000    -0.000    -0.000  0.1594  0.2821  0.9460
    73 H(1)   Bbb    -0.0000    -0.000    -0.000    -0.000  0.8897 -0.4564 -0.0139
              Bcc     0.0000     0.000     0.000     0.000  0.4279  0.8439 -0.3237
 
              Baa    -0.0000    -0.000    -0.000    -0.000 -0.5144  0.8446 -0.1489
    74 H(1)   Bbb     0.0000     0.000     0.000     0.000 -0.5546 -0.1952  0.8089
              Bcc     0.0000     0.000     0.000     0.000  0.6541  0.4986  0.5688
 
              Baa    -0.0000    -0.000    -0.000    -0.000  0.2489  0.0686  0.9661
    75 H(1)   Bbb     0.0000     0.000     0.000     0.000  0.7487  0.6192 -0.2369
              Bcc     0.0000     0.000     0.000     0.000 -0.6144  0.7823  0.1028
 
              Baa    -0.0000    -0.000    -0.000    -0.000  0.4535  0.7540 -0.4752
    76 H(1)   Bbb     0.0000     0.000     0.000     0.000 -0.1512  0.5905  0.7927
              Bcc     0.0000     0.000     0.000     0.000  0.8783 -0.2877  0.3818
 
              Baa    -0.0000    -0.000    -0.000    -0.000  0.7595 -0.4143  0.5015
    77 H(1)   Bbb     0.0000     0.000     0.000     0.000 -0.0685  0.7157  0.6950
              Bcc     0.0000     0.000     0.000     0.000  0.6469  0.5622 -0.5152
 
              Baa    -0.0000    -0.000    -0.000    -0.000  0.1633 -0.1587  0.9737
    78 H(1)   Bbb    -0.0000    -0.000    -0.000    -0.000 -0.6188  0.7522  0.2264
              Bcc     0.0000     0.000     0.000     0.000  0.7684  0.6395 -0.0246
 
              Baa    -0.0000    -0.000    -0.000    -0.000  0.4748  0.4810  0.7370
    79 H(1)   Bbb     0.0000     0.000     0.000     0.000  0.8716 -0.1407 -0.4696
              Bcc     0.0000     0.000     0.000     0.000 -0.1222  0.8653 -0.4861
 
              Baa    -0.0000    -0.000    -0.000    -0.000 -0.6933  0.7009 -0.1676
    80 H(1)   Bbb    -0.0000    -0.000    -0.000    -0.000  0.5272  0.6519  0.5451
              Bcc     0.0000     0.000     0.000     0.000 -0.4913 -0.2895  0.8215
 
              Baa    -0.0000    -0.000    -0.000    -0.000  0.9615  0.2261 -0.1559
    81 H(1)   Bbb    -0.0000    -0.000    -0.000    -0.000  0.1614 -0.0061  0.9869
              Bcc     0.0000     0.000     0.000     0.000 -0.2222  0.9741  0.0424
 
              Baa    -0.0000    -0.000    -0.000    -0.000  0.0037  0.2174  0.9761
    82 H(1)   Bbb    -0.0000    -0.000    -0.000    -0.000 -0.6115  0.7728 -0.1698
              Bcc     0.0000     0.000     0.000     0.000  0.7912  0.5963 -0.1358
 

 ---------------------------------------------------------------------------------

 No NMR shielding tensors so no spin-rotation constants.
 Leave Link  601 at Fri Jul 24 08:18:19 2020, MaxMem=  4026531840 cpu:              12.5 elap:               1.7
 (Enter /opt/ohpc/pub/libs/gaussian/g16-A.03/sandybridge/g16/l9999.exe)

 Test job not archived.
 1\1\GINC-SKYLAKE041\FOpt\ULC-wPBE\CC-pVDZ\C45H17F10N5S5\RDU230\24-Jul-
 2020\0\\#P uLC-wPBE/cc-pVDZ iop(3/107=0369100000, 3/108=0369100000) op
 t\\H17 C45 S5 N5 F10\\0,1\C,19.1197100005,0.9912854219,-0.0764886357\C
 ,18.2258426807,-0.0686611486,0.0296861\N,16.9162159896,0.092730509,0.1
 793577366\C,16.4118710604,1.3302164094,0.2299354441\C,17.2448940781,2.
 4411792414,0.0844402709\F,16.7282417608,3.6738667883,0.0499658402\C,18
 .6106517269,2.2811963019,-0.0565526589\C,14.9536034701,1.4252249153,0.
 385211043\C,14.1479597398,2.3814047107,0.9426408353\F,14.5942123533,3.
 4994012448,1.5166471386\C,12.7643177842,2.0794386616,0.9222846383\C,12
 .5241584298,0.8614429131,0.3475695068\S,13.9859315298,0.099367284,-0.1
 557572301\C,11.2226518478,0.2070185649,0.1495822881\C,10.065694633,0.9
 608555679,-0.0752771625\N,8.8655972317,0.4331798805,-0.2617490596\C,8.
 71744843,-0.8961210535,-0.2493665523\C,9.8180598046,-1.7179904544,-0.0
 000652342\F,9.6655834976,-3.041818412,0.0978903247\C,11.0736325754,-1.
 1778779862,0.1910903117\C,7.352571202,-1.3967905552,-0.4506866348\C,6.
 8699059985,-2.5717881099,-0.9625156789\F,7.6344228706,-3.5582825557,-1
 .4320445987\C,5.4580629101,-2.6611496142,-1.0145001115\C,4.8632349376,
 -1.5221750764,-0.543891031\S,6.031854977,-0.3565862351,-0.0481337253\C
 ,3.42338101,-1.2439335667,-0.4457489094\C,2.9052110687,0.0490272979,-0
 .5711245791\N,1.6171161389,0.3461872773,-0.4933395164\C,0.7237196018,-
 0.6260620278,-0.2893469678\C,1.1651977019,-1.9468314174,-0.1624523528\
 F,0.2759885727,-2.9339463591,0.04494007\C,2.5023151525,-2.2683008165,-
 0.231853564\C,-0.6901508585,-0.2370891935,-0.2072123473\C,-1.208567861
 7,1.0341831798,-0.272842692\F,-0.4857888778,2.1403343762,-0.4066610979
 \C,-2.6180188331,1.1123246451,-0.1737930181\C,-3.1849630672,-0.1230840
 194,-0.0296215673\S,-1.9946066783,-1.3667622045,-0.0240791296\C,-4.612
 4864085,-0.4471033956,0.104642558\C,-5.5896190974,0.3439890458,-0.5089
 290801\N,-6.8896055764,0.1054878242,-0.4286146344\C,-7.328186556,-0.95
 07129137,0.2653588141\C,-6.4179156779,-1.77143322,0.9342756302\F,-6.84
 93321335,-2.7781872032,1.69917236\C,-5.0609030911,-1.5341607201,0.8525
 627157\C,-8.7831753426,-1.1342497514,0.313642183\C,-9.5656429822,-2.24
 69607041,0.4728241693\F,-9.0917657409,-3.4861378817,0.6064298476\C,-10
 .9601416037,-2.0045909488,0.4319641098\C,-11.2346107501,-0.6803646807,
 0.2248155171\S,-9.7915919069,0.2504605626,0.0785234005\C,-12.557022756
 9,-0.0458060594,0.1224471873\C,-13.6500780287,-0.5432402872,0.83900401
 99\N,-14.8649760489,-0.017384919,0.7930490751\C,-15.0919257831,1.05868
 69406,0.0321111618\C,-14.0595919979,1.59646888,-0.7397309012\F,-14.296
 2594348,2.6180812532,-1.5679237612\C,-12.7895021658,1.0591212888,-0.69
 46363504\C,-16.4656483859,1.575991897,0.0246126648\C,-16.9629980172,2.
 8377804072,-0.1646974656\F,-16.2087160432,3.9168558068,-0.3835573145\C
 ,-18.3748476119,2.9406847415,-0.0652365756\C,-18.9318238447,1.72974025
 81,0.2145731537\S,-17.7654696423,0.4884121098,0.3698497086\H,20.190153
 5891,0.8100551547,-0.1870028133\H,18.5802494318,-1.1035502101,-0.00712
 02606\H,19.2425651002,3.1650098525,-0.1619035655\H,12.0070224001,2.731
 3657058,1.3558232847\H,10.1224325788,2.052826934,-0.1203858762\H,11.91
 09334114,-1.8472558079,0.4000668671\H,4.932184905,-3.523311536,-1.4230
 345956\H,3.5779548726,0.8931400602,-0.7584704113\H,2.8059529033,-3.308
 2166516,-0.1003189348\H,-3.1595196788,2.0572365687,-0.1816685662\H,-5.
 2967793293,1.2100900198,-1.1104019596\H,-4.3771286211,-2.1855766538,1.
 4010300183\H,-11.7041158115,-2.7958673323,0.5139670709\H,-13.525972681
 4,-1.407977821,1.4983829734\H,-12.0087115934,1.4934676014,-1.322786176
 6\H,-18.9192869862,3.8756847691,-0.1891229002\H,-19.9886724521,1.50371
 76308,0.3486361586\\Version=EM64L-G16RevA.03\State=1-A\HF=-4985.580347
 3\S2=0.\S2-1=0.\S2A=0.\RMSD=7.763e-09\RMSF=7.538e-06\Dipole=1.8277395,
 -0.3567978,0.0337233\Quadrupole=67.5223577,-30.7989983,-36.7233595,2.5
 890152,-1.9765539,0.02398\PG=C01 [X(C45H17F10N5S5)]\\@


 THE MOST INCOMPREHENSIBLE THING ABOUT THE WORLD
 IS THAT IT IS COMPREHENSIBLE. -- A. EINSTEIN
 Job cpu time:       1 days  8 hours 24 minutes  5.9 seconds.
 Elapsed time:       0 days  4 hours  7 minutes 40.2 seconds.
 File lengths (MBytes):  RWF=   1180 Int=      0 D2E=      0 Chk=    108 Scr=      8
 Normal termination of Gaussian 16 at Fri Jul 24 08:18:19 2020.
