 Entering Gaussian System, Link 0=g16
 Input=mols_65_7_01_c-c-N_opt_0.gjf
 Output=mols_65_7_01_c-c-N_opt_0.log
 Initial command:
 /opt/ohpc/pub/libs/gaussian/g16-A.03/sandybridge/g16/l1.exe "/mnt/gpfs2_4m/scratch/rdu230/ondemand/projects/dihedral_energies/7trial/wtuning/mols_65_7_01_c-c-N/Gau-365097.inp" -scrdir="/mnt/gpfs2_4m/scratch/rdu230/ondemand/projects/dihedral_energies/7trial/wtuning/mols_65_7_01_c-c-N/"
 Entering Link 1 = /opt/ohpc/pub/libs/gaussian/g16-A.03/sandybridge/g16/l1.exe PID=    365098.
  
 Copyright (c) 1988,1990,1992,1993,1995,1998,2003,2009,2016,
            Gaussian, Inc.  All Rights Reserved.
  
 This is part of the Gaussian(R) 16 program.  It is based on
 the Gaussian(R) 09 system (copyright 2009, Gaussian, Inc.),
 the Gaussian(R) 03 system (copyright 2003, Gaussian, Inc.),
 the Gaussian(R) 98 system (copyright 1998, Gaussian, Inc.),
 the Gaussian(R) 94 system (copyright 1995, Gaussian, Inc.),
 the Gaussian 92(TM) system (copyright 1992, Gaussian, Inc.),
 the Gaussian 90(TM) system (copyright 1990, Gaussian, Inc.),
 the Gaussian 88(TM) system (copyright 1988, Gaussian, Inc.),
 the Gaussian 86(TM) system (copyright 1986, Carnegie Mellon
 University), and the Gaussian 82(TM) system (copyright 1983,
 Carnegie Mellon University). Gaussian is a federally registered
 trademark of Gaussian, Inc.
  
 This software contains proprietary and confidential information,
 including trade secrets, belonging to Gaussian, Inc.
  
 This software is provided under written license and may be
 used, copied, transmitted, or stored only in accord with that
 written license.
  
 The following legend is applicable only to US Government
 contracts under FAR:
  
                    RESTRICTED RIGHTS LEGEND
  
 Use, reproduction and disclosure by the US Government is
 subject to restrictions as set forth in subparagraphs (a)
 and (c) of the Commercial Computer Software - Restricted
 Rights clause in FAR 52.227-19.
  
 Gaussian, Inc.
 340 Quinnipiac St., Bldg. 40, Wallingford CT 06492
  
  
 ---------------------------------------------------------------
 Warning -- This program may not be used in any manner that
 competes with the business of Gaussian, Inc. or will provide
 assistance to any competitor of Gaussian, Inc.  The licensee
 of this program is prohibited from giving any competitor of
 Gaussian, Inc. access to this program.  By using this program,
 the user acknowledges that Gaussian, Inc. is engaged in the
 business of creating and licensing software in the field of
 computational chemistry and represents and warrants to the
 licensee that it is not a competitor of Gaussian, Inc. and that
 it will not use this program in any manner prohibited above.
 ---------------------------------------------------------------
  

 Cite this work as:
 Gaussian 16, Revision A.03,
 M. J. Frisch, G. W. Trucks, H. B. Schlegel, G. E. Scuseria, 
 M. A. Robb, J. R. Cheeseman, G. Scalmani, V. Barone, 
 G. A. Petersson, H. Nakatsuji, X. Li, M. Caricato, A. V. Marenich, 
 J. Bloino, B. G. Janesko, R. Gomperts, B. Mennucci, H. P. Hratchian, 
 J. V. Ortiz, A. F. Izmaylov, J. L. Sonnenberg, D. Williams-Young, 
 F. Ding, F. Lipparini, F. Egidi, J. Goings, B. Peng, A. Petrone, 
 T. Henderson, D. Ranasinghe, V. G. Zakrzewski, J. Gao, N. Rega, 
 G. Zheng, W. Liang, M. Hada, M. Ehara, K. Toyota, R. Fukuda, 
 J. Hasegawa, M. Ishida, T. Nakajima, Y. Honda, O. Kitao, H. Nakai, 
 T. Vreven, K. Throssell, J. A. Montgomery, Jr., J. E. Peralta, 
 F. Ogliaro, M. J. Bearpark, J. J. Heyd, E. N. Brothers, K. N. Kudin, 
 V. N. Staroverov, T. A. Keith, R. Kobayashi, J. Normand, 
 K. Raghavachari, A. P. Rendell, J. C. Burant, S. S. Iyengar, 
 J. Tomasi, M. Cossi, J. M. Millam, M. Klene, C. Adamo, R. Cammi, 
 J. W. Ochterski, R. L. Martin, K. Morokuma, O. Farkas, 
 J. B. Foresman, and D. J. Fox, Gaussian, Inc., Wallingford CT, 2016.
 
 ******************************************
 Gaussian 16:  EM64L-G16RevA.03 25-Dec-2016
                24-Jul-2020 
 ******************************************
 %mem=30GB
 %nproc=8
 Will use up to    8 processors via shared memory.
 ---------------------------------------------------------------
 #P uLC-wPBE/cc-pVDZ iop(3/107=0296400000, 3/108=0296400000) opt
 ---------------------------------------------------------------
 1/18=20,19=15,26=3,38=1/1,3;
 2/9=110,12=2,17=6,18=5,40=1/2;
 3/5=16,11=2,25=1,30=1,71=1,74=-41,107=296400000,108=296400000,116=2/1,2,3;
 4//1;
 5/5=2,38=5/2;
 6/7=2,8=2,9=2,10=2,28=1/1;
 7//1,2,3,16;
 1/18=20,19=15,26=3/3(2);
 2/9=110/2;
 99//99;
 2/9=110/2;
 3/5=16,11=2,25=1,30=1,71=1,74=-41,107=296400000,108=296400000,116=2/1,2,3;
 4/5=5,16=3,69=1/1;
 5/5=2,38=5/2;
 7//1,2,3,16;
 1/18=20,19=15,26=3/3(-5);
 2/9=110/2;
 6/7=2,8=2,9=2,10=2,19=2,28=1/1;
 99/9=1/99;
 Leave Link    1 at Fri Jul 24 03:21:05 2020, MaxMem=  4026531840 cpu:               0.7 elap:               0.2
 (Enter /opt/ohpc/pub/libs/gaussian/g16-A.03/sandybridge/g16/l101.exe)
 -------------
 H37 C63 S7 N7
 -------------
 Symbolic Z-matrix:
 Charge =  0 Multiplicity = 1
 C                    -27.20883   1.76572   0.62071 
 C                    -26.81142   0.47603   0.87596 
 C                    -25.40852   0.17537   0.67098 
 C                    -24.51814   1.07561   0.26076 
 C                    -24.9085   2.41552  -0.03995 
 C                    -26.24761   2.7057    0.11088 
 C                    -23.08935   0.68065   0.11058 
 N                    -22.71318  -0.61599   0.10898 
 C                    -21.3531  -0.73217  -0.10799 
 C                    -20.6623   0.51487  -0.11616 
 S                    -21.76336   1.74242  -0.04295 
 C                    -19.17914   0.75071  -0.19006 
 C                    -18.28063   0.03088   0.61205 
 C                    -16.97007   0.20299   0.49778 
 C                    -16.33707   1.09077  -0.38727 
 C                    -17.31892   1.77398  -1.21637 
 C                    -18.68196   1.63634  -1.16894 
 C                    -14.94691   1.30154  -0.60428 
 N                    -14.39328   2.17862  -1.32464 
 C                    -13.04465   2.12094  -1.33653 
 C                    -12.52989   1.20929  -0.47182 
 S                    -13.74424   0.32218   0.31566 
 C                    -11.06417   0.87042  -0.22134 
 C                    -10.66008   0.6751    1.09177 
 C                    -9.24751   0.35095   1.38313 
 C                    -8.38597   0.22234   0.35275 
 C                    -8.87407   0.4531   -1.00761 
 C                    -10.12667   0.79999  -1.22871 
 C                    -6.98603  -0.12062   0.62048 
 N                    -6.50706  -0.30687   1.91446 
 C                    -5.17211  -0.6941    1.80807 
 C                    -4.63468  -0.77255   0.60565 
 S                    -5.83327  -0.44819  -0.57023 
 C                    -3.24596  -1.135     0.28245 
 C                    -2.18713  -0.6738    1.06068 
 C                    -0.83009  -1.08358   0.75063 
 C                    -0.5502   -1.88517  -0.37032 
 C                    -1.64897  -2.29921  -1.16095 
 C                    -2.8944   -1.98188  -0.82486 
 C                     0.86725  -2.19313  -0.72989 
 N                     1.11085  -2.86678  -1.90842 
 C                     2.53368  -3.09545  -1.99423 
 C                     3.26446  -2.60825  -0.85308 
 S                     2.18084  -1.89261   0.19987 
 C                     4.74266  -2.67546  -0.7096 
 C                     5.46519  -3.78755  -1.12467 
 C                     6.79941  -3.85186  -0.92214 
 C                     7.53142  -2.79625  -0.22956 
 C                     6.75122  -1.65772   0.12844 
 C                     5.46262  -1.60549  -0.06427 
 C                     9.01819  -2.96345  -0.10076 
 N                     9.63968  -4.07557  -0.31177 
 C                     11.04152  -3.8464   -0.12205 
 C                     11.34761  -2.57429   0.25204 
 S                     10.01078  -1.56449   0.29414 
 C                     12.73719  -1.9858    0.56464 
 C                     12.95368  -1.21259   1.68178 
 C                     14.18055  -0.63397   1.85235 
 C                     15.32253  -0.8418    0.91488 
 C                     15.04734  -1.6732   -0.21017 
 C                     13.78645  -2.19726  -0.3976 
 C                     16.56173  -0.22611   1.17624 
 N                     16.92168   0.3032    2.31949 
 C                     18.21155   0.93476   2.27542 
 C                     18.78021   0.87584   0.97253 
 S                     17.73042   0.06803  -0.09433 
 C                     19.99665   1.4553    0.54714 
 C                     20.9646   0.80485  -0.19035 
 C                     22.16918   1.32814  -0.66153 
 C                     22.45876   2.64517  -0.23224 
 C                     21.58675   3.42349   0.51323 
 C                     20.37665   2.82056   0.96854 
 C                     23.71502   3.24941  -0.75359 
 N                     24.58782   2.64483  -1.55216 
 C                     25.73326   3.39691  -1.84878 
 C                     25.72405   4.62517  -1.25014 
 S                     24.36756   4.79813  -0.26427 
 H                    -28.26594   2.08081   0.68008 
 H                    -27.46546  -0.29246   1.15767 
 H                    -25.09439  -0.90511   0.86832 
 H                    -24.2218   3.19381  -0.3682 
 H                    -26.60525   3.76234  -0.02596 
 H                    -20.83558  -1.68152  -0.10379 
 H                    -18.69931  -0.73496   1.39188 
 H                    -16.29928  -0.33468   1.18873 
 H                    -16.91461   2.4784   -1.92779 
 H                    -19.33076   2.16558  -1.85368 
 H                    -12.4094   2.8632   -1.90242 
 H                    -11.28482   0.72152   2.01701 
 H                    -9.01074   0.13748   2.38744 
 H                    -8.13797   0.40674  -1.84087 
 H                    -10.48567   0.88845  -2.28041 
 H                    -4.69576  -0.86616   2.80063 
 H                    -2.36193  -0.12292   1.90091 
 H                    -0.09215  -0.6748    1.38853 
 H                    -1.36511  -2.91624  -2.06971 
 H                    -3.69326  -2.35532  -1.45236 
 H                     2.96457  -3.57111  -2.8387 
 H                     4.91767  -4.66341  -1.57017 
 H                     7.34462  -4.78378  -1.2271 
 H                     7.30837  -0.80457   0.57279 
 H                     4.85449  -0.73081   0.23912 
 H                     11.68304  -4.64885  -0.14934 
 H                     12.13289  -0.97153   2.36239 
 H                     14.39113   0.01736   2.67901 
 H                     15.84644  -1.85455  -0.89955 
 H                     13.57847  -2.80898  -1.26691 
 H                     18.57743   1.46133   3.14389 
 H                     20.7694  -0.25988  -0.53919 
 H                     22.84164   0.71915  -1.25627 
 H                     21.72083   4.40093   0.85308 
 H                     19.65882   3.3543    1.49208 
 H                     26.41328   2.99403  -2.48433 
 H                     26.49374   5.3189   -1.24189 
 
 ITRead=  0  0  0  0  0  0  0  0  0  0  0  0  0  0  0  0  0  0  0  0
 ITRead=  0  0  0  0  0  0  0  0  0  0  0  0  0  0  0  0  0  0  0  0
 ITRead=  0  0  0  0  0  0  0  0  0  0  0  0  0  0  0  0  0  0  0  0
 ITRead=  0  0  0  0  0  0  0  0  0  0  0  0  0  0  0  0  0  0  0  0
 ITRead=  0  0  0  0  0  0  0  0  0  0  0  0  0  0  0  0  0  0  0  0
 ITRead=  0  0  0  0  0  0  0  0  0  0  0  0  0  0
 MicOpt= -1 -1 -1 -1 -1 -1 -1 -1 -1 -1 -1 -1 -1 -1 -1 -1 -1 -1 -1 -1
 MicOpt= -1 -1 -1 -1 -1 -1 -1 -1 -1 -1 -1 -1 -1 -1 -1 -1 -1 -1 -1 -1
 MicOpt= -1 -1 -1 -1 -1 -1 -1 -1 -1 -1 -1 -1 -1 -1 -1 -1 -1 -1 -1 -1
 MicOpt= -1 -1 -1 -1 -1 -1 -1 -1 -1 -1 -1 -1 -1 -1 -1 -1 -1 -1 -1 -1
 MicOpt= -1 -1 -1 -1 -1 -1 -1 -1 -1 -1 -1 -1 -1 -1 -1 -1 -1 -1 -1 -1
 MicOpt= -1 -1 -1 -1 -1 -1 -1 -1 -1 -1 -1 -1 -1 -1
 NAtoms=    114 NQM=      114 NQMF=       0 NMMI=      0 NMMIF=      0
                NMic=       0 NMicF=      0.
                    Isotopes and Nuclear Properties:
 (Nuclear quadrupole moments (NQMom) in fm**2, nuclear magnetic moments (NMagM)
  in nuclear magnetons)

  Atom         1           2           3           4           5           6           7           8           9          10
 IAtWgt=          12          12          12          12          12          12          12          14          12          12
 AtmWgt=  12.0000000  12.0000000  12.0000000  12.0000000  12.0000000  12.0000000  12.0000000  14.0030740  12.0000000  12.0000000
 NucSpn=           0           0           0           0           0           0           0           2           0           0
 AtZEff=  -0.0000000  -0.0000000  -0.0000000  -0.0000000  -0.0000000  -0.0000000  -0.0000000  -0.0000000  -0.0000000  -0.0000000
 NQMom=    0.0000000   0.0000000   0.0000000   0.0000000   0.0000000   0.0000000   0.0000000   2.0440000   0.0000000   0.0000000
 NMagM=    0.0000000   0.0000000   0.0000000   0.0000000   0.0000000   0.0000000   0.0000000   0.4037610   0.0000000   0.0000000
 AtZNuc=   6.0000000   6.0000000   6.0000000   6.0000000   6.0000000   6.0000000   6.0000000   7.0000000   6.0000000   6.0000000

  Atom        11          12          13          14          15          16          17          18          19          20
 IAtWgt=          32          12          12          12          12          12          12          12          14          12
 AtmWgt=  31.9720718  12.0000000  12.0000000  12.0000000  12.0000000  12.0000000  12.0000000  12.0000000  14.0030740  12.0000000
 NucSpn=           0           0           0           0           0           0           0           0           2           0
 AtZEff=  -0.0000000  -0.0000000  -0.0000000  -0.0000000  -0.0000000  -0.0000000  -0.0000000  -0.0000000  -0.0000000  -0.0000000
 NQMom=    0.0000000   0.0000000   0.0000000   0.0000000   0.0000000   0.0000000   0.0000000   0.0000000   2.0440000   0.0000000
 NMagM=    0.0000000   0.0000000   0.0000000   0.0000000   0.0000000   0.0000000   0.0000000   0.0000000   0.4037610   0.0000000
 AtZNuc=  16.0000000   6.0000000   6.0000000   6.0000000   6.0000000   6.0000000   6.0000000   6.0000000   7.0000000   6.0000000

  Atom        21          22          23          24          25          26          27          28          29          30
 IAtWgt=          12          32          12          12          12          12          12          12          12          14
 AtmWgt=  12.0000000  31.9720718  12.0000000  12.0000000  12.0000000  12.0000000  12.0000000  12.0000000  12.0000000  14.0030740
 NucSpn=           0           0           0           0           0           0           0           0           0           2
 AtZEff=  -0.0000000  -0.0000000  -0.0000000  -0.0000000  -0.0000000  -0.0000000  -0.0000000  -0.0000000  -0.0000000  -0.0000000
 NQMom=    0.0000000   0.0000000   0.0000000   0.0000000   0.0000000   0.0000000   0.0000000   0.0000000   0.0000000   2.0440000
 NMagM=    0.0000000   0.0000000   0.0000000   0.0000000   0.0000000   0.0000000   0.0000000   0.0000000   0.0000000   0.4037610
 AtZNuc=   6.0000000  16.0000000   6.0000000   6.0000000   6.0000000   6.0000000   6.0000000   6.0000000   6.0000000   7.0000000

  Atom        31          32          33          34          35          36          37          38          39          40
 IAtWgt=          12          12          32          12          12          12          12          12          12          12
 AtmWgt=  12.0000000  12.0000000  31.9720718  12.0000000  12.0000000  12.0000000  12.0000000  12.0000000  12.0000000  12.0000000
 NucSpn=           0           0           0           0           0           0           0           0           0           0
 AtZEff=  -0.0000000  -0.0000000  -0.0000000  -0.0000000  -0.0000000  -0.0000000  -0.0000000  -0.0000000  -0.0000000  -0.0000000
 NQMom=    0.0000000   0.0000000   0.0000000   0.0000000   0.0000000   0.0000000   0.0000000   0.0000000   0.0000000   0.0000000
 NMagM=    0.0000000   0.0000000   0.0000000   0.0000000   0.0000000   0.0000000   0.0000000   0.0000000   0.0000000   0.0000000
 AtZNuc=   6.0000000   6.0000000  16.0000000   6.0000000   6.0000000   6.0000000   6.0000000   6.0000000   6.0000000   6.0000000

  Atom        41          42          43          44          45          46          47          48          49          50
 IAtWgt=          14          12          12          32          12          12          12          12          12          12
 AtmWgt=  14.0030740  12.0000000  12.0000000  31.9720718  12.0000000  12.0000000  12.0000000  12.0000000  12.0000000  12.0000000
 NucSpn=           2           0           0           0           0           0           0           0           0           0
 AtZEff=  -0.0000000  -0.0000000  -0.0000000  -0.0000000  -0.0000000  -0.0000000  -0.0000000  -0.0000000  -0.0000000  -0.0000000
 NQMom=    2.0440000   0.0000000   0.0000000   0.0000000   0.0000000   0.0000000   0.0000000   0.0000000   0.0000000   0.0000000
 NMagM=    0.4037610   0.0000000   0.0000000   0.0000000   0.0000000   0.0000000   0.0000000   0.0000000   0.0000000   0.0000000
 AtZNuc=   7.0000000   6.0000000   6.0000000  16.0000000   6.0000000   6.0000000   6.0000000   6.0000000   6.0000000   6.0000000

  Atom        51          52          53          54          55          56          57          58          59          60
 IAtWgt=          12          14          12          12          32          12          12          12          12          12
 AtmWgt=  12.0000000  14.0030740  12.0000000  12.0000000  31.9720718  12.0000000  12.0000000  12.0000000  12.0000000  12.0000000
 NucSpn=           0           2           0           0           0           0           0           0           0           0
 AtZEff=  -0.0000000  -0.0000000  -0.0000000  -0.0000000  -0.0000000  -0.0000000  -0.0000000  -0.0000000  -0.0000000  -0.0000000
 NQMom=    0.0000000   2.0440000   0.0000000   0.0000000   0.0000000   0.0000000   0.0000000   0.0000000   0.0000000   0.0000000
 NMagM=    0.0000000   0.4037610   0.0000000   0.0000000   0.0000000   0.0000000   0.0000000   0.0000000   0.0000000   0.0000000
 AtZNuc=   6.0000000   7.0000000   6.0000000   6.0000000  16.0000000   6.0000000   6.0000000   6.0000000   6.0000000   6.0000000

  Atom        61          62          63          64          65          66          67          68          69          70
 IAtWgt=          12          12          14          12          12          32          12          12          12          12
 AtmWgt=  12.0000000  12.0000000  14.0030740  12.0000000  12.0000000  31.9720718  12.0000000  12.0000000  12.0000000  12.0000000
 NucSpn=           0           0           2           0           0           0           0           0           0           0
 AtZEff=  -0.0000000  -0.0000000  -0.0000000  -0.0000000  -0.0000000  -0.0000000  -0.0000000  -0.0000000  -0.0000000  -0.0000000
 NQMom=    0.0000000   0.0000000   2.0440000   0.0000000   0.0000000   0.0000000   0.0000000   0.0000000   0.0000000   0.0000000
 NMagM=    0.0000000   0.0000000   0.4037610   0.0000000   0.0000000   0.0000000   0.0000000   0.0000000   0.0000000   0.0000000
 AtZNuc=   6.0000000   6.0000000   7.0000000   6.0000000   6.0000000  16.0000000   6.0000000   6.0000000   6.0000000   6.0000000

  Atom        71          72          73          74          75          76          77          78          79          80
 IAtWgt=          12          12          12          14          12          12          32           1           1           1
 AtmWgt=  12.0000000  12.0000000  12.0000000  14.0030740  12.0000000  12.0000000  31.9720718   1.0078250   1.0078250   1.0078250
 NucSpn=           0           0           0           2           0           0           0           1           1           1
 AtZEff=  -0.0000000  -0.0000000  -0.0000000  -0.0000000  -0.0000000  -0.0000000  -0.0000000  -0.0000000  -0.0000000  -0.0000000
 NQMom=    0.0000000   0.0000000   0.0000000   2.0440000   0.0000000   0.0000000   0.0000000   0.0000000   0.0000000   0.0000000
 NMagM=    0.0000000   0.0000000   0.0000000   0.4037610   0.0000000   0.0000000   0.0000000   2.7928460   2.7928460   2.7928460
 AtZNuc=   6.0000000   6.0000000   6.0000000   7.0000000   6.0000000   6.0000000  16.0000000   1.0000000   1.0000000   1.0000000

  Atom        81          82          83          84          85          86          87          88          89          90
 IAtWgt=           1           1           1           1           1           1           1           1           1           1
 AtmWgt=   1.0078250   1.0078250   1.0078250   1.0078250   1.0078250   1.0078250   1.0078250   1.0078250   1.0078250   1.0078250
 NucSpn=           1           1           1           1           1           1           1           1           1           1
 AtZEff=  -0.0000000  -0.0000000  -0.0000000  -0.0000000  -0.0000000  -0.0000000  -0.0000000  -0.0000000  -0.0000000  -0.0000000
 NQMom=    0.0000000   0.0000000   0.0000000   0.0000000   0.0000000   0.0000000   0.0000000   0.0000000   0.0000000   0.0000000
 NMagM=    2.7928460   2.7928460   2.7928460   2.7928460   2.7928460   2.7928460   2.7928460   2.7928460   2.7928460   2.7928460
 AtZNuc=   1.0000000   1.0000000   1.0000000   1.0000000   1.0000000   1.0000000   1.0000000   1.0000000   1.0000000   1.0000000

  Atom        91          92          93          94          95          96          97          98          99         100
 IAtWgt=           1           1           1           1           1           1           1           1           1           1
 AtmWgt=   1.0078250   1.0078250   1.0078250   1.0078250   1.0078250   1.0078250   1.0078250   1.0078250   1.0078250   1.0078250
 NucSpn=           1           1           1           1           1           1           1           1           1           1
 AtZEff=  -0.0000000  -0.0000000  -0.0000000  -0.0000000  -0.0000000  -0.0000000  -0.0000000  -0.0000000  -0.0000000  -0.0000000
 NQMom=    0.0000000   0.0000000   0.0000000   0.0000000   0.0000000   0.0000000   0.0000000   0.0000000   0.0000000   0.0000000
 NMagM=    2.7928460   2.7928460   2.7928460   2.7928460   2.7928460   2.7928460   2.7928460   2.7928460   2.7928460   2.7928460
 AtZNuc=   1.0000000   1.0000000   1.0000000   1.0000000   1.0000000   1.0000000   1.0000000   1.0000000   1.0000000   1.0000000

  Atom       101         102         103         104         105         106         107         108         109         110
 IAtWgt=           1           1           1           1           1           1           1           1           1           1
 AtmWgt=   1.0078250   1.0078250   1.0078250   1.0078250   1.0078250   1.0078250   1.0078250   1.0078250   1.0078250   1.0078250
 NucSpn=           1           1           1           1           1           1           1           1           1           1
 AtZEff=  -0.0000000  -0.0000000  -0.0000000  -0.0000000  -0.0000000  -0.0000000  -0.0000000  -0.0000000  -0.0000000  -0.0000000
 NQMom=    0.0000000   0.0000000   0.0000000   0.0000000   0.0000000   0.0000000   0.0000000   0.0000000   0.0000000   0.0000000
 NMagM=    2.7928460   2.7928460   2.7928460   2.7928460   2.7928460   2.7928460   2.7928460   2.7928460   2.7928460   2.7928460
 AtZNuc=   1.0000000   1.0000000   1.0000000   1.0000000   1.0000000   1.0000000   1.0000000   1.0000000   1.0000000   1.0000000

  Atom       111         112         113         114
 IAtWgt=           1           1           1           1
 AtmWgt=   1.0078250   1.0078250   1.0078250   1.0078250
 NucSpn=           1           1           1           1
 AtZEff=  -0.0000000  -0.0000000  -0.0000000  -0.0000000
 NQMom=    0.0000000   0.0000000   0.0000000   0.0000000
 NMagM=    2.7928460   2.7928460   2.7928460   2.7928460
 AtZNuc=   1.0000000   1.0000000   1.0000000   1.0000000
 Leave Link  101 at Fri Jul 24 03:21:06 2020, MaxMem=  4026531840 cpu:               3.5 elap:               0.8
 (Enter /opt/ohpc/pub/libs/gaussian/g16-A.03/sandybridge/g16/l103.exe)

 GradGradGradGradGradGradGradGradGradGradGradGradGradGradGradGradGradGrad
 Berny optimization.
 Initialization pass.
                           ----------------------------
                           !    Initial Parameters    !
                           ! (Angstroms and Degrees)  !
 --------------------------                            --------------------------
 ! Name  Definition              Value          Derivative Info.                !
 --------------------------------------------------------------------------------
 ! R1    R(1,2)                  1.3735         estimate D2E/DX2                !
 ! R2    R(1,6)                  1.4379         estimate D2E/DX2                !
 ! R3    R(1,78)                 1.1047         estimate D2E/DX2                !
 ! R4    R(2,3)                  1.4493         estimate D2E/DX2                !
 ! R5    R(2,79)                 1.0477         estimate D2E/DX2                !
 ! R6    R(3,4)                  1.331          estimate D2E/DX2                !
 ! R7    R(3,80)                 1.1424         estimate D2E/DX2                !
 ! R8    R(4,5)                  1.4276         estimate D2E/DX2                !
 ! R9    R(4,7)                  1.49           estimate D2E/DX2                !
 ! R10   R(5,6)                  1.3785         estimate D2E/DX2                !
 ! R11   R(5,81)                 1.0886         estimate D2E/DX2                !
 ! R12   R(6,82)                 1.1239         estimate D2E/DX2                !
 ! R13   R(7,8)                  1.3501         estimate D2E/DX2                !
 ! R14   R(7,11)                 1.7056         estimate D2E/DX2                !
 ! R15   R(8,9)                  1.3822         estimate D2E/DX2                !
 ! R16   R(9,10)                 1.4256         estimate D2E/DX2                !
 ! R17   R(9,83)                 1.0813         estimate D2E/DX2                !
 ! R18   R(10,11)                1.6506         estimate D2E/DX2                !
 ! R19   R(10,12)                1.5036         estimate D2E/DX2                !
 ! R20   R(12,13)                1.4032         estimate D2E/DX2                !
 ! R21   R(12,17)                1.4106         estimate D2E/DX2                !
 ! R22   R(13,14)                1.3267         estimate D2E/DX2                !
 ! R23   R(13,84)                1.1704         estimate D2E/DX2                !
 ! R24   R(14,15)                1.4043         estimate D2E/DX2                !
 ! R25   R(14,85)                1.1029         estimate D2E/DX2                !
 ! R26   R(15,16)                1.4554         estimate D2E/DX2                !
 ! R27   R(15,18)                1.4227         estimate D2E/DX2                !
 ! R28   R(16,17)                1.3708         estimate D2E/DX2                !
 ! R29   R(16,86)                1.0797         estimate D2E/DX2                !
 ! R30   R(17,87)                1.0816         estimate D2E/DX2                !
 ! R31   R(18,19)                1.2628         estimate D2E/DX2                !
 ! R32   R(18,22)                1.8033         estimate D2E/DX2                !
 ! R33   R(19,20)                1.3499         estimate D2E/DX2                !
 ! R34   R(20,21)                1.3579         estimate D2E/DX2                !
 ! R35   R(20,88)                1.129          estimate D2E/DX2                !
 ! R36   R(21,22)                1.6976         estimate D2E/DX2                !
 ! R37   R(21,23)                1.5251         estimate D2E/DX2                !
 ! R38   R(23,24)                1.3877         estimate D2E/DX2                !
 ! R39   R(23,28)                1.3779         estimate D2E/DX2                !
 ! R40   R(24,25)                1.4783         estimate D2E/DX2                !
 ! R41   R(24,89)                1.1174         estimate D2E/DX2                !
 ! R42   R(25,26)                1.3493         estimate D2E/DX2                !
 ! R43   R(25,90)                1.0537         estimate D2E/DX2                !
 ! R44   R(26,27)                1.4636         estimate D2E/DX2                !
 ! R45   R(26,29)                1.466          estimate D2E/DX2                !
 ! R46   R(27,28)                1.3184         estimate D2E/DX2                !
 ! R47   R(27,91)                1.1128         estimate D2E/DX2                !
 ! R48   R(28,92)                1.1148         estimate D2E/DX2                !
 ! R49   R(29,30)                1.3923         estimate D2E/DX2                !
 ! R50   R(29,33)                1.6894         estimate D2E/DX2                !
 ! R51   R(30,31)                1.394          estimate D2E/DX2                !
 ! R52   R(31,32)                1.3194         estimate D2E/DX2                !
 ! R53   R(31,93)                1.1143         estimate D2E/DX2                !
 ! R54   R(32,33)                1.7101         estimate D2E/DX2                !
 ! R55   R(32,34)                1.4712         estimate D2E/DX2                !
 ! R56   R(34,35)                1.3926         estimate D2E/DX2                !
 ! R57   R(34,39)                1.4377         estimate D2E/DX2                !
 ! R58   R(35,36)                1.4511         estimate D2E/DX2                !
 ! R59   R(35,94)                1.0198         estimate D2E/DX2                !
 ! R60   R(36,37)                1.4062         estimate D2E/DX2                !
 ! R61   R(36,95)                1.0576         estimate D2E/DX2                !
 ! R62   R(37,38)                1.4156         estimate D2E/DX2                !
 ! R63   R(37,40)                1.4944         estimate D2E/DX2                !
 ! R64   R(38,39)                1.3284         estimate D2E/DX2                !
 ! R65   R(38,96)                1.1345         estimate D2E/DX2                !
 ! R66   R(39,97)                1.0823         estimate D2E/DX2                !
 ! R67   R(40,41)                1.3792         estimate D2E/DX2                !
 ! R68   R(40,44)                1.6372         estimate D2E/DX2                !
 ! R69   R(41,42)                1.4436         estimate D2E/DX2                !
 ! R70   R(42,43)                1.44           estimate D2E/DX2                !
 ! R71   R(42,98)                1.0607         estimate D2E/DX2                !
 ! R72   R(43,44)                1.6719         estimate D2E/DX2                !
 ! R73   R(43,45)                1.4867         estimate D2E/DX2                !
 ! R74   R(45,46)                1.3896         estimate D2E/DX2                !
 ! R75   R(45,50)                1.4421         estimate D2E/DX2                !
 ! R76   R(46,47)                1.351          estimate D2E/DX2                !
 ! R77   R(46,99)                1.1249         estimate D2E/DX2                !
 ! R78   R(47,48)                1.4594         estimate D2E/DX2                !
 ! R79   R(47,100)               1.1219         estimate D2E/DX2                !
 ! R80   R(48,49)                1.4259         estimate D2E/DX2                !
 ! R81   R(48,51)                1.5017         estimate D2E/DX2                !
 ! R82   R(49,50)                1.304          estimate D2E/DX2                !
 ! R83   R(49,101)               1.1116         estimate D2E/DX2                !
 ! R84   R(50,102)               1.1077         estimate D2E/DX2                !
 ! R85   R(51,52)                1.2914         estimate D2E/DX2                !
 ! R86   R(51,55)                1.7602         estimate D2E/DX2                !
 ! R87   R(52,53)                1.4331         estimate D2E/DX2                !
 ! R88   R(53,54)                1.3608         estimate D2E/DX2                !
 ! R89   R(53,103)               1.0277         estimate D2E/DX2                !
 ! R90   R(54,55)                1.6759         estimate D2E/DX2                !
 ! R91   R(54,56)                1.5411         estimate D2E/DX2                !
 ! R92   R(56,57)                1.3758         estimate D2E/DX2                !
 ! R93   R(56,61)                1.4393         estimate D2E/DX2                !
 ! R94   R(57,58)                1.3672         estimate D2E/DX2                !
 ! R95   R(57,104)               1.0932         estimate D2E/DX2                !
 ! R96   R(58,59)                1.492          estimate D2E/DX2                !
 ! R97   R(58,105)               1.0733         estimate D2E/DX2                !
 ! R98   R(59,60)                1.4257         estimate D2E/DX2                !
 ! R99   R(59,62)                1.4082         estimate D2E/DX2                !
 ! R100  R(60,61)                1.3783         estimate D2E/DX2                !
 ! R101  R(60,106)               1.0708         estimate D2E/DX2                !
 ! R102  R(61,107)               1.0831         estimate D2E/DX2                !
 ! R103  R(62,63)                1.3102         estimate D2E/DX2                !
 ! R104  R(62,66)                1.7512         estimate D2E/DX2                !
 ! R105  R(63,64)                1.4369         estimate D2E/DX2                !
 ! R106  R(64,65)                1.4228         estimate D2E/DX2                !
 ! R107  R(64,108)               1.0795         estimate D2E/DX2                !
 ! R108  R(65,66)                1.7008         estimate D2E/DX2                !
 ! R109  R(65,67)                1.413          estimate D2E/DX2                !
 ! R110  R(67,68)                1.3798         estimate D2E/DX2                !
 ! R111  R(67,72)                1.4785         estimate D2E/DX2                !
 ! R112  R(68,69)                1.3953         estimate D2E/DX2                !
 ! R113  R(68,109)               1.1373         estimate D2E/DX2                !
 ! R114  R(69,70)                1.4152         estimate D2E/DX2                !
 ! R115  R(69,110)               1.0848         estimate D2E/DX2                !
 ! R116  R(70,71)                1.3863         estimate D2E/DX2                !
 ! R117  R(70,73)                1.4883         estimate D2E/DX2                !
 ! R118  R(71,72)                1.4266         estimate D2E/DX2                !
 ! R119  R(71,111)               1.0435         estimate D2E/DX2                !
 ! R120  R(72,112)               1.0365         estimate D2E/DX2                !
 ! R121  R(73,74)                1.3285         estimate D2E/DX2                !
 ! R122  R(73,77)                1.7504         estimate D2E/DX2                !
 ! R123  R(74,75)                1.402          estimate D2E/DX2                !
 ! R124  R(75,76)                1.3664         estimate D2E/DX2                !
 ! R125  R(75,113)               1.0142         estimate D2E/DX2                !
 ! R126  R(76,77)                1.6858         estimate D2E/DX2                !
 ! R127  R(76,114)               1.0362         estimate D2E/DX2                !
 ! A1    A(2,1,6)              119.0997         estimate D2E/DX2                !
 ! A2    A(2,1,78)             122.3266         estimate D2E/DX2                !
 ! A3    A(6,1,78)             118.1845         estimate D2E/DX2                !
 ! A4    A(1,2,3)              116.6534         estimate D2E/DX2                !
 ! A5    A(1,2,79)             123.9243         estimate D2E/DX2                !
 ! A6    A(3,2,79)             119.3489         estimate D2E/DX2                !
 ! A7    A(2,3,4)              123.4227         estimate D2E/DX2                !
 ! A8    A(2,3,80)             115.9725         estimate D2E/DX2                !
 ! A9    A(4,3,80)             120.5986         estimate D2E/DX2                !
 ! A10   A(3,4,5)              121.1194         estimate D2E/DX2                !
 ! A11   A(3,4,7)              119.5554         estimate D2E/DX2                !
 ! A12   A(5,4,7)              119.3252         estimate D2E/DX2                !
 ! A13   A(4,5,6)              116.1134         estimate D2E/DX2                !
 ! A14   A(4,5,81)             124.1972         estimate D2E/DX2                !
 ! A15   A(6,5,81)             119.689          estimate D2E/DX2                !
 ! A16   A(1,6,5)              123.4081         estimate D2E/DX2                !
 ! A17   A(1,6,82)             116.4271         estimate D2E/DX2                !
 ! A18   A(5,6,82)             119.586          estimate D2E/DX2                !
 ! A19   A(4,7,8)              121.4591         estimate D2E/DX2                !
 ! A20   A(4,7,11)             126.1254         estimate D2E/DX2                !
 ! A21   A(8,7,11)             112.4047         estimate D2E/DX2                !
 ! A22   A(7,8,9)              110.7989         estimate D2E/DX2                !
 ! A23   A(8,9,10)             113.8403         estimate D2E/DX2                !
 ! A24   A(8,9,83)             122.9688         estimate D2E/DX2                !
 ! A25   A(10,9,83)            122.4198         estimate D2E/DX2                !
 ! A26   A(9,10,11)            109.0894         estimate D2E/DX2                !
 ! A27   A(9,10,12)            127.9849         estimate D2E/DX2                !
 ! A28   A(11,10,12)           122.9236         estimate D2E/DX2                !
 ! A29   A(7,11,10)             93.4181         estimate D2E/DX2                !
 ! A30   A(10,12,13)           121.5394         estimate D2E/DX2                !
 ! A31   A(10,12,17)           118.7017         estimate D2E/DX2                !
 ! A32   A(13,12,17)           119.5437         estimate D2E/DX2                !
 ! A33   A(12,13,14)           121.1148         estimate D2E/DX2                !
 ! A34   A(12,13,84)           119.1747         estimate D2E/DX2                !
 ! A35   A(14,13,84)           119.7103         estimate D2E/DX2                !
 ! A36   A(13,14,15)           125.5586         estimate D2E/DX2                !
 ! A37   A(13,14,85)           118.919          estimate D2E/DX2                !
 ! A38   A(15,14,85)           115.3952         estimate D2E/DX2                !
 ! A39   A(14,15,16)           110.5908         estimate D2E/DX2                !
 ! A40   A(14,15,18)           129.0663         estimate D2E/DX2                !
 ! A41   A(16,15,18)           120.1832         estimate D2E/DX2                !
 ! A42   A(15,16,17)           127.1543         estimate D2E/DX2                !
 ! A43   A(15,16,86)           115.4033         estimate D2E/DX2                !
 ! A44   A(17,16,86)           117.429          estimate D2E/DX2                !
 ! A45   A(12,17,16)           115.9462         estimate D2E/DX2                !
 ! A46   A(12,17,87)           122.3514         estimate D2E/DX2                !
 ! A47   A(16,17,87)           121.6956         estimate D2E/DX2                !
 ! A48   A(15,18,19)           128.1914         estimate D2E/DX2                !
 ! A49   A(15,18,22)           119.5653         estimate D2E/DX2                !
 ! A50   A(19,18,22)           112.0748         estimate D2E/DX2                !
 ! A51   A(18,19,20)           114.4155         estimate D2E/DX2                !
 ! A52   A(19,20,21)           113.6911         estimate D2E/DX2                !
 ! A53   A(19,20,88)           122.5779         estimate D2E/DX2                !
 ! A54   A(21,20,88)           123.1798         estimate D2E/DX2                !
 ! A55   A(20,21,22)           112.029          estimate D2E/DX2                !
 ! A56   A(20,21,23)           128.1779         estimate D2E/DX2                !
 ! A57   A(22,21,23)           119.6826         estimate D2E/DX2                !
 ! A58   A(18,22,21)            87.5144         estimate D2E/DX2                !
 ! A59   A(21,23,24)           117.8104         estimate D2E/DX2                !
 ! A60   A(21,23,28)           123.0366         estimate D2E/DX2                !
 ! A61   A(24,23,28)           119.1085         estimate D2E/DX2                !
 ! A62   A(23,24,25)           119.7107         estimate D2E/DX2                !
 ! A63   A(23,24,89)           127.943          estimate D2E/DX2                !
 ! A64   A(25,24,89)           112.3441         estimate D2E/DX2                !
 ! A65   A(24,25,26)           118.7203         estimate D2E/DX2                !
 ! A66   A(24,25,90)           116.5517         estimate D2E/DX2                !
 ! A67   A(26,25,90)           124.4079         estimate D2E/DX2                !
 ! A68   A(25,26,27)           118.8048         estimate D2E/DX2                !
 ! A69   A(25,26,29)           119.5113         estimate D2E/DX2                !
 ! A70   A(27,26,29)           121.6756         estimate D2E/DX2                !
 ! A71   A(26,27,28)           120.9445         estimate D2E/DX2                !
 ! A72   A(26,27,91)           117.9572         estimate D2E/DX2                !
 ! A73   A(28,27,91)           120.9209         estimate D2E/DX2                !
 ! A74   A(23,28,27)           122.4972         estimate D2E/DX2                !
 ! A75   A(23,28,92)           117.8103         estimate D2E/DX2                !
 ! A76   A(27,28,92)           119.0148         estimate D2E/DX2                !
 ! A77   A(26,29,30)           121.9743         estimate D2E/DX2                !
 ! A78   A(26,29,33)           124.629          estimate D2E/DX2                !
 ! A79   A(30,29,33)           113.2271         estimate D2E/DX2                !
 ! A80   A(29,30,31)           107.197          estimate D2E/DX2                !
 ! A81   A(30,31,32)           118.4331         estimate D2E/DX2                !
 ! A82   A(30,31,93)           112.5983         estimate D2E/DX2                !
 ! A83   A(32,31,93)           128.937          estimate D2E/DX2                !
 ! A84   A(31,32,33)           109.261          estimate D2E/DX2                !
 ! A85   A(31,32,34)           126.8242         estimate D2E/DX2                !
 ! A86   A(33,32,34)           123.8668         estimate D2E/DX2                !
 ! A87   A(29,33,32)            91.7418         estimate D2E/DX2                !
 ! A88   A(32,34,35)           120.8859         estimate D2E/DX2                !
 ! A89   A(32,34,39)           123.0356         estimate D2E/DX2                !
 ! A90   A(35,34,39)           116.0755         estimate D2E/DX2                !
 ! A91   A(34,35,36)           119.8753         estimate D2E/DX2                !
 ! A92   A(34,35,94)           120.5962         estimate D2E/DX2                !
 ! A93   A(36,35,94)           119.2669         estimate D2E/DX2                !
 ! A94   A(35,36,37)           121.1605         estimate D2E/DX2                !
 ! A95   A(35,36,95)           114.488          estimate D2E/DX2                !
 ! A96   A(37,36,95)           124.2109         estimate D2E/DX2                !
 ! A97   A(36,37,38)           117.2236         estimate D2E/DX2                !
 ! A98   A(36,37,40)           119.871          estimate D2E/DX2                !
 ! A99   A(38,37,40)           122.7908         estimate D2E/DX2                !
 ! A100  A(37,38,39)           121.0999         estimate D2E/DX2                !
 ! A101  A(37,38,96)           114.3461         estimate D2E/DX2                !
 ! A102  A(39,38,96)           124.5508         estimate D2E/DX2                !
 ! A103  A(34,39,38)           124.3901         estimate D2E/DX2                !
 ! A104  A(34,39,97)           117.9894         estimate D2E/DX2                !
 ! A105  A(38,39,97)           117.573          estimate D2E/DX2                !
 ! A106  A(37,40,41)           118.2804         estimate D2E/DX2                !
 ! A107  A(37,40,44)           125.9139         estimate D2E/DX2                !
 ! A108  A(41,40,44)           115.6733         estimate D2E/DX2                !
 ! A109  A(40,41,42)           107.5926         estimate D2E/DX2                !
 ! A110  A(41,42,43)           113.5447         estimate D2E/DX2                !
 ! A111  A(41,42,98)           121.2478         estimate D2E/DX2                !
 ! A112  A(43,42,98)           125.2042         estimate D2E/DX2                !
 ! A113  A(42,43,44)           108.3608         estimate D2E/DX2                !
 ! A114  A(42,43,45)           124.4559         estimate D2E/DX2                !
 ! A115  A(44,43,45)           127.0876         estimate D2E/DX2                !
 ! A116  A(40,44,43)            94.8073         estimate D2E/DX2                !
 ! A117  A(43,45,46)           121.6235         estimate D2E/DX2                !
 ! A118  A(43,45,50)           120.4009         estimate D2E/DX2                !
 ! A119  A(46,45,50)           117.8951         estimate D2E/DX2                !
 ! A120  A(45,46,47)           120.4503         estimate D2E/DX2                !
 ! A121  A(45,46,99)           119.2308         estimate D2E/DX2                !
 ! A122  A(47,46,99)           120.1974         estimate D2E/DX2                !
 ! A123  A(46,47,48)           122.1442         estimate D2E/DX2                !
 ! A124  A(46,47,100)          118.6009         estimate D2E/DX2                !
 ! A125  A(48,47,100)          119.0822         estimate D2E/DX2                !
 ! A126  A(47,48,49)           114.977          estimate D2E/DX2                !
 ! A127  A(47,48,51)           117.1789         estimate D2E/DX2                !
 ! A128  A(49,48,51)           127.5255         estimate D2E/DX2                !
 ! A129  A(48,49,50)           122.3846         estimate D2E/DX2                !
 ! A130  A(48,49,101)          116.0354         estimate D2E/DX2                !
 ! A131  A(50,49,101)          121.5756         estimate D2E/DX2                !
 ! A132  A(45,50,49)           121.9901         estimate D2E/DX2                !
 ! A133  A(45,50,102)          115.7449         estimate D2E/DX2                !
 ! A134  A(49,50,102)          122.2556         estimate D2E/DX2                !
 ! A135  A(48,51,52)           123.9433         estimate D2E/DX2                !
 ! A136  A(48,51,55)           119.2789         estimate D2E/DX2                !
 ! A137  A(52,51,55)           116.7264         estimate D2E/DX2                !
 ! A138  A(51,52,53)           108.1454         estimate D2E/DX2                !
 ! A139  A(52,53,54)           113.9484         estimate D2E/DX2                !
 ! A140  A(52,53,103)          118.8315         estimate D2E/DX2                !
 ! A141  A(54,53,103)          126.6398         estimate D2E/DX2                !
 ! A142  A(53,54,55)           113.0005         estimate D2E/DX2                !
 ! A143  A(53,54,56)           127.991          estimate D2E/DX2                !
 ! A144  A(55,54,56)           118.9522         estimate D2E/DX2                !
 ! A145  A(51,55,54)            88.0115         estimate D2E/DX2                !
 ! A146  A(54,56,57)           121.414          estimate D2E/DX2                !
 ! A147  A(54,56,61)           117.7507         estimate D2E/DX2                !
 ! A148  A(57,56,61)           120.7121         estimate D2E/DX2                !
 ! A149  A(56,57,58)           118.7106         estimate D2E/DX2                !
 ! A150  A(56,57,104)          120.7535         estimate D2E/DX2                !
 ! A151  A(58,57,104)          120.1841         estimate D2E/DX2                !
 ! A152  A(57,58,59)           123.3334         estimate D2E/DX2                !
 ! A153  A(57,58,105)          121.9382         estimate D2E/DX2                !
 ! A154  A(59,58,105)          114.727          estimate D2E/DX2                !
 ! A155  A(58,59,60)           115.4233         estimate D2E/DX2                !
 ! A156  A(58,59,62)           119.7369         estimate D2E/DX2                !
 ! A157  A(60,59,62)           124.8393         estimate D2E/DX2                !
 ! A158  A(59,60,61)           120.3724         estimate D2E/DX2                !
 ! A159  A(59,60,106)          117.5633         estimate D2E/DX2                !
 ! A160  A(61,60,106)          122.0561         estimate D2E/DX2                !
 ! A161  A(56,61,60)           121.3424         estimate D2E/DX2                !
 ! A162  A(56,61,107)          118.6569         estimate D2E/DX2                !
 ! A163  A(60,61,107)          119.9706         estimate D2E/DX2                !
 ! A164  A(59,62,63)           125.4731         estimate D2E/DX2                !
 ! A165  A(59,62,66)           121.7389         estimate D2E/DX2                !
 ! A166  A(63,62,66)           112.4504         estimate D2E/DX2                !
 ! A167  A(62,63,64)           113.4165         estimate D2E/DX2                !
 ! A168  A(63,64,65)           111.6338         estimate D2E/DX2                !
 ! A169  A(63,64,108)          119.6018         estimate D2E/DX2                !
 ! A170  A(65,64,108)          128.4209         estimate D2E/DX2                !
 ! A171  A(64,65,66)           110.3268         estimate D2E/DX2                !
 ! A172  A(64,65,67)           127.0701         estimate D2E/DX2                !
 ! A173  A(66,65,67)           122.501          estimate D2E/DX2                !
 ! A174  A(62,66,65)            92.0965         estimate D2E/DX2                !
 ! A175  A(65,67,68)           124.8565         estimate D2E/DX2                !
 ! A176  A(65,67,72)           120.9411         estimate D2E/DX2                !
 ! A177  A(68,67,72)           114.0383         estimate D2E/DX2                !
 ! A178  A(67,68,69)           127.5395         estimate D2E/DX2                !
 ! A179  A(67,68,109)          119.0038         estimate D2E/DX2                !
 ! A180  A(69,68,109)          113.31           estimate D2E/DX2                !
 ! A181  A(68,69,70)           115.0398         estimate D2E/DX2                !
 ! A182  A(68,69,110)          120.6474         estimate D2E/DX2                !
 ! A183  A(70,69,110)          124.1891         estimate D2E/DX2                !
 ! A184  A(69,70,71)           123.8417         estimate D2E/DX2                !
 ! A185  A(69,70,73)           116.3778         estimate D2E/DX2                !
 ! A186  A(71,70,73)           119.4303         estimate D2E/DX2                !
 ! A187  A(70,71,72)           117.8975         estimate D2E/DX2                !
 ! A188  A(70,71,111)          128.3308         estimate D2E/DX2                !
 ! A189  A(72,71,111)          113.6365         estimate D2E/DX2                !
 ! A190  A(67,72,71)           121.1526         estimate D2E/DX2                !
 ! A191  A(67,72,112)          116.1995         estimate D2E/DX2                !
 ! A192  A(71,72,112)          122.0757         estimate D2E/DX2                !
 ! A193  A(70,73,74)           125.4741         estimate D2E/DX2                !
 ! A194  A(70,73,77)           125.1671         estimate D2E/DX2                !
 ! A195  A(74,73,77)           109.012          estimate D2E/DX2                !
 ! A196  A(73,74,75)           114.8217         estimate D2E/DX2                !
 ! A197  A(74,75,76)           112.5813         estimate D2E/DX2                !
 ! A198  A(74,75,113)          117.8573         estimate D2E/DX2                !
 ! A199  A(76,75,113)          129.5032         estimate D2E/DX2                !
 ! A200  A(75,76,77)           110.7237         estimate D2E/DX2                !
 ! A201  A(75,76,114)          126.889          estimate D2E/DX2                !
 ! A202  A(77,76,114)          121.6246         estimate D2E/DX2                !
 ! A203  A(73,77,76)            92.6201         estimate D2E/DX2                !
 ! D1    D(6,1,2,3)              3.0897         estimate D2E/DX2                !
 ! D2    D(6,1,2,79)          -173.7656         estimate D2E/DX2                !
 ! D3    D(78,1,2,3)           175.7953         estimate D2E/DX2                !
 ! D4    D(78,1,2,79)           -1.06           estimate D2E/DX2                !
 ! D5    D(2,1,6,5)             -5.3715         estimate D2E/DX2                !
 ! D6    D(2,1,6,82)          -176.5917         estimate D2E/DX2                !
 ! D7    D(78,1,6,5)          -178.38           estimate D2E/DX2                !
 ! D8    D(78,1,6,82)           10.3998         estimate D2E/DX2                !
 ! D9    D(1,2,3,4)              0.1799         estimate D2E/DX2                !
 ! D10   D(1,2,3,80)          -178.9237         estimate D2E/DX2                !
 ! D11   D(79,2,3,4)           177.1864         estimate D2E/DX2                !
 ! D12   D(79,2,3,80)           -1.9171         estimate D2E/DX2                !
 ! D13   D(2,3,4,5)             -1.5688         estimate D2E/DX2                !
 ! D14   D(2,3,4,7)            178.4955         estimate D2E/DX2                !
 ! D15   D(80,3,4,5)           177.4949         estimate D2E/DX2                !
 ! D16   D(80,3,4,7)            -2.4408         estimate D2E/DX2                !
 ! D17   D(3,4,5,6)             -0.4679         estimate D2E/DX2                !
 ! D18   D(3,4,5,81)           179.3107         estimate D2E/DX2                !
 ! D19   D(7,4,5,6)            179.4679         estimate D2E/DX2                !
 ! D20   D(7,4,5,81)            -0.7535         estimate D2E/DX2                !
 ! D21   D(3,4,7,8)             13.9054         estimate D2E/DX2                !
 ! D22   D(3,4,7,11)          -164.8026         estimate D2E/DX2                !
 ! D23   D(5,4,7,8)           -166.0314         estimate D2E/DX2                !
 ! D24   D(5,4,7,11)            15.2606         estimate D2E/DX2                !
 ! D25   D(4,5,6,1)              3.921          estimate D2E/DX2                !
 ! D26   D(4,5,6,82)           174.8776         estimate D2E/DX2                !
 ! D27   D(81,5,6,1)          -175.8683         estimate D2E/DX2                !
 ! D28   D(81,5,6,82)           -4.9117         estimate D2E/DX2                !
 ! D29   D(4,7,8,9)            177.1037         estimate D2E/DX2                !
 ! D30   D(11,7,8,9)            -4.0251         estimate D2E/DX2                !
 ! D31   D(4,7,11,10)          178.8464         estimate D2E/DX2                !
 ! D32   D(8,7,11,10)            0.0385         estimate D2E/DX2                !
 ! D33   D(7,8,9,10)             7.0503         estimate D2E/DX2                !
 ! D34   D(7,8,9,83)           177.2003         estimate D2E/DX2                !
 ! D35   D(8,9,10,11)           -6.9302         estimate D2E/DX2                !
 ! D36   D(8,9,10,12)          173.5833         estimate D2E/DX2                !
 ! D37   D(83,9,10,11)        -177.1413         estimate D2E/DX2                !
 ! D38   D(83,9,10,12)           3.3723         estimate D2E/DX2                !
 ! D39   D(9,10,11,7)            3.7974         estimate D2E/DX2                !
 ! D40   D(12,10,11,7)        -176.6848         estimate D2E/DX2                !
 ! D41   D(9,10,12,13)         -46.3505         estimate D2E/DX2                !
 ! D42   D(9,10,12,17)         128.2928         estimate D2E/DX2                !
 ! D43   D(11,10,12,13)        134.2276         estimate D2E/DX2                !
 ! D44   D(11,10,12,17)        -51.1291         estimate D2E/DX2                !
 ! D45   D(10,12,13,14)        176.9626         estimate D2E/DX2                !
 ! D46   D(10,12,13,84)         -2.895          estimate D2E/DX2                !
 ! D47   D(17,12,13,14)          2.3635         estimate D2E/DX2                !
 ! D48   D(17,12,13,84)       -177.4941         estimate D2E/DX2                !
 ! D49   D(10,12,17,16)       -177.8151         estimate D2E/DX2                !
 ! D50   D(10,12,17,87)          1.2505         estimate D2E/DX2                !
 ! D51   D(13,12,17,16)         -3.0626         estimate D2E/DX2                !
 ! D52   D(13,12,17,87)        176.0031         estimate D2E/DX2                !
 ! D53   D(12,13,14,15)          0.5431         estimate D2E/DX2                !
 ! D54   D(12,13,14,85)        176.2423         estimate D2E/DX2                !
 ! D55   D(84,13,14,15)       -179.6001         estimate D2E/DX2                !
 ! D56   D(84,13,14,85)         -3.9009         estimate D2E/DX2                !
 ! D57   D(13,14,15,16)         -2.2563         estimate D2E/DX2                !
 ! D58   D(13,14,15,18)       -177.5918         estimate D2E/DX2                !
 ! D59   D(85,14,15,16)       -178.0893         estimate D2E/DX2                !
 ! D60   D(85,14,15,18)          6.5752         estimate D2E/DX2                !
 ! D61   D(14,15,16,17)          1.3453         estimate D2E/DX2                !
 ! D62   D(14,15,16,86)        179.9719         estimate D2E/DX2                !
 ! D63   D(18,15,16,17)        177.1566         estimate D2E/DX2                !
 ! D64   D(18,15,16,86)         -4.2168         estimate D2E/DX2                !
 ! D65   D(14,15,18,19)       -173.6942         estimate D2E/DX2                !
 ! D66   D(14,15,18,22)          1.1889         estimate D2E/DX2                !
 ! D67   D(16,15,18,19)         11.3581         estimate D2E/DX2                !
 ! D68   D(16,15,18,22)       -173.7589         estimate D2E/DX2                !
 ! D69   D(15,16,17,12)          1.2047         estimate D2E/DX2                !
 ! D70   D(15,16,17,87)       -177.8676         estimate D2E/DX2                !
 ! D71   D(86,16,17,12)       -177.3976         estimate D2E/DX2                !
 ! D72   D(86,16,17,87)          3.5301         estimate D2E/DX2                !
 ! D73   D(15,18,19,20)       -179.6034         estimate D2E/DX2                !
 ! D74   D(22,18,19,20)          5.1986         estimate D2E/DX2                !
 ! D75   D(15,18,22,21)       -178.23           estimate D2E/DX2                !
 ! D76   D(19,18,22,21)         -2.5681         estimate D2E/DX2                !
 ! D77   D(18,19,20,21)         -5.8737         estimate D2E/DX2                !
 ! D78   D(18,19,20,88)       -177.6017         estimate D2E/DX2                !
 ! D79   D(19,20,21,22)          3.6654         estimate D2E/DX2                !
 ! D80   D(19,20,21,23)        179.7794         estimate D2E/DX2                !
 ! D81   D(88,20,21,22)        175.3367         estimate D2E/DX2                !
 ! D82   D(88,20,21,23)         -8.5493         estimate D2E/DX2                !
 ! D83   D(20,21,22,18)         -0.6848         estimate D2E/DX2                !
 ! D84   D(23,21,22,18)       -177.1692         estimate D2E/DX2                !
 ! D85   D(20,21,23,24)        138.2951         estimate D2E/DX2                !
 ! D86   D(20,21,23,28)        -39.2546         estimate D2E/DX2                !
 ! D87   D(22,21,23,24)        -45.8518         estimate D2E/DX2                !
 ! D88   D(22,21,23,28)        136.5986         estimate D2E/DX2                !
 ! D89   D(21,23,24,25)       -179.7167         estimate D2E/DX2                !
 ! D90   D(21,23,24,89)          0.8551         estimate D2E/DX2                !
 ! D91   D(28,23,24,25)         -2.0678         estimate D2E/DX2                !
 ! D92   D(28,23,24,89)        178.504          estimate D2E/DX2                !
 ! D93   D(21,23,28,27)       -177.1758         estimate D2E/DX2                !
 ! D94   D(21,23,28,92)         -6.7127         estimate D2E/DX2                !
 ! D95   D(24,23,28,27)          5.3049         estimate D2E/DX2                !
 ! D96   D(24,23,28,92)        175.768          estimate D2E/DX2                !
 ! D97   D(23,24,25,26)         -1.4953         estimate D2E/DX2                !
 ! D98   D(23,24,25,90)       -175.2875         estimate D2E/DX2                !
 ! D99   D(89,24,25,26)        178.0171         estimate D2E/DX2                !
 ! D100  D(89,24,25,90)          4.2249         estimate D2E/DX2                !
 ! D101  D(24,25,26,27)          2.0361         estimate D2E/DX2                !
 ! D102  D(24,25,26,29)       -178.9967         estimate D2E/DX2                !
 ! D103  D(90,25,26,27)        175.303          estimate D2E/DX2                !
 ! D104  D(90,25,26,29)         -5.7297         estimate D2E/DX2                !
 ! D105  D(25,26,27,28)          0.9939         estimate D2E/DX2                !
 ! D106  D(25,26,27,91)        176.1975         estimate D2E/DX2                !
 ! D107  D(29,26,27,28)       -177.95           estimate D2E/DX2                !
 ! D108  D(29,26,27,91)         -2.7464         estimate D2E/DX2                !
 ! D109  D(25,26,29,30)         -0.662          estimate D2E/DX2                !
 ! D110  D(25,26,29,33)        174.2809         estimate D2E/DX2                !
 ! D111  D(27,26,29,30)        178.2746         estimate D2E/DX2                !
 ! D112  D(27,26,29,33)         -6.7824         estimate D2E/DX2                !
 ! D113  D(26,27,28,23)         -4.8175         estimate D2E/DX2                !
 ! D114  D(26,27,28,92)       -175.1705         estimate D2E/DX2                !
 ! D115  D(91,27,28,23)       -179.8786         estimate D2E/DX2                !
 ! D116  D(91,27,28,92)          9.7684         estimate D2E/DX2                !
 ! D117  D(26,29,30,31)        176.6136         estimate D2E/DX2                !
 ! D118  D(33,29,30,31)          1.1406         estimate D2E/DX2                !
 ! D119  D(26,29,33,32)       -178.0165         estimate D2E/DX2                !
 ! D120  D(30,29,33,32)         -2.6838         estimate D2E/DX2                !
 ! D121  D(29,30,31,32)          1.717          estimate D2E/DX2                !
 ! D122  D(29,30,31,93)        179.8553         estimate D2E/DX2                !
 ! D123  D(30,31,32,33)         -3.678          estimate D2E/DX2                !
 ! D124  D(30,31,32,34)        178.781          estimate D2E/DX2                !
 ! D125  D(93,31,32,33)        178.5319         estimate D2E/DX2                !
 ! D126  D(93,31,32,34)          0.9909         estimate D2E/DX2                !
 ! D127  D(31,32,33,29)          3.4868         estimate D2E/DX2                !
 ! D128  D(34,32,33,29)       -178.8838         estimate D2E/DX2                !
 ! D129  D(31,32,34,35)        -39.9097         estimate D2E/DX2                !
 ! D130  D(31,32,34,39)        139.4368         estimate D2E/DX2                !
 ! D131  D(33,32,34,35)        142.8862         estimate D2E/DX2                !
 ! D132  D(33,32,34,39)        -37.7672         estimate D2E/DX2                !
 ! D133  D(32,34,35,36)        177.797          estimate D2E/DX2                !
 ! D134  D(32,34,35,94)          3.7141         estimate D2E/DX2                !
 ! D135  D(39,34,35,36)         -1.5931         estimate D2E/DX2                !
 ! D136  D(39,34,35,94)       -175.676          estimate D2E/DX2                !
 ! D137  D(32,34,39,38)        178.2464         estimate D2E/DX2                !
 ! D138  D(32,34,39,97)          0.8205         estimate D2E/DX2                !
 ! D139  D(35,34,39,38)         -2.378          estimate D2E/DX2                !
 ! D140  D(35,34,39,97)       -179.8039         estimate D2E/DX2                !
 ! D141  D(34,35,36,37)          3.4658         estimate D2E/DX2                !
 ! D142  D(34,35,36,95)        179.3303         estimate D2E/DX2                !
 ! D143  D(94,35,36,37)        177.6275         estimate D2E/DX2                !
 ! D144  D(94,35,36,95)         -6.508          estimate D2E/DX2                !
 ! D145  D(35,36,37,38)         -1.4647         estimate D2E/DX2                !
 ! D146  D(35,36,37,40)        174.7517         estimate D2E/DX2                !
 ! D147  D(95,36,37,38)       -176.913          estimate D2E/DX2                !
 ! D148  D(95,36,37,40)         -0.6965         estimate D2E/DX2                !
 ! D149  D(36,37,38,39)         -2.4244         estimate D2E/DX2                !
 ! D150  D(36,37,38,96)        178.2037         estimate D2E/DX2                !
 ! D151  D(40,37,38,39)       -178.5214         estimate D2E/DX2                !
 ! D152  D(40,37,38,96)          2.1067         estimate D2E/DX2                !
 ! D153  D(36,37,40,41)       -173.5454         estimate D2E/DX2                !
 ! D154  D(36,37,40,44)         10.834          estimate D2E/DX2                !
 ! D155  D(38,37,40,41)          2.452          estimate D2E/DX2                !
 ! D156  D(38,37,40,44)       -173.1685         estimate D2E/DX2                !
 ! D157  D(37,38,39,34)          4.5122         estimate D2E/DX2                !
 ! D158  D(37,38,39,97)       -178.0521         estimate D2E/DX2                !
 ! D159  D(96,38,39,34)       -176.1825         estimate D2E/DX2                !
 ! D160  D(96,38,39,97)          1.2532         estimate D2E/DX2                !
 ! D161  D(37,40,41,42)       -177.3676         estimate D2E/DX2                !
 ! D162  D(44,40,41,42)         -1.3023         estimate D2E/DX2                !
 ! D163  D(37,40,44,43)        176.2919         estimate D2E/DX2                !
 ! D164  D(41,40,44,43)          0.5709         estimate D2E/DX2                !
 ! D165  D(40,41,42,43)          1.5719         estimate D2E/DX2                !
 ! D166  D(40,41,42,98)       -177.8048         estimate D2E/DX2                !
 ! D167  D(41,42,43,44)         -1.2032         estimate D2E/DX2                !
 ! D168  D(41,42,43,45)       -177.8617         estimate D2E/DX2                !
 ! D169  D(98,42,43,44)        178.1447         estimate D2E/DX2                !
 ! D170  D(98,42,43,45)          1.4862         estimate D2E/DX2                !
 ! D171  D(42,43,44,40)          0.3787         estimate D2E/DX2                !
 ! D172  D(45,43,44,40)        176.9246         estimate D2E/DX2                !
 ! D173  D(42,43,45,46)        -39.6953         estimate D2E/DX2                !
 ! D174  D(42,43,45,50)        143.6365         estimate D2E/DX2                !
 ! D175  D(44,43,45,46)        144.2813         estimate D2E/DX2                !
 ! D176  D(44,43,45,50)        -32.3869         estimate D2E/DX2                !
 ! D177  D(43,45,46,47)       -176.6672         estimate D2E/DX2                !
 ! D178  D(43,45,46,99)         -0.6658         estimate D2E/DX2                !
 ! D179  D(50,45,46,47)          0.0814         estimate D2E/DX2                !
 ! D180  D(50,45,46,99)        176.0828         estimate D2E/DX2                !
 ! D181  D(43,45,50,49)        177.061          estimate D2E/DX2                !
 ! D182  D(43,45,50,102)        -4.0331         estimate D2E/DX2                !
 ! D183  D(46,45,50,49)          0.2709         estimate D2E/DX2                !
 ! D184  D(46,45,50,102)       179.1768         estimate D2E/DX2                !
 ! D185  D(45,46,47,48)          2.0633         estimate D2E/DX2                !
 ! D186  D(45,46,47,100)       177.2395         estimate D2E/DX2                !
 ! D187  D(99,46,47,48)       -173.8993         estimate D2E/DX2                !
 ! D188  D(99,46,47,100)         1.2768         estimate D2E/DX2                !
 ! D189  D(46,47,48,49)         -4.2701         estimate D2E/DX2                !
 ! D190  D(46,47,48,51)       -178.2814         estimate D2E/DX2                !
 ! D191  D(100,47,48,49)      -179.4238         estimate D2E/DX2                !
 ! D192  D(100,47,48,51)         6.5649         estimate D2E/DX2                !
 ! D193  D(47,48,49,50)          4.6356         estimate D2E/DX2                !
 ! D194  D(47,48,49,101)      -174.6073         estimate D2E/DX2                !
 ! D195  D(51,48,49,50)        177.9151         estimate D2E/DX2                !
 ! D196  D(51,48,49,101)        -1.3279         estimate D2E/DX2                !
 ! D197  D(47,48,51,52)        -14.6112         estimate D2E/DX2                !
 ! D198  D(47,48,51,55)        162.6937         estimate D2E/DX2                !
 ! D199  D(49,48,51,52)        172.2375         estimate D2E/DX2                !
 ! D200  D(49,48,51,55)        -10.4575         estimate D2E/DX2                !
 ! D201  D(48,49,50,45)         -2.8223         estimate D2E/DX2                !
 ! D202  D(48,49,50,102)       178.3431         estimate D2E/DX2                !
 ! D203  D(101,49,50,45)       176.3793         estimate D2E/DX2                !
 ! D204  D(101,49,50,102)       -2.4553         estimate D2E/DX2                !
 ! D205  D(48,51,52,53)        178.7834         estimate D2E/DX2                !
 ! D206  D(55,51,52,53)          1.4152         estimate D2E/DX2                !
 ! D207  D(48,51,55,54)        179.4052         estimate D2E/DX2                !
 ! D208  D(52,51,55,54)         -3.0979         estimate D2E/DX2                !
 ! D209  D(51,52,53,54)          1.5833         estimate D2E/DX2                !
 ! D210  D(51,52,53,103)       173.4283         estimate D2E/DX2                !
 ! D211  D(52,53,54,55)         -3.9784         estimate D2E/DX2                !
 ! D212  D(52,53,54,56)        178.8123         estimate D2E/DX2                !
 ! D213  D(103,53,54,55)      -175.0691         estimate D2E/DX2                !
 ! D214  D(103,53,54,56)         7.7215         estimate D2E/DX2                !
 ! D215  D(53,54,55,51)          3.8164         estimate D2E/DX2                !
 ! D216  D(56,54,55,51)       -178.6968         estimate D2E/DX2                !
 ! D217  D(53,54,56,57)       -133.5209         estimate D2E/DX2                !
 ! D218  D(53,54,56,61)         50.4884         estimate D2E/DX2                !
 ! D219  D(55,54,56,57)         49.4149         estimate D2E/DX2                !
 ! D220  D(55,54,56,61)       -126.5758         estimate D2E/DX2                !
 ! D221  D(54,56,57,58)       -175.0419         estimate D2E/DX2                !
 ! D222  D(54,56,57,104)        -1.8392         estimate D2E/DX2                !
 ! D223  D(61,56,57,58)          0.8309         estimate D2E/DX2                !
 ! D224  D(61,56,57,104)       174.0336         estimate D2E/DX2                !
 ! D225  D(54,56,61,60)        178.2348         estimate D2E/DX2                !
 ! D226  D(54,56,61,107)        -3.7599         estimate D2E/DX2                !
 ! D227  D(57,56,61,60)          2.2146         estimate D2E/DX2                !
 ! D228  D(57,56,61,107)      -179.78           estimate D2E/DX2                !
 ! D229  D(56,57,58,59)         -2.5882         estimate D2E/DX2                !
 ! D230  D(56,57,58,105)       176.9607         estimate D2E/DX2                !
 ! D231  D(104,57,58,59)      -175.8307         estimate D2E/DX2                !
 ! D232  D(104,57,58,105)        3.7181         estimate D2E/DX2                !
 ! D233  D(57,58,59,60)          1.3476         estimate D2E/DX2                !
 ! D234  D(57,58,59,62)       -178.9126         estimate D2E/DX2                !
 ! D235  D(105,58,59,60)      -178.2309         estimate D2E/DX2                !
 ! D236  D(105,58,59,62)         1.5089         estimate D2E/DX2                !
 ! D237  D(58,59,60,61)          1.7079         estimate D2E/DX2                !
 ! D238  D(58,59,60,106)      -179.3145         estimate D2E/DX2                !
 ! D239  D(62,59,60,61)       -178.0168         estimate D2E/DX2                !
 ! D240  D(62,59,60,106)         0.9608         estimate D2E/DX2                !
 ! D241  D(58,59,62,63)         15.2966         estimate D2E/DX2                !
 ! D242  D(58,59,62,66)       -157.5181         estimate D2E/DX2                !
 ! D243  D(60,59,62,63)       -164.9897         estimate D2E/DX2                !
 ! D244  D(60,59,62,66)         22.1955         estimate D2E/DX2                !
 ! D245  D(59,60,61,56)         -3.4592         estimate D2E/DX2                !
 ! D246  D(59,60,61,107)       178.5613         estimate D2E/DX2                !
 ! D247  D(106,60,61,56)       177.6103         estimate D2E/DX2                !
 ! D248  D(106,60,61,107)       -0.3692         estimate D2E/DX2                !
 ! D249  D(59,62,63,64)       -176.3829         estimate D2E/DX2                !
 ! D250  D(66,62,63,64)         -2.992          estimate D2E/DX2                !
 ! D251  D(59,62,66,65)        176.1728         estimate D2E/DX2                !
 ! D252  D(63,62,66,65)          2.5005         estimate D2E/DX2                !
 ! D253  D(62,63,64,65)          2.0485         estimate D2E/DX2                !
 ! D254  D(62,63,64,108)       175.8755         estimate D2E/DX2                !
 ! D255  D(63,64,65,66)         -0.1238         estimate D2E/DX2                !
 ! D256  D(63,64,65,67)        176.2459         estimate D2E/DX2                !
 ! D257  D(108,64,65,66)      -173.2701         estimate D2E/DX2                !
 ! D258  D(108,64,65,67)         3.0997         estimate D2E/DX2                !
 ! D259  D(64,65,66,62)         -1.2471         estimate D2E/DX2                !
 ! D260  D(67,65,66,62)       -177.8128         estimate D2E/DX2                !
 ! D261  D(64,65,67,68)        132.7952         estimate D2E/DX2                !
 ! D262  D(64,65,67,72)        -42.2653         estimate D2E/DX2                !
 ! D263  D(66,65,67,68)        -51.2417         estimate D2E/DX2                !
 ! D264  D(66,65,67,72)        133.6977         estimate D2E/DX2                !
 ! D265  D(65,67,68,69)        178.608          estimate D2E/DX2                !
 ! D266  D(65,67,68,109)         3.3264         estimate D2E/DX2                !
 ! D267  D(72,67,68,69)         -6.0302         estimate D2E/DX2                !
 ! D268  D(72,67,68,109)       178.6882         estimate D2E/DX2                !
 ! D269  D(65,67,72,71)       -178.3195         estimate D2E/DX2                !
 ! D270  D(65,67,72,112)        -6.8194         estimate D2E/DX2                !
 ! D271  D(68,67,72,71)          6.1175         estimate D2E/DX2                !
 ! D272  D(68,67,72,112)       177.6177         estimate D2E/DX2                !
 ! D273  D(67,68,69,70)          5.4222         estimate D2E/DX2                !
 ! D274  D(67,68,69,110)      -178.4565         estimate D2E/DX2                !
 ! D275  D(109,68,69,70)      -179.0707         estimate D2E/DX2                !
 ! D276  D(109,68,69,110)       -2.9494         estimate D2E/DX2                !
 ! D277  D(68,69,70,71)         -4.9006         estimate D2E/DX2                !
 ! D278  D(68,69,70,73)       -178.0484         estimate D2E/DX2                !
 ! D279  D(110,69,70,71)       179.1337         estimate D2E/DX2                !
 ! D280  D(110,69,70,73)         5.9859         estimate D2E/DX2                !
 ! D281  D(69,70,71,72)          5.5192         estimate D2E/DX2                !
 ! D282  D(69,70,71,111)      -179.0049         estimate D2E/DX2                !
 ! D283  D(73,70,71,72)        178.4698         estimate D2E/DX2                !
 ! D284  D(73,70,71,111)        -6.0542         estimate D2E/DX2                !
 ! D285  D(69,70,73,74)         -1.7264         estimate D2E/DX2                !
 ! D286  D(69,70,73,77)       -174.212          estimate D2E/DX2                !
 ! D287  D(71,70,73,74)       -175.1932         estimate D2E/DX2                !
 ! D288  D(71,70,73,77)         12.3212         estimate D2E/DX2                !
 ! D289  D(70,71,72,67)         -6.0828         estimate D2E/DX2                !
 ! D290  D(70,71,72,112)      -177.0782         estimate D2E/DX2                !
 ! D291  D(111,71,72,67)       177.7899         estimate D2E/DX2                !
 ! D292  D(111,71,72,112)        6.7946         estimate D2E/DX2                !
 ! D293  D(70,73,74,75)       -176.6489         estimate D2E/DX2                !
 ! D294  D(77,73,74,75)         -3.1414         estimate D2E/DX2                !
 ! D295  D(70,73,77,76)        177.8885         estimate D2E/DX2                !
 ! D296  D(74,73,77,76)          4.3563         estimate D2E/DX2                !
 ! D297  D(73,74,75,76)         -0.1393         estimate D2E/DX2                !
 ! D298  D(73,74,75,113)      -177.6277         estimate D2E/DX2                !
 ! D299  D(74,75,76,77)          3.5112         estimate D2E/DX2                !
 ! D300  D(74,75,76,114)       173.5447         estimate D2E/DX2                !
 ! D301  D(113,75,76,77)      -179.367          estimate D2E/DX2                !
 ! D302  D(113,75,76,114)       -9.3336         estimate D2E/DX2                !
 ! D303  D(75,76,77,73)         -4.4692         estimate D2E/DX2                !
 ! D304  D(114,76,77,73)      -175.1134         estimate D2E/DX2                !
 --------------------------------------------------------------------------------
 Trust Radius=3.00D-01 FncErr=1.00D-07 GrdErr=1.00D-06 EigMax=2.50D+02 EigMin=1.00D-04
 Number of steps in this run=    644 maximum allowed number of steps=    684.
 GradGradGradGradGradGradGradGradGradGradGradGradGradGradGradGradGradGrad

 Leave Link  103 at Fri Jul 24 03:21:06 2020, MaxMem=  4026531840 cpu:               0.3 elap:               0.1
 (Enter /opt/ohpc/pub/libs/gaussian/g16-A.03/sandybridge/g16/l202.exe)
 Stoichiometry    C63H37N7S7
 Framework group  C1[X(C63H37N7S7)]
 Deg. of freedom   336
 Full point group                 C1      NOp   1
 Largest Abelian subgroup         C1      NOp   1
 Largest concise Abelian subgroup C1      NOp   1
                         Standard orientation:                         
 ---------------------------------------------------------------------
 Center     Atomic      Atomic             Coordinates (Angstroms)
 Number     Number       Type             X           Y           Z
 ---------------------------------------------------------------------
      1          6           0      -27.206527    1.765256    0.627234
      2          6           0      -26.809139    0.475560    0.882488
      3          6           0      -25.406240    0.174876    0.677510
      4          6           0      -24.515851    1.075107    0.267282
      5          6           0      -24.906185    2.415023   -0.033427
      6          6           0      -26.245287    2.705228    0.117402
      7          6           0      -23.087065    0.680114    0.117104
      8          7           0      -22.710921   -0.616525    0.115502
      9          6           0      -21.350843   -0.732737   -0.101460
     10          6           0      -20.660016    0.514295   -0.109638
     11         16           0      -21.761057    1.741864   -0.036421
     12          6           0      -19.176851    0.750102   -0.183532
     13          6           0      -18.278355    0.030260    0.618575
     14          6           0      -16.967788    0.202349    0.504308
     15          6           0      -16.334773    1.090118   -0.380748
     16          6           0      -17.316619    1.773344   -1.209841
     17          6           0      -18.679657    1.635725   -1.162409
     18          6           0      -14.944615    1.300857   -0.597749
     19          7           0      -14.390964    2.177926   -1.318111
     20          6           0      -13.042342    2.120231   -1.330005
     21          6           0      -12.527596    1.208564   -0.465293
     22         16           0      -13.741959    0.321479    0.322185
     23          6           0      -11.061885    0.869666   -0.214815
     24          6           0      -10.657792    0.674347    1.098295
     25          6           0       -9.245236    0.350163    1.389659
     26          6           0       -8.383688    0.221539    0.359271
     27          6           0       -8.871788    0.452316   -1.001083
     28          6           0      -10.124385    0.799222   -1.222180
     29          6           0       -6.983757   -0.121443    0.627003
     30          7           0       -6.504794   -0.307702    1.920987
     31          6           0       -5.169845   -0.694950    1.814596
     32          6           0       -4.632419   -0.773414    0.612177
[...]
  Beta virt. eigenvalues --    1.60316   1.61447   1.61584   1.62008   1.62161
  Beta virt. eigenvalues --    1.62368   1.62424   1.64821   1.65131   1.65188
  Beta virt. eigenvalues --    1.65416   1.65597   1.65641   1.65940   1.66005
  Beta virt. eigenvalues --    1.66401   1.66551   1.66640   1.66758   1.66962
  Beta virt. eigenvalues --    1.67061   1.67337   1.67681   1.67735   1.67867
  Beta virt. eigenvalues --    1.67954   1.68017   1.68202   1.68411   1.68557
  Beta virt. eigenvalues --    1.68920   1.69106   1.69216   1.69239   1.69349
  Beta virt. eigenvalues --    1.69443   1.69562   1.69603   1.69632   1.69789
  Beta virt. eigenvalues --    1.69983   1.70053   1.70266   1.70515   1.70613
  Beta virt. eigenvalues --    1.70765   1.71130   1.71341   1.71607   1.71895
  Beta virt. eigenvalues --    1.72078   1.72328   1.72585   1.72695   1.72981
  Beta virt. eigenvalues --    1.73223   1.73525   1.73861   1.74094   1.74525
  Beta virt. eigenvalues --    1.74658   1.74725   1.75029   1.75118   1.75296
  Beta virt. eigenvalues --    1.75520   1.75866   1.76100   1.76157   1.76277
  Beta virt. eigenvalues --    1.76532   1.76819   1.77372   1.78431   1.78494
  Beta virt. eigenvalues --    1.78564   1.78715   1.78835   1.78992   1.79954
  Beta virt. eigenvalues --    1.80273   1.80579   1.80977   1.81061   1.81510
  Beta virt. eigenvalues --    1.81755   1.82849   1.83298   1.83364   1.83395
  Beta virt. eigenvalues --    1.83462   1.83538   1.83596   1.83727   1.83832
  Beta virt. eigenvalues --    1.84038   1.84145   1.84601   1.84688   1.85007
  Beta virt. eigenvalues --    1.85047   1.85300   1.85524   1.85630   1.85728
  Beta virt. eigenvalues --    1.85932   1.86066   1.86336   1.86361   1.86706
  Beta virt. eigenvalues --    1.86933   1.87047   1.87258   1.87451   1.87674
  Beta virt. eigenvalues --    1.87965   1.88723   1.89157   1.89712   1.89909
  Beta virt. eigenvalues --    1.90344   1.90865   1.90998   1.91358   1.91435
  Beta virt. eigenvalues --    1.91518   1.91624   1.91868   1.92344   1.92445
  Beta virt. eigenvalues --    1.92533   1.92975   1.93299   1.93493   1.93977
  Beta virt. eigenvalues --    1.94197   1.94463   1.95217   1.95418   1.95788
  Beta virt. eigenvalues --    1.95965   1.96245   1.96300   1.96540   1.96882
  Beta virt. eigenvalues --    1.97026   1.97153   1.97463   1.97560   1.97664
  Beta virt. eigenvalues --    1.97817   1.98110   1.98370   1.98820   1.99049
  Beta virt. eigenvalues --    1.99377   1.99578   2.00277   2.00691   2.00869
  Beta virt. eigenvalues --    2.01235   2.01821   2.02144   2.02396   2.02573
  Beta virt. eigenvalues --    2.03331   2.03589   2.03699   2.03860   2.03943
  Beta virt. eigenvalues --    2.04152   2.04300   2.04538   2.04557   2.04743
  Beta virt. eigenvalues --    2.04767   2.04817   2.04913   2.05000   2.05430
  Beta virt. eigenvalues --    2.06059   2.06324   2.06631   2.06937   2.07085
  Beta virt. eigenvalues --    2.07205   2.07429   2.07469   2.08002   2.08500
  Beta virt. eigenvalues --    2.09156   2.09780   2.10100   2.10318   2.10334
  Beta virt. eigenvalues --    2.10589   2.10790   2.10967   2.11240   2.11346
  Beta virt. eigenvalues --    2.12876   2.13291   2.13342   2.13405   2.13508
  Beta virt. eigenvalues --    2.13729   2.14462   2.15162   2.15445   2.15858
  Beta virt. eigenvalues --    2.16220   2.16276   2.16390   2.16577   2.17605
  Beta virt. eigenvalues --    2.18037   2.18616   2.19543   2.19882   2.20521
  Beta virt. eigenvalues --    2.23301   2.24140   2.24547   2.25208   2.25696
  Beta virt. eigenvalues --    2.25792   2.26570   2.26801   2.27095   2.27363
  Beta virt. eigenvalues --    2.27610   2.27962   2.28128   2.28592   2.28750
  Beta virt. eigenvalues --    2.29277   2.30295   2.30478   2.31140   2.31978
  Beta virt. eigenvalues --    2.32607   2.32856   2.33373   2.34092   2.34915
  Beta virt. eigenvalues --    2.35526   2.35739   2.36007   2.36271   2.36928
  Beta virt. eigenvalues --    2.37275   2.37866   2.37902   2.38395   2.43029
  Beta virt. eigenvalues --    2.43584   2.43752   2.43806   2.43884   2.44119
  Beta virt. eigenvalues --    2.44564   2.44654   2.44924   2.45215   2.45482
  Beta virt. eigenvalues --    2.45733   2.45892   2.46060   2.46435   2.47053
  Beta virt. eigenvalues --    2.47111   2.47129   2.47191   2.47193   2.47348
  Beta virt. eigenvalues --    2.49332   2.49953   2.49972   2.50114   2.50141
  Beta virt. eigenvalues --    2.50215   2.50304   2.50427   2.50642   2.50709
  Beta virt. eigenvalues --    2.50787   2.50843   2.51046   2.51334   2.51517
  Beta virt. eigenvalues --    2.53475   2.56038   2.57492   2.57968   2.58445
  Beta virt. eigenvalues --    2.58945   2.59186   2.60034   2.62658   2.63836
  Beta virt. eigenvalues --    2.64133   2.64456   2.64931   2.65358   2.65673
  Beta virt. eigenvalues --    2.71005   2.71875   2.72124   2.72354   2.72461
  Beta virt. eigenvalues --    2.72530   2.72789   2.76964   2.77388   2.77546
  Beta virt. eigenvalues --    2.77680   2.77745   2.77795   2.78132   2.78208
  Beta virt. eigenvalues --    2.78469   2.78696   2.78877   2.79318   2.79449
  Beta virt. eigenvalues --    2.79914   2.80001   2.80700   2.80876   2.81289
  Beta virt. eigenvalues --    2.81919   2.82367   2.84527   2.87825   2.88225
  Beta virt. eigenvalues --    2.88616   2.88909   2.89272   2.89573   2.89825
  Beta virt. eigenvalues --    2.95525   2.95658   2.95869   2.96002   2.96129
  Beta virt. eigenvalues --    2.96246   2.96399   2.98041   2.98409   2.99031
  Beta virt. eigenvalues --    2.99754   3.00717   3.01467   3.01903   3.11556
  Beta virt. eigenvalues --    3.12050   3.12881   3.14079   3.14221   3.15068
  Beta virt. eigenvalues --    3.17245   3.54609   3.54945   3.55387   3.55878
  Beta virt. eigenvalues --    3.56325   3.56626   3.63800
          Condensed to atoms (all electrons):
          Atomic-Atomic Spin Densities.
 Mulliken charges and spin densities:
               1          2
     1  C    0.017200   0.000000
     2  C    0.027449  -0.000000
     3  C    0.037509   0.000000
     4  C   -0.010530  -0.000000
     5  C   -0.023461  -0.000000
     6  C    0.022678  -0.000000
     7  C    0.010731   0.000000
     8  N   -0.180292  -0.000000
     9  C    0.125791   0.000000
    10  C   -0.207514   0.000000
    11  S    0.143527  -0.000000
    12  C    0.050487  -0.000000
    13  C    0.005831   0.000000
    14  C   -0.008792  -0.000000
    15  C    0.000584   0.000000
    16  C    0.049788  -0.000000
    17  C    0.012578   0.000000
    18  C    0.006334  -0.000000
    19  N   -0.180856  -0.000000
    20  C    0.126487  -0.000000
    21  C   -0.206962   0.000000
    22  S    0.146215   0.000000
    23  C    0.049846   0.000000
    24  C    0.012653  -0.000000
    25  C    0.050008   0.000000
    26  C    0.000814  -0.000000
    27  C   -0.008530   0.000000
    28  C    0.005994  -0.000000
    29  C    0.006111  -0.000000
    30  N   -0.180787   0.000000
    31  C    0.126594   0.000000
    32  C   -0.206845   0.000000
    33  S    0.146852   0.000000
    34  C    0.049578  -0.000000
    35  C    0.006160   0.000000
    36  C   -0.008489   0.000000
    37  C    0.000989   0.000000
    38  C    0.050068  -0.000000
    39  C    0.012759   0.000000
    40  C    0.006387  -0.000000
    41  N   -0.180553   0.000000
    42  C    0.127159  -0.000000
    43  C   -0.206401   0.000000
    44  S    0.144489   0.000000
    45  C    0.049823  -0.000000
    46  C    0.011080   0.000000
    47  C    0.051174  -0.000000
    48  C    0.000744   0.000000
    49  C   -0.009554  -0.000000
    50  C    0.007476   0.000000
    51  C    0.006242  -0.000000
    52  N   -0.180767   0.000000
    53  C    0.126629  -0.000000
    54  C   -0.206587   0.000000
    55  S    0.146488   0.000000
    56  C    0.049311  -0.000000
    57  C    0.012766   0.000000
    58  C    0.050163  -0.000000
    59  C    0.000701  -0.000000
    60  C   -0.008523   0.000000
    61  C    0.006235  -0.000000
    62  C    0.005968   0.000000
    63  N   -0.180871  -0.000000
    64  C    0.126605  -0.000000
    65  C   -0.206127   0.000000
    66  S    0.146766  -0.000000
    67  C    0.048482  -0.000000
    68  C    0.011994  -0.000000
    69  C    0.049337   0.000000
    70  C    0.007190   0.000000
    71  C   -0.006554  -0.000000
    72  C    0.005226   0.000000
    73  C   -0.010951  -0.000000
    74  N   -0.184998  -0.000000
    75  C    0.121153  -0.000000
    76  C   -0.171768   0.000000
    77  S    0.148264  -0.000000
    78  H   -0.004563  -0.000000
    79  H   -0.002029  -0.000000
    80  H   -0.004782   0.000000
    81  H   -0.004203  -0.000000
    82  H   -0.004083   0.000000
    83  H    0.010407   0.000000
    84  H   -0.009415   0.000000
    85  H   -0.001988   0.000000
    86  H   -0.002334  -0.000000
    87  H   -0.002937  -0.000000
    88  H    0.011392  -0.000000
    89  H   -0.002812  -0.000000
    90  H   -0.001872   0.000000
    91  H   -0.001506   0.000000
    92  H   -0.009099  -0.000000
    93  H    0.011619   0.000000
    94  H   -0.009230   0.000000
    95  H   -0.001791   0.000000
    96  H   -0.001505  -0.000000
    97  H   -0.002737   0.000000
    98  H    0.012755  -0.000000
    99  H   -0.007090   0.000000
   100  H   -0.001546   0.000000
   101  H   -0.001365  -0.000000
   102  H   -0.004836   0.000000
   103  H    0.011697   0.000000
   104  H   -0.002886   0.000000
   105  H   -0.001781  -0.000000
   106  H   -0.001219  -0.000000
   107  H   -0.009088  -0.000000
   108  H    0.011539   0.000000
   109  H   -0.002960   0.000000
   110  H   -0.001186   0.000000
   111  H   -0.001881  -0.000000
   112  H   -0.009496  -0.000000
   113  H    0.012184   0.000000
   114  H    0.037875  -0.000000
 Sum of Mulliken charges =  -0.00000  -0.00000
 Mulliken charges and spin densities with hydrogens summed into heavy atoms:
               1          2
     1  C    0.012637   0.000000
     2  C    0.025419  -0.000000
     3  C    0.032727   0.000000
     4  C   -0.010530  -0.000000
     5  C   -0.027664  -0.000000
     6  C    0.018595  -0.000000
     7  C    0.010731   0.000000
     8  N   -0.180292  -0.000000
     9  C    0.136198   0.000000
    10  C   -0.207514   0.000000
    11  S    0.143527  -0.000000
    12  C    0.050487  -0.000000
    13  C   -0.003584   0.000000
    14  C   -0.010779  -0.000000
    15  C    0.000584   0.000000
    16  C    0.047455  -0.000000
    17  C    0.009640   0.000000
    18  C    0.006334  -0.000000
    19  N   -0.180856  -0.000000
    20  C    0.137879  -0.000000
    21  C   -0.206962   0.000000
    22  S    0.146215   0.000000
    23  C    0.049846   0.000000
    24  C    0.009840  -0.000000
    25  C    0.048136   0.000000
    26  C    0.000814  -0.000000
    27  C   -0.010036   0.000000
    28  C   -0.003106  -0.000000
    29  C    0.006111  -0.000000
    30  N   -0.180787   0.000000
    31  C    0.138214   0.000000
    32  C   -0.206845   0.000000
    33  S    0.146852   0.000000
    34  C    0.049578  -0.000000
    35  C   -0.003071   0.000000
    36  C   -0.010280   0.000000
    37  C    0.000989   0.000000
    38  C    0.048563  -0.000000
    39  C    0.010022   0.000000
    40  C    0.006387  -0.000000
    41  N   -0.180553   0.000000
    42  C    0.139914  -0.000000
    43  C   -0.206401   0.000000
    44  S    0.144489   0.000000
    45  C    0.049823  -0.000000
    46  C    0.003991   0.000000
    47  C    0.049628  -0.000000
    48  C    0.000744   0.000000
    49  C   -0.010919  -0.000000
    50  C    0.002639   0.000000
    51  C    0.006242  -0.000000
    52  N   -0.180767   0.000000
    53  C    0.138327  -0.000000
    54  C   -0.206587   0.000000
    55  S    0.146488   0.000000
    56  C    0.049311  -0.000000
    57  C    0.009880   0.000000
    58  C    0.048382  -0.000000
    59  C    0.000701  -0.000000
    60  C   -0.009742   0.000000
    61  C   -0.002853  -0.000000
    62  C    0.005968   0.000000
    63  N   -0.180871  -0.000000
    64  C    0.138144  -0.000000
    65  C   -0.206127   0.000000
    66  S    0.146766  -0.000000
    67  C    0.048482  -0.000000
    68  C    0.009034  -0.000000
    69  C    0.048151   0.000000
    70  C    0.007190   0.000000
    71  C   -0.008435  -0.000000
    72  C   -0.004270   0.000000
    73  C   -0.010951  -0.000000
    74  N   -0.184998  -0.000000
    75  C    0.133337  -0.000000
    76  C   -0.133893   0.000000
    77  S    0.148264  -0.000000
 Electronic spatial extent (au):  <R**2>=         544128.4767
 Charge=             -0.0000 electrons
 Dipole moment (field-independent basis, Debye):
    X=              4.5631    Y=              1.9768    Z=             -0.9127  Tot=              5.0560
 Quadrupole moment (field-independent basis, Debye-Ang):
   XX=           -371.3817   YY=           -473.9661   ZZ=           -486.4746
   XY=             18.5438   XZ=             -0.0650   YZ=              3.5342
 Traceless Quadrupole moment (field-independent basis, Debye-Ang):
   XX=             72.5591   YY=            -30.0253   ZZ=            -42.5338
   XY=             18.5438   XZ=             -0.0650   YZ=              3.5342
 Octapole moment (field-independent basis, Debye-Ang**2):
  XXX=           2928.6324  YYY=             11.9592  ZZZ=             -5.3399  XYY=            365.3360
  XXY=           1191.7553  XXZ=           -655.7345  XZZ=           -254.6329  YZZ=             13.6929
  YYZ=            -28.0880  XYZ=             40.6934
 Hexadecapole moment (field-independent basis, Debye-Ang**3):
 XXXX=        -594547.0188 YYYY=          -9244.7280 ZZZZ=          -2272.5982 XXXY=          10409.5450
 XXXZ=            586.6925 YYYX=           1368.6283 YYYZ=              6.8173 ZZZX=             94.7946
 ZZZY=             14.3520 XXYY=        -121751.6793 XXZZ=        -125828.5384 YYZZ=          -2000.8831
 XXYZ=          -2587.1262 YYXZ=            123.9883 ZZXY=           -211.8812
 N-N= 9.631593372267D+03 E-N=-3.239466038378D+04  KE= 5.565693101244D+03
 Leave Link  601 at Fri Jul 24 09:01:03 2020, MaxMem=  4026531840 cpu:              22.3 elap:               5.7
 (Enter /opt/ohpc/pub/libs/gaussian/g16-A.03/sandybridge/g16/l9999.exe)

 Test job not archived.
 1\1\GINC-SKYLAKE046\FOpt\ULC-wPBE\CC-pVDZ\C63H37N7S7\RDU230\24-Jul-202
 0\0\\#P uLC-wPBE/cc-pVDZ iop(3/107=0296400000, 3/108=0296400000) opt\\
 H37 C63 S7 N7\\0,1\C,-27.336217823,2.2137380062,0.5681549388\C,-26.970
 7674444,1.1706557182,1.420587571\C,-25.6439750105,0.7586927989,1.49618
 84992\C,-24.663774881,1.3876294906,0.7167967842\C,-25.0360170504,2.432
 9643327,-0.1370480709\C,-26.3650698772,2.8431648161,-0.2099671694\C,-2
 3.2665690353,0.9209696441,0.8262190041\N,-22.8937106958,-0.0616377123,
 1.6034744508\C,-21.5472616884,-0.278710668,1.5080466467\C,-20.84971173
 89,0.5362512065,0.6520987582\S,-21.9644286617,1.646870319,-0.075397896
 4\C,-19.4093465608,0.5340937428,0.345303779\C,-18.4816923617,0.1417592
 415,1.3213337437\C,-17.1210496646,0.1125561632,1.038815083\C,-16.64564
 87181,0.4863251076,-0.2237364371\C,-17.56773714,0.8888922935,-1.198647
 6467\C,-18.9274442462,0.9091827186,-0.918188784\C,-15.2102842185,0.476
 2980067,-0.5646877317\N,-14.745877899,0.8445555948,-1.730059361\C,-13.
 3841338432,0.7342594371,-1.7716674528\C,-12.7669101776,0.2755120832,-0
 .6346497683\S,-13.9834350805,-0.0382476315,0.5595793163\C,-11.33099394
 68,0.060964771,-0.3877706026\C,-10.7734725603,0.224279469,0.8896077901
 \C,-9.4150474173,0.0342325009,1.1050508564\C,-8.5690669573,-0.32026652
 45,0.0460696581\C,-9.1207716996,-0.4866085841,-1.2297346466\C,-10.4822
 216145,-0.3047040296,-1.4426776168\C,-7.1310896885,-0.5076004037,0.317
 8645829\N,-6.6027544,-0.383796843,1.507367195\C,-5.254975162,-0.608022
 7184,1.4702256661\C,-4.7129343636,-0.9095487123,0.245632513\S,-5.98517
 86832,-0.9068087617,-0.9314646765\C,-3.3097805226,-1.1984576148,-0.095
 8025272\C,-2.2708335641,-0.5978255804,0.6299302045\C,-0.9420530315,-0.
 8785533145,0.3341446956\C,-0.6118610869,-1.7585018583,-0.7033496433\C,
 -1.6464075309,-2.3529211781,-1.4376312865\C,-2.9736287793,-2.078597881
 8,-1.1357764092\C,0.7844864716,-2.0799091237,-1.0549245108\N,1.1127615
 053,-2.8777385213,-2.0371486353\C,2.4706292921,-2.9983965594,-2.137460
 475\C,3.2215071847,-2.2933800539,-1.2300228704\S,2.1442783578,-1.42811
 60601,-0.1833634427\C,4.6869024734,-2.227071774,-1.099251058\C,5.47899
 58253,-3.3289432174,-1.4588303055\C,6.8628368125,-3.2729705857,-1.3631
 25569\C,7.4988313007,-2.116505244,-0.8921060687\C,6.7127590545,-1.0189
 079719,-0.5231664014\C,5.3276514196,-1.0724217306,-0.628600697\C,8.971
 2926405,-2.1028434904,-0.8000205239\N,9.7218882659,-3.1175789951,-1.14
 0815582\C,11.0455298712,-2.8320081101,-0.9543257304\C,11.3447930517,-1
 .5850911468,-0.4644478741\S,9.8617060399,-0.7201046439,-0.2269173663\C
 ,12.6642374888,-1.0045346607,-0.162765318\C,12.8365897742,-0.074353144
 9,0.8736816063\C,14.0886668496,0.4546230013,1.1569227379\C,15.21092606
 51,0.0641940676,0.4146767755\C,15.0441160196,-0.8631687854,-0.62061584
 17\C,13.7886146664,-1.3850845869,-0.9095709365\C,16.5231403901,0.64900
 21063,0.7509633172\N,16.6968806172,1.5173907003,1.712725507\C,18.00853
 09532,1.8909323672,1.8040594867\C,18.8774845259,1.3167656341,0.9099136
 783\S,17.9807676543,0.2396964314,-0.1098300593\C,20.3294670039,1.52252
 2444,0.7731742173\C,21.1785834709,0.4943629755,0.3365005444\C,22.54778
 37168,0.6980270711,0.2265364159\C,23.112022877,1.937009977,0.556205033
 3\C,22.2689381641,2.9661602687,0.9911103656\C,20.8973136041,2.76441289
 26,1.0923201844\C,24.5728688451,2.109652011,0.4282851986\N,25.37278522
 52,1.164245632,0.0109726047\C,26.6735065248,1.5955896778,-0.0090138358
 \C,26.8812389987,2.8829907729,0.3954896371\S,25.3803558855,3.602592689
 3,0.8265199329\H,-28.380994183,2.537010239,0.5098425671\H,-27.72884108
 51,0.6721839941,2.0340716732\H,-25.3370249895,-0.0566108654,2.15778307
 24\H,-24.2834557627,2.936028516,-0.7552433353\H,-26.6435663937,3.66194
 04837,-0.8816098218\H,-21.0975576832,-1.0910515875,2.0859032957\H,-18.
 8301128692,-0.1259361938,2.3237842336\H,-16.4220943267,-0.1957333639,1
 .8246429113\H,-17.1906454322,1.1788267028,-2.1835659636\H,-19.63312121
 66,1.2088517101,-1.7008515354\H,-12.8539040175,1.0335459329,-2.6800837
 52\H,-11.4141080179,0.5205210321,1.7275863229\H,-8.9780908545,0.163561
 5918,2.0993584666\H,-8.4851487459,-0.7754533766,-2.0744849635\H,-10.89
 83276183,-0.4681805072,-2.441724137\H,-4.6825678921,-0.5635221607,2.40
 09651301\H,-2.5070888707,0.115640884,1.4256217419\H,-0.1535392033,-0.3
 900199458,0.9177601784\H,-1.3822812004,-3.0404404249,-2.246252123\H,-3
 .7675650011,-2.5691474134,-1.7097136786\H,2.8921911609,-3.6178142843,-
 2.9339563521\H,4.9992692921,-4.251475411,-1.8012677843\H,7.4823106775,
 -4.1305081816,-1.6411244507\H,7.1822292399,-0.1003394873,-0.1533715004
 \H,4.7336777137,-0.1942320599,-0.3532096013\H,11.7916383407,-3.6005487
 472,-1.1746723333\H,11.9754703089,0.2295664943,1.4790685796\H,14.22570
 71527,1.1779627055,1.965805617\H,15.9024053666,-1.1796168207,-1.224120
 4955\H,13.6747578304,-2.0864811463,-1.7420834227\H,18.3075727975,2.596
 650496,2.5840673191\H,20.7601966109,-0.488379105,0.0923399034\H,23.211
 9448839,-0.1026526609,-0.1112933965\H,22.6810185866,3.9492296855,1.245
 6403441\H,20.2522678847,3.5910854852,1.4062611705\H,27.4594441691,0.91
 0301944,-0.3377020738\H,27.8195712847,3.4350570875,0.4613340434\\Versi
 on=EM64L-G16RevA.03\State=1-A\HF=-5590.7054361\S2=0.\S2-1=0.\S2A=0.\RM
 SD=7.206e-09\RMSF=3.572e-06\Dipole=1.7930533,0.8610979,-0.016651\Quadr
 upole=53.8746043,-25.6779373,-28.1966669,12.8565665,5.5016936,5.217685
 5\PG=C01 [X(C63H37N7S7)]\\@


 IF THERE IS ONE WAY BETTER THAN ANOTHER IT IS THE WAY OF NATURE.

                          -- ARISTOTLE
 Job cpu time:       1 days 19 hours 53 minutes  5.5 seconds.
 Elapsed time:       0 days  5 hours 39 minutes 46.7 seconds.
 File lengths (MBytes):  RWF=   1872 Int=      0 D2E=      0 Chk=    168 Scr=      8
 Normal termination of Gaussian 16 at Fri Jul 24 09:01:03 2020.
