 Entering Gaussian System, Link 0=g16
 Input=mols_65_1_09_c-cF-N_opt_0.gjf
 Output=mols_65_1_09_c-cF-N_opt_0.log
 Initial command:
 /opt/ohpc/pub/libs/gaussian/g16-A.03/sandybridge/g16/l1.exe "/mnt/gpfs2_4m/scratch/rdu230/ondemand/projects/dihedral_energies/7trial/wtuning/mols_65_1_09_c-cF-N/Gau-369659.inp" -scrdir="/mnt/gpfs2_4m/scratch/rdu230/ondemand/projects/dihedral_energies/7trial/wtuning/mols_65_1_09_c-cF-N/"
 Entering Link 1 = /opt/ohpc/pub/libs/gaussian/g16-A.03/sandybridge/g16/l1.exe PID=    369661.
  
 Copyright (c) 1988,1990,1992,1993,1995,1998,2003,2009,2016,
            Gaussian, Inc.  All Rights Reserved.
  
 This is part of the Gaussian(R) 16 program.  It is based on
 the Gaussian(R) 09 system (copyright 2009, Gaussian, Inc.),
 the Gaussian(R) 03 system (copyright 2003, Gaussian, Inc.),
 the Gaussian(R) 98 system (copyright 1998, Gaussian, Inc.),
 the Gaussian(R) 94 system (copyright 1995, Gaussian, Inc.),
 the Gaussian 92(TM) system (copyright 1992, Gaussian, Inc.),
 the Gaussian 90(TM) system (copyright 1990, Gaussian, Inc.),
 the Gaussian 88(TM) system (copyright 1988, Gaussian, Inc.),
 the Gaussian 86(TM) system (copyright 1986, Carnegie Mellon
 University), and the Gaussian 82(TM) system (copyright 1983,
 Carnegie Mellon University). Gaussian is a federally registered
 trademark of Gaussian, Inc.
  
 This software contains proprietary and confidential information,
 including trade secrets, belonging to Gaussian, Inc.
  
 This software is provided under written license and may be
 used, copied, transmitted, or stored only in accord with that
 written license.
  
 The following legend is applicable only to US Government
 contracts under FAR:
  
                    RESTRICTED RIGHTS LEGEND
  
 Use, reproduction and disclosure by the US Government is
 subject to restrictions as set forth in subparagraphs (a)
 and (c) of the Commercial Computer Software - Restricted
 Rights clause in FAR 52.227-19.
  
 Gaussian, Inc.
 340 Quinnipiac St., Bldg. 40, Wallingford CT 06492
  
  
 ---------------------------------------------------------------
 Warning -- This program may not be used in any manner that
 competes with the business of Gaussian, Inc. or will provide
 assistance to any competitor of Gaussian, Inc.  The licensee
 of this program is prohibited from giving any competitor of
 Gaussian, Inc. access to this program.  By using this program,
 the user acknowledges that Gaussian, Inc. is engaged in the
 business of creating and licensing software in the field of
 computational chemistry and represents and warrants to the
 licensee that it is not a competitor of Gaussian, Inc. and that
 it will not use this program in any manner prohibited above.
 ---------------------------------------------------------------
  

 Cite this work as:
 Gaussian 16, Revision A.03,
 M. J. Frisch, G. W. Trucks, H. B. Schlegel, G. E. Scuseria, 
 M. A. Robb, J. R. Cheeseman, G. Scalmani, V. Barone, 
 G. A. Petersson, H. Nakatsuji, X. Li, M. Caricato, A. V. Marenich, 
 J. Bloino, B. G. Janesko, R. Gomperts, B. Mennucci, H. P. Hratchian, 
 J. V. Ortiz, A. F. Izmaylov, J. L. Sonnenberg, D. Williams-Young, 
 F. Ding, F. Lipparini, F. Egidi, J. Goings, B. Peng, A. Petrone, 
 T. Henderson, D. Ranasinghe, V. G. Zakrzewski, J. Gao, N. Rega, 
 G. Zheng, W. Liang, M. Hada, M. Ehara, K. Toyota, R. Fukuda, 
 J. Hasegawa, M. Ishida, T. Nakajima, Y. Honda, O. Kitao, H. Nakai, 
 T. Vreven, K. Throssell, J. A. Montgomery, Jr., J. E. Peralta, 
 F. Ogliaro, M. J. Bearpark, J. J. Heyd, E. N. Brothers, K. N. Kudin, 
 V. N. Staroverov, T. A. Keith, R. Kobayashi, J. Normand, 
 K. Raghavachari, A. P. Rendell, J. C. Burant, S. S. Iyengar, 
 J. Tomasi, M. Cossi, J. M. Millam, M. Klene, C. Adamo, R. Cammi, 
 J. W. Ochterski, R. L. Martin, K. Morokuma, O. Farkas, 
 J. B. Foresman, and D. J. Fox, Gaussian, Inc., Wallingford CT, 2016.
 
 ******************************************
 Gaussian 16:  EM64L-G16RevA.03 25-Dec-2016
                25-Jul-2020 
 ******************************************
 %mem=30GB
 %nproc=8
 Will use up to    8 processors via shared memory.
 ---------------------------------------------------------------
 #P uLC-wPBE/cc-pVDZ iop(3/107=0063300000, 3/108=0063300000) opt
 ---------------------------------------------------------------
 1/18=20,19=15,26=3,38=1/1,3;
 2/9=110,12=2,17=6,18=5,40=1/2;
 3/5=16,11=2,25=1,30=1,71=1,74=-41,107=63300000,108=63300000,116=2/1,2,3;
 4//1;
 5/5=2,38=5/2;
 6/7=2,8=2,9=2,10=2,28=1/1;
 7//1,2,3,16;
 1/18=20,19=15,26=3/3(2);
 2/9=110/2;
 99//99;
 2/9=110/2;
 3/5=16,11=2,25=1,30=1,71=1,74=-41,107=63300000,108=63300000,116=2/1,2,3;
 4/5=5,16=3,69=1/1;
 5/5=2,38=5/2;
 7//1,2,3,16;
 1/18=20,19=15,26=3/3(-5);
 2/9=110/2;
 6/7=2,8=2,9=2,10=2,19=2,28=1/1;
 99/9=1/99;
 Leave Link    1 at Sat Jul 25 05:11:44 2020, MaxMem=  4026531840 cpu:               1.0 elap:               0.1
 (Enter /opt/ohpc/pub/libs/gaussian/g16-A.03/sandybridge/g16/l101.exe)
 --------------
 H6 C9 S1 N1 F1
 --------------
 Symbolic Z-matrix:
 Charge =  0 Multiplicity = 1
 C                     3.42162  -0.36353  -0.00284 
 C                     2.68241  -1.47758   0.00747 
 C                     1.34385  -1.48191  -0.04338 
 C                     0.57001  -0.31415   0.02749 
 C                     1.30705   0.92037  -0.03247 
 F                     0.76257   2.13057   0.04359 
 C                     2.74123   0.88341   0.04899 
 C                    -0.83983  -0.35092  -0.02924 
 N                    -1.57178  -1.5121   -0.04145 
 C                    -2.95463  -1.27768   0.01995 
 C                    -3.32094   0.02168   0.01758 
 S                    -1.90699   1.05302  -0.04769 
 H                     4.50837  -0.27832   0.01935 
 H                     3.27026  -2.4353   -0.03738 
 H                     0.74412  -2.4247    0.01663 
 H                     3.3063    1.87677   0.01038 
 H                    -3.56973  -2.07935   0.03274 
 H                    -4.32912   0.45413  -0.00792 
 
 ITRead=  0  0  0  0  0  0  0  0  0  0  0  0  0  0  0  0  0  0
 MicOpt= -1 -1 -1 -1 -1 -1 -1 -1 -1 -1 -1 -1 -1 -1 -1 -1 -1 -1
 NAtoms=     18 NQM=       18 NQMF=       0 NMMI=      0 NMMIF=      0
                NMic=       0 NMicF=      0.
                    Isotopes and Nuclear Properties:
 (Nuclear quadrupole moments (NQMom) in fm**2, nuclear magnetic moments (NMagM)
  in nuclear magnetons)

  Atom         1           2           3           4           5           6           7           8           9          10
 IAtWgt=          12          12          12          12          12          19          12          12          14          12
 AtmWgt=  12.0000000  12.0000000  12.0000000  12.0000000  12.0000000  18.9984033  12.0000000  12.0000000  14.0030740  12.0000000
 NucSpn=           0           0           0           0           0           1           0           0           2           0
 AtZEff=  -0.0000000  -0.0000000  -0.0000000  -0.0000000  -0.0000000  -0.0000000  -0.0000000  -0.0000000  -0.0000000  -0.0000000
 NQMom=    0.0000000   0.0000000   0.0000000   0.0000000   0.0000000   0.0000000   0.0000000   0.0000000   2.0440000   0.0000000
 NMagM=    0.0000000   0.0000000   0.0000000   0.0000000   0.0000000   2.6288670   0.0000000   0.0000000   0.4037610   0.0000000
 AtZNuc=   6.0000000   6.0000000   6.0000000   6.0000000   6.0000000   9.0000000   6.0000000   6.0000000   7.0000000   6.0000000

  Atom        11          12          13          14          15          16          17          18
 IAtWgt=          12          32           1           1           1           1           1           1
 AtmWgt=  12.0000000  31.9720718   1.0078250   1.0078250   1.0078250   1.0078250   1.0078250   1.0078250
 NucSpn=           0           0           1           1           1           1           1           1
 AtZEff=  -0.0000000  -0.0000000  -0.0000000  -0.0000000  -0.0000000  -0.0000000  -0.0000000  -0.0000000
 NQMom=    0.0000000   0.0000000   0.0000000   0.0000000   0.0000000   0.0000000   0.0000000   0.0000000
 NMagM=    0.0000000   0.0000000   2.7928460   2.7928460   2.7928460   2.7928460   2.7928460   2.7928460
 AtZNuc=   6.0000000  16.0000000   1.0000000   1.0000000   1.0000000   1.0000000   1.0000000   1.0000000
 Leave Link  101 at Sat Jul 25 05:11:45 2020, MaxMem=  4026531840 cpu:               3.1 elap:               0.4
 (Enter /opt/ohpc/pub/libs/gaussian/g16-A.03/sandybridge/g16/l103.exe)

 GradGradGradGradGradGradGradGradGradGradGradGradGradGradGradGradGradGrad
 Berny optimization.
 Initialization pass.
                           ----------------------------
                           !    Initial Parameters    !
                           ! (Angstroms and Degrees)  !
 --------------------------                            --------------------------
 ! Name  Definition              Value          Derivative Info.                !
 --------------------------------------------------------------------------------
 ! R1    R(1,2)                  1.337          estimate D2E/DX2                !
 ! R2    R(1,7)                  1.4214         estimate D2E/DX2                !
 ! R3    R(1,13)                 1.0903         estimate D2E/DX2                !
 ! R4    R(2,3)                  1.3395         estimate D2E/DX2                !
 ! R5    R(2,14)                 1.1246         estimate D2E/DX2                !
 ! R6    R(3,4)                  1.4027         estimate D2E/DX2                !
 ! R7    R(3,15)                 1.119          estimate D2E/DX2                !
 ! R8    R(4,5)                  1.439          estimate D2E/DX2                !
 ! R9    R(4,8)                  1.4115         estimate D2E/DX2                !
 ! R10   R(5,6)                  1.3292         estimate D2E/DX2                !
 ! R11   R(5,7)                  1.437          estimate D2E/DX2                !
 ! R12   R(7,16)                 1.1435         estimate D2E/DX2                !
 ! R13   R(8,9)                  1.3727         estimate D2E/DX2                !
 ! R14   R(8,12)                 1.7636         estimate D2E/DX2                !
 ! R15   R(9,10)                 1.4039         estimate D2E/DX2                !
 ! R16   R(10,11)                1.35           estimate D2E/DX2                !
 ! R17   R(10,17)                1.0105         estimate D2E/DX2                !
 ! R18   R(11,12)                1.7513         estimate D2E/DX2                !
 ! R19   R(11,18)                1.0973         estimate D2E/DX2                !
 ! A1    A(2,1,7)              117.776          estimate D2E/DX2                !
 ! A2    A(2,1,13)             128.0267         estimate D2E/DX2                !
 ! A3    A(7,1,13)             114.0671         estimate D2E/DX2                !
 ! A4    A(1,2,3)              123.7025         estimate D2E/DX2                !
 ! A5    A(1,2,14)             114.8514         estimate D2E/DX2                !
 ! A6    A(3,2,14)             121.2015         estimate D2E/DX2                !
 ! A7    A(2,3,4)              123.1387         estimate D2E/DX2                !
 ! A8    A(2,3,15)             122.4296         estimate D2E/DX2                !
 ! A9    A(4,3,15)             113.7687         estimate D2E/DX2                !
 ! A10   A(3,4,5)              115.4384         estimate D2E/DX2                !
 ! A11   A(3,4,8)              121.8252         estimate D2E/DX2                !
 ! A12   A(5,4,8)              122.1579         estimate D2E/DX2                !
 ! A13   A(4,5,6)              124.672          estimate D2E/DX2                !
 ! A14   A(4,5,7)              119.1272         estimate D2E/DX2                !
 ! A15   A(6,5,7)              115.4042         estimate D2E/DX2                !
 ! A16   A(1,7,5)              119.883          estimate D2E/DX2                !
 ! A17   A(1,7,16)             121.6208         estimate D2E/DX2                !
 ! A18   A(5,7,16)             117.9665         estimate D2E/DX2                !
 ! A19   A(4,8,9)              123.7113         estimate D2E/DX2                !
 ! A20   A(4,8,12)             125.7395         estimate D2E/DX2                !
 ! A21   A(9,8,12)             110.5278         estimate D2E/DX2                !
 ! A22   A(8,9,10)             112.556          estimate D2E/DX2                !
 ! A23   A(9,10,11)            115.3344         estimate D2E/DX2                !
 ! A24   A(9,10,17)            117.8818         estimate D2E/DX2                !
 ! A25   A(11,10,17)           126.7554         estimate D2E/DX2                !
 ! A26   A(10,11,12)           110.3524         estimate D2E/DX2                !
 ! A27   A(10,11,18)           128.9514         estimate D2E/DX2                !
 ! A28   A(12,11,18)           120.5854         estimate D2E/DX2                !
 ! A29   A(8,12,11)             91.1089         estimate D2E/DX2                !
 ! D1    D(7,1,2,3)              5.505          estimate D2E/DX2                !
 ! D2    D(7,1,2,14)           179.8715         estimate D2E/DX2                !
 ! D3    D(13,1,2,3)          -178.9163         estimate D2E/DX2                !
 ! D4    D(13,1,2,14)           -4.5498         estimate D2E/DX2                !
 ! D5    D(2,1,7,5)             -6.557          estimate D2E/DX2                !
 ! D6    D(2,1,7,16)          -178.0383         estimate D2E/DX2                !
 ! D7    D(13,1,7,5)           177.2564         estimate D2E/DX2                !
 ! D8    D(13,1,7,16)            5.7751         estimate D2E/DX2                !
 ! D9    D(1,2,3,4)             -6.8697         estimate D2E/DX2                !
 ! D10   D(1,2,3,15)          -176.9512         estimate D2E/DX2                !
 ! D11   D(14,2,3,4)           179.1078         estimate D2E/DX2                !
 ! D12   D(14,2,3,15)            9.0263         estimate D2E/DX2                !
 ! D13   D(2,3,4,5)              8.5266         estimate D2E/DX2                !
 ! D14   D(2,3,4,8)            179.9799         estimate D2E/DX2                !
 ! D15   D(15,3,4,5)           179.3858         estimate D2E/DX2                !
 ! D16   D(15,3,4,8)            -9.1609         estimate D2E/DX2                !
 ! D17   D(3,4,5,6)           -178.6975         estimate D2E/DX2                !
 ! D18   D(3,4,5,7)             -9.4086         estimate D2E/DX2                !
 ! D19   D(8,4,5,6)              9.8805         estimate D2E/DX2                !
 ! D20   D(8,4,5,7)            179.1694         estimate D2E/DX2                !
 ! D21   D(3,4,8,9)              5.7705         estimate D2E/DX2                !
 ! D22   D(3,4,8,12)          -176.0734         estimate D2E/DX2                !
 ! D23   D(5,4,8,9)            176.6491         estimate D2E/DX2                !
 ! D24   D(5,4,8,12)            -5.1948         estimate D2E/DX2                !
 ! D25   D(4,5,7,1)              8.8418         estimate D2E/DX2                !
 ! D26   D(4,5,7,16)          -179.3691         estimate D2E/DX2                !
 ! D27   D(6,5,7,1)            179.0996         estimate D2E/DX2                !
 ! D28   D(6,5,7,16)            -9.1113         estimate D2E/DX2                !
 ! D29   D(4,8,9,10)           174.6443         estimate D2E/DX2                !
 ! D30   D(12,8,9,10)           -3.7576         estimate D2E/DX2                !
 ! D31   D(4,8,12,11)         -175.4454         estimate D2E/DX2                !
 ! D32   D(9,8,12,11)            2.9168         estimate D2E/DX2                !
 ! D33   D(8,9,10,11)            2.8936         estimate D2E/DX2                !
 ! D34   D(8,9,10,17)         -178.9113         estimate D2E/DX2                !
 ! D35   D(9,10,11,12)          -0.5805         estimate D2E/DX2                !
 ! D36   D(9,10,11,18)         175.548          estimate D2E/DX2                !
 ! D37   D(17,10,11,12)       -178.5892         estimate D2E/DX2                !
 ! D38   D(17,10,11,18)         -2.4608         estimate D2E/DX2                !
 ! D39   D(10,11,12,8)          -1.3267         estimate D2E/DX2                !
 ! D40   D(18,11,12,8)        -177.8298         estimate D2E/DX2                !
 --------------------------------------------------------------------------------
 Trust Radius=3.00D-01 FncErr=1.00D-07 GrdErr=1.00D-06 EigMax=2.50D+02 EigMin=1.00D-04
 Number of steps in this run=     98 maximum allowed number of steps=    108.
 GradGradGradGradGradGradGradGradGradGradGradGradGradGradGradGradGradGrad

 Leave Link  103 at Sat Jul 25 05:11:45 2020, MaxMem=  4026531840 cpu:               0.1 elap:               0.0
 (Enter /opt/ohpc/pub/libs/gaussian/g16-A.03/sandybridge/g16/l202.exe)
                          Input orientation:                          
 ---------------------------------------------------------------------
 Center     Atomic      Atomic             Coordinates (Angstroms)
 Number     Number       Type             X           Y           Z
 ---------------------------------------------------------------------
      1          6           0        3.421619   -0.363528   -0.002844
      2          6           0        2.682407   -1.477575    0.007466
      3          6           0        1.343847   -1.481912   -0.043376
      4          6           0        0.570013   -0.314146    0.027494
      5          6           0        1.307045    0.920370   -0.032470
      6          9           0        0.762565    2.130569    0.043586
      7          6           0        2.741228    0.883414    0.048987
      8          6           0       -0.839827   -0.350916   -0.029237
      9          7           0       -1.571777   -1.512103   -0.041449
     10          6           0       -2.954626   -1.277684    0.019952
     11          6           0       -3.320938    0.021676    0.017581
     12         16           0       -1.906992    1.053018   -0.047690
     13          1           0        4.508370   -0.278324    0.019348
     14          1           0        3.270257   -2.435303   -0.037377
     15          1           0        0.744118   -2.424699    0.016634
     16          1           0        3.306302    1.876770    0.010380
     17          1           0       -3.569733   -2.079348    0.032743
     18          1           0       -4.329118    0.454134   -0.007915
 ---------------------------------------------------------------------
                    Distance matrix (angstroms):
                    1          2          3          4          5
     1  C    0.000000
     2  C    1.337027   0.000000
     3  C    2.359992   1.339532   0.000000
     4  C    2.852195   2.411675   1.402683   0.000000
     5  C    2.474004   2.764662   2.402589   1.439042   0.000000
     6  F    3.645990   4.087273   3.659982   2.452339   1.329220
     7  C    1.421437   2.362087   2.748813   2.479675   1.436970
     8  C    4.261546   3.698221   2.459224   1.411460   2.495043
     9  N    5.123936   4.254605   2.915781   2.455019   3.768902
    10  C    6.441483   5.640590   4.303788   3.653976   4.795418
    11  C    6.753582   6.187730   4.901501   3.905429   4.714699
    12  S    5.513865   5.241138   4.122359   2.830255   3.216809
    13  H    1.090312   2.184602   3.386261   3.938528   3.418777
    14  H    2.077584   1.124643   2.149429   3.434361   3.887771
    15  H    3.379026   2.157335   1.118983   2.117750   3.392460
    16  H    2.243303   3.411874   3.890355   3.505379   2.216656
    17  H    7.198910   6.281085   4.950353   4.500385   5.725865
    18  H    7.793749   7.272772   5.994336   4.959132   5.655467
                    6          7          8          9         10
     6  F    0.000000
     7  C    2.338917   0.000000
     8  C    2.954781   3.788620   0.000000
     9  N    4.327290   4.934439   1.372682   0.000000
    10  C    5.043239   6.092121   2.309479   1.403921   0.000000
    11  C    4.595988   6.123188   2.509368   2.327128   1.350010
    12  S    2.880275   4.652318   1.763579   2.586939   2.556225
    13  H    4.453584   2.115019   5.348910   6.204361   7.529610
    14  H    5.209824   3.361728   4.608419   4.929260   6.331867
    15  H    4.555385   3.864338   2.609897   2.489895   3.872514
    16  H    2.556583   1.143484   4.706861   5.939933   7.010698
    17  H    6.040888   6.971833   3.231672   2.078244   1.010537
    18  H    5.360814   7.083595   3.581021   3.386760   2.211153
                   11         12         13         14         15
    11  C    0.000000
    12  S    1.751334   0.000000
    13  H    7.835054   6.552392   0.000000
    14  H    7.034459   6.242788   2.487710   0.000000
    15  H    4.744411   4.373447   4.333189   2.526739   0.000000
    16  H    6.881986   5.278293   2.467687   4.312488   5.006742
    17  H    2.115758   3.547237   8.276449   6.849605   4.327683
    18  H    1.097313   2.495383   8.867831   8.130204   5.833181
                   16         17         18
    16  H    0.000000
    17  H    7.932920   0.000000
    18  H    7.766844   2.645156   0.000000
 Stoichiometry    C9H6FNS
 Framework group  C1[X(C9H6FNS)]
 Deg. of freedom    48
 Full point group                 C1      NOp   1
 Largest Abelian subgroup         C1      NOp   1
 Largest concise Abelian subgroup C1      NOp   1
                         Standard orientation:                         
 ---------------------------------------------------------------------
 Center     Atomic      Atomic             Coordinates (Angstroms)
 Number     Number       Type             X           Y           Z
 ---------------------------------------------------------------------
      1          6           0        3.431206   -0.376025   -0.009487
      2          6           0        2.687693   -1.487090    0.009587
      3          6           0        1.348923   -1.486421   -0.035610
      4          6           0        0.579968   -0.315278    0.032576
      5          6           0        1.321562    0.916011   -0.036754
      6          9           0        0.782145    2.128711    0.035439
      7          6           0        2.755921    0.873829    0.038865
      8          6           0       -0.830232   -0.346791   -0.018045
      9          7           0       -1.566762   -1.505138   -0.021283
     10          6           0       -2.948413   -1.264976    0.044733
     11          6           0       -3.309647    0.035786    0.037299
     12         16           0       -1.891967    1.061217   -0.039149
     13          1           0        4.518365   -0.294983    0.007707
     14          1           0        3.271599   -2.447337   -0.032858
     15          1           0        0.745771   -2.426527    0.031708
     16          1           0        3.324707    1.864748   -0.007161
     17          1           0       -3.566590   -2.064140    0.064180
     18          1           0       -4.316227    0.472070    0.013841
 ---------------------------------------------------------------------
 Rotational constants (GHZ):           1.8741762           0.5979315           0.4534674
 Leave Link  202 at Sat Jul 25 05:11:45 2020, MaxMem=  4026531840 cpu:               0.2 elap:               0.0
 (Enter /opt/ohpc/pub/libs/gaussian/g16-A.03/sandybridge/g16/l301.exe)
 Standard basis: CC-pVDZ (5D, 7F)
 Ernie: Thresh=  0.10000D-02 Tol=  0.10000D-05 Strict=F.
 Ernie:  32 primitive shells out of 322 were deleted.
 There are   214 symmetry adapted cartesian basis functions of A   symmetry.
 There are   202 symmetry adapted basis functions of A   symmetry.
   202 basis functions,   476 primitive gaussians,   214 cartesian basis functions
    46 alpha electrons       46 beta electrons
       nuclear repulsion energy       731.6207292290 Hartrees.
 IExCor=32609 DFT=T Ex+Corr=LC-wPBE ExCW=0 ScaHFX=  1.000000
 ScaDFX=  1.000000  0.000000  1.000000  1.000000 ScalE2=  1.000000  1.000000
 IRadAn=      5 IRanWt=     -1 IRanGd=            0 ICorTp=0 IEmpDi=  4
 HFx  wShort=  0.000000 wLong=  0.063300 cFull=  0.000000 cShort=  0.000000 cLong=  1.000000
 DFx  wShort=  0.000000 wLong=  0.063300 cFull=  0.000000 cShort=  0.000000 cLong=  1.000000
 NAtoms=   18 NActive=   18 NUniq=   18 SFac= 1.00D+00 NAtFMM=   60 NAOKFM=F Big=F
 Integral buffers will be    131072 words long.
 Raffenetti 2 integral format.
 Two-electron integral symmetry is turned on.
 Leave Link  301 at Sat Jul 25 05:11:45 2020, MaxMem=  4026531840 cpu:               0.4 elap:               0.1
 (Enter /opt/ohpc/pub/libs/gaussian/g16-A.03/sandybridge/g16/l302.exe)
 NPDir=0 NMtPBC=     1 NCelOv=     1 NCel=       1 NClECP=     1 NCelD=      1
         NCelK=      1 NCelE2=     1 NClLst=     1 CellRange=     0.0.
 One-electron integrals computed using PRISM.
 One-electron integral symmetry used in STVInt
 NBasis=   202 RedAO= T EigKep=  4.44D-04  NBF=   202
 NBsUse=   202 1.00D-06 EigRej= -1.00D+00 NBFU=   202
 Precomputing XC quadrature grid using
 IXCGrd= 4 IRadAn=           5 IRanWt=          -1 IRanGd=           0 AccXCQ= 0.00D+00.
 Generated NRdTot=       0 NPtTot=           0 NUsed=           0 NTot=          32
 NSgBfM=   214   214   214   214   214 MxSgAt=    18 MxSgA2=    18.
 Leave Link  302 at Sat Jul 25 05:11:45 2020, MaxMem=  4026531840 cpu:               1.7 elap:               0.2
 (Enter /opt/ohpc/pub/libs/gaussian/g16-A.03/sandybridge/g16/l303.exe)
 DipDrv:  MaxL=1.
 Leave Link  303 at Sat Jul 25 05:11:45 2020, MaxMem=  4026531840 cpu:               0.3 elap:               0.1
 (Enter /opt/ohpc/pub/libs/gaussian/g16-A.03/sandybridge/g16/l401.exe)
 ExpMin= 1.22D-01 ExpMax= 1.11D+05 ExpMxC= 1.07D+03 IAcc=3 IRadAn=         5 AccDes= 0.00D+00
 Harris functional with IExCor=32609 and IRadAn=       5 diagonalized for initial guess.
 HarFok:  IExCor=32609 AccDes= 0.00D+00 IRadAn=         5 IDoV= 1 UseB2=F ITyADJ=14
 ICtDFT=  3500011 ScaDFX=  1.000000  1.000000  1.000000  1.000000
 FoFCou: FMM=F IPFlag=           0 FMFlag=      100000 FMFlg1=           0
         NFxFlg=           0 DoJE=T BraDBF=F KetDBF=T FulRan=T
         wScrn=  0.000000 ICntrl=       500 IOpCl=  0 I1Cent=   200000004 NGrid=           0
         NMat0=    1 NMatS0=      1 NMatT0=    0 NMatD0=    1 NMtDS0=    0 NMtDT0=    0
 Petite list used in FoFCou.
 Harris En= -898.762164274397    
 JPrj=0 DoOrth=F DoCkMO=F.
 Initial guess <Sx>= 0.0000 <Sy>= 0.0000 <Sz>= 0.0000 <S**2>=-0.0000 S=-0.0000
 Leave Link  401 at Sat Jul 25 05:11:47 2020, MaxMem=  4026531840 cpu:               8.5 elap:               1.1
 (Enter /opt/ohpc/pub/libs/gaussian/g16-A.03/sandybridge/g16/l502.exe)
 Integral symmetry usage will be decided dynamically.
 UHF open shell SCF:
 Using DIIS extrapolation, IDIIS=  1040.
 NGot=  4026531840 LenX=  4026436264 LenY=  4026390027
 Requested convergence on RMS density matrix=1.00D-08 within 128 cycles.
 Requested convergence on MAX density matrix=1.00D-06.
 Requested convergence on             energy=1.00D-06.
 No special actions if energy rises.
 Fock matrices will be formed incrementally for  20 cycles.
 Integral accuracy reduced to 1.0D-05 until final iterations.

 Cycle   1  Pass 0  IDiag  1:
 FoFJK:  IHMeth= 1 ICntrl=       0 DoSepK=T KAlg= 0 I1Cent=           0 FoldK=F
 IRaf=         1 NMat=       1 IRICut=       1 DoRegI=T DoRafI=F ISym2E= 0 IDoP0=0 IntGTp=1.
 FoFCou: FMM=F IPFlag=           0 FMFlag=      100000 FMFlg1=           0
         NFxFlg=           0 DoJE=T BraDBF=F KetDBF=F FulRan=T
         wScrn=  0.000000 ICntrl=       500 IOpCl=  0 I1Cent=           0 NGrid=           0
         NMat0=    1 NMatS0=      1 NMatT0=    0 NMatD0=    1 NMtDS0=    0 NMtDT0=    0
 Symmetry not used in FoFCou.
 E= -898.424612802939    
 DIIS: error= 2.13D-02 at cycle   1 NSaved=   1.
 NSaved= 1 IEnMin= 1 EnMin= -898.424612802939     IErMin= 1 ErrMin= 2.13D-02
 ErrMax= 2.13D-02  0.00D+00 EMaxC= 1.00D-01 BMatC= 9.43D-01 BMatP= 9.43D-01
 IDIUse=3 WtCom= 7.87D-01 WtEn= 2.13D-01
 Coeff-Com:  0.100D+01
 Coeff-En:   0.100D+01
 Coeff:      0.100D+01
 Gap=     0.278 Goal=   None    Shift=    0.000
 Gap=     0.278 Goal=   None    Shift=    0.000
 GapD=    0.278 DampG=1.000 DampE=0.500 DampFc=0.5000 IDamp=-1.
 Damping current iteration by 5.00D-01
 RMSDP=8.47D-03 MaxDP=2.04D-01              OVMax= 3.53D-01

 Cycle   2  Pass 0  IDiag  1:
 RMSU=  4.23D-03    CP:  9.90D-01
 E= -898.419505071193     Delta-E=        0.005107731746 Rises=F Damp=T
 DIIS: error= 1.42D-02 at cycle   2 NSaved=   2.
 NSaved= 2 IEnMin= 1 EnMin= -898.424612802939     IErMin= 2 ErrMin= 1.42D-02
 ErrMax= 1.42D-02  0.00D+00 EMaxC= 1.00D-01 BMatC= 3.02D-01 BMatP= 9.43D-01
 IDIUse=3 WtCom= 8.58D-01 WtEn= 1.42D-01
 Coeff-Com:  0.336D+00 0.664D+00
 Coeff-En:   0.507D+00 0.493D+00
 Coeff:      0.360D+00 0.640D+00
 Gap=     0.250 Goal=   None    Shift=    0.000
 Gap=     0.250 Goal=   None    Shift=    0.000
 RMSDP=3.07D-03 MaxDP=6.80D-02 DE= 5.11D-03 OVMax= 2.91D-01

 Cycle   3  Pass 0  IDiag  1:
 RMSU=  2.17D-03    CP:  9.88D-01  4.85D-01
 E= -898.658085195722     Delta-E=       -0.238580124530 Rises=F Damp=F
 DIIS: error= 1.56D-02 at cycle   3 NSaved=   3.
 NSaved= 3 IEnMin= 3 EnMin= -898.658085195722     IErMin= 2 ErrMin= 1.42D-02
 ErrMax= 1.56D-02  0.00D+00 EMaxC= 1.00D-01 BMatC= 1.78D-01 BMatP= 3.02D-01
 IDIUse=3 WtCom= 8.44D-01 WtEn= 1.56D-01
 Coeff-Com:  0.178D+00 0.426D+00 0.396D+00
 Coeff-En:   0.000D+00 0.000D+00 0.100D+01
 Coeff:      0.151D+00 0.359D+00 0.490D+00
 Gap=     0.184 Goal=   None    Shift=    0.000
 Gap=     0.184 Goal=   None    Shift=    0.000
 RMSDP=1.50D-03 MaxDP=6.52D-02 DE=-2.39D-01 OVMax= 9.47D-02

 Cycle   4  Pass 0  IDiag  1:
 RMSU=  1.04D-03    CP:  9.93D-01  5.82D-01  5.47D-01
 E= -898.693574035190     Delta-E=       -0.035488839467 Rises=F Damp=F
 DIIS: error= 8.19D-03 at cycle   4 NSaved=   4.
 NSaved= 4 IEnMin= 4 EnMin= -898.693574035190     IErMin= 4 ErrMin= 8.19D-03
 ErrMax= 8.19D-03  0.00D+00 EMaxC= 1.00D-01 BMatC= 3.80D-02 BMatP= 1.78D-01
 IDIUse=3 WtCom= 9.18D-01 WtEn= 8.19D-02
 Coeff-Com:  0.542D-01 0.112D+00 0.312D+00 0.522D+00
 Coeff-En:   0.000D+00 0.000D+00 0.199D+00 0.801D+00
 Coeff:      0.498D-01 0.103D+00 0.302D+00 0.545D+00
 Gap=     0.185 Goal=   None    Shift=    0.000
 Gap=     0.185 Goal=   None    Shift=    0.000
 RMSDP=5.76D-04 MaxDP=2.73D-02 DE=-3.55D-02 OVMax= 3.10D-02

 Cycle   5  Pass 0  IDiag  1:
 RMSU=  3.07D-04    CP:  9.91D-01  5.40D-01  6.34D-01  6.06D-01
 E= -898.701628479089     Delta-E=       -0.008054443899 Rises=F Damp=F
 DIIS: error= 2.03D-03 at cycle   5 NSaved=   5.
 NSaved= 5 IEnMin= 5 EnMin= -898.701628479089     IErMin= 5 ErrMin= 2.03D-03
 ErrMax= 2.03D-03  0.00D+00 EMaxC= 1.00D-01 BMatC= 2.94D-03 BMatP= 3.80D-02
 IDIUse=3 WtCom= 9.80D-01 WtEn= 2.03D-02
 Coeff-Com:  0.111D-01 0.110D-01 0.127D+00 0.335D+00 0.516D+00
 Coeff-En:   0.000D+00 0.000D+00 0.000D+00 0.230D-01 0.977D+00
 Coeff:      0.109D-01 0.108D-01 0.124D+00 0.328D+00 0.526D+00
 Gap=     0.181 Goal=   None    Shift=    0.000
 Gap=     0.181 Goal=   None    Shift=    0.000
 RMSDP=1.75D-04 MaxDP=5.82D-03 DE=-8.05D-03 OVMax= 9.33D-03

 Cycle   6  Pass 0  IDiag  1:
 RMSU=  9.08D-05    CP:  9.91D-01  5.45D-01  6.49D-01  6.80D-01  6.01D-01
 E= -898.702262122024     Delta-E=       -0.000633642935 Rises=F Damp=F
 DIIS: error= 3.51D-04 at cycle   6 NSaved=   6.
 NSaved= 6 IEnMin= 6 EnMin= -898.702262122024     IErMin= 6 ErrMin= 3.51D-04
 ErrMax= 3.51D-04  0.00D+00 EMaxC= 1.00D-01 BMatC= 1.92D-04 BMatP= 2.94D-03
 IDIUse=3 WtCom= 9.96D-01 WtEn= 3.51D-03
 Coeff-Com:  0.761D-03-0.840D-02 0.283D-01 0.105D+00 0.273D+00 0.602D+00
 Coeff-En:   0.000D+00 0.000D+00 0.000D+00 0.000D+00 0.000D+00 0.100D+01
 Coeff:      0.759D-03-0.837D-02 0.282D-01 0.104D+00 0.272D+00 0.603D+00
 Gap=     0.181 Goal=   None    Shift=    0.000
 Gap=     0.181 Goal=   None    Shift=    0.000
 RMSDP=5.04D-05 MaxDP=1.83D-03 DE=-6.34D-04 OVMax= 2.42D-03

 Cycle   7  Pass 0  IDiag  1:
 RMSU=  3.06D-05    CP:  9.91D-01  5.40D-01  6.50D-01  6.82D-01  6.64D-01
                    CP:  6.89D-01
 E= -898.702307342111     Delta-E=       -0.000045220088 Rises=F Damp=F
 DIIS: error= 1.39D-04 at cycle   7 NSaved=   7.
 NSaved= 7 IEnMin= 7 EnMin= -898.702307342111     IErMin= 7 ErrMin= 1.39D-04
 ErrMax= 1.39D-04  0.00D+00 EMaxC= 1.00D-01 BMatC= 2.66D-05 BMatP= 1.92D-04
 IDIUse=3 WtCom= 9.99D-01 WtEn= 1.39D-03
 Coeff-Com:  0.824D-04-0.619D-02 0.955D-02 0.411D-01 0.129D+00 0.356D+00
 Coeff-Com:  0.471D+00
 Coeff-En:   0.000D+00 0.000D+00 0.000D+00 0.000D+00 0.000D+00 0.221D-01
 Coeff-En:   0.978D+00
 Coeff:      0.823D-04-0.618D-02 0.954D-02 0.410D-01 0.129D+00 0.355D+00
 Coeff:      0.471D+00
 Gap=     0.181 Goal=   None    Shift=    0.000
 Gap=     0.181 Goal=   None    Shift=    0.000
 RMSDP=1.51D-05 MaxDP=5.87D-04 DE=-4.52D-05 OVMax= 9.62D-04

 Cycle   8  Pass 0  IDiag  1:
 RMSU=  1.09D-05    CP:  9.91D-01  5.41D-01  6.50D-01  6.85D-01  6.61D-01
                    CP:  7.45D-01  7.20D-01
 E= -898.702313468307     Delta-E=       -0.000006126196 Rises=F Damp=F
 DIIS: error= 6.79D-05 at cycle   8 NSaved=   8.
 NSaved= 8 IEnMin= 8 EnMin= -898.702313468307     IErMin= 8 ErrMin= 6.79D-05
 ErrMax= 6.79D-05  0.00D+00 EMaxC= 1.00D-01 BMatC= 3.85D-06 BMatP= 2.66D-05
 IDIUse=1 WtCom= 1.00D+00 WtEn= 0.00D+00
 Coeff-Com:  0.116D-03-0.287D-02 0.223D-02 0.959D-02 0.386D-01 0.124D+00
 Coeff-Com:  0.288D+00 0.540D+00
 Coeff:      0.116D-03-0.287D-02 0.223D-02 0.959D-02 0.386D-01 0.124D+00
 Coeff:      0.288D+00 0.540D+00
 Gap=     0.181 Goal=   None    Shift=    0.000
 Gap=     0.181 Goal=   None    Shift=    0.000
 RMSDP=7.22D-06 MaxDP=1.59D-04 DE=-6.13D-06 OVMax= 3.73D-04

 Initial convergence to 1.0D-05 achieved.  Increase integral accuracy.
 Cycle   9  Pass 1  IDiag  1:
 E= -898.702175837058     Delta-E=        0.000137631249 Rises=F Damp=F
 DIIS: error= 4.67D-05 at cycle   1 NSaved=   1.
 NSaved= 1 IEnMin= 1 EnMin= -898.702175837058     IErMin= 1 ErrMin= 4.67D-05
 ErrMax= 4.67D-05  0.00D+00 EMaxC= 1.00D-01 BMatC= 1.53D-06 BMatP= 1.53D-06
 IDIUse=1 WtCom= 1.00D+00 WtEn= 0.00D+00
 Coeff-Com:  0.100D+01
 Coeff:      0.100D+01
 Gap=     0.181 Goal=   None    Shift=    0.000
 Gap=     0.181 Goal=   None    Shift=    0.000
 RMSDP=7.22D-06 MaxDP=1.59D-04 DE= 1.38D-04 OVMax= 3.77D-04

 Cycle  10  Pass 1  IDiag  1:
 RMSU=  3.68D-05    CP:  1.00D+00
 E= -898.702175259282     Delta-E=        0.000000577776 Rises=F Damp=F
 DIIS: error= 6.17D-05 at cycle   2 NSaved=   2.
 NSaved= 2 IEnMin= 1 EnMin= -898.702175837058     IErMin= 1 ErrMin= 4.67D-05
 ErrMax= 6.17D-05  0.00D+00 EMaxC= 1.00D-01 BMatC= 3.14D-06 BMatP= 1.53D-06
 IDIUse=1 WtCom= 1.00D+00 WtEn= 0.00D+00
 Coeff-Com:  0.610D+00 0.390D+00
 Coeff:      0.610D+00 0.390D+00
 Gap=     0.181 Goal=   None    Shift=    0.000
 Gap=     0.181 Goal=   None    Shift=    0.000
 RMSDP=5.87D-06 MaxDP=1.92D-04 DE= 5.78D-07 OVMax= 3.65D-04

 Cycle  11  Pass 1  IDiag  1:
 RMSU=  5.83D-06    CP:  1.00D+00  9.86D-01
 E= -898.702176082741     Delta-E=       -0.000000823459 Rises=F Damp=F
 DIIS: error= 1.89D-05 at cycle   3 NSaved=   3.
 NSaved= 3 IEnMin= 3 EnMin= -898.702176082741     IErMin= 3 ErrMin= 1.89D-05
 ErrMax= 1.89D-05  0.00D+00 EMaxC= 1.00D-01 BMatC= 3.35D-07 BMatP= 1.53D-06
 IDIUse=1 WtCom= 1.00D+00 WtEn= 0.00D+00
 Coeff-Com:  0.495D-01 0.243D+00 0.708D+00
 Coeff:      0.495D-01 0.243D+00 0.708D+00
 Gap=     0.181 Goal=   None    Shift=    0.000
 Gap=     0.181 Goal=   None    Shift=    0.000
 RMSDP=1.77D-06 MaxDP=7.07D-05 DE=-8.23D-07 OVMax= 1.15D-04

 Cycle  12  Pass 1  IDiag  1:
 RMSU=  9.97D-07    CP:  1.00D+00  1.01D+00  8.20D-01
 E= -898.702176156143     Delta-E=       -0.000000073402 Rises=F Damp=F
 DIIS: error= 5.43D-06 at cycle   4 NSaved=   4.
 NSaved= 4 IEnMin= 4 EnMin= -898.702176156143     IErMin= 4 ErrMin= 5.43D-06
 ErrMax= 5.43D-06  0.00D+00 EMaxC= 1.00D-01 BMatC= 5.01D-08 BMatP= 3.35D-07
 IDIUse=1 WtCom= 1.00D+00 WtEn= 0.00D+00
 Coeff-Com: -0.880D-02 0.130D+00 0.443D+00 0.436D+00
 Coeff:     -0.880D-02 0.130D+00 0.443D+00 0.436D+00
 Gap=     0.181 Goal=   None    Shift=    0.000
 Gap=     0.181 Goal=   None    Shift=    0.000
 RMSDP=5.76D-07 MaxDP=1.82D-05 DE=-7.34D-08 OVMax= 2.90D-05

 Cycle  13  Pass 1  IDiag  1:
 RMSU=  2.54D-07    CP:  1.00D+00  1.02D+00  8.15D-01  5.01D-01
 E= -898.702176168123     Delta-E=       -0.000000011980 Rises=F Damp=F
 DIIS: error= 1.04D-06 at cycle   5 NSaved=   5.
 NSaved= 5 IEnMin= 5 EnMin= -898.702176168123     IErMin= 5 ErrMin= 1.04D-06
 ErrMax= 1.04D-06  0.00D+00 EMaxC= 1.00D-01 BMatC= 1.69D-09 BMatP= 5.01D-08
 IDIUse=1 WtCom= 1.00D+00 WtEn= 0.00D+00
 Coeff-Com: -0.714D-02 0.688D-01 0.236D+00 0.259D+00 0.443D+00
 Coeff:     -0.714D-02 0.688D-01 0.236D+00 0.259D+00 0.443D+00
 Gap=     0.181 Goal=   None    Shift=    0.000
 Gap=     0.181 Goal=   None    Shift=    0.000
 RMSDP=1.27D-07 MaxDP=3.50D-06 DE=-1.20D-08 OVMax= 6.90D-06

 Cycle  14  Pass 1  IDiag  1:
 RMSU=  1.08D-07    CP:  1.00D+00  1.02D+00  8.14D-01  5.19D-01  7.52D-01
 E= -898.702176168531     Delta-E=       -0.000000000409 Rises=F Damp=F
 DIIS: error= 3.13D-07 at cycle   6 NSaved=   6.
 NSaved= 6 IEnMin= 6 EnMin= -898.702176168531     IErMin= 6 ErrMin= 3.13D-07
 ErrMax= 3.13D-07  0.00D+00 EMaxC= 1.00D-01 BMatC= 1.11D-10 BMatP= 1.69D-09
 IDIUse=1 WtCom= 1.00D+00 WtEn= 0.00D+00
 Coeff-Com: -0.333D-02 0.294D-01 0.100D+00 0.112D+00 0.248D+00 0.513D+00
 Coeff:     -0.333D-02 0.294D-01 0.100D+00 0.112D+00 0.248D+00 0.513D+00
 Gap=     0.181 Goal=   None    Shift=    0.000
 Gap=     0.181 Goal=   None    Shift=    0.000
 RMSDP=4.58D-08 MaxDP=1.35D-06 DE=-4.09D-10 OVMax= 3.83D-06

 Cycle  15  Pass 1  IDiag  1:
 RMSU=  3.92D-08    CP:  1.00D+00  1.02D+00  8.14D-01  5.17D-01  7.91D-01
                    CP:  8.07D-01
 E= -898.702176168561     Delta-E=       -0.000000000030 Rises=F Damp=F
 DIIS: error= 1.88D-07 at cycle   7 NSaved=   7.
 NSaved= 7 IEnMin= 7 EnMin= -898.702176168561     IErMin= 7 ErrMin= 1.88D-07
 ErrMax= 1.88D-07  0.00D+00 EMaxC= 1.00D-01 BMatC= 3.33D-11 BMatP= 1.11D-10
 IDIUse=1 WtCom= 1.00D+00 WtEn= 0.00D+00
 Coeff-Com:  0.195D-03-0.364D-02-0.138D-01-0.131D-01 0.111D-01 0.371D+00
 Coeff-Com:  0.649D+00
 Coeff:      0.195D-03-0.364D-02-0.138D-01-0.131D-01 0.111D-01 0.371D+00
 Coeff:      0.649D+00
 Gap=     0.181 Goal=   None    Shift=    0.000
 Gap=     0.181 Goal=   None    Shift=    0.000
 RMSDP=2.43D-08 MaxDP=4.53D-07 DE=-2.96D-11 OVMax= 1.29D-06

 Cycle  16  Pass 1  IDiag  1:
 RMSU=  1.16D-08    CP:  1.00D+00  1.02D+00  8.14D-01  5.21D-01  8.30D-01
                    CP:  9.33D-01  7.12D-01
 E= -898.702176168579     Delta-E=       -0.000000000018 Rises=F Damp=F
 DIIS: error= 5.47D-08 at cycle   8 NSaved=   8.
 NSaved= 8 IEnMin= 8 EnMin= -898.702176168579     IErMin= 8 ErrMin= 5.47D-08
 ErrMax= 5.47D-08  0.00D+00 EMaxC= 1.00D-01 BMatC= 3.06D-12 BMatP= 3.33D-11
 IDIUse=1 WtCom= 1.00D+00 WtEn= 0.00D+00
 Coeff-Com:  0.373D-03-0.450D-02-0.163D-01-0.167D-01-0.143D-01 0.191D+00
 Coeff-Com:  0.384D+00 0.476D+00
 Coeff:      0.373D-03-0.450D-02-0.163D-01-0.167D-01-0.143D-01 0.191D+00
 Coeff:      0.384D+00 0.476D+00
 Gap=     0.181 Goal=   None    Shift=    0.000
 Gap=     0.181 Goal=   None    Shift=    0.000
 RMSDP=5.59D-09 MaxDP=1.53D-07 DE=-1.77D-11 OVMax= 3.99D-07

 SCF Done:  E(ULC-wPBE) =  -898.702176169     A.U. after   16 cycles
            NFock= 16  Conv=0.56D-08     -V/T= 2.0042
 <Sx>= 0.0000 <Sy>= 0.0000 <Sz>= 0.0000 <S**2>=-0.0000 S=-0.0000
 <L.S>= 0.000000000000E+00
 KE= 8.949569395028D+02 PE=-3.578715252185D+03 EE= 1.053435407284D+03
 Annihilation of the first spin contaminant:
 S**2 before annihilation    -0.0000,   after     0.0000
 Leave Link  502 at Sat Jul 25 05:12:33 2020, MaxMem=  4026531840 cpu:             369.7 elap:              46.5
 (Enter /opt/ohpc/pub/libs/gaussian/g16-A.03/sandybridge/g16/l601.exe)
 Copying SCF densities to generalized density rwf, IOpCl= 1 IROHF=0.

 **********************************************************************

            Population analysis using the SCF density.

 **********************************************************************

 Orbital symmetries:
 Alpha Orbitals:
       Occupied  (A) (A) (A) (A) (A) (A) (A) (A) (A) (A) (A) (A)
                 (A) (A) (A) (A) (A) (A) (A) (A) (A) (A) (A) (A)
                 (A) (A) (A) (A) (A) (A) (A) (A) (A) (A) (A) (A)
                 (A) (A) (A) (A) (A) (A) (A) (A) (A) (A)
       Virtual   (A) (A) (A) (A) (A) (A) (A) (A) (A) (A) (A) (A)
                 (A) (A) (A) (A) (A) (A) (A) (A) (A) (A) (A) (A)
                 (A) (A) (A) (A) (A) (A) (A) (A) (A) (A) (A) (A)
                 (A) (A) (A) (A) (A) (A) (A) (A) (A) (A) (A) (A)
                 (A) (A) (A) (A) (A) (A) (A) (A) (A) (A) (A) (A)
                 (A) (A) (A) (A) (A) (A) (A) (A) (A) (A) (A) (A)
                 (A) (A) (A) (A) (A) (A) (A) (A) (A) (A) (A) (A)
                 (A) (A) (A) (A) (A) (A) (A) (A) (A) (A) (A) (A)
                 (A) (A) (A) (A) (A) (A) (A) (A) (A) (A) (A) (A)
                 (A) (A) (A) (A) (A) (A) (A) (A) (A) (A) (A) (A)
                 (A) (A) (A) (A) (A) (A) (A) (A) (A) (A) (A) (A)
                 (A) (A) (A) (A) (A) (A) (A) (A) (A) (A) (A) (A)
                 (A) (A) (A) (A) (A) (A) (A) (A) (A) (A) (A) (A)
 Beta  Orbitals:
       Occupied  (A) (A) (A) (A) (A) (A) (A) (A) (A) (A) (A) (A)
                 (A) (A) (A) (A) (A) (A) (A) (A) (A) (A) (A) (A)
                 (A) (A) (A) (A) (A) (A) (A) (A) (A) (A) (A) (A)
                 (A) (A) (A) (A) (A) (A) (A) (A) (A) (A)
       Virtual   (A) (A) (A) (A) (A) (A) (A) (A) (A) (A) (A) (A)
                 (A) (A) (A) (A) (A) (A) (A) (A) (A) (A) (A) (A)
                 (A) (A) (A) (A) (A) (A) (A) (A) (A) (A) (A) (A)
                 (A) (A) (A) (A) (A) (A) (A) (A) (A) (A) (A) (A)
                 (A) (A) (A) (A) (A) (A) (A) (A) (A) (A) (A) (A)
                 (A) (A) (A) (A) (A) (A) (A) (A) (A) (A) (A) (A)
                 (A) (A) (A) (A) (A) (A) (A) (A) (A) (A) (A) (A)
                 (A) (A) (A) (A) (A) (A) (A) (A) (A) (A) (A) (A)
                 (A) (A) (A) (A) (A) (A) (A) (A) (A) (A) (A) (A)
                 (A) (A) (A) (A) (A) (A) (A) (A) (A) (A) (A) (A)
                 (A) (A) (A) (A) (A) (A) (A) (A) (A) (A) (A) (A)
                 (A) (A) (A) (A) (A) (A) (A) (A) (A) (A) (A) (A)
                 (A) (A) (A) (A) (A) (A) (A) (A) (A) (A) (A) (A)
 The electronic state is 1-A.
 Alpha  occ. eigenvalues --  -88.14464 -24.34496 -14.03716 -10.03229 -10.00278
 Alpha  occ. eigenvalues --   -9.96835  -9.96713  -9.96044  -9.95590  -9.94800
 Alpha  occ. eigenvalues --   -9.94553  -9.93831  -7.74692  -5.76770  -5.76323
 Alpha  occ. eigenvalues --   -5.76005  -1.18422  -0.90134  -0.83393  -0.76169
 Alpha  occ. eigenvalues --   -0.75533  -0.71789  -0.69856  -0.62051  -0.60248
 Alpha  occ. eigenvalues --   -0.56843  -0.54597  -0.52200  -0.49182  -0.48001
 Alpha  occ. eigenvalues --   -0.46957  -0.45963  -0.43458  -0.41410  -0.41015
 Alpha  occ. eigenvalues --   -0.40352  -0.39660  -0.36840  -0.36021  -0.34838
 Alpha  occ. eigenvalues --   -0.33964  -0.30580  -0.28107  -0.26287  -0.26034
 Alpha  occ. eigenvalues --   -0.23712
 Alpha virt. eigenvalues --   -0.05585  -0.00944   0.02007   0.03312   0.05065
 Alpha virt. eigenvalues --    0.06566   0.08257   0.10250   0.11864   0.12827
 Alpha virt. eigenvalues --    0.14161   0.14524   0.15063   0.16789   0.20420
 Alpha virt. eigenvalues --    0.24508   0.27268   0.28401   0.30158   0.32382
 Alpha virt. eigenvalues --    0.32742   0.36632   0.40101   0.41118   0.42439
 Alpha virt. eigenvalues --    0.43329   0.43720   0.44741   0.45736   0.46179
 Alpha virt. eigenvalues --    0.46566   0.46724   0.47904   0.48986   0.49983
 Alpha virt. eigenvalues --    0.50288   0.50504   0.50760   0.51696   0.52924
 Alpha virt. eigenvalues --    0.54086   0.56066   0.57390   0.58045   0.59711
 Alpha virt. eigenvalues --    0.60461   0.61051   0.63133   0.64803   0.65397
 Alpha virt. eigenvalues --    0.67504   0.68316   0.69231   0.69991   0.73457
 Alpha virt. eigenvalues --    0.74219   0.75595   0.77398   0.81884   0.82974
 Alpha virt. eigenvalues --    0.84280   0.85995   0.87930   0.88459   0.91575
 Alpha virt. eigenvalues --    0.93299   0.95001   0.96261   0.97057   0.97987
 Alpha virt. eigenvalues --    0.98522   1.00100   1.01304   1.03020   1.03580
 Alpha virt. eigenvalues --    1.04852   1.06164   1.06902   1.08839   1.10929
 Alpha virt. eigenvalues --    1.13369   1.18399   1.23300   1.23491   1.24223
 Alpha virt. eigenvalues --    1.25878   1.27542   1.29170   1.32195   1.39306
 Alpha virt. eigenvalues --    1.40996   1.41516   1.44118   1.44917   1.45361
 Alpha virt. eigenvalues --    1.47480   1.48144   1.51567   1.55102   1.56538
 Alpha virt. eigenvalues --    1.57721   1.58762   1.60198   1.61581   1.62509
 Alpha virt. eigenvalues --    1.62722   1.63887   1.64218   1.67106   1.68042
 Alpha virt. eigenvalues --    1.71694   1.72924   1.74235   1.76050   1.77587
 Alpha virt. eigenvalues --    1.79641   1.80321   1.82137   1.83034   1.84756
 Alpha virt. eigenvalues --    1.86710   1.88504   1.92026   1.93735   1.94600
 Alpha virt. eigenvalues --    1.97188   2.01100   2.02371   2.04922   2.12441
 Alpha virt. eigenvalues --    2.14719   2.21359   2.22747   2.23986   2.30147
 Alpha virt. eigenvalues --    2.31082   2.33771   2.36956   2.38571   2.42423
 Alpha virt. eigenvalues --    2.43613   2.48855   2.50476   2.51850   2.62828
 Alpha virt. eigenvalues --    2.71567   2.75065   2.77561   2.85010   3.08620
 Alpha virt. eigenvalues --    3.36043   3.48742   3.52873   3.69666   3.88457
 Alpha virt. eigenvalues --    4.09323
  Beta  occ. eigenvalues --  -88.14464 -24.34496 -14.03716 -10.03229 -10.00278
  Beta  occ. eigenvalues --   -9.96835  -9.96713  -9.96044  -9.95590  -9.94800
  Beta  occ. eigenvalues --   -9.94553  -9.93831  -7.74692  -5.76770  -5.76323
  Beta  occ. eigenvalues --   -5.76005  -1.18422  -0.90134  -0.83393  -0.76169
  Beta  occ. eigenvalues --   -0.75533  -0.71789  -0.69856  -0.62051  -0.60248
  Beta  occ. eigenvalues --   -0.56843  -0.54597  -0.52200  -0.49182  -0.48001
  Beta  occ. eigenvalues --   -0.46957  -0.45963  -0.43458  -0.41410  -0.41015
  Beta  occ. eigenvalues --   -0.40352  -0.39660  -0.36840  -0.36021  -0.34838
  Beta  occ. eigenvalues --   -0.33964  -0.30580  -0.28107  -0.26287  -0.26034
  Beta  occ. eigenvalues --   -0.23712
  Beta virt. eigenvalues --   -0.05585  -0.00944   0.02007   0.03312   0.05065
  Beta virt. eigenvalues --    0.06566   0.08257   0.10250   0.11864   0.12827
  Beta virt. eigenvalues --    0.14161   0.14524   0.15063   0.16789   0.20420
  Beta virt. eigenvalues --    0.24508   0.27268   0.28401   0.30158   0.32382
  Beta virt. eigenvalues --    0.32742   0.36632   0.40101   0.41118   0.42439
  Beta virt. eigenvalues --    0.43329   0.43720   0.44741   0.45736   0.46179
  Beta virt. eigenvalues --    0.46566   0.46724   0.47904   0.48986   0.49983
  Beta virt. eigenvalues --    0.50288   0.50504   0.50760   0.51696   0.52924
  Beta virt. eigenvalues --    0.54086   0.56066   0.57390   0.58045   0.59711
  Beta virt. eigenvalues --    0.60461   0.61051   0.63133   0.64803   0.65397
  Beta virt. eigenvalues --    0.67504   0.68316   0.69231   0.69991   0.73457
  Beta virt. eigenvalues --    0.74219   0.75595   0.77398   0.81884   0.82974
  Beta virt. eigenvalues --    0.84280   0.85995   0.87930   0.88459   0.91575
  Beta virt. eigenvalues --    0.93299   0.95001   0.96261   0.97057   0.97987
  Beta virt. eigenvalues --    0.98522   1.00100   1.01304   1.03020   1.03580
  Beta virt. eigenvalues --    1.04852   1.06164   1.06902   1.08839   1.10929
  Beta virt. eigenvalues --    1.13369   1.18399   1.23300   1.23491   1.24223
  Beta virt. eigenvalues --    1.25878   1.27542   1.29170   1.32195   1.39306
  Beta virt. eigenvalues --    1.40996   1.41516   1.44118   1.44917   1.45361
  Beta virt. eigenvalues --    1.47480   1.48144   1.51567   1.55102   1.56538
  Beta virt. eigenvalues --    1.57721   1.58762   1.60198   1.61581   1.62509
  Beta virt. eigenvalues --    1.62722   1.63887   1.64218   1.67106   1.68042
  Beta virt. eigenvalues --    1.71694   1.72924   1.74235   1.76050   1.77587
  Beta virt. eigenvalues --    1.79641   1.80321   1.82137   1.83034   1.84756
  Beta virt. eigenvalues --    1.86710   1.88504   1.92026   1.93735   1.94600
  Beta virt. eigenvalues --    1.97188   2.01100   2.02371   2.04922   2.12441
  Beta virt. eigenvalues --    2.14719   2.21359   2.22747   2.23986   2.30147
  Beta virt. eigenvalues --    2.31082   2.33771   2.36956   2.38571   2.42423
  Beta virt. eigenvalues --    2.43613   2.48855   2.50476   2.51850   2.62828
  Beta virt. eigenvalues --    2.71567   2.75065   2.77561   2.85010   3.08620
  Beta virt. eigenvalues --    3.36043   3.48742   3.52873   3.69666   3.88457
  Beta virt. eigenvalues --    4.09323
          Condensed to atoms (all electrons):
               1          2          3          4          5          6
     1  C    4.781850   0.460112   0.027717  -0.074838   0.015246   0.003917
     2  C    0.460112   4.776790   0.442492   0.025012  -0.089734  -0.000071
     3  C    0.027717   0.442492   4.920522   0.384742  -0.013691   0.003028
     4  C   -0.074838   0.025012   0.384742   5.343126   0.268283  -0.051940
     5  C    0.015246  -0.089734  -0.013691   0.268283   5.030468   0.397559
     6  F    0.003917  -0.000071   0.003028  -0.051940   0.397559   8.781871
     7  C    0.432641   0.020436  -0.087129  -0.008991   0.442395  -0.048541
     8  C    0.000412   0.013382  -0.079186   0.226975  -0.097122  -0.005165
     9  N    0.000032   0.000630   0.001743  -0.050859   0.003035   0.000020
    10  C    0.000001  -0.000007   0.000017   0.006321   0.000137  -0.000011
    11  C   -0.000001   0.000008   0.000020   0.003489   0.000035   0.000265
    12  S   -0.000059  -0.000077   0.012540  -0.056197  -0.016699   0.013782
    13  H    0.387086  -0.057197   0.011700  -0.001024   0.010217  -0.000074
    14  H   -0.059336   0.385422  -0.054471   0.010906   0.000224   0.000004
    15  H    0.011366  -0.052860   0.381372  -0.043681   0.010735  -0.000046
    16  H   -0.036032   0.009715   0.000530   0.010368  -0.036465   0.001988
    17  H    0.000000  -0.000000  -0.000001  -0.001158   0.000013   0.000000
    18  H   -0.000000  -0.000000  -0.000009  -0.000246   0.000006   0.000001
               7          8          9         10         11         12
     1  C    0.432641   0.000412   0.000032   0.000001  -0.000001  -0.000059
     2  C    0.020436   0.013382   0.000630  -0.000007   0.000008  -0.000077
     3  C   -0.087129  -0.079186   0.001743   0.000017   0.000020   0.012540
     4  C   -0.008991   0.226975  -0.050859   0.006321   0.003489  -0.056197
     5  C    0.442395  -0.097122   0.003035   0.000137   0.000035  -0.016699
     6  F   -0.048541  -0.005165   0.000020  -0.000011   0.000265   0.013782
     7  C    4.965900   0.008350  -0.000105   0.000002   0.000008   0.000551
     8  C    0.008350   5.303455   0.577711  -0.108181  -0.052954   0.262248
     9  N   -0.000105   0.577711   6.333809   0.507457  -0.048983  -0.110951
    10  C    0.000002  -0.108181   0.507457   4.573682   0.516979  -0.096702
    11  C    0.000008  -0.052954  -0.048983   0.516979   5.100929   0.334056
    12  S    0.000551   0.262248  -0.110951  -0.096702   0.334056  15.537516
    13  H   -0.042549   0.000026   0.000000  -0.000000   0.000000   0.000001
    14  H    0.012015  -0.000410  -0.000023  -0.000000  -0.000000   0.000004
    15  H   -0.000907  -0.032090   0.033385   0.000106   0.000111   0.001809
    16  H    0.356361  -0.000447   0.000001  -0.000000  -0.000000  -0.000002
    17  H   -0.000000   0.001284  -0.023960   0.402074  -0.056729   0.009063
    18  H    0.000000   0.003657   0.006016  -0.014929   0.373774  -0.037942
              13         14         15         16         17         18
     1  C    0.387086  -0.059336   0.011366  -0.036032   0.000000  -0.000000
     2  C   -0.057197   0.385422  -0.052860   0.009715  -0.000000  -0.000000
     3  C    0.011700  -0.054471   0.381372   0.000530  -0.000001  -0.000009
     4  C   -0.001024   0.010906  -0.043681   0.010368  -0.001158  -0.000246
     5  C    0.010217   0.000224   0.010735  -0.036465   0.000013   0.000006
     6  F   -0.000074   0.000004  -0.000046   0.001988   0.000000   0.000001
     7  C   -0.042549   0.012015  -0.000907   0.356361  -0.000000   0.000000
     8  C    0.000026  -0.000410  -0.032090  -0.000447   0.001284   0.003657
     9  N    0.000000  -0.000023   0.033385   0.000001  -0.023960   0.006016
    10  C   -0.000000  -0.000000   0.000106  -0.000000   0.402074  -0.014929
    11  C    0.000000  -0.000000   0.000111  -0.000000  -0.056729   0.373774
    12  S    0.000001   0.000004   0.001809  -0.000002   0.009063  -0.037942
    13  H    0.741669  -0.017433  -0.000230  -0.015061  -0.000000  -0.000000
    14  H   -0.017433   0.751984  -0.016159  -0.000381  -0.000000   0.000000
    15  H   -0.000230  -0.016159   0.710464   0.000060  -0.000043  -0.000010
    16  H   -0.015061  -0.000381   0.000060   0.699128   0.000000  -0.000000
    17  H   -0.000000  -0.000000  -0.000043   0.000000   0.717467  -0.006393
    18  H   -0.000000   0.000000  -0.000010  -0.000000  -0.006393   0.651987
          Atomic-Atomic Spin Densities.
               1          2          3          4          5          6
     1  C    0.000000  -0.000000   0.000000  -0.000000   0.000000   0.000000
     2  C   -0.000000   0.000000  -0.000000   0.000000  -0.000000  -0.000000
     3  C    0.000000  -0.000000  -0.000000  -0.000000   0.000000   0.000000
     4  C   -0.000000   0.000000  -0.000000   0.000000  -0.000000  -0.000000
     5  C    0.000000  -0.000000   0.000000  -0.000000   0.000000   0.000000
     6  F    0.000000  -0.000000   0.000000  -0.000000   0.000000  -0.000000
     7  C   -0.000000   0.000000  -0.000000   0.000000  -0.000000  -0.000000
     8  C   -0.000000   0.000000   0.000000  -0.000000  -0.000000  -0.000000
     9  N    0.000000   0.000000   0.000000  -0.000000   0.000000  -0.000000
    10  C   -0.000000   0.000000  -0.000000   0.000000   0.000000  -0.000000
    11  C   -0.000000   0.000000  -0.000000  -0.000000   0.000000   0.000000
    12  S   -0.000000   0.000000   0.000000  -0.000000  -0.000000  -0.000000
    13  H    0.000000  -0.000000  -0.000000  -0.000000   0.000000   0.000000
    14  H   -0.000000  -0.000000   0.000000   0.000000  -0.000000  -0.000000
    15  H    0.000000  -0.000000   0.000000  -0.000000   0.000000   0.000000
    16  H   -0.000000   0.000000  -0.000000   0.000000  -0.000000   0.000000
    17  H    0.000000   0.000000   0.000000  -0.000000  -0.000000   0.000000
    18  H   -0.000000  -0.000000  -0.000000   0.000000   0.000000   0.000000
               7          8          9         10         11         12
     1  C   -0.000000  -0.000000   0.000000  -0.000000  -0.000000  -0.000000
     2  C    0.000000   0.000000   0.000000   0.000000   0.000000   0.000000
     3  C   -0.000000   0.000000   0.000000  -0.000000  -0.000000   0.000000
     4  C    0.000000  -0.000000  -0.000000   0.000000  -0.000000  -0.000000
     5  C   -0.000000  -0.000000   0.000000   0.000000   0.000000  -0.000000
     6  F   -0.000000  -0.000000  -0.000000  -0.000000   0.000000  -0.000000
     7  C    0.000000   0.000000  -0.000000   0.000000   0.000000   0.000000
     8  C    0.000000   0.000000   0.000000  -0.000000   0.000000  -0.000000
     9  N   -0.000000   0.000000   0.000000   0.000000   0.000000  -0.000000
    10  C    0.000000  -0.000000   0.000000  -0.000000   0.000000   0.000000
    11  C    0.000000   0.000000   0.000000   0.000000   0.000000  -0.000000
    12  S    0.000000  -0.000000  -0.000000   0.000000  -0.000000   0.000000
    13  H   -0.000000  -0.000000   0.000000   0.000000   0.000000  -0.000000
    14  H    0.000000   0.000000  -0.000000   0.000000  -0.000000   0.000000
    15  H   -0.000000  -0.000000  -0.000000   0.000000  -0.000000  -0.000000
    16  H   -0.000000   0.000000  -0.000000   0.000000  -0.000000   0.000000
    17  H   -0.000000  -0.000000   0.000000  -0.000000   0.000000   0.000000
    18  H    0.000000   0.000000  -0.000000   0.000000   0.000000  -0.000000
              13         14         15         16         17         18
     1  C    0.000000  -0.000000   0.000000  -0.000000   0.000000  -0.000000
     2  C   -0.000000  -0.000000  -0.000000   0.000000   0.000000  -0.000000
     3  C   -0.000000   0.000000   0.000000  -0.000000   0.000000  -0.000000
     4  C   -0.000000   0.000000  -0.000000   0.000000  -0.000000   0.000000
     5  C    0.000000  -0.000000   0.000000  -0.000000  -0.000000   0.000000
     6  F    0.000000  -0.000000   0.000000   0.000000   0.000000   0.000000
     7  C   -0.000000   0.000000  -0.000000  -0.000000  -0.000000   0.000000
     8  C   -0.000000   0.000000  -0.000000   0.000000  -0.000000   0.000000
     9  N    0.000000  -0.000000  -0.000000  -0.000000   0.000000  -0.000000
    10  C    0.000000   0.000000   0.000000   0.000000  -0.000000   0.000000
    11  C    0.000000  -0.000000  -0.000000  -0.000000   0.000000   0.000000
    12  S   -0.000000   0.000000  -0.000000   0.000000   0.000000  -0.000000
    13  H    0.000000   0.000000   0.000000  -0.000000   0.000000  -0.000000
    14  H    0.000000   0.000000  -0.000000   0.000000  -0.000000   0.000000
    15  H    0.000000  -0.000000   0.000000  -0.000000   0.000000  -0.000000
    16  H   -0.000000   0.000000  -0.000000   0.000000   0.000000   0.000000
    17  H    0.000000  -0.000000   0.000000   0.000000   0.000000   0.000000
    18  H   -0.000000   0.000000  -0.000000   0.000000   0.000000   0.000000
 Mulliken charges and spin densities:
               1          2
     1  C    0.049887   0.000000
     2  C    0.065948  -0.000000
     3  C    0.048062  -0.000000
     4  C    0.009712   0.000000
     5  C    0.075359   0.000000
     6  F   -0.096587  -0.000000
     7  C   -0.050436  -0.000000
     8  C   -0.021946  -0.000000
     9  N   -0.228957   0.000000
    10  C    0.213055  -0.000000
    11  C   -0.171007   0.000000
    12  S    0.147060   0.000000
    13  H   -0.017132   0.000000
    14  H   -0.012346   0.000000
    15  H   -0.003380   0.000000
    16  H    0.010238   0.000000
    17  H   -0.041618   0.000000
    18  H    0.024088   0.000000
 Sum of Mulliken charges =  -0.00000  -0.00000
 Mulliken charges and spin densities with hydrogens summed into heavy atoms:
               1          2
     1  C    0.032755   0.000000
     2  C    0.053602  -0.000000
     3  C    0.044682  -0.000000
     4  C    0.009712   0.000000
     5  C    0.075359   0.000000
     6  F   -0.096587  -0.000000
     7  C   -0.040199  -0.000000
     8  C   -0.021946  -0.000000
     9  N   -0.228957   0.000000
    10  C    0.171438  -0.000000
    11  C   -0.146919   0.000000
    12  S    0.147060   0.000000
 Electronic spatial extent (au):  <R**2>=           2304.9640
 Charge=             -0.0000 electrons
 Dipole moment (field-independent basis, Debye):
    X=              0.2591    Y=              0.2922    Z=             -0.0293  Tot=              0.3916
 Quadrupole moment (field-independent basis, Debye-Ang):
   XX=            -58.2302   YY=            -74.3021   ZZ=            -77.9910
   XY=             -0.5956   XZ=             -0.1917   YZ=             -0.2675
 Traceless Quadrupole moment (field-independent basis, Debye-Ang):
   XX=             11.9443   YY=             -4.1277   ZZ=             -7.8166
   XY=             -0.5956   XZ=             -0.1917   YZ=             -0.2675
 Octapole moment (field-independent basis, Debye-Ang**2):
  XXX=            -12.8570  YYY=             13.6636  ZZZ=              0.0606  XYY=              4.3084
  XXY=              3.7124  XXZ=             -0.1652  XZZ=             -1.7601  YZZ=              7.5528
  YYZ=              0.1956  XYZ=              0.3996
 Hexadecapole moment (field-independent basis, Debye-Ang**3):
 XXXX=          -1979.5680 YYYY=           -690.9616 ZZZZ=            -83.4593 XXXY=             23.0365
 XXXZ=             -1.5023 YYYX=              9.8595 YYYZ=             -0.4419 ZZZX=              0.7472
 ZZZY=              0.5522 XXYY=           -455.3275 XXZZ=           -436.0238 YYZZ=           -135.0975
 XXYZ=             -1.1844 YYXZ=             -0.9884 ZZXY=              5.4111
 N-N= 7.316207292290D+02 E-N=-3.578715249844D+03  KE= 8.949569395028D+02
                          Isotropic Fermi Contact Couplings
        Atom                 a.u.       MegaHertz       Gauss      10(-4) cm-1
     1  C(13)              0.00000       0.00000       0.00000       0.00000
     2  C(13)              0.00000       0.00000       0.00000       0.00000
     3  C(13)              0.00000       0.00000       0.00000       0.00000
     4  C(13)              0.00000       0.00000       0.00000       0.00000
     5  C(13)             -0.00000      -0.00000      -0.00000      -0.00000
     6  F(19)             -0.00000      -0.00000      -0.00000      -0.00000
     7  C(13)              0.00000       0.00000       0.00000       0.00000
     8  C(13)             -0.00000      -0.00000      -0.00000      -0.00000
     9  N(14)             -0.00000      -0.00000      -0.00000      -0.00000
    10  C(13)             -0.00000      -0.00000      -0.00000      -0.00000
    11  C(13)              0.00000       0.00000       0.00000       0.00000
    12  S(33)             -0.00000      -0.00000      -0.00000      -0.00000
    13  H(1)              -0.00000      -0.00000      -0.00000      -0.00000
    14  H(1)               0.00000       0.00000       0.00000       0.00000
    15  H(1)               0.00000       0.00000       0.00000       0.00000
    16  H(1)               0.00000       0.00000       0.00000       0.00000
    17  H(1)               0.00000       0.00000       0.00000       0.00000
    18  H(1)               0.00000       0.00000       0.00000       0.00000
 --------------------------------------------------------
       Center         ----  Spin Dipole Couplings  ----
                      3XX-RR        3YY-RR        3ZZ-RR
 --------------------------------------------------------
     1   Atom        0.000000     -0.000000     -0.000000
     2   Atom        0.000000     -0.000000      0.000000
     3   Atom        0.000000      0.000000     -0.000000
     4   Atom        0.000000     -0.000000     -0.000000
     5   Atom        0.000000     -0.000000     -0.000000
     6   Atom        0.000000     -0.000000      0.000000
     7   Atom       -0.000000      0.000000      0.000000
     8   Atom        0.000000      0.000000     -0.000000
     9   Atom       -0.000000     -0.000000      0.000000
    10   Atom       -0.000000      0.000000      0.000000
    11   Atom       -0.000000     -0.000000      0.000000
    12   Atom       -0.000000      0.000000     -0.000000
    13   Atom       -0.000000      0.000000      0.000000
    14   Atom       -0.000000      0.000000      0.000000
    15   Atom       -0.000000      0.000000     -0.000000
    16   Atom        0.000000     -0.000000      0.000000
    17   Atom        0.000000     -0.000000     -0.000000
    18   Atom        0.000000     -0.000000      0.000000
 --------------------------------------------------------
                        XY            XZ            YZ
 --------------------------------------------------------
     1   Atom       -0.000000     -0.000000      0.000000
     2   Atom       -0.000000     -0.000000      0.000000
     3   Atom        0.000000     -0.000000      0.000000
     4   Atom        0.000000     -0.000000     -0.000000
     5   Atom       -0.000000      0.000000     -0.000000
     6   Atom        0.000000      0.000000     -0.000000
     7   Atom       -0.000000      0.000000      0.000000
     8   Atom       -0.000000      0.000000      0.000000
     9   Atom       -0.000000      0.000000      0.000000
    10   Atom       -0.000000      0.000000     -0.000000
    11   Atom       -0.000000     -0.000000      0.000000
    12   Atom       -0.000000      0.000000     -0.000000
    13   Atom        0.000000     -0.000000      0.000000
    14   Atom        0.000000      0.000000      0.000000
    15   Atom       -0.000000      0.000000      0.000000
    16   Atom       -0.000000     -0.000000     -0.000000
    17   Atom        0.000000     -0.000000     -0.000000
    18   Atom        0.000000     -0.000000      0.000000
 --------------------------------------------------------


 ---------------------------------------------------------------------------------
              Anisotropic Spin Dipole Couplings in Principal Axis System
 ---------------------------------------------------------------------------------

       Atom             a.u.   MegaHertz   Gauss  10(-4) cm-1        Axes

              Baa    -0.0000    -0.000    -0.000    -0.000  0.0086  0.9960 -0.0889
     1 C(13)  Bbb    -0.0000    -0.000    -0.000    -0.000  0.0473  0.0884  0.9950
              Bcc     0.0000     0.000     0.000     0.000  0.9988 -0.0128 -0.0463
 
              Baa    -0.0000    -0.000    -0.000    -0.000  0.3870  0.9221  0.0005
     2 C(13)  Bbb     0.0000     0.000     0.000     0.000  0.5555 -0.2335  0.7980
              Bcc     0.0000     0.000     0.000     0.000  0.7360 -0.3086 -0.6026
 
              Baa    -0.0000    -0.000    -0.000    -0.000  0.4066 -0.3485  0.8445
     3 C(13)  Bbb    -0.0000    -0.000    -0.000    -0.000  0.6947 -0.4824 -0.5335
              Bcc     0.0000     0.000     0.000     0.000  0.5934  0.8036  0.0460
 
              Baa    -0.0000    -0.000    -0.000    -0.000 -0.5227  0.8524 -0.0089
     4 C(13)  Bbb    -0.0000    -0.000    -0.000    -0.000  0.1069  0.0759  0.9914
              Bcc     0.0000     0.000     0.000     0.000  0.8458  0.5173 -0.1308
 
              Baa    -0.0000    -0.000    -0.000    -0.000  0.0122  0.3784  0.9256
     5 C(13)  Bbb    -0.0000    -0.000    -0.000    -0.000  0.5078  0.7950 -0.3317
              Bcc     0.0000     0.000     0.000     0.000  0.8614 -0.4741  0.1824
 
              Baa    -0.0000    -0.000    -0.000    -0.000 -0.2878  0.9157  0.2806
     6 F(19)  Bbb     0.0000     0.000     0.000     0.000  0.0700 -0.2721  0.9597
              Bcc     0.0000     0.000     0.000     0.000  0.9551  0.2958  0.0142
 
              Baa    -0.0000    -0.000    -0.000    -0.000  0.8702  0.4603 -0.1755
     7 C(13)  Bbb     0.0000     0.000     0.000     0.000  0.4573 -0.6225  0.6351
              Bcc     0.0000     0.000     0.000     0.000 -0.1831  0.6330  0.7522
 
              Baa    -0.0000    -0.000    -0.000    -0.000 -0.4829 -0.4188  0.7690
     8 C(13)  Bbb    -0.0000    -0.000    -0.000    -0.000  0.5724  0.5136  0.6392
              Bcc     0.0000     0.000     0.000     0.000 -0.6627  0.7489 -0.0083
 
              Baa    -0.0000    -0.000    -0.000    -0.000  0.6398  0.7672 -0.0451
     9 N(14)  Bbb     0.0000     0.000     0.000     0.000 -0.3277  0.3254  0.8870
              Bcc     0.0000     0.000     0.000     0.000  0.6952 -0.5527  0.4596
 
              Baa    -0.0000    -0.000    -0.000    -0.000  0.9075  0.4200  0.0018
    10 C(13)  Bbb     0.0000     0.000     0.000     0.000 -0.0121  0.0219  0.9997
              Bcc     0.0000     0.000     0.000     0.000 -0.4198  0.9073 -0.0250
 
              Baa    -0.0000    -0.000    -0.000    -0.000  0.6663  0.7456 -0.0083
    11 C(13)  Bbb     0.0000     0.000     0.000     0.000  0.7450 -0.6652  0.0510
              Bcc     0.0000     0.000     0.000     0.000 -0.0325  0.0402  0.9987
 
              Baa    -0.0000    -0.000    -0.000    -0.000 -0.0374  0.0646  0.9972
    12 S(33)  Bbb    -0.0000    -0.000    -0.000    -0.000  0.8767  0.4811  0.0017
              Bcc     0.0000     0.000     0.000     0.000 -0.4796  0.8743 -0.0746
 
              Baa    -0.0000    -0.000    -0.000    -0.000  0.8187 -0.5586  0.1330
    13 H(1)   Bbb     0.0000     0.000     0.000     0.000 -0.0429  0.1715  0.9842
              Bcc     0.0000     0.000     0.000     0.000  0.5726  0.8115 -0.1164
 
              Baa    -0.0000    -0.000    -0.000    -0.000  0.9049 -0.4223 -0.0535
    14 H(1)   Bbb     0.0000     0.000     0.000     0.000  0.0091 -0.1065  0.9943
              Bcc     0.0000     0.000     0.000     0.000  0.4256  0.9002  0.0925
 
              Baa    -0.0000    -0.000    -0.000    -0.000  0.7320  0.5679 -0.3763
    15 H(1)   Bbb     0.0000     0.000     0.000     0.000  0.3362  0.1793  0.9246
              Bcc     0.0000     0.000     0.000     0.000 -0.5926  0.8033  0.0597
 
              Baa    -0.0000    -0.000    -0.000    -0.000  0.4232  0.8871  0.1841
    16 H(1)   Bbb     0.0000     0.000     0.000     0.000  0.3031 -0.3301  0.8939
              Bcc     0.0000     0.000     0.000     0.000  0.8538 -0.3225 -0.4086
 
              Baa    -0.0000    -0.000    -0.000    -0.000 -0.2368  0.9716 -0.0031
    17 H(1)   Bbb    -0.0000    -0.000    -0.000    -0.000  0.0444  0.0140  0.9989
              Bcc     0.0000     0.000     0.000     0.000  0.9706  0.2364 -0.0464
 
              Baa    -0.0000    -0.000    -0.000    -0.000 -0.5089  0.8461 -0.1587
    18 H(1)   Bbb     0.0000     0.000     0.000     0.000  0.5035  0.4420  0.7424
              Bcc     0.0000     0.000     0.000     0.000  0.6983  0.2979 -0.6509
 

 ---------------------------------------------------------------------------------

 No NMR shielding tensors so no spin-rotation constants.
 Leave Link  601 at Sat Jul 25 05:12:33 2020, MaxMem=  4026531840 cpu:               1.7 elap:               0.3
 (Enter /opt/ohpc/pub/libs/gaussian/g16-A.03/sandybridge/g16/l701.exe)
 ... and contract with generalized density number  0.
 Compute integral first derivatives.
 Leave Link  701 at Sat Jul 25 05:12:34 2020, MaxMem=  4026531840 cpu:               2.0 elap:               0.3
 (Enter /opt/ohpc/pub/libs/gaussian/g16-A.03/sandybridge/g16/l702.exe)
 L702 exits ... SP integral derivatives will be done elsewhere.
 Leave Link  702 at Sat Jul 25 05:12:34 2020, MaxMem=  4026531840 cpu:               0.1 elap:               0.0
 (Enter /opt/ohpc/pub/libs/gaussian/g16-A.03/sandybridge/g16/l703.exe)
 Integral derivatives from FoFJK, PRISM(SPDF).
 Compute integral first derivatives, UseDBF=F ICtDFT=           0.
 Calling FoFJK, ICntrl=      2127 FMM=F ISym2X=0 I1Cent= 0 IOpClX= 1 NMat=1 NMatS=1 NMatT=0.
 FoFJK:  IHMeth= 1 ICntrl=    2127 DoSepK=T KAlg= 0 I1Cent=           0 FoldK=F
 IRaf=         1 NMat=       1 IRICut=       1 DoRegI=T DoRafI=F ISym2E= 0 IDoP0=0 IntGTp=1.
 FoFCou: FMM=F IPFlag=           0 FMFlag=      100000 FMFlg1=         800
         NFxFlg=           0 DoJE=F BraDBF=F KetDBF=F FulRan=T
         wScrn=  0.000000 ICntrl=      2527 IOpCl=  0 I1Cent=           0 NGrid=           0
         NMat0=    1 NMatS0=      1 NMatT0=    0 NMatD0=    1 NMtDS0=    0 NMtDT0=    0
 Symmetry not used in FoFCou.
 Leave Link  703 at Sat Jul 25 05:12:44 2020, MaxMem=  4026531840 cpu:              82.5 elap:              10.4
 (Enter /opt/ohpc/pub/libs/gaussian/g16-A.03/sandybridge/g16/l716.exe)
 Dipole        = 1.01951891D-01 1.14954771D-01-1.15289086D-02
 ***** Axes restored to original set *****
 -------------------------------------------------------------------
 Center     Atomic                   Forces (Hartrees/Bohr)
 Number     Number              X              Y              Z
 -------------------------------------------------------------------
      1        6           0.013612541    0.086701898    0.008193079
      2        6           0.045165755   -0.075378028   -0.009529295
      3        6          -0.063604943   -0.024467485    0.014850199
      4        6           0.032167834    0.038090703   -0.019090939
      5        6           0.049124496   -0.031818209    0.021005339
      6        9          -0.020366287    0.013448199   -0.003874219
      7        6          -0.009463519    0.014211039   -0.016400479
      8        6          -0.074819687   -0.038761138   -0.000091681
      9        7           0.006980601    0.021096662    0.008151441
     10        6           0.083629349    0.036033514   -0.006544616
     11        6          -0.000568783    0.028441770   -0.003098411
     12       16          -0.005456809    0.007508975    0.003710708
     13        1           0.006176348   -0.010154068   -0.000577158
     14        1          -0.013297136    0.006397992    0.002404317
     15        1           0.008447085    0.008181910   -0.004841658
     16        1          -0.013453429   -0.021841211    0.003324400
     17        1          -0.045586499   -0.058626373    0.001060627
     18        1           0.001313082    0.000933849    0.001348349
 -------------------------------------------------------------------
 Cartesian Forces:  Max     0.086701898 RMS     0.031021604
 Leave Link  716 at Sat Jul 25 05:12:44 2020, MaxMem=  4026531840 cpu:               0.2 elap:               0.0
 (Enter /opt/ohpc/pub/libs/gaussian/g16-A.03/sandybridge/g16/l103.exe)

 GradGradGradGradGradGradGradGradGradGradGradGradGradGradGradGradGradGrad
 Berny optimization.
 FormGI is forming the generalized inverse of G from B-inverse, IUseBI=4.
 GSVD:  received Info=                   1 from GESDD.
 Internal  Forces:  Max     0.074270246 RMS     0.015988378
 Search for a local minimum.
 Step number   1 out of a maximum of   98
 All quantities printed in internal units (Hartrees-Bohrs-Radians)
 RMS Force = .15988D-01 SwitMx=.10000D-02 MixMth= 1
 Mixed Optimization -- RFO/linear search
 Second derivative matrix not updated -- first step.
 ITU=  0
     Eigenvalues ---    0.01426   0.01631   0.01680   0.01726   0.01745
     Eigenvalues ---    0.01896   0.01937   0.02077   0.02094   0.02183
     Eigenvalues ---    0.02436   0.02490   0.02552   0.02726   0.02915
     Eigenvalues ---    0.15810   0.15823   0.15940   0.15966   0.15968
     Eigenvalues ---    0.15993   0.21953   0.22219   0.22436   0.24246
     Eigenvalues ---    0.24520   0.24704   0.24746   0.24991   0.28715
     Eigenvalues ---    0.29297   0.29918   0.31098   0.31667   0.33981
     Eigenvalues ---    0.34777   0.38103   0.38655   0.41103   0.43654
     Eigenvalues ---    0.43773   0.44335   0.45883   0.48076   0.53218
     Eigenvalues ---    0.54676   0.56873   0.59690
 RFO step:  Lambda=-4.92726992D-02 EMin= 1.42649191D-02
 Linear search not attempted -- first point.
 Maximum step size (   0.300) exceeded in Quadratic search.
    -- Step size scaled by   0.923
 Iteration  1 RMS(Cart)=  0.03938363 RMS(Int)=  0.00125927
 Iteration  2 RMS(Cart)=  0.00139164 RMS(Int)=  0.00058835
 Iteration  3 RMS(Cart)=  0.00000144 RMS(Int)=  0.00058835
 Iteration  4 RMS(Cart)=  0.00000000 RMS(Int)=  0.00058835
 ITry= 1 IFail=0 DXMaxC= 1.39D-01 DCOld= 1.00D+10 DXMaxT= 3.00D-01 DXLimC= 3.00D+00 Rises=F
 Variable       Old X    -DE/DX   Delta X   Delta X   Delta X     New X
                                 (Linear)    (Quad)   (Total)
    R1        2.52661   0.06609   0.00000   0.10245   0.10244   2.62905
    R2        2.68613  -0.00866   0.00000  -0.01824  -0.01840   2.66772
    R3        2.06039   0.00535   0.00000   0.01244   0.01244   2.07283
    R4        2.53135   0.05090   0.00000   0.08179   0.08197   2.61332
    R5        2.12527  -0.01249   0.00000  -0.03201  -0.03201   2.09326
    R6        2.65069   0.01304   0.00000   0.02592   0.02608   2.67677
    R7        2.11457  -0.01168   0.00000  -0.02946  -0.02946   2.08511
    R8        2.71940  -0.01085   0.00000  -0.02962  -0.02959   2.68980
    R9        2.66727   0.03437   0.00000   0.06515   0.06515   2.73242
   R10        2.51186   0.02036   0.00000   0.02909   0.02909   2.54095
   R11        2.71548  -0.02285   0.00000  -0.05558  -0.05578   2.65970
   R12        2.16087  -0.02573   0.00000  -0.06940  -0.06940   2.09147
   R13        2.59399  -0.03634   0.00000  -0.06387  -0.06388   2.53011
   R14        3.33268   0.00587   0.00000   0.01348   0.01364   3.34632
   R15        2.65303  -0.02544   0.00000  -0.04813  -0.04830   2.60473
   R16        2.55115   0.02620   0.00000   0.04261   0.04248   2.59363
   R17        1.90964   0.07427   0.00000   0.13491   0.13491   2.04455
   R18        3.30954  -0.01387   0.00000  -0.03163  -0.03155   3.27799
   R19        2.07362  -0.00087   0.00000  -0.00206  -0.00206   2.07156
    A1        2.05558   0.00163   0.00000   0.01746   0.01726   2.07284
    A2        2.23449  -0.01167   0.00000  -0.05626  -0.05626   2.17823
    A3        1.99085   0.01012   0.00000   0.04002   0.04008   2.03092
    A4        2.15902  -0.02049   0.00000  -0.04276  -0.04262   2.11639
    A5        2.00454   0.01870   0.00000   0.05940   0.05925   2.06378
    A6        2.11537   0.00187   0.00000  -0.01475  -0.01490   2.10047
    A7        2.14918  -0.01193   0.00000  -0.02200  -0.02207   2.12711
    A8        2.13680   0.00343   0.00000   0.00195   0.00144   2.13824
    A9        1.98564   0.00901   0.00000   0.02666   0.02626   2.01190
   A10        2.01478   0.00738   0.00000   0.01688   0.01695   2.03173
   A11        2.12625  -0.00709   0.00000  -0.01657  -0.01683   2.10942
   A12        2.13206   0.00007   0.00000   0.00490   0.00445   2.13651
   A13        2.17594  -0.02531   0.00000  -0.06443  -0.06543   2.11050
   A14        2.07916   0.01944   0.00000   0.03967   0.03878   2.11794
   A15        2.01418   0.00677   0.00000   0.03621   0.03571   2.04990
   A16        2.09235   0.00480   0.00000   0.00101   0.00031   2.09266
   A17        2.12268  -0.00126   0.00000   0.00588   0.00582   2.12851
   A18        2.05890  -0.00309   0.00000  -0.00202  -0.00197   2.05694
   A19        2.15917  -0.01095   0.00000  -0.02965  -0.02966   2.12951
   A20        2.19457  -0.01067   0.00000  -0.02879  -0.02880   2.16577
   A21        1.92907   0.02161   0.00000   0.05835   0.05835   1.98742
   A22        1.96447  -0.00820   0.00000  -0.03623  -0.03670   1.92778
   A23        2.01297   0.00443   0.00000   0.01875   0.01829   2.03125
   A24        2.05743  -0.00176   0.00000  -0.00717  -0.00701   2.05041
   A25        2.21230  -0.00263   0.00000  -0.01103  -0.01088   2.20142
   A26        1.92601  -0.00349   0.00000  -0.00043  -0.00067   1.92534
   A27        2.25063   0.00324   0.00000   0.00720   0.00722   2.25785
   A28        2.10461   0.00034   0.00000  -0.00560  -0.00557   2.09905
   A29        1.59015  -0.01415   0.00000  -0.03769  -0.03742   1.55273
    D1        0.09608  -0.00179   0.00000  -0.02734  -0.02788   0.06820
    D2        3.13935  -0.00049   0.00000  -0.00600  -0.00593   3.13342
    D3       -3.12268   0.00005   0.00000  -0.00457  -0.00525  -3.12793
    D4       -0.07941   0.00135   0.00000   0.01677   0.01670  -0.06271
    D5       -0.11444   0.00258   0.00000   0.03499   0.03536  -0.07908
    D6       -3.10735  -0.00071   0.00000  -0.00373  -0.00278  -3.11013
    D7        3.09371   0.00191   0.00000   0.01948   0.01878   3.11249
    D8        0.10079  -0.00139   0.00000  -0.01923  -0.01936   0.08144
    D9       -0.11990   0.00341   0.00000   0.03750   0.03695  -0.08295
   D10       -3.08838  -0.00119   0.00000  -0.01405  -0.01372  -3.10210
   D11        3.12602   0.00124   0.00000   0.01104   0.01059   3.13661
   D12        0.15754  -0.00336   0.00000  -0.04051  -0.04008   0.11746
   D13        0.14882  -0.00411   0.00000  -0.04723  -0.04654   0.10228
   D14        3.14124  -0.00142   0.00000  -0.00837  -0.00749   3.13375
   D15        3.13087  -0.00017   0.00000  -0.00148  -0.00114   3.12973
   D16       -0.15989   0.00252   0.00000   0.03737   0.03790  -0.12199
   D17       -3.11886  -0.00387   0.00000  -0.03057  -0.02814   3.13619
   D18       -0.16421   0.00309   0.00000   0.05007   0.05050  -0.11371
   D19        0.17245  -0.00590   0.00000  -0.06756  -0.06587   0.10658
   D20        3.12710   0.00106   0.00000   0.01308   0.01277   3.13986
   D21        0.10071  -0.00214   0.00000  -0.02441  -0.02433   0.07639
   D22       -3.07306  -0.00200   0.00000  -0.02742  -0.02753  -3.10059
   D23        3.08311   0.00130   0.00000   0.01790   0.01801   3.10112
   D24       -0.09067   0.00143   0.00000   0.01488   0.01480  -0.07587
[...]
    13  H   -0.049351   0.000007   0.000000  -0.000000   0.000000   0.000001
    14  H    0.010851  -0.000312  -0.000029  -0.000000  -0.000000   0.000002
    15  H   -0.001229  -0.033593   0.033459   0.000247   0.000135   0.001650
    16  H    0.364132  -0.000390   0.000001  -0.000000  -0.000000   0.000011
    17  H   -0.000000   0.002546  -0.026335   0.396086  -0.055589   0.007175
    18  H    0.000000   0.003422   0.005423  -0.015560   0.377183  -0.037464
              13         14         15         16         17         18
     1  C    0.390924  -0.056505   0.010714  -0.051342  -0.000000  -0.000000
     2  C   -0.053357   0.390576  -0.055442   0.009420  -0.000001  -0.000000
     3  C    0.011149  -0.047684   0.385323  -0.000424  -0.000030  -0.000006
     4  C   -0.001297   0.011010  -0.039997   0.015149  -0.000749  -0.000269
     5  C    0.011153  -0.000317   0.012523  -0.033217   0.000017   0.000006
     6  F   -0.000050   0.000002  -0.000033   0.001457   0.000000   0.000000
     7  C   -0.049351   0.010851  -0.001229   0.364132  -0.000000   0.000000
     8  C    0.000007  -0.000312  -0.033593  -0.000390   0.002546   0.003422
     9  N    0.000000  -0.000029   0.033459   0.000001  -0.026335   0.005423
    10  C   -0.000000  -0.000000   0.000247  -0.000000   0.396086  -0.015560
    11  C    0.000000  -0.000000   0.000135  -0.000000  -0.055589   0.377183
    12  S    0.000001   0.000002   0.001650   0.000011   0.007175  -0.037464
    13  H    0.734006  -0.014969  -0.000217  -0.015523  -0.000000  -0.000000
    14  H   -0.014969   0.736838  -0.014824  -0.000226   0.000000   0.000000
    15  H   -0.000217  -0.014824   0.717908   0.000052  -0.000108  -0.000009
    16  H   -0.015523  -0.000226   0.000052   0.715182   0.000000  -0.000000
    17  H   -0.000000   0.000000  -0.000108   0.000000   0.681741  -0.004585
    18  H   -0.000000   0.000000  -0.000009  -0.000000  -0.004585   0.648867
          Atomic-Atomic Spin Densities.
               1          2          3          4          5          6
     1  C   -0.000000   0.000000  -0.000000   0.000000  -0.000000   0.000000
     2  C    0.000000  -0.000000   0.000000  -0.000000   0.000000   0.000000
     3  C   -0.000000   0.000000  -0.000000   0.000000   0.000000   0.000000
     4  C    0.000000  -0.000000   0.000000  -0.000000   0.000000  -0.000000
     5  C   -0.000000   0.000000   0.000000   0.000000  -0.000000  -0.000000
     6  F    0.000000   0.000000   0.000000  -0.000000  -0.000000   0.000000
     7  C    0.000000  -0.000000   0.000000  -0.000000   0.000000   0.000000
     8  C   -0.000000   0.000000  -0.000000   0.000000  -0.000000  -0.000000
     9  N    0.000000  -0.000000  -0.000000   0.000000  -0.000000  -0.000000
    10  C   -0.000000   0.000000   0.000000  -0.000000  -0.000000  -0.000000
    11  C   -0.000000   0.000000   0.000000   0.000000  -0.000000   0.000000
    12  S    0.000000  -0.000000  -0.000000   0.000000   0.000000  -0.000000
    13  H   -0.000000   0.000000  -0.000000   0.000000  -0.000000   0.000000
    14  H    0.000000  -0.000000   0.000000  -0.000000   0.000000  -0.000000
    15  H   -0.000000   0.000000  -0.000000   0.000000   0.000000   0.000000
    16  H    0.000000  -0.000000   0.000000  -0.000000  -0.000000  -0.000000
    17  H   -0.000000   0.000000   0.000000  -0.000000  -0.000000  -0.000000
    18  H   -0.000000   0.000000   0.000000  -0.000000   0.000000  -0.000000
               7          8          9         10         11         12
     1  C    0.000000  -0.000000   0.000000  -0.000000  -0.000000   0.000000
     2  C   -0.000000   0.000000  -0.000000   0.000000   0.000000  -0.000000
     3  C    0.000000  -0.000000  -0.000000   0.000000   0.000000  -0.000000
     4  C   -0.000000   0.000000   0.000000  -0.000000   0.000000   0.000000
     5  C    0.000000  -0.000000  -0.000000  -0.000000  -0.000000   0.000000
     6  F    0.000000  -0.000000  -0.000000  -0.000000   0.000000  -0.000000
     7  C   -0.000000   0.000000  -0.000000   0.000000  -0.000000   0.000000
     8  C    0.000000  -0.000000  -0.000000   0.000000   0.000000   0.000000
     9  N   -0.000000  -0.000000   0.000000  -0.000000  -0.000000   0.000000
    10  C    0.000000   0.000000  -0.000000  -0.000000   0.000000  -0.000000
    11  C   -0.000000   0.000000  -0.000000   0.000000   0.000000   0.000000
    12  S    0.000000   0.000000   0.000000  -0.000000   0.000000  -0.000000
    13  H    0.000000  -0.000000   0.000000  -0.000000  -0.000000   0.000000
    14  H   -0.000000  -0.000000  -0.000000   0.000000   0.000000  -0.000000
    15  H    0.000000  -0.000000   0.000000  -0.000000   0.000000   0.000000
    16  H    0.000000   0.000000   0.000000   0.000000   0.000000  -0.000000
    17  H    0.000000  -0.000000  -0.000000   0.000000  -0.000000   0.000000
    18  H    0.000000  -0.000000  -0.000000   0.000000  -0.000000   0.000000
              13         14         15         16         17         18
     1  C   -0.000000   0.000000  -0.000000   0.000000  -0.000000  -0.000000
     2  C    0.000000  -0.000000   0.000000  -0.000000   0.000000   0.000000
     3  C   -0.000000   0.000000  -0.000000   0.000000   0.000000   0.000000
     4  C    0.000000  -0.000000   0.000000  -0.000000  -0.000000  -0.000000
     5  C   -0.000000   0.000000   0.000000  -0.000000  -0.000000   0.000000
     6  F    0.000000  -0.000000   0.000000  -0.000000  -0.000000  -0.000000
     7  C    0.000000  -0.000000   0.000000   0.000000   0.000000   0.000000
     8  C   -0.000000  -0.000000  -0.000000   0.000000  -0.000000  -0.000000
     9  N    0.000000  -0.000000   0.000000   0.000000  -0.000000  -0.000000
    10  C   -0.000000   0.000000  -0.000000   0.000000   0.000000   0.000000
    11  C   -0.000000   0.000000   0.000000   0.000000  -0.000000  -0.000000
    12  S    0.000000  -0.000000   0.000000  -0.000000   0.000000   0.000000
    13  H   -0.000000   0.000000  -0.000000   0.000000  -0.000000  -0.000000
    14  H    0.000000  -0.000000   0.000000  -0.000000   0.000000   0.000000
    15  H   -0.000000   0.000000   0.000000   0.000000  -0.000000  -0.000000
    16  H    0.000000  -0.000000   0.000000  -0.000000   0.000000   0.000000
    17  H   -0.000000   0.000000  -0.000000   0.000000   0.000000   0.000000
    18  H   -0.000000   0.000000  -0.000000   0.000000   0.000000  -0.000000
 Mulliken charges and spin densities:
               1          2
     1  C    0.035642   0.000000
     2  C    0.044813  -0.000000
     3  C    0.039068  -0.000000
     4  C    0.015827   0.000000
     5  C    0.056245  -0.000000
     6  F   -0.127308   0.000000
     7  C    0.033856   0.000000
     8  C   -0.013192  -0.000000
     9  N   -0.180274   0.000000
    10  C    0.130544  -0.000000
    11  C   -0.163464   0.000000
    12  S    0.153150  -0.000000
    13  H   -0.012478  -0.000000
    14  H   -0.014413  -0.000000
    15  H   -0.016559   0.000000
    16  H   -0.004281  -0.000000
    17  H   -0.000167   0.000000
    18  H    0.022991  -0.000000
 Sum of Mulliken charges =  -0.00000  -0.00000
 Mulliken charges and spin densities with hydrogens summed into heavy atoms:
               1          2
     1  C    0.023164   0.000000
     2  C    0.030401  -0.000000
     3  C    0.022509  -0.000000
     4  C    0.015827   0.000000
     5  C    0.056245  -0.000000
     6  F   -0.127308   0.000000
     7  C    0.029575   0.000000
     8  C   -0.013192  -0.000000
     9  N   -0.180274   0.000000
    10  C    0.130377  -0.000000
    11  C   -0.140473   0.000000
    12  S    0.153150  -0.000000
 Electronic spatial extent (au):  <R**2>=           2299.2949
 Charge=             -0.0000 electrons
 Dipole moment (field-independent basis, Debye):
    X=              0.3591    Y=              0.1193    Z=              0.0007  Tot=              0.3784
 Quadrupole moment (field-independent basis, Debye-Ang):
   XX=            -58.7474   YY=            -73.5902   ZZ=            -78.1684
   XY=             -0.5717   XZ=             -0.0006   YZ=             -0.0012
 Traceless Quadrupole moment (field-independent basis, Debye-Ang):
   XX=             11.4213   YY=             -3.4216   ZZ=             -7.9997
   XY=             -0.5717   XZ=             -0.0006   YZ=             -0.0012
 Octapole moment (field-independent basis, Debye-Ang**2):
  XXX=            -10.2769  YYY=             11.6518  ZZZ=             -0.0042  XYY=              5.0586
  XXY=              4.1046  XXZ=             -0.0008  XZZ=             -2.1600  YZZ=              7.9267
  YYZ=              0.0034  XYZ=             -0.0076
 Hexadecapole moment (field-independent basis, Debye-Ang**3):
 XXXX=          -1994.5574 YYYY=           -688.6378 ZZZZ=            -83.3086 XXXY=             15.5902
 XXXZ=             -0.0129 YYYX=              6.2466 YYYZ=             -0.0134 ZZZX=             -0.0053
 ZZZY=             -0.0049 XXYY=           -450.0879 XXZZ=           -437.1509 YYZZ=           -136.2570
 XXYZ=              0.0027 YYXZ=              0.0071 ZZXY=              4.6919
 N-N= 7.313883632808D+02 E-N=-3.578176196173D+03  KE= 8.947066859599D+02
                          Isotropic Fermi Contact Couplings
        Atom                 a.u.       MegaHertz       Gauss      10(-4) cm-1
     1  C(13)             -0.00000      -0.00000      -0.00000      -0.00000
     2  C(13)             -0.00000      -0.00000      -0.00000      -0.00000
     3  C(13)              0.00000       0.00000       0.00000       0.00000
     4  C(13)             -0.00000      -0.00000      -0.00000      -0.00000
     5  C(13)             -0.00000      -0.00000      -0.00000      -0.00000
     6  F(19)              0.00000       0.00000       0.00000       0.00000
     7  C(13)             -0.00000      -0.00000      -0.00000      -0.00000
     8  C(13)             -0.00000      -0.00000      -0.00000      -0.00000
     9  N(14)             -0.00000      -0.00000      -0.00000      -0.00000
    10  C(13)             -0.00000      -0.00000      -0.00000      -0.00000
    11  C(13)             -0.00000      -0.00000      -0.00000      -0.00000
    12  S(33)              0.00000       0.00000       0.00000       0.00000
    13  H(1)              -0.00000      -0.00000      -0.00000      -0.00000
    14  H(1)               0.00000       0.00000       0.00000       0.00000
    15  H(1)               0.00000       0.00000       0.00000       0.00000
    16  H(1)              -0.00000      -0.00000      -0.00000      -0.00000
    17  H(1)              -0.00000      -0.00000      -0.00000      -0.00000
    18  H(1)              -0.00000      -0.00000      -0.00000      -0.00000
 --------------------------------------------------------
       Center         ----  Spin Dipole Couplings  ----
                      3XX-RR        3YY-RR        3ZZ-RR
 --------------------------------------------------------
     1   Atom       -0.000000      0.000000      0.000000
     2   Atom        0.000000     -0.000000      0.000000
     3   Atom       -0.000000      0.000000      0.000000
     4   Atom        0.000000     -0.000000      0.000000
     5   Atom        0.000000      0.000000     -0.000000
     6   Atom        0.000000     -0.000000      0.000000
     7   Atom       -0.000000      0.000000      0.000000
     8   Atom       -0.000000     -0.000000      0.000000
     9   Atom        0.000000     -0.000000     -0.000000
    10   Atom        0.000000      0.000000     -0.000000
    11   Atom        0.000000      0.000000     -0.000000
    12   Atom       -0.000000     -0.000000      0.000000
    13   Atom       -0.000000      0.000000      0.000000
    14   Atom       -0.000000     -0.000000      0.000000
    15   Atom        0.000000     -0.000000      0.000000
    16   Atom        0.000000     -0.000000      0.000000
    17   Atom        0.000000      0.000000     -0.000000
    18   Atom       -0.000000      0.000000     -0.000000
 --------------------------------------------------------
                        XY            XZ            YZ
 --------------------------------------------------------
     1   Atom       -0.000000      0.000000     -0.000000
     2   Atom        0.000000      0.000000     -0.000000
     3   Atom       -0.000000     -0.000000      0.000000
     4   Atom        0.000000      0.000000      0.000000
     5   Atom       -0.000000     -0.000000     -0.000000
     6   Atom       -0.000000     -0.000000     -0.000000
     7   Atom       -0.000000     -0.000000      0.000000
     8   Atom        0.000000     -0.000000     -0.000000
     9   Atom        0.000000      0.000000     -0.000000
    10   Atom       -0.000000     -0.000000     -0.000000
    11   Atom       -0.000000     -0.000000     -0.000000
    12   Atom        0.000000     -0.000000      0.000000
    13   Atom        0.000000     -0.000000     -0.000000
    14   Atom        0.000000     -0.000000      0.000000
    15   Atom       -0.000000      0.000000      0.000000
    16   Atom        0.000000      0.000000      0.000000
    17   Atom        0.000000     -0.000000     -0.000000
    18   Atom       -0.000000     -0.000000      0.000000
 --------------------------------------------------------


 ---------------------------------------------------------------------------------
              Anisotropic Spin Dipole Couplings in Principal Axis System
 ---------------------------------------------------------------------------------

       Atom             a.u.   MegaHertz   Gauss  10(-4) cm-1        Axes

              Baa    -0.0000    -0.000    -0.000    -0.000  0.9657  0.2596 -0.0061
     1 C(13)  Bbb     0.0000     0.000     0.000     0.000 -0.2594  0.9655  0.0237
              Bcc     0.0000     0.000     0.000     0.000  0.0120 -0.0213  0.9997
 
              Baa    -0.0000    -0.000    -0.000    -0.000 -0.1500  0.9887  0.0007
     2 C(13)  Bbb     0.0000     0.000     0.000     0.000  0.9747  0.1480 -0.1672
              Bcc     0.0000     0.000     0.000     0.000  0.1655  0.0244  0.9859
 
              Baa    -0.0000    -0.000    -0.000    -0.000  0.8324  0.5542  0.0035
     3 C(13)  Bbb     0.0000     0.000     0.000     0.000  0.0006 -0.0073  1.0000
              Bcc     0.0000     0.000     0.000     0.000 -0.5542  0.8324  0.0065
 
              Baa    -0.0000    -0.000    -0.000    -0.000 -0.3034  0.9529  0.0006
     4 C(13)  Bbb     0.0000     0.000     0.000     0.000 -0.0370 -0.0124  0.9992
              Bcc     0.0000     0.000     0.000     0.000  0.9521  0.3031  0.0391
 
              Baa    -0.0000    -0.000    -0.000    -0.000  0.0966  0.0864  0.9916
     5 C(13)  Bbb    -0.0000    -0.000    -0.000    -0.000  0.7921  0.5966 -0.1292
              Bcc     0.0000     0.000     0.000     0.000 -0.6028  0.7979 -0.0108
 
              Baa    -0.0000    -0.000    -0.000    -0.000  0.2504  0.9677  0.0286
     6 F(19)  Bbb     0.0000     0.000     0.000     0.000  0.0319 -0.0377  0.9988
              Bcc     0.0000     0.000     0.000     0.000  0.9676 -0.2492 -0.0404
 
              Baa    -0.0000    -0.000    -0.000    -0.000  0.9941  0.1077  0.0088
     7 C(13)  Bbb     0.0000     0.000     0.000     0.000 -0.1076  0.9942 -0.0091
              Bcc     0.0000     0.000     0.000     0.000 -0.0097  0.0081  0.9999
 
              Baa    -0.0000    -0.000    -0.000    -0.000 -0.4336  0.9011  0.0028
     8 C(13)  Bbb    -0.0000    -0.000    -0.000    -0.000  0.9011  0.4335  0.0125
              Bcc     0.0000     0.000     0.000     0.000 -0.0100 -0.0080  0.9999
 
              Baa    -0.0000    -0.000    -0.000    -0.000 -0.4010  0.9142  0.0585
     9 N(14)  Bbb    -0.0000    -0.000    -0.000    -0.000  0.0227 -0.0539  0.9983
              Bcc     0.0000     0.000     0.000     0.000  0.9158  0.4017  0.0008
 
              Baa    -0.0000    -0.000    -0.000    -0.000  0.0011  0.0052  1.0000
    10 C(13)  Bbb     0.0000     0.000     0.000     0.000  0.9950  0.1003 -0.0016
              Bcc     0.0000     0.000     0.000     0.000 -0.1003  0.9949 -0.0051
 
              Baa    -0.0000    -0.000    -0.000    -0.000  0.0280  0.0253  0.9993
    11 C(13)  Bbb    -0.0000    -0.000    -0.000    -0.000  0.5612  0.8268 -0.0367
              Bcc     0.0000     0.000     0.000     0.000  0.8272 -0.5619 -0.0090
 
              Baa    -0.0000    -0.000    -0.000    -0.000 -0.5504  0.8348 -0.0135
    12 S(33)  Bbb     0.0000     0.000     0.000     0.000  0.8348  0.5505  0.0046
              Bcc     0.0000     0.000     0.000     0.000 -0.0113  0.0087  0.9999
 
              Baa    -0.0000    -0.000    -0.000    -0.000  1.0000 -0.0016  0.0071
    13 H(1)   Bbb     0.0000     0.000     0.000     0.000  0.0015  1.0000  0.0073
              Bcc     0.0000     0.000     0.000     0.000 -0.0071 -0.0073  0.9999
 
              Baa    -0.0000    -0.000    -0.000    -0.000 -0.6553  0.7553 -0.0045
    14 H(1)   Bbb     0.0000     0.000     0.000     0.000  0.7554  0.6553 -0.0013
              Bcc     0.0000     0.000     0.000     0.000 -0.0019  0.0043  1.0000
 
              Baa    -0.0000    -0.000    -0.000    -0.000  0.0368  0.9993 -0.0077
    15 H(1)   Bbb     0.0000     0.000     0.000     0.000 -0.1257  0.0123  0.9920
              Bcc     0.0000     0.000     0.000     0.000  0.9914 -0.0355  0.1261
 
              Baa    -0.0000    -0.000    -0.000    -0.000 -0.2487  0.9686 -0.0045
    16 H(1)   Bbb     0.0000     0.000     0.000     0.000  0.9667  0.2480 -0.0629
              Bcc     0.0000     0.000     0.000     0.000  0.0598  0.0200  0.9980
 
              Baa    -0.0000    -0.000    -0.000    -0.000 -0.0026  0.0087  1.0000
    17 H(1)   Bbb    -0.0000    -0.000    -0.000    -0.000  0.7658 -0.6431  0.0076
              Bcc     0.0000     0.000     0.000     0.000  0.6431  0.7658 -0.0050
 
              Baa    -0.0000    -0.000    -0.000    -0.000  0.8442  0.5358  0.0176
    18 H(1)   Bbb    -0.0000    -0.000    -0.000    -0.000 -0.0116 -0.0145  0.9998
              Bcc     0.0000     0.000     0.000     0.000 -0.5360  0.8442  0.0060
 

 ---------------------------------------------------------------------------------

 No NMR shielding tensors so no spin-rotation constants.
 Leave Link  601 at Sat Jul 25 05:19:45 2020, MaxMem=  4026531840 cpu:               1.5 elap:               0.2
 (Enter /opt/ohpc/pub/libs/gaussian/g16-A.03/sandybridge/g16/l9999.exe)

 Test job not archived.
 1\1\GINC-SKYLAKE041\FOpt\ULC-wPBE\CC-pVDZ\C9H6F1N1S1\RDU230\25-Jul-202
 0\0\\#P uLC-wPBE/cc-pVDZ iop(3/107=0063300000, 3/108=0063300000) opt\\
 H6 C9 S1 N1 F1\\0,1\C,3.4312234437,-0.3028078758,0.001845464\C,2.71944
 55861,-1.5153012714,-0.003457911\C,1.3223679077,-1.510746032,-0.004076
 7454\C,0.5905998435,-0.2978777642,0.0005875382\C,1.339838965,0.8953855
 426,0.0058917719\F,0.6817193474,2.0896355301,0.0105681451\C,2.73538548
 33,0.9136482107,0.0065625144\C,-0.8762486525,-0.3457192795,-0.00041720
 06\N,-1.5493658941,-1.484337272,-0.0061560992\C,-2.9012867026,-1.26306
 80725,-0.0056554311\C,-3.3005327611,0.0574886516,0.0004453837\S,-1.912
 7118131,1.0954198459,0.0060081349\H,4.5303354067,-0.3005537208,0.00227
 05269\H,3.2602025409,-2.4720020368,-0.0070502367\H,0.7432668487,-2.443
 7775527,-0.0082662668\H,3.2514846101,1.882917882,0.0107887946\H,-3.585
 0884349,-2.1221691835,-0.0101046395\H,-4.3158757248,0.4682773981,0.002
 0292566\\Version=EM64L-G16RevA.03\State=1-A\HF=-898.7341697\S2=0.\S2-1
 =0.\S2A=0.\RMSD=4.357e-09\RMSF=9.620e-06\Dipole=0.1417744,0.0454714,0.
 0005358\Quadrupole=8.4814213,-2.5338679,-5.9475534,-0.5397016,0.003697
 9,0.0137631\PG=C01 [X(C9H6F1N1S1)]\\@


 QUHEN THE CAUSS IS TAKEN AWAY THE EFFECT WANISHETH.
 -- PROVERBS AND REASONS OF THE YEAR 1585
           AS REPRINTED IN PAISLEY MAGAZINE 1828.
 Job cpu time:       0 days  1 hours  3 minutes  9.3 seconds.
 Elapsed time:       0 days  0 hours  8 minutes  0.4 seconds.
 File lengths (MBytes):  RWF=    100 Int=      0 D2E=      0 Chk=     12 Scr=      8
 Normal termination of Gaussian 16 at Sat Jul 25 05:19:45 2020.
