 Entering Gaussian System, Link 0=g16
 Input=mols_65_5_35_cF-cOC-COC_opt_0.gjf
 Output=mols_65_5_35_cF-cOC-COC_opt_0.log
 Initial command:
 /opt/ohpc/pub/libs/gaussian/g16-A.03/sandybridge/g16/l1.exe "/mnt/gpfs2_4m/scratch/rdu230/ondemand/projects/dihedral_energies/7trial/wtuning/mols_65_5_35_cF-cOC-COC/Gau-245720.inp" -scrdir="/mnt/gpfs2_4m/scratch/rdu230/ondemand/projects/dihedral_energies/7trial/wtuning/mols_65_5_35_cF-cOC-COC/"
 Entering Link 1 = /opt/ohpc/pub/libs/gaussian/g16-A.03/sandybridge/g16/l1.exe PID=    245725.
  
 Copyright (c) 1988,1990,1992,1993,1995,1998,2003,2009,2016,
            Gaussian, Inc.  All Rights Reserved.
  
 This is part of the Gaussian(R) 16 program.  It is based on
 the Gaussian(R) 09 system (copyright 2009, Gaussian, Inc.),
 the Gaussian(R) 03 system (copyright 2003, Gaussian, Inc.),
 the Gaussian(R) 98 system (copyright 1998, Gaussian, Inc.),
 the Gaussian(R) 94 system (copyright 1995, Gaussian, Inc.),
 the Gaussian 92(TM) system (copyright 1992, Gaussian, Inc.),
 the Gaussian 90(TM) system (copyright 1990, Gaussian, Inc.),
 the Gaussian 88(TM) system (copyright 1988, Gaussian, Inc.),
 the Gaussian 86(TM) system (copyright 1986, Carnegie Mellon
 University), and the Gaussian 82(TM) system (copyright 1983,
 Carnegie Mellon University). Gaussian is a federally registered
 trademark of Gaussian, Inc.
  
 This software contains proprietary and confidential information,
 including trade secrets, belonging to Gaussian, Inc.
  
 This software is provided under written license and may be
 used, copied, transmitted, or stored only in accord with that
 written license.
  
 The following legend is applicable only to US Government
 contracts under FAR:
  
                    RESTRICTED RIGHTS LEGEND
  
 Use, reproduction and disclosure by the US Government is
 subject to restrictions as set forth in subparagraphs (a)
 and (c) of the Commercial Computer Software - Restricted
 Rights clause in FAR 52.227-19.
  
 Gaussian, Inc.
 340 Quinnipiac St., Bldg. 40, Wallingford CT 06492
  
  
 ---------------------------------------------------------------
 Warning -- This program may not be used in any manner that
 competes with the business of Gaussian, Inc. or will provide
 assistance to any competitor of Gaussian, Inc.  The licensee
 of this program is prohibited from giving any competitor of
 Gaussian, Inc. access to this program.  By using this program,
 the user acknowledges that Gaussian, Inc. is engaged in the
 business of creating and licensing software in the field of
 computational chemistry and represents and warrants to the
 licensee that it is not a competitor of Gaussian, Inc. and that
 it will not use this program in any manner prohibited above.
 ---------------------------------------------------------------
  

 Cite this work as:
 Gaussian 16, Revision A.03,
 M. J. Frisch, G. W. Trucks, H. B. Schlegel, G. E. Scuseria, 
 M. A. Robb, J. R. Cheeseman, G. Scalmani, V. Barone, 
 G. A. Petersson, H. Nakatsuji, X. Li, M. Caricato, A. V. Marenich, 
 J. Bloino, B. G. Janesko, R. Gomperts, B. Mennucci, H. P. Hratchian, 
 J. V. Ortiz, A. F. Izmaylov, J. L. Sonnenberg, D. Williams-Young, 
 F. Ding, F. Lipparini, F. Egidi, J. Goings, B. Peng, A. Petrone, 
 T. Henderson, D. Ranasinghe, V. G. Zakrzewski, J. Gao, N. Rega, 
 G. Zheng, W. Liang, M. Hada, M. Ehara, K. Toyota, R. Fukuda, 
 J. Hasegawa, M. Ishida, T. Nakajima, Y. Honda, O. Kitao, H. Nakai, 
 T. Vreven, K. Throssell, J. A. Montgomery, Jr., J. E. Peralta, 
 F. Ogliaro, M. J. Bearpark, J. J. Heyd, E. N. Brothers, K. N. Kudin, 
 V. N. Staroverov, T. A. Keith, R. Kobayashi, J. Normand, 
 K. Raghavachari, A. P. Rendell, J. C. Burant, S. S. Iyengar, 
 J. Tomasi, M. Cossi, J. M. Millam, M. Klene, C. Adamo, R. Cammi, 
 J. W. Ochterski, R. L. Martin, K. Morokuma, O. Farkas, 
 J. B. Foresman, and D. J. Fox, Gaussian, Inc., Wallingford CT, 2016.
 
 ******************************************
 Gaussian 16:  EM64L-G16RevA.03 25-Dec-2016
                24-Jul-2020 
 ******************************************
 %mem=30GB
 %nproc=8
 Will use up to    8 processors via shared memory.
 ---------------------------------------------------------------
 #P uLC-wPBE/cc-pVDZ iop(3/107=0257400000, 3/108=0257400000) opt
 ---------------------------------------------------------------
 1/18=20,19=15,26=3,38=1/1,3;
 2/9=110,12=2,17=6,18=5,40=1/2;
 3/5=16,11=2,25=1,30=1,71=1,74=-41,107=257400000,108=257400000,116=2/1,2,3;
 4//1;
 5/5=2,38=5/2;
 6/7=2,8=2,9=2,10=2,28=1/1;
 7//1,2,3,16;
 1/18=20,19=15,26=3/3(2);
 2/9=110/2;
 99//99;
 2/9=110/2;
 3/5=16,11=2,25=1,30=1,71=1,74=-41,107=257400000,108=257400000,116=2/1,2,3;
 4/5=5,16=3,69=1/1;
 5/5=2,38=5/2;
 7//1,2,3,16;
 1/18=20,19=15,26=3/3(-5);
 2/9=110/2;
 6/7=2,8=2,9=2,10=2,19=2,28=1/1;
 99/9=1/99;
 Leave Link    1 at Fri Jul 24 14:02:36 2020, MaxMem=  4026531840 cpu:               1.9 elap:               0.3
 (Enter /opt/ohpc/pub/libs/gaussian/g16-A.03/sandybridge/g16/l101.exe)
 -----------------
 H47 C60 S5 O10 F5
 -----------------
 Symbolic Z-matrix:
 Charge =  0 Multiplicity = 1
 C                    -18.70449  -2.91476   0.56533 
 C                    -17.82437  -2.96291  -0.5334 
 C                    -16.67831  -2.13404  -0.61928 
 F                    -15.86481  -2.27861  -1.69603 
 C                    -16.38905  -1.24309   0.32943 
 C                    -17.25407  -1.19667   1.52176 
 O                    -16.90316  -0.36665   2.52082 
 C                    -18.01375   0.61356   2.75094 
 C                    -18.33485  -2.01128   1.55378 
 C                    -15.20017  -0.43889   0.2937 
 C                    -15.15702   1.00027   0.01928 
 O                    -16.27229   1.65026  -0.05681 
 C                    -16.12709   3.01939  -0.33868 
 C                    -13.80249   1.39902  -0.04596 
 C                    -12.88854   0.37065   0.17339 
 S                    -13.67886  -1.09591   0.44012 
 C                    -11.44723   0.52725   0.08312 
 C                    -10.78517   1.40368   0.91619 
 C                    -9.41799   1.58801   0.78519 
 F                    -8.7596    2.48171   1.56631 
 C                    -8.62824   0.83387  -0.14552 
 C                    -9.30332  -0.11669  -0.83445 
 O                    -8.58775  -0.85407  -1.81038 
 C                    -8.77784  -2.30986  -1.70331 
 C                    -10.6387  -0.30457  -0.81368 
 C                    -7.19362   1.09872  -0.23812 
 C                    -6.60133   2.34015  -0.72047 
 O                    -7.338     3.3911   -1.01853 
 C                    -6.7047    4.49978  -1.41756 
 C                    -5.20906   2.19681  -0.75253 
 C                    -4.67846   0.96711  -0.40641 
 S                    -6.04203  -0.07025   0.11328 
 C                    -3.27761   0.48219  -0.3981 
 C                    -2.46067   0.75683  -1.43984 
 C                    -1.19178   0.41323  -1.48207 
 F                    -0.44263   0.73992  -2.50537 
 C                    -0.6253   -0.35445  -0.36412 
 C                    -1.47292  -0.66285   0.68912 
 O                    -0.89297  -1.38566   1.75395 
 C                    -1.50356  -2.66773   1.84619 
 C                    -2.79422  -0.30416   0.66757 
 C                     0.8085   -0.75304  -0.43842 
 C                     1.26727  -1.97965  -0.86909 
 O                     0.51998  -3.00111  -1.28802 
 C                     1.08219  -4.16899  -1.71584 
 C                     2.7851   -1.98328  -0.79218 
 C                     3.28657  -0.81242  -0.34674 
 S                     2.05067   0.34466  -0.00785 
 C                     4.64138  -0.40875  -0.15654 
 C                     5.40396  -1.04887   0.77424 
 C                     6.73303  -0.65444   0.89239 
 F                     7.56109  -1.30988   1.8256 
 C                     7.38095   0.28601   0.06048 
 C                     6.54218   0.98461  -0.82373 
 O                     7.09818   1.87745  -1.71988 
 C                     6.34988   3.04793  -1.83451 
 C                     5.23421   0.61239  -1.06377 
 C                     8.73348   0.73925   0.30538 
 C                     9.31174   1.87458   0.79371 
 O                     8.38941   2.89012   1.17582 
 C                     9.07533   4.13828   1.55636 
 C                     10.69574   1.89533   0.73942 
 C                     11.22639   0.74156   0.33379 
 S                     10.00681  -0.4062   -0.09638 
 C                     12.65232   0.27929   0.22998 
 C                     13.51384   1.23486  -0.37813 
 C                     14.92859   0.90089  -0.43331 
 F                     15.77923   1.77505  -1.02791 
 C                     15.41909  -0.29539  -0.01767 
 C                     14.45971  -1.26388   0.54986 
 O                     15.02807  -2.45641   1.09368 
 C                     14.23986  -3.55592   0.83875 
 C                     13.14419  -0.94563   0.66219 
 C                     16.80064  -0.66676  -0.08612 
 C                     17.86362  -0.24804   0.67383 
 O                     17.57164   0.55138   1.76165 
 C                     18.68972   0.90245   2.57002 
 C                     19.15347  -0.74183   0.28215 
 C                     19.04097  -1.4953   -0.90837 
 S                     17.34084  -1.59075  -1.39483 
 H                    -19.53114  -3.53047   0.54864 
 H                    -18.05765  -3.65095  -1.41394 
 H                    -18.73541   0.19827   3.31384 
 H                    -18.39062   1.01146   1.8052 
 H                    -17.55609   1.4449    3.28833 
 H                    -19.01886  -1.92882   2.42715 
 H                    -15.58117   3.59584   0.48134 
 H                    -17.13022   3.5217   -0.45535 
 H                    -15.55487   3.1929   -1.27159 
 H                    -13.51858   2.49144  -0.15528 
 H                    -11.29667   2.02128   1.58405 
 H                    -7.9819   -2.78024  -2.1951 
 H                    -8.80826  -2.5732   -0.59974 
 H                    -9.66244  -2.58135  -2.15741 
 H                    -11.14595  -0.95161  -1.44956 
 H                    -6.15875   4.32821  -2.32741 
 H                    -7.37958   5.29436  -1.62862 
 H                    -5.93857   4.88586  -0.69577 
 H                    -4.47597   3.02969  -0.99979 
 H                    -2.8098    1.3665   -2.31838 
 H                    -2.56544  -2.56038   2.378 
 H                    -1.65481  -3.14165   0.87681 
 H                    -0.88277  -3.24898   2.53313 
 H                    -3.3875   -0.44436   1.60244 
 H                     1.68964  -4.64957  -0.95363 
 H                     0.35995  -4.87063  -1.97172 
 H                     1.71767  -3.9892   -2.62634 
 H                     3.35171  -2.79498  -1.06603 
 H                     5.07047  -1.77213   1.43496 
 H                     5.56282   2.92905  -2.60647 
 H                     5.95483   3.37715  -0.92242 
 H                     7.03669   3.92304  -2.18931 
 H                     4.64184   1.03521  -1.83288 
 H                     9.66063   4.56307   0.6933 
 H                     8.30094   4.80498   1.74284 
 H                     9.66208   3.9958    2.41763 
 H                     11.28505   2.72174   1.12769 
 H                     13.25644   2.20647  -0.79406 
 H                     13.39634  -3.6095    1.55371 
 H                     13.89441  -3.61555  -0.19656 
 H                     14.77861  -4.48475   1.03268 
 H                     12.4355  -1.62586   1.20478 
 H                     19.22023   0.10275   2.99019 
 H                     18.43763   1.56271   3.39676 
 H                     19.44634   1.55854   1.98869 
 H                     20.05798  -0.56632   0.72254 
 H                     19.81384  -1.95635  -1.49765 
 
 ITRead=  0  0  0  0  0  0  0  0  0  0  0  0  0  0  0  0  0  0  0  0
 ITRead=  0  0  0  0  0  0  0  0  0  0  0  0  0  0  0  0  0  0  0  0
 ITRead=  0  0  0  0  0  0  0  0  0  0  0  0  0  0  0  0  0  0  0  0
 ITRead=  0  0  0  0  0  0  0  0  0  0  0  0  0  0  0  0  0  0  0  0
 ITRead=  0  0  0  0  0  0  0  0  0  0  0  0  0  0  0  0  0  0  0  0
 ITRead=  0  0  0  0  0  0  0  0  0  0  0  0  0  0  0  0  0  0  0  0
 ITRead=  0  0  0  0  0  0  0
 MicOpt= -1 -1 -1 -1 -1 -1 -1 -1 -1 -1 -1 -1 -1 -1 -1 -1 -1 -1 -1 -1
 MicOpt= -1 -1 -1 -1 -1 -1 -1 -1 -1 -1 -1 -1 -1 -1 -1 -1 -1 -1 -1 -1
 MicOpt= -1 -1 -1 -1 -1 -1 -1 -1 -1 -1 -1 -1 -1 -1 -1 -1 -1 -1 -1 -1
 MicOpt= -1 -1 -1 -1 -1 -1 -1 -1 -1 -1 -1 -1 -1 -1 -1 -1 -1 -1 -1 -1
 MicOpt= -1 -1 -1 -1 -1 -1 -1 -1 -1 -1 -1 -1 -1 -1 -1 -1 -1 -1 -1 -1
 MicOpt= -1 -1 -1 -1 -1 -1 -1 -1 -1 -1 -1 -1 -1 -1 -1 -1 -1 -1 -1 -1
 MicOpt= -1 -1 -1 -1 -1 -1 -1
 NAtoms=    127 NQM=      127 NQMF=       0 NMMI=      0 NMMIF=      0
                NMic=       0 NMicF=      0.
                    Isotopes and Nuclear Properties:
 (Nuclear quadrupole moments (NQMom) in fm**2, nuclear magnetic moments (NMagM)
  in nuclear magnetons)

  Atom         1           2           3           4           5           6           7           8           9          10
 IAtWgt=          12          12          12          19          12          12          16          12          12          12
 AtmWgt=  12.0000000  12.0000000  12.0000000  18.9984033  12.0000000  12.0000000  15.9949146  12.0000000  12.0000000  12.0000000
 NucSpn=           0           0           0           1           0           0           0           0           0           0
 AtZEff=  -0.0000000  -0.0000000  -0.0000000  -0.0000000  -0.0000000  -0.0000000  -0.0000000  -0.0000000  -0.0000000  -0.0000000
 NQMom=    0.0000000   0.0000000   0.0000000   0.0000000   0.0000000   0.0000000   0.0000000   0.0000000   0.0000000   0.0000000
 NMagM=    0.0000000   0.0000000   0.0000000   2.6288670   0.0000000   0.0000000   0.0000000   0.0000000   0.0000000   0.0000000
 AtZNuc=   6.0000000   6.0000000   6.0000000   9.0000000   6.0000000   6.0000000   8.0000000   6.0000000   6.0000000   6.0000000

  Atom        11          12          13          14          15          16          17          18          19          20
 IAtWgt=          12          16          12          12          12          32          12          12          12          19
 AtmWgt=  12.0000000  15.9949146  12.0000000  12.0000000  12.0000000  31.9720718  12.0000000  12.0000000  12.0000000  18.9984033
 NucSpn=           0           0           0           0           0           0           0           0           0           1
 AtZEff=  -0.0000000  -0.0000000  -0.0000000  -0.0000000  -0.0000000  -0.0000000  -0.0000000  -0.0000000  -0.0000000  -0.0000000
 NQMom=    0.0000000   0.0000000   0.0000000   0.0000000   0.0000000   0.0000000   0.0000000   0.0000000   0.0000000   0.0000000
 NMagM=    0.0000000   0.0000000   0.0000000   0.0000000   0.0000000   0.0000000   0.0000000   0.0000000   0.0000000   2.6288670
 AtZNuc=   6.0000000   8.0000000   6.0000000   6.0000000   6.0000000  16.0000000   6.0000000   6.0000000   6.0000000   9.0000000

  Atom        21          22          23          24          25          26          27          28          29          30
 IAtWgt=          12          12          16          12          12          12          12          16          12          12
 AtmWgt=  12.0000000  12.0000000  15.9949146  12.0000000  12.0000000  12.0000000  12.0000000  15.9949146  12.0000000  12.0000000
 NucSpn=           0           0           0           0           0           0           0           0           0           0
 AtZEff=  -0.0000000  -0.0000000  -0.0000000  -0.0000000  -0.0000000  -0.0000000  -0.0000000  -0.0000000  -0.0000000  -0.0000000
 NQMom=    0.0000000   0.0000000   0.0000000   0.0000000   0.0000000   0.0000000   0.0000000   0.0000000   0.0000000   0.0000000
 NMagM=    0.0000000   0.0000000   0.0000000   0.0000000   0.0000000   0.0000000   0.0000000   0.0000000   0.0000000   0.0000000
 AtZNuc=   6.0000000   6.0000000   8.0000000   6.0000000   6.0000000   6.0000000   6.0000000   8.0000000   6.0000000   6.0000000

  Atom        31          32          33          34          35          36          37          38          39          40
 IAtWgt=          12          32          12          12          12          19          12          12          16          12
 AtmWgt=  12.0000000  31.9720718  12.0000000  12.0000000  12.0000000  18.9984033  12.0000000  12.0000000  15.9949146  12.0000000
 NucSpn=           0           0           0           0           0           1           0           0           0           0
 AtZEff=  -0.0000000  -0.0000000  -0.0000000  -0.0000000  -0.0000000  -0.0000000  -0.0000000  -0.0000000  -0.0000000  -0.0000000
 NQMom=    0.0000000   0.0000000   0.0000000   0.0000000   0.0000000   0.0000000   0.0000000   0.0000000   0.0000000   0.0000000
 NMagM=    0.0000000   0.0000000   0.0000000   0.0000000   0.0000000   2.6288670   0.0000000   0.0000000   0.0000000   0.0000000
 AtZNuc=   6.0000000  16.0000000   6.0000000   6.0000000   6.0000000   9.0000000   6.0000000   6.0000000   8.0000000   6.0000000

  Atom        41          42          43          44          45          46          47          48          49          50
 IAtWgt=          12          12          12          16          12          12          12          32          12          12
 AtmWgt=  12.0000000  12.0000000  12.0000000  15.9949146  12.0000000  12.0000000  12.0000000  31.9720718  12.0000000  12.0000000
 NucSpn=           0           0           0           0           0           0           0           0           0           0
 AtZEff=  -0.0000000  -0.0000000  -0.0000000  -0.0000000  -0.0000000  -0.0000000  -0.0000000  -0.0000000  -0.0000000  -0.0000000
 NQMom=    0.0000000   0.0000000   0.0000000   0.0000000   0.0000000   0.0000000   0.0000000   0.0000000   0.0000000   0.0000000
 NMagM=    0.0000000   0.0000000   0.0000000   0.0000000   0.0000000   0.0000000   0.0000000   0.0000000   0.0000000   0.0000000
 AtZNuc=   6.0000000   6.0000000   6.0000000   8.0000000   6.0000000   6.0000000   6.0000000  16.0000000   6.0000000   6.0000000

  Atom        51          52          53          54          55          56          57          58          59          60
 IAtWgt=          12          19          12          12          16          12          12          12          12          16
 AtmWgt=  12.0000000  18.9984033  12.0000000  12.0000000  15.9949146  12.0000000  12.0000000  12.0000000  12.0000000  15.9949146
 NucSpn=           0           1           0           0           0           0           0           0           0           0
 AtZEff=  -0.0000000  -0.0000000  -0.0000000  -0.0000000  -0.0000000  -0.0000000  -0.0000000  -0.0000000  -0.0000000  -0.0000000
 NQMom=    0.0000000   0.0000000   0.0000000   0.0000000   0.0000000   0.0000000   0.0000000   0.0000000   0.0000000   0.0000000
 NMagM=    0.0000000   2.6288670   0.0000000   0.0000000   0.0000000   0.0000000   0.0000000   0.0000000   0.0000000   0.0000000
 AtZNuc=   6.0000000   9.0000000   6.0000000   6.0000000   8.0000000   6.0000000   6.0000000   6.0000000   6.0000000   8.0000000

  Atom        61          62          63          64          65          66          67          68          69          70
 IAtWgt=          12          12          12          32          12          12          12          19          12          12
 AtmWgt=  12.0000000  12.0000000  12.0000000  31.9720718  12.0000000  12.0000000  12.0000000  18.9984033  12.0000000  12.0000000
 NucSpn=           0           0           0           0           0           0           0           1           0           0
 AtZEff=  -0.0000000  -0.0000000  -0.0000000  -0.0000000  -0.0000000  -0.0000000  -0.0000000  -0.0000000  -0.0000000  -0.0000000
 NQMom=    0.0000000   0.0000000   0.0000000   0.0000000   0.0000000   0.0000000   0.0000000   0.0000000   0.0000000   0.0000000
 NMagM=    0.0000000   0.0000000   0.0000000   0.0000000   0.0000000   0.0000000   0.0000000   2.6288670   0.0000000   0.0000000
 AtZNuc=   6.0000000   6.0000000   6.0000000  16.0000000   6.0000000   6.0000000   6.0000000   9.0000000   6.0000000   6.0000000

  Atom        71          72          73          74          75          76          77          78          79          80
 IAtWgt=          16          12          12          12          12          16          12          12          12          32
 AtmWgt=  15.9949146  12.0000000  12.0000000  12.0000000  12.0000000  15.9949146  12.0000000  12.0000000  12.0000000  31.9720718
 NucSpn=           0           0           0           0           0           0           0           0           0           0
 AtZEff=  -0.0000000  -0.0000000  -0.0000000  -0.0000000  -0.0000000  -0.0000000  -0.0000000  -0.0000000  -0.0000000  -0.0000000
 NQMom=    0.0000000   0.0000000   0.0000000   0.0000000   0.0000000   0.0000000   0.0000000   0.0000000   0.0000000   0.0000000
 NMagM=    0.0000000   0.0000000   0.0000000   0.0000000   0.0000000   0.0000000   0.0000000   0.0000000   0.0000000   0.0000000
 AtZNuc=   8.0000000   6.0000000   6.0000000   6.0000000   6.0000000   8.0000000   6.0000000   6.0000000   6.0000000  16.0000000

  Atom        81          82          83          84          85          86          87          88          89          90
 IAtWgt=           1           1           1           1           1           1           1           1           1           1
 AtmWgt=   1.0078250   1.0078250   1.0078250   1.0078250   1.0078250   1.0078250   1.0078250   1.0078250   1.0078250   1.0078250
 NucSpn=           1           1           1           1           1           1           1           1           1           1
 AtZEff=  -0.0000000  -0.0000000  -0.0000000  -0.0000000  -0.0000000  -0.0000000  -0.0000000  -0.0000000  -0.0000000  -0.0000000
 NQMom=    0.0000000   0.0000000   0.0000000   0.0000000   0.0000000   0.0000000   0.0000000   0.0000000   0.0000000   0.0000000
 NMagM=    2.7928460   2.7928460   2.7928460   2.7928460   2.7928460   2.7928460   2.7928460   2.7928460   2.7928460   2.7928460
 AtZNuc=   1.0000000   1.0000000   1.0000000   1.0000000   1.0000000   1.0000000   1.0000000   1.0000000   1.0000000   1.0000000

  Atom        91          92          93          94          95          96          97          98          99         100
 IAtWgt=           1           1           1           1           1           1           1           1           1           1
 AtmWgt=   1.0078250   1.0078250   1.0078250   1.0078250   1.0078250   1.0078250   1.0078250   1.0078250   1.0078250   1.0078250
 NucSpn=           1           1           1           1           1           1           1           1           1           1
 AtZEff=  -0.0000000  -0.0000000  -0.0000000  -0.0000000  -0.0000000  -0.0000000  -0.0000000  -0.0000000  -0.0000000  -0.0000000
 NQMom=    0.0000000   0.0000000   0.0000000   0.0000000   0.0000000   0.0000000   0.0000000   0.0000000   0.0000000   0.0000000
 NMagM=    2.7928460   2.7928460   2.7928460   2.7928460   2.7928460   2.7928460   2.7928460   2.7928460   2.7928460   2.7928460
 AtZNuc=   1.0000000   1.0000000   1.0000000   1.0000000   1.0000000   1.0000000   1.0000000   1.0000000   1.0000000   1.0000000

  Atom       101         102         103         104         105         106         107         108         109         110
 IAtWgt=           1           1           1           1           1           1           1           1           1           1
 AtmWgt=   1.0078250   1.0078250   1.0078250   1.0078250   1.0078250   1.0078250   1.0078250   1.0078250   1.0078250   1.0078250
 NucSpn=           1           1           1           1           1           1           1           1           1           1
 AtZEff=  -0.0000000  -0.0000000  -0.0000000  -0.0000000  -0.0000000  -0.0000000  -0.0000000  -0.0000000  -0.0000000  -0.0000000
 NQMom=    0.0000000   0.0000000   0.0000000   0.0000000   0.0000000   0.0000000   0.0000000   0.0000000   0.0000000   0.0000000
 NMagM=    2.7928460   2.7928460   2.7928460   2.7928460   2.7928460   2.7928460   2.7928460   2.7928460   2.7928460   2.7928460
 AtZNuc=   1.0000000   1.0000000   1.0000000   1.0000000   1.0000000   1.0000000   1.0000000   1.0000000   1.0000000   1.0000000

  Atom       111         112         113         114         115         116         117         118         119         120
 IAtWgt=           1           1           1           1           1           1           1           1           1           1
 AtmWgt=   1.0078250   1.0078250   1.0078250   1.0078250   1.0078250   1.0078250   1.0078250   1.0078250   1.0078250   1.0078250
 NucSpn=           1           1           1           1           1           1           1           1           1           1
 AtZEff=  -0.0000000  -0.0000000  -0.0000000  -0.0000000  -0.0000000  -0.0000000  -0.0000000  -0.0000000  -0.0000000  -0.0000000
 NQMom=    0.0000000   0.0000000   0.0000000   0.0000000   0.0000000   0.0000000   0.0000000   0.0000000   0.0000000   0.0000000
 NMagM=    2.7928460   2.7928460   2.7928460   2.7928460   2.7928460   2.7928460   2.7928460   2.7928460   2.7928460   2.7928460
 AtZNuc=   1.0000000   1.0000000   1.0000000   1.0000000   1.0000000   1.0000000   1.0000000   1.0000000   1.0000000   1.0000000

  Atom       121         122         123         124         125         126         127
 IAtWgt=           1           1           1           1           1           1           1
 AtmWgt=   1.0078250   1.0078250   1.0078250   1.0078250   1.0078250   1.0078250   1.0078250
 NucSpn=           1           1           1           1           1           1           1
 AtZEff=  -0.0000000  -0.0000000  -0.0000000  -0.0000000  -0.0000000  -0.0000000  -0.0000000
 NQMom=    0.0000000   0.0000000   0.0000000   0.0000000   0.0000000   0.0000000   0.0000000
 NMagM=    2.7928460   2.7928460   2.7928460   2.7928460   2.7928460   2.7928460   2.7928460
 AtZNuc=   1.0000000   1.0000000   1.0000000   1.0000000   1.0000000   1.0000000   1.0000000
 Leave Link  101 at Fri Jul 24 14:02:37 2020, MaxMem=  4026531840 cpu:               2.6 elap:               0.5
 (Enter /opt/ohpc/pub/libs/gaussian/g16-A.03/sandybridge/g16/l103.exe)

 GradGradGradGradGradGradGradGradGradGradGradGradGradGradGradGradGradGrad
 Berny optimization.
 Initialization pass.
                           ----------------------------
                           !    Initial Parameters    !
                           ! (Angstroms and Degrees)  !
 --------------------------                            --------------------------
 ! Name  Definition              Value          Derivative Info.                !
 --------------------------------------------------------------------------------
 ! R1    R(1,2)                  1.4086         estimate D2E/DX2                !
 ! R2    R(1,9)                  1.3892         estimate D2E/DX2                !
 ! R3    R(1,81)                 1.0309         estimate D2E/DX2                !
 ! R4    R(2,3)                  1.417          estimate D2E/DX2                !
 ! R5    R(2,82)                 1.1416         estimate D2E/DX2                !
 ! R6    R(3,4)                  1.3572         estimate D2E/DX2                !
 ! R7    R(3,5)                  1.3332         estimate D2E/DX2                !
 ! R8    R(5,6)                  1.4738         estimate D2E/DX2                !
 ! R9    R(5,10)                 1.4358         estimate D2E/DX2                !
 ! R10   R(6,7)                  1.3454         estimate D2E/DX2                !
 ! R11   R(6,9)                  1.3538         estimate D2E/DX2                !
 ! R12   R(7,8)                  1.4991         estimate D2E/DX2                !
 ! R13   R(8,83)                 1.005          estimate D2E/DX2                !
 ! R14   R(8,84)                 1.0931         estimate D2E/DX2                !
 ! R15   R(8,85)                 1.0906         estimate D2E/DX2                !
 ! R16   R(9,86)                 1.1124         estimate D2E/DX2                !
 ! R17   R(10,11)                1.4657         estimate D2E/DX2                !
 ! R18   R(10,16)                1.6636         estimate D2E/DX2                !
 ! R19   R(11,12)                1.2931         estimate D2E/DX2                !
 ! R20   R(11,14)                1.4135         estimate D2E/DX2                !
 ! R21   R(12,13)                1.4054         estimate D2E/DX2                !
 ! R22   R(13,87)                1.1414         estimate D2E/DX2                !
 ! R23   R(13,88)                1.1279         estimate D2E/DX2                !
 ! R24   R(13,89)                1.1081         estimate D2E/DX2                !
 ! R25   R(14,15)                1.3932         estimate D2E/DX2                !
 ! R26   R(14,90)                1.134          estimate D2E/DX2                !
 ! R27   R(15,16)                1.6872         estimate D2E/DX2                !
 ! R28   R(15,17)                1.4526         estimate D2E/DX2                !
 ! R29   R(17,18)                1.3786         estimate D2E/DX2                !
 ! R30   R(17,25)                1.4662         estimate D2E/DX2                !
 ! R31   R(18,19)                1.3858         estimate D2E/DX2                !
 ! R32   R(18,91)                1.0436         estimate D2E/DX2                !
 ! R33   R(19,20)                1.3573         estimate D2E/DX2                !
 ! R34   R(19,21)                1.4348         estimate D2E/DX2                !
 ! R35   R(21,22)                1.3542         estimate D2E/DX2                !
 ! R36   R(21,26)                1.4618         estimate D2E/DX2                !
 ! R37   R(22,23)                1.4171         estimate D2E/DX2                !
 ! R38   R(22,25)                1.3487         estimate D2E/DX2                !
 ! R39   R(23,24)                1.472          estimate D2E/DX2                !
 ! R40   R(24,92)                1.0472         estimate D2E/DX2                !
 ! R41   R(24,93)                1.135          estimate D2E/DX2                !
 ! R42   R(24,94)                1.0307         estimate D2E/DX2                !
 ! R43   R(25,95)                1.0394         estimate D2E/DX2                !
 ! R44   R(26,27)                1.4576         estimate D2E/DX2                !
 ! R45   R(26,32)                1.6781         estimate D2E/DX2                !
 ! R46   R(27,28)                1.3176         estimate D2E/DX2                !
 ! R47   R(27,30)                1.4            estimate D2E/DX2                !
 ! R48   R(28,29)                1.3377         estimate D2E/DX2                !
 ! R49   R(29,96)                1.0749         estimate D2E/DX2                !
 ! R50   R(29,97)                1.0637         estimate D2E/DX2                !
 ! R51   R(29,98)                1.1212         estimate D2E/DX2                !
 ! R52   R(30,31)                1.3833         estimate D2E/DX2                !
 ! R53   R(30,99)                1.1368         estimate D2E/DX2                !
 ! R54   R(31,32)                1.7904         estimate D2E/DX2                !
 ! R55   R(31,33)                1.4824         estimate D2E/DX2                !
 ! R56   R(33,34)                1.352          estimate D2E/DX2                !
 ! R57   R(33,41)                1.4098         estimate D2E/DX2                !
 ! R58   R(34,35)                1.3153         estimate D2E/DX2                !
 ! R59   R(34,100)               1.1249         estimate D2E/DX2                !
 ! R60   R(35,36)                1.3096         estimate D2E/DX2                !
 ! R61   R(35,37)                1.4697         estimate D2E/DX2                !
 ! R62   R(37,38)                1.3867         estimate D2E/DX2                !
 ! R63   R(37,42)                1.49           estimate D2E/DX2                !
 ! R64   R(38,39)                1.4116         estimate D2E/DX2                !
 ! R65   R(38,41)                1.3693         estimate D2E/DX2                !
 ! R66   R(39,40)                1.423          estimate D2E/DX2                !
 ! R67   R(40,101)               1.1925         estimate D2E/DX2                !
 ! R68   R(40,102)               1.0896         estimate D2E/DX2                !
 ! R69   R(40,103)               1.0932         estimate D2E/DX2                !
 ! R70   R(41,104)               1.1161         estimate D2E/DX2                !
 ! R71   R(42,43)                1.3786         estimate D2E/DX2                !
 ! R72   R(42,48)                1.7127         estimate D2E/DX2                !
 ! R73   R(43,44)                1.3332         estimate D2E/DX2                !
 ! R74   R(43,46)                1.5198         estimate D2E/DX2                !
 ! R75   R(44,45)                1.3649         estimate D2E/DX2                !
 ! R76   R(45,105)               1.0867         estimate D2E/DX2                !
 ! R77   R(45,106)               1.0389         estimate D2E/DX2                !
 ! R78   R(45,107)               1.1248         estimate D2E/DX2                !
 ! R79   R(46,47)                1.3494         estimate D2E/DX2                !
 ! R80   R(46,108)               1.0271         estimate D2E/DX2                !
 ! R81   R(47,48)                1.7266         estimate D2E/DX2                !
 ! R82   R(47,49)                1.4264         estimate D2E/DX2                !
 ! R83   R(49,50)                1.3629         estimate D2E/DX2                !
 ! R84   R(49,57)                1.489          estimate D2E/DX2                !
 ! R85   R(50,51)                1.3914         estimate D2E/DX2                !
 ! R86   R(50,109)               1.0348         estimate D2E/DX2                !
 ! R87   R(51,52)                1.4093         estimate D2E/DX2                !
 ! R88   R(51,53)                1.4129         estimate D2E/DX2                !
 ! R89   R(53,54)                1.4048         estimate D2E/DX2                !
 ! R90   R(53,58)                1.4473         estimate D2E/DX2                !
 ! R91   R(54,55)                1.3818         estimate D2E/DX2                !
 ! R92   R(54,57)                1.3809         estimate D2E/DX2                !
 ! R93   R(55,56)                1.394          estimate D2E/DX2                !
 ! R94   R(56,110)               1.1088         estimate D2E/DX2                !
 ! R95   R(56,111)               1.0471         estimate D2E/DX2                !
 ! R96   R(56,112)               1.1677         estimate D2E/DX2                !
 ! R97   R(57,113)               1.0589         estimate D2E/DX2                !
 ! R98   R(58,59)                1.3645         estimate D2E/DX2                !
 ! R99   R(58,64)                1.7592         estimate D2E/DX2                !
 ! R100  R(59,60)                1.4241         estimate D2E/DX2                !
 ! R101  R(59,62)                1.3852         estimate D2E/DX2                !
 ! R102  R(60,61)                1.4742         estimate D2E/DX2                !
 ! R103  R(61,114)               1.126          estimate D2E/DX2                !
 ! R104  R(61,115)               1.0387         estimate D2E/DX2                !
 ! R105  R(61,116)               1.0518         estimate D2E/DX2                !
 ! R106  R(62,63)                1.3332         estimate D2E/DX2                !
 ! R107  R(62,117)               1.0867         estimate D2E/DX2                !
 ! R108  R(63,64)                1.7291         estimate D2E/DX2                !
 ! R109  R(63,65)                1.5026         estimate D2E/DX2                !
 ! R110  R(65,66)                1.4231         estimate D2E/DX2                !
 ! R111  R(65,73)                1.3889         estimate D2E/DX2                !
 ! R112  R(66,67)                1.4547         estimate D2E/DX2                !
 ! R113  R(66,118)               1.0878         estimate D2E/DX2                !
 ! R114  R(67,68)                1.3569         estimate D2E/DX2                !
 ! R115  R(67,69)                1.3581         estimate D2E/DX2                !
 ! R116  R(69,70)                1.4766         estimate D2E/DX2                !
 ! R117  R(69,74)                1.4322         estimate D2E/DX2                !
 ! R118  R(70,71)                1.4286         estimate D2E/DX2                !
 ! R119  R(70,73)                1.3581         estimate D2E/DX2                !
 ! R120  R(71,72)                1.3767         estimate D2E/DX2                !
 ! R121  R(72,119)               1.1071         estimate D2E/DX2                !
 ! R122  R(72,120)               1.0931         estimate D2E/DX2                !
 ! R123  R(72,121)               1.0911         estimate D2E/DX2                !
 ! R124  R(73,122)               1.1222         estimate D2E/DX2                !
 ! R125  R(74,75)                1.3721         estimate D2E/DX2                !
 ! R126  R(74,80)                1.6907         estimate D2E/DX2                !
 ! R127  R(75,76)                1.3812         estimate D2E/DX2                !
 ! R128  R(75,78)                1.4356         estimate D2E/DX2                !
 ! R129  R(76,77)                1.4237         estimate D2E/DX2                !
 ! R130  R(77,123)               1.0476         estimate D2E/DX2                !
 ! R131  R(77,124)               1.0877         estimate D2E/DX2                !
 ! R132  R(77,125)               1.158          estimate D2E/DX2                !
 ! R133  R(78,79)                1.4134         estimate D2E/DX2                !
 ! R134  R(78,126)               1.0212         estimate D2E/DX2                !
 ! R135  R(79,80)                1.7709         estimate D2E/DX2                !
 ! R136  R(79,127)               1.0757         estimate D2E/DX2                !
 ! A1    A(2,1,9)              114.2658         estimate D2E/DX2                !
 ! A2    A(2,1,81)             117.9041         estimate D2E/DX2                !
 ! A3    A(9,1,81)             127.8292         estimate D2E/DX2                !
 ! A4    A(1,2,3)              122.1836         estimate D2E/DX2                !
 ! A5    A(1,2,82)             119.6416         estimate D2E/DX2                !
 ! A6    A(3,2,82)             118.1058         estimate D2E/DX2                !
 ! A7    A(2,3,4)              118.0699         estimate D2E/DX2                !
 ! A8    A(2,3,5)              121.5511         estimate D2E/DX2                !
 ! A9    A(4,3,5)              120.3759         estimate D2E/DX2                !
 ! A10   A(3,5,6)              117.9947         estimate D2E/DX2                !
 ! A11   A(3,5,10)             122.429          estimate D2E/DX2                !
 ! A12   A(6,5,10)             119.2418         estimate D2E/DX2                !
 ! A13   A(5,6,7)              117.8456         estimate D2E/DX2                !
 ! A14   A(5,6,9)              117.9541         estimate D2E/DX2                !
 ! A15   A(7,6,9)              124.1857         estimate D2E/DX2                !
 ! A16   A(6,7,8)              108.9143         estimate D2E/DX2                !
 ! A17   A(7,8,83)             110.3504         estimate D2E/DX2                !
 ! A18   A(7,8,84)             111.1399         estimate D2E/DX2                !
 ! A19   A(7,8,85)             105.2595         estimate D2E/DX2                !
 ! A20   A(83,8,84)            112.7951         estimate D2E/DX2                !
 ! A21   A(83,8,85)            109.8969         estimate D2E/DX2                !
 ! A22   A(84,8,85)            107.0694         estimate D2E/DX2                !
 ! A23   A(1,9,6)              125.9393         estimate D2E/DX2                !
 ! A24   A(1,9,86)             116.3094         estimate D2E/DX2                !
 ! A25   A(6,9,86)             117.7016         estimate D2E/DX2                !
 ! A26   A(5,10,11)            125.3806         estimate D2E/DX2                !
 ! A27   A(5,10,16)            122.2638         estimate D2E/DX2                !
 ! A28   A(11,10,16)           112.1691         estimate D2E/DX2                !
 ! A29   A(10,11,12)           118.6313         estimate D2E/DX2                !
 ! A30   A(10,11,14)           108.2906         estimate D2E/DX2                !
 ! A31   A(12,11,14)           132.9987         estimate D2E/DX2                !
 ! A32   A(11,12,13)           114.3552         estimate D2E/DX2                !
 ! A33   A(12,13,87)           113.4124         estimate D2E/DX2                !
 ! A34   A(12,13,88)           111.2675         estimate D2E/DX2                !
 ! A35   A(12,13,89)           112.0096         estimate D2E/DX2                !
 ! A36   A(87,13,88)           105.9485         estimate D2E/DX2                !
 ! A37   A(87,13,89)           106.1877         estimate D2E/DX2                !
 ! A38   A(88,13,89)           107.6049         estimate D2E/DX2                !
 ! A39   A(11,14,15)           114.4027         estimate D2E/DX2                !
 ! A40   A(11,14,90)           121.0721         estimate D2E/DX2                !
 ! A41   A(15,14,90)           124.1959         estimate D2E/DX2                !
 ! A42   A(14,15,16)           111.0526         estimate D2E/DX2                !
 ! A43   A(14,15,17)           124.1632         estimate D2E/DX2                !
 ! A44   A(16,15,17)           124.6332         estimate D2E/DX2                !
 ! A45   A(10,16,15)            94.08           estimate D2E/DX2                !
 ! A46   A(15,17,18)           120.4973         estimate D2E/DX2                !
 ! A47   A(15,17,25)           121.6003         estimate D2E/DX2                !
 ! A48   A(18,17,25)           117.7398         estimate D2E/DX2                !
 ! A49   A(17,18,19)           120.0827         estimate D2E/DX2                !
 ! A50   A(17,18,91)           121.8424         estimate D2E/DX2                !
 ! A51   A(19,18,91)           117.7319         estimate D2E/DX2                !
 ! A52   A(18,19,20)           120.78           estimate D2E/DX2                !
 ! A53   A(18,19,21)           122.3068         estimate D2E/DX2                !
 ! A54   A(20,19,21)           116.8965         estimate D2E/DX2                !
 ! A55   A(19,21,22)           115.1219         estimate D2E/DX2                !
 ! A56   A(19,21,26)           119.0814         estimate D2E/DX2                !
 ! A57   A(22,21,26)           125.745          estimate D2E/DX2                !
 ! A58   A(21,22,23)           117.6371         estimate D2E/DX2                !
 ! A59   A(21,22,25)           125.6988         estimate D2E/DX2                !
 ! A60   A(23,22,25)           115.9817         estimate D2E/DX2                !
 ! A61   A(22,23,24)           113.5339         estimate D2E/DX2                !
 ! A62   A(23,24,92)           108.1747         estimate D2E/DX2                !
 ! A63   A(23,24,93)           107.6773         estimate D2E/DX2                !
 ! A64   A(23,24,94)           109.8321         estimate D2E/DX2                !
 ! A65   A(92,24,93)           111.8877         estimate D2E/DX2                !
 ! A66   A(92,24,94)           109.0912         estimate D2E/DX2                !
 ! A67   A(93,24,94)           110.1362         estimate D2E/DX2                !
 ! A68   A(17,25,22)           118.4487         estimate D2E/DX2                !
 ! A69   A(17,25,95)           117.2735         estimate D2E/DX2                !
 ! A70   A(22,25,95)           124.0915         estimate D2E/DX2                !
 ! A71   A(21,26,27)           125.0344         estimate D2E/DX2                !
 ! A72   A(21,26,32)           122.2761         estimate D2E/DX2                !
 ! A73   A(27,26,32)           112.5643         estimate D2E/DX2                !
 ! A74   A(26,27,28)           121.8033         estimate D2E/DX2                !
 ! A75   A(26,27,30)           108.9343         estimate D2E/DX2                !
 ! A76   A(28,27,30)           129.2354         estimate D2E/DX2                !
 ! A77   A(27,28,29)           117.6366         estimate D2E/DX2                !
 ! A78   A(28,29,96)           111.1415         estimate D2E/DX2                !
 ! A79   A(28,29,97)           112.2061         estimate D2E/DX2                !
 ! A80   A(28,29,98)           114.6371         estimate D2E/DX2                !
 ! A81   A(96,29,97)           105.8752         estimate D2E/DX2                !
 ! A82   A(96,29,98)           104.6453         estimate D2E/DX2                !
 ! A83   A(97,29,98)           107.7026         estimate D2E/DX2                !
 ! A84   A(27,30,31)           117.8235         estimate D2E/DX2                !
 ! A85   A(27,30,99)           124.841          estimate D2E/DX2                !
 ! A86   A(31,30,99)           117.2821         estimate D2E/DX2                !
 ! A87   A(30,31,32)           107.1912         estimate D2E/DX2                !
 ! A88   A(30,31,33)           130.894          estimate D2E/DX2                !
 ! A89   A(32,31,33)           121.9068         estimate D2E/DX2                !
 ! A90   A(26,32,31)            93.3395         estimate D2E/DX2                !
 ! A91   A(31,33,34)           120.0138         estimate D2E/DX2                !
 ! A92   A(31,33,41)           120.7094         estimate D2E/DX2                !
 ! A93   A(34,33,41)           119.2435         estimate D2E/DX2                !
 ! A94   A(33,34,35)           123.6827         estimate D2E/DX2                !
 ! A95   A(33,34,100)          121.6213         estimate D2E/DX2                !
 ! A96   A(35,34,100)          114.5778         estimate D2E/DX2                !
 ! A97   A(34,35,36)           120.783          estimate D2E/DX2                !
 ! A98   A(34,35,37)           118.9388         estimate D2E/DX2                !
 ! A99   A(36,35,37)           120.2768         estimate D2E/DX2                !
 ! A100  A(35,37,38)           117.2788         estimate D2E/DX2                !
 ! A101  A(35,37,42)           118.2088         estimate D2E/DX2                !
 ! A102  A(38,37,42)           124.5117         estimate D2E/DX2                !
 ! A103  A(37,38,39)           115.8296         estimate D2E/DX2                !
 ! A104  A(37,38,41)           121.3069         estimate D2E/DX2                !
 ! A105  A(39,38,41)           122.8504         estimate D2E/DX2                !
 ! A106  A(38,39,40)           109.5075         estimate D2E/DX2                !
 ! A107  A(39,40,101)          109.262          estimate D2E/DX2                !
 ! A108  A(39,40,102)          113.1889         estimate D2E/DX2                !
 ! A109  A(39,40,103)          106.0268         estimate D2E/DX2                !
 ! A110  A(101,40,102)         108.1997         estimate D2E/DX2                !
 ! A111  A(101,40,103)         105.8612         estimate D2E/DX2                !
 ! A112  A(102,40,103)         113.9927         estimate D2E/DX2                !
 ! A113  A(33,41,38)           119.2653         estimate D2E/DX2                !
 ! A114  A(33,41,104)          121.3966         estimate D2E/DX2                !
 ! A115  A(38,41,104)          117.8303         estimate D2E/DX2                !
 ! A116  A(37,42,43)           125.0167         estimate D2E/DX2                !
 ! A117  A(37,42,48)           120.9253         estimate D2E/DX2                !
 ! A118  A(43,42,48)           114.0441         estimate D2E/DX2                !
 ! A119  A(42,43,44)           126.3956         estimate D2E/DX2                !
 ! A120  A(42,43,46)           108.5827         estimate D2E/DX2                !
 ! A121  A(44,43,46)           125.0216         estimate D2E/DX2                !
 ! A122  A(43,44,45)           121.5467         estimate D2E/DX2                !
 ! A123  A(44,45,105)          112.8787         estimate D2E/DX2                !
 ! A124  A(44,45,106)          111.6355         estimate D2E/DX2                !
 ! A125  A(44,45,107)          110.4667         estimate D2E/DX2                !
 ! A126  A(105,45,106)         105.2287         estimate D2E/DX2                !
 ! A127  A(105,45,107)         108.8232         estimate D2E/DX2                !
 ! A128  A(106,45,107)         107.5382         estimate D2E/DX2                !
 ! A129  A(43,46,47)           112.6922         estimate D2E/DX2                !
 ! A130  A(43,46,108)          122.6402         estimate D2E/DX2                !
 ! A131  A(47,46,108)          124.663          estimate D2E/DX2                !
 ! A132  A(46,47,48)           112.351          estimate D2E/DX2                !
 ! A133  A(46,47,49)           129.9823         estimate D2E/DX2                !
 ! A134  A(48,47,49)           117.6487         estimate D2E/DX2                !
 ! A135  A(42,48,47)            92.3093         estimate D2E/DX2                !
 ! A136  A(47,49,50)           119.3123         estimate D2E/DX2                !
 ! A137  A(47,49,57)           119.4049         estimate D2E/DX2                !
 ! A138  A(50,49,57)           121.0244         estimate D2E/DX2                !
 ! A139  A(49,50,51)           117.3417         estimate D2E/DX2                !
 ! A140  A(49,50,109)          125.7306         estimate D2E/DX2                !
 ! A141  A(51,50,109)          116.8556         estimate D2E/DX2                !
 ! A142  A(50,51,52)           119.0538         estimate D2E/DX2                !
 ! A143  A(50,51,53)           125.2205         estimate D2E/DX2                !
 ! A144  A(52,51,53)           115.4678         estimate D2E/DX2                !
 ! A145  A(51,53,54)           115.3285         estimate D2E/DX2                !
 ! A146  A(51,53,58)           122.5036         estimate D2E/DX2                !
 ! A147  A(54,53,58)           120.5804         estimate D2E/DX2                !
 ! A148  A(53,54,55)           119.2936         estimate D2E/DX2                !
 ! A149  A(53,54,57)           122.7452         estimate D2E/DX2                !
 ! A150  A(55,54,57)           116.2665         estimate D2E/DX2                !
 ! A151  A(54,55,56)           112.3266         estimate D2E/DX2                !
 ! A152  A(55,56,110)          110.3814         estimate D2E/DX2                !
 ! A153  A(55,56,111)          113.2606         estimate D2E/DX2                !
 ! A154  A(55,56,112)          109.7884         estimate D2E/DX2                !
 ! A155  A(110,56,111)         111.8603         estimate D2E/DX2                !
 ! A156  A(110,56,112)         106.6374         estimate D2E/DX2                !
 ! A157  A(111,56,112)         104.5342         estimate D2E/DX2                !
 ! A158  A(49,57,54)           117.1315         estimate D2E/DX2                !
 ! A159  A(49,57,113)          119.5808         estimate D2E/DX2                !
 ! A160  A(54,57,113)          123.2648         estimate D2E/DX2                !
 ! A161  A(53,58,59)           135.8202         estimate D2E/DX2                !
 ! A162  A(53,58,64)           115.7127         estimate D2E/DX2                !
 ! A163  A(59,58,64)           108.4667         estimate D2E/DX2                !
 ! A164  A(58,59,60)           114.5137         estimate D2E/DX2                !
 ! A165  A(58,59,62)           114.9517         estimate D2E/DX2                !
 ! A166  A(60,59,62)           130.3102         estimate D2E/DX2                !
 ! A167  A(59,60,61)           111.8205         estimate D2E/DX2                !
 ! A168  A(60,61,114)          111.3102         estimate D2E/DX2                !
 ! A169  A(60,61,115)          104.0582         estimate D2E/DX2                !
 ! A170  A(60,61,116)          110.8694         estimate D2E/DX2                !
 ! A171  A(114,61,115)         106.4389         estimate D2E/DX2                !
 ! A172  A(114,61,116)         112.8763         estimate D2E/DX2                !
 ! A173  A(115,61,116)         110.8429         estimate D2E/DX2                !
 ! A174  A(59,62,63)           113.3688         estimate D2E/DX2                !
 ! A175  A(59,62,117)          122.6281         estimate D2E/DX2                !
 ! A176  A(63,62,117)          123.4349         estimate D2E/DX2                !
 ! A177  A(62,63,64)           111.68           estimate D2E/DX2                !
 ! A178  A(62,63,65)           131.6829         estimate D2E/DX2                !
 ! A179  A(64,63,65)           116.6118         estimate D2E/DX2                !
 ! A180  A(58,64,63)            91.2319         estimate D2E/DX2                !
 ! A181  A(63,65,66)           113.4193         estimate D2E/DX2                !
 ! A182  A(63,65,73)           125.8655         estimate D2E/DX2                !
 ! A183  A(66,65,73)           120.7152         estimate D2E/DX2                !
 ! A184  A(65,66,67)           116.797          estimate D2E/DX2                !
 ! A185  A(65,66,118)          128.3095         estimate D2E/DX2                !
 ! A186  A(67,66,118)          114.8779         estimate D2E/DX2                !
 ! A187  A(66,67,68)           118.5805         estimate D2E/DX2                !
 ! A188  A(66,67,69)           122.8106         estimate D2E/DX2                !
 ! A189  A(68,67,69)           118.3698         estimate D2E/DX2                !
 ! A190  A(67,69,70)           117.4323         estimate D2E/DX2                !
 ! A191  A(67,69,74)           124.2049         estimate D2E/DX2                !
 ! A192  A(70,69,74)           118.3608         estimate D2E/DX2                !
 ! A193  A(69,70,71)           115.8048         estimate D2E/DX2                !
 ! A194  A(69,70,73)           120.4921         estimate D2E/DX2                !
 ! A195  A(71,70,73)           123.3326         estimate D2E/DX2                !
 ! A196  A(70,71,72)           111.6181         estimate D2E/DX2                !
 ! A197  A(71,72,119)          110.8129         estimate D2E/DX2                !
 ! A198  A(71,72,120)          113.5727         estimate D2E/DX2                !
 ! A199  A(71,72,121)          111.3624         estimate D2E/DX2                !
 ! A200  A(119,72,120)         111.6084         estimate D2E/DX2                !
 ! A201  A(119,72,121)         102.7232         estimate D2E/DX2                !
 ! A202  A(120,72,121)         106.1377         estimate D2E/DX2                !
 ! A203  A(65,73,70)           121.5973         estimate D2E/DX2                !
 ! A204  A(65,73,122)          117.4767         estimate D2E/DX2                !
 ! A205  A(70,73,122)          120.6403         estimate D2E/DX2                !
 ! A206  A(69,74,75)           129.9172         estimate D2E/DX2                !
 ! A207  A(69,74,80)           119.1385         estimate D2E/DX2                !
 ! A208  A(75,74,80)           110.3632         estimate D2E/DX2                !
 ! A209  A(74,75,76)           116.6836         estimate D2E/DX2                !
 ! A210  A(74,75,78)           116.1021         estimate D2E/DX2                !
 ! A211  A(76,75,78)           127.1492         estimate D2E/DX2                !
 ! A212  A(75,76,77)           115.0822         estimate D2E/DX2                !
 ! A213  A(76,77,123)          115.9248         estimate D2E/DX2                !
 ! A214  A(76,77,124)          113.5326         estimate D2E/DX2                !
 ! A215  A(76,77,125)          111.5814         estimate D2E/DX2                !
 ! A216  A(123,77,124)         106.0157         estimate D2E/DX2                !
 ! A217  A(123,77,125)         107.636          estimate D2E/DX2                !
 ! A218  A(124,77,125)         100.9002         estimate D2E/DX2                !
 ! A219  A(75,78,79)           109.9777         estimate D2E/DX2                !
 ! A220  A(75,78,126)          128.245          estimate D2E/DX2                !
 ! A221  A(79,78,126)          121.6919         estimate D2E/DX2                !
 ! A222  A(78,79,80)           109.665          estimate D2E/DX2                !
 ! A223  A(78,79,127)          129.2514         estimate D2E/DX2                !
 ! A224  A(80,79,127)          121.0754         estimate D2E/DX2                !
 ! A225  A(74,80,79)            93.7068         estimate D2E/DX2                !
 ! D1    D(9,1,2,3)             -1.1891         estimate D2E/DX2                !
 ! D2    D(9,1,2,82)          -178.1119         estimate D2E/DX2                !
 ! D3    D(81,1,2,3)           178.4893         estimate D2E/DX2                !
 ! D4    D(81,1,2,82)            1.5665         estimate D2E/DX2                !
 ! D5    D(2,1,9,6)              1.2924         estimate D2E/DX2                !
 ! D6    D(2,1,9,86)           178.6587         estimate D2E/DX2                !
 ! D7    D(81,1,9,6)          -178.3477         estimate D2E/DX2                !
 ! D8    D(81,1,9,86)           -0.9815         estimate D2E/DX2                !
 ! D9    D(1,2,3,4)            178.0048         estimate D2E/DX2                !
 ! D10   D(1,2,3,5)             -1.3579         estimate D2E/DX2                !
 ! D11   D(82,2,3,4)            -5.0273         estimate D2E/DX2                !
 ! D12   D(82,2,3,5)           175.61           estimate D2E/DX2                !
 ! D13   D(2,3,5,6)              3.6553         estimate D2E/DX2                !
 ! D14   D(2,3,5,10)           176.9572         estimate D2E/DX2                !
 ! D15   D(4,3,5,6)           -175.6929         estimate D2E/DX2                !
 ! D16   D(4,3,5,10)            -2.391          estimate D2E/DX2                !
 ! D17   D(3,5,6,7)            175.1846         estimate D2E/DX2                !
 ! D18   D(3,5,6,9)             -3.4805         estimate D2E/DX2                !
 ! D19   D(10,5,6,7)             1.6629         estimate D2E/DX2                !
 ! D20   D(10,5,6,9)          -177.0022         estimate D2E/DX2                !
 ! D21   D(3,5,10,11)          108.5399         estimate D2E/DX2                !
 ! D22   D(3,5,10,16)          -66.1013         estimate D2E/DX2                !
 ! D23   D(6,5,10,11)          -78.2386         estimate D2E/DX2                !
 ! D24   D(6,5,10,16)          107.1202         estimate D2E/DX2                !
 ! D25   D(5,6,7,8)            120.7927         estimate D2E/DX2                !
 ! D26   D(9,6,7,8)            -60.6326         estimate D2E/DX2                !
 ! D27   D(5,6,9,1)              0.9705         estimate D2E/DX2                !
 ! D28   D(5,6,9,86)          -176.3629         estimate D2E/DX2                !
 ! D29   D(7,6,9,1)           -177.6027         estimate D2E/DX2                !
 ! D30   D(7,6,9,86)             5.0639         estimate D2E/DX2                !
 ! D31   D(6,7,8,83)            80.9816         estimate D2E/DX2                !
 ! D32   D(6,7,8,84)           -44.9248         estimate D2E/DX2                !
 ! D33   D(6,7,8,85)          -160.5002         estimate D2E/DX2                !
 ! D34   D(5,10,11,12)           8.0377         estimate D2E/DX2                !
 ! D35   D(5,10,11,14)        -174.7885         estimate D2E/DX2                !
 ! D36   D(16,10,11,12)       -176.8542         estimate D2E/DX2                !
 ! D37   D(16,10,11,14)          0.3195         estimate D2E/DX2                !
 ! D38   D(5,10,16,15)         175.3732         estimate D2E/DX2                !
 ! D39   D(11,10,16,15)          0.0896         estimate D2E/DX2                !
 ! D40   D(10,11,12,13)       -179.2793         estimate D2E/DX2                !
 ! D41   D(14,11,12,13)          4.3909         estimate D2E/DX2                !
 ! D42   D(10,11,14,15)         -0.6948         estimate D2E/DX2                !
 ! D43   D(10,11,14,90)       -174.3722         estimate D2E/DX2                !
 ! D44   D(12,11,14,15)        175.9128         estimate D2E/DX2                !
 ! D45   D(12,11,14,90)          2.2353         estimate D2E/DX2                !
 ! D46   D(11,12,13,87)        -64.1285         estimate D2E/DX2                !
 ! D47   D(11,12,13,88)        176.5414         estimate D2E/DX2                !
 ! D48   D(11,12,13,89)         56.0505         estimate D2E/DX2                !
 ! D49   D(11,14,15,16)          0.7778         estimate D2E/DX2                !
 ! D50   D(11,14,15,17)        176.4851         estimate D2E/DX2                !
 ! D51   D(90,14,15,16)        174.2296         estimate D2E/DX2                !
 ! D52   D(90,14,15,17)        -10.0631         estimate D2E/DX2                !
 ! D53   D(14,15,16,10)         -0.4866         estimate D2E/DX2                !
 ! D54   D(17,15,16,10)       -176.1696         estimate D2E/DX2                !
 ! D55   D(14,15,17,18)         61.1454         estimate D2E/DX2                !
 ! D56   D(14,15,17,25)       -123.5951         estimate D2E/DX2                !
 ! D57   D(16,15,17,18)       -123.7249         estimate D2E/DX2                !
 ! D58   D(16,15,17,25)         51.5347         estimate D2E/DX2                !
 ! D59   D(15,17,18,19)       -177.2929         estimate D2E/DX2                !
 ! D60   D(15,17,18,91)         -4.1713         estimate D2E/DX2                !
 ! D61   D(25,17,18,19)          7.2685         estimate D2E/DX2                !
 ! D62   D(25,17,18,91)       -179.6098         estimate D2E/DX2                !
 ! D63   D(15,17,25,22)       -179.1703         estimate D2E/DX2                !
 ! D64   D(15,17,25,95)          5.585          estimate D2E/DX2                !
 ! D65   D(18,17,25,22)         -3.785          estimate D2E/DX2                !
 ! D66   D(18,17,25,95)       -179.0297         estimate D2E/DX2                !
 ! D67   D(17,18,19,20)        177.6789         estimate D2E/DX2                !
 ! D68   D(17,18,19,21)         -3.8516         estimate D2E/DX2                !
 ! D69   D(91,18,19,20)          4.2791         estimate D2E/DX2                !
 ! D70   D(91,18,19,21)       -177.2514         estimate D2E/DX2                !
 ! D71   D(18,19,21,22)         -3.2856         estimate D2E/DX2                !
 ! D72   D(18,19,21,26)        179.1804         estimate D2E/DX2                !
 ! D73   D(20,19,21,22)        175.24           estimate D2E/DX2                !
 ! D74   D(20,19,21,26)         -2.294          estimate D2E/DX2                !
 ! D75   D(19,21,22,23)        177.3088         estimate D2E/DX2                !
 ! D76   D(19,21,22,25)          7.1909         estimate D2E/DX2                !
 ! D77   D(26,21,22,23)         -5.3467         estimate D2E/DX2                !
 ! D78   D(26,21,22,25)       -175.4645         estimate D2E/DX2                !
 ! D79   D(19,21,26,27)        -66.2363         estimate D2E/DX2                !
 ! D80   D(19,21,26,32)        118.1385         estimate D2E/DX2                !
 ! D81   D(22,21,26,27)        116.5148         estimate D2E/DX2                !
 ! D82   D(22,21,26,32)        -59.1104         estimate D2E/DX2                !
 ! D83   D(21,22,23,24)        131.3244         estimate D2E/DX2                !
 ! D84   D(25,22,23,24)        -57.5949         estimate D2E/DX2                !
 ! D85   D(21,22,25,17)         -3.8108         estimate D2E/DX2                !
 ! D86   D(21,22,25,95)        171.0845         estimate D2E/DX2                !
 ! D87   D(23,22,25,17)       -174.0733         estimate D2E/DX2                !
 ! D88   D(23,22,25,95)          0.822          estimate D2E/DX2                !
 ! D89   D(22,23,24,92)       -159.5892         estimate D2E/DX2                !
 ! D90   D(22,23,24,93)        -38.4956         estimate D2E/DX2                !
 ! D91   D(22,23,24,94)         81.4407         estimate D2E/DX2                !
 ! D92   D(21,26,27,28)          5.7275         estimate D2E/DX2                !
 ! D93   D(21,26,27,30)       -175.999          estimate D2E/DX2                !
 ! D94   D(32,26,27,28)       -178.2773         estimate D2E/DX2                !
 ! D95   D(32,26,27,30)         -0.0038         estimate D2E/DX2                !
 ! D96   D(21,26,32,31)        174.1823         estimate D2E/DX2                !
 ! D97   D(27,26,32,31)         -1.9394         estimate D2E/DX2                !
 ! D98   D(26,27,28,29)        178.1311         estimate D2E/DX2                !
 ! D99   D(30,27,28,29)          0.2397         estimate D2E/DX2                !
 ! D100  D(26,27,30,31)          2.8413         estimate D2E/DX2                !
 ! D101  D(26,27,30,99)       -174.423          estimate D2E/DX2                !
 ! D102  D(28,27,30,31)       -179.0531         estimate D2E/DX2                !
 ! D103  D(28,27,30,99)          3.6826         estimate D2E/DX2                !
 ! D104  D(27,28,29,96)         62.0625         estimate D2E/DX2                !
 ! D105  D(27,28,29,97)       -179.6019         estimate D2E/DX2                !
 ! D106  D(27,28,29,98)        -56.3345         estimate D2E/DX2                !
 ! D107  D(27,30,31,32)         -4.1359         estimate D2E/DX2                !
 ! D108  D(27,30,31,33)        176.9053         estimate D2E/DX2                !
 ! D109  D(99,30,31,32)        173.3379         estimate D2E/DX2                !
 ! D110  D(99,30,31,33)         -5.6209         estimate D2E/DX2                !
 ! D111  D(30,31,32,26)          3.3418         estimate D2E/DX2                !
 ! D112  D(33,31,32,26)       -177.5854         estimate D2E/DX2                !
 ! D113  D(30,31,33,34)        -44.2248         estimate D2E/DX2                !
 ! D114  D(30,31,33,41)        137.8906         estimate D2E/DX2                !
 ! D115  D(32,31,33,34)        136.947          estimate D2E/DX2                !
 ! D116  D(32,31,33,41)        -40.9376         estimate D2E/DX2                !
 ! D117  D(31,33,34,35)        176.9409         estimate D2E/DX2                !
 ! D118  D(31,33,34,100)         1.1118         estimate D2E/DX2                !
 ! D119  D(41,33,34,35)         -5.1434         estimate D2E/DX2                !
 ! D120  D(41,33,34,100)       179.0275         estimate D2E/DX2                !
 ! D121  D(31,33,41,38)       -175.7566         estimate D2E/DX2                !
 ! D122  D(31,33,41,104)       -10.0676         estimate D2E/DX2                !
 ! D123  D(34,33,41,38)          6.3426         estimate D2E/DX2                !
 ! D124  D(34,33,41,104)       172.0316         estimate D2E/DX2                !
 ! D125  D(33,34,35,36)       -178.1562         estimate D2E/DX2                !
 ! D126  D(33,34,35,37)          2.2751         estimate D2E/DX2                !
 ! D127  D(100,34,35,36)        -2.0613         estimate D2E/DX2                !
 ! D128  D(100,34,35,37)       178.37           estimate D2E/DX2                !
 ! D129  D(34,35,37,38)         -0.6328         estimate D2E/DX2                !
 ! D130  D(34,35,37,42)        179.0808         estimate D2E/DX2                !
 ! D131  D(36,35,37,38)        179.7962         estimate D2E/DX2                !
 ! D132  D(36,35,37,42)         -0.4902         estimate D2E/DX2                !
 ! D133  D(35,37,38,39)       -179.2108         estimate D2E/DX2                !
 ! D134  D(35,37,38,41)          2.0733         estimate D2E/DX2                !
 ! D135  D(42,37,38,39)          1.0955         estimate D2E/DX2                !
 ! D136  D(42,37,38,41)       -177.6203         estimate D2E/DX2                !
 ! D137  D(35,37,42,43)        -96.6958         estimate D2E/DX2                !
 ! D138  D(35,37,42,48)         81.869          estimate D2E/DX2                !
 ! D139  D(38,37,42,43)         82.9952         estimate D2E/DX2                !
 ! D140  D(38,37,42,48)        -98.4399         estimate D2E/DX2                !
 ! D141  D(37,38,39,40)       -115.5847         estimate D2E/DX2                !
 ! D142  D(41,38,39,40)         63.1092         estimate D2E/DX2                !
 ! D143  D(37,38,41,33)         -4.9174         estimate D2E/DX2                !
 ! D144  D(37,38,41,104)      -171.1142         estimate D2E/DX2                !
 ! D145  D(39,38,41,33)        176.4585         estimate D2E/DX2                !
 ! D146  D(39,38,41,104)        10.2617         estimate D2E/DX2                !
 ! D147  D(38,39,40,101)       -77.9548         estimate D2E/DX2                !
 ! D148  D(38,39,40,102)        42.684          estimate D2E/DX2                !
 ! D149  D(38,39,40,103)       168.3668         estimate D2E/DX2                !
 ! D150  D(37,42,43,44)          0.1289         estimate D2E/DX2                !
 ! D151  D(37,42,43,46)       -179.9739         estimate D2E/DX2                !
 ! D152  D(48,42,43,44)       -178.523          estimate D2E/DX2                !
 ! D153  D(48,42,43,46)          1.3742         estimate D2E/DX2                !
 ! D154  D(37,42,48,47)        179.8687         estimate D2E/DX2                !
 ! D155  D(43,42,48,47)         -1.4184         estimate D2E/DX2                !
 ! D156  D(42,43,44,45)        178.8712         estimate D2E/DX2                !
 ! D157  D(46,43,44,45)         -1.0097         estimate D2E/DX2                !
 ! D158  D(42,43,46,47)         -0.6072         estimate D2E/DX2                !
 ! D159  D(42,43,46,108)      -179.8499         estimate D2E/DX2                !
 ! D160  D(44,43,46,47)        179.2917         estimate D2E/DX2                !
 ! D161  D(44,43,46,108)         0.0491         estimate D2E/DX2                !
 ! D162  D(43,44,45,105)        59.517          estimate D2E/DX2                !
 ! D163  D(43,44,45,106)       177.8168         estimate D2E/DX2                !
 ! D164  D(43,44,45,107)       -62.5755         estimate D2E/DX2                !
 ! D165  D(43,46,47,48)         -0.4079         estimate D2E/DX2                !
 ! D166  D(43,46,47,49)       -178.803          estimate D2E/DX2                !
 ! D167  D(108,46,47,48)       178.8167         estimate D2E/DX2                !
 ! D168  D(108,46,47,49)         0.4216         estimate D2E/DX2                !
 ! D169  D(46,47,48,42)          1.0146         estimate D2E/DX2                !
 ! D170  D(49,47,48,42)        179.6264         estimate D2E/DX2                !
 ! D171  D(46,47,49,50)        -64.3961         estimate D2E/DX2                !
 ! D172  D(46,47,49,57)        109.8257         estimate D2E/DX2                !
 ! D173  D(48,47,49,50)        117.2796         estimate D2E/DX2                !
 ! D174  D(48,47,49,57)        -68.4987         estimate D2E/DX2                !
 ! D175  D(47,49,50,51)        177.7526         estimate D2E/DX2                !
 ! D176  D(47,49,50,109)        -5.4459         estimate D2E/DX2                !
 ! D177  D(57,49,50,51)          3.6272         estimate D2E/DX2                !
 ! D178  D(57,49,50,109)      -179.5714         estimate D2E/DX2                !
 ! D179  D(47,49,57,54)        178.9648         estimate D2E/DX2                !
 ! D180  D(47,49,57,113)         0.6521         estimate D2E/DX2                !
 ! D181  D(50,49,57,54)         -6.9151         estimate D2E/DX2                !
 ! D182  D(50,49,57,113)       174.7722         estimate D2E/DX2                !
 ! D183  D(49,50,51,52)       -178.7917         estimate D2E/DX2                !
 ! D184  D(49,50,51,53)         -4.9032         estimate D2E/DX2                !
 ! D185  D(109,50,51,52)         4.1185         estimate D2E/DX2                !
 ! D186  D(109,50,51,53)       178.0069         estimate D2E/DX2                !
 ! D187  D(50,51,53,54)          8.8889         estimate D2E/DX2                !
 ! D188  D(50,51,53,58)        174.5777         estimate D2E/DX2                !
 ! D189  D(52,51,53,54)       -177.0279         estimate D2E/DX2                !
 ! D190  D(52,51,53,58)        -11.3392         estimate D2E/DX2                !
 ! D191  D(51,53,54,55)       -176.8916         estimate D2E/DX2                !
 ! D192  D(51,53,54,57)        -12.2884         estimate D2E/DX2                !
 ! D193  D(58,53,54,55)         17.1218         estimate D2E/DX2                !
 ! D194  D(58,53,54,57)       -178.2751         estimate D2E/DX2                !
 ! D195  D(51,53,58,59)       -104.996          estimate D2E/DX2                !
 ! D196  D(51,53,58,64)         74.7283         estimate D2E/DX2                !
 ! D197  D(54,53,58,59)         59.9623         estimate D2E/DX2                !
 ! D198  D(54,53,58,64)       -120.3134         estimate D2E/DX2                !
 ! D199  D(53,54,55,56)       -138.4758         estimate D2E/DX2                !
 ! D200  D(57,54,55,56)         55.9439         estimate D2E/DX2                !
 ! D201  D(53,54,57,49)         11.5083         estimate D2E/DX2                !
 ! D202  D(53,54,57,113)      -170.2467         estimate D2E/DX2                !
 ! D203  D(55,54,57,49)        176.5442         estimate D2E/DX2                !
 ! D204  D(55,54,57,113)        -5.2108         estimate D2E/DX2                !
 ! D205  D(54,55,56,110)       -87.6418         estimate D2E/DX2                !
 ! D206  D(54,55,56,111)        38.6613         estimate D2E/DX2                !
 ! D207  D(54,55,56,112)       155.0822         estimate D2E/DX2                !
 ! D208  D(53,58,59,60)          0.385          estimate D2E/DX2                !
 ! D209  D(53,58,59,62)       -174.7425         estimate D2E/DX2                !
 ! D210  D(64,58,59,60)       -179.3532         estimate D2E/DX2                !
 ! D211  D(64,58,59,62)          5.5194         estimate D2E/DX2                !
 ! D212  D(53,58,64,63)        177.2984         estimate D2E/DX2                !
 ! D213  D(59,58,64,63)         -2.9041         estimate D2E/DX2                !
 ! D214  D(58,59,60,61)       -173.8646         estimate D2E/DX2                !
 ! D215  D(62,59,60,61)          0.3391         estimate D2E/DX2                !
 ! D216  D(58,59,62,63)         -6.0652         estimate D2E/DX2                !
 ! D217  D(58,59,62,117)      -177.6882         estimate D2E/DX2                !
 ! D218  D(60,59,62,63)        179.7517         estimate D2E/DX2                !
 ! D219  D(60,59,62,117)         8.1286         estimate D2E/DX2                !
 ! D220  D(59,60,61,114)        61.8244         estimate D2E/DX2                !
 ! D221  D(59,60,61,115)       176.0808         estimate D2E/DX2                !
 ! D222  D(59,60,61,116)       -64.7091         estimate D2E/DX2                !
 ! D223  D(59,62,63,64)          3.5158         estimate D2E/DX2                !
 ! D224  D(59,62,63,65)       -174.5525         estimate D2E/DX2                !
 ! D225  D(117,62,63,64)       175.0612         estimate D2E/DX2                !
 ! D226  D(117,62,63,65)        -3.0071         estimate D2E/DX2                !
 ! D227  D(62,63,64,58)         -0.3204         estimate D2E/DX2                !
 ! D228  D(65,63,64,58)        178.066          estimate D2E/DX2                !
 ! D229  D(62,63,65,66)        -46.1858         estimate D2E/DX2                !
 ! D230  D(62,63,65,73)        133.9306         estimate D2E/DX2                !
 ! D231  D(64,63,65,66)        135.822          estimate D2E/DX2                !
 ! D232  D(64,63,65,73)        -44.0615         estimate D2E/DX2                !
 ! D233  D(63,65,66,67)        175.9226         estimate D2E/DX2                !
 ! D234  D(63,65,66,118)        -2.5553         estimate D2E/DX2                !
 ! D235  D(73,65,66,67)         -4.1871         estimate D2E/DX2                !
 ! D236  D(73,65,66,118)       177.3349         estimate D2E/DX2                !
 ! D237  D(63,65,73,70)       -178.621          estimate D2E/DX2                !
 ! D238  D(63,65,73,122)        -4.7244         estimate D2E/DX2                !
 ! D239  D(66,65,73,70)          1.5033         estimate D2E/DX2                !
 ! D240  D(66,65,73,122)       175.3999         estimate D2E/DX2                !
 ! D241  D(65,66,67,68)        178.7817         estimate D2E/DX2                !
 ! D242  D(65,66,67,69)          4.4959         estimate D2E/DX2                !
 ! D243  D(118,66,67,68)        -2.5347         estimate D2E/DX2                !
 ! D244  D(118,66,67,69)      -176.8205         estimate D2E/DX2                !
 ! D245  D(66,67,69,70)         -1.9832         estimate D2E/DX2                !
 ! D246  D(66,67,69,74)        178.5408         estimate D2E/DX2                !
 ! D247  D(68,67,69,70)       -176.2805         estimate D2E/DX2                !
 ! D248  D(68,67,69,74)          4.2435         estimate D2E/DX2                !
 ! D249  D(67,69,70,71)       -174.1821         estimate D2E/DX2                !
 ! D250  D(67,69,70,73)         -0.9406         estimate D2E/DX2                !
 ! D251  D(74,69,70,71)          5.3254         estimate D2E/DX2                !
 ! D252  D(74,69,70,73)        178.567          estimate D2E/DX2                !
 ! D253  D(67,69,74,75)         73.4933         estimate D2E/DX2                !
 ! D254  D(67,69,74,80)        -96.8516         estimate D2E/DX2                !
 ! D255  D(70,69,74,75)       -105.9783         estimate D2E/DX2                !
 ! D256  D(70,69,74,80)         83.6769         estimate D2E/DX2                !
 ! D257  D(69,70,71,72)       -142.5311         estimate D2E/DX2                !
 ! D258  D(73,70,71,72)         44.4403         estimate D2E/DX2                !
 ! D259  D(69,70,73,65)          1.1898         estimate D2E/DX2                !
 ! D260  D(69,70,73,122)      -172.5158         estimate D2E/DX2                !
 ! D261  D(71,70,73,65)        173.9045         estimate D2E/DX2                !
 ! D262  D(71,70,73,122)         0.1989         estimate D2E/DX2                !
 ! D263  D(70,71,72,119)       -80.2065         estimate D2E/DX2                !
 ! D264  D(70,71,72,120)        46.3555         estimate D2E/DX2                !
 ! D265  D(70,71,72,121)       166.1102         estimate D2E/DX2                !
 ! D266  D(69,74,75,76)          7.2655         estimate D2E/DX2                !
 ! D267  D(69,74,75,78)       -175.4579         estimate D2E/DX2                !
 ! D268  D(80,74,75,76)        178.2758         estimate D2E/DX2                !
 ! D269  D(80,74,75,78)         -4.4476         estimate D2E/DX2                !
 ! D270  D(69,74,80,79)        174.4051         estimate D2E/DX2                !
 ! D271  D(75,74,80,79)          2.2915         estimate D2E/DX2                !
 ! D272  D(74,75,76,77)        176.5364         estimate D2E/DX2                !
 ! D273  D(78,75,76,77)         -0.395          estimate D2E/DX2                !
 ! D274  D(74,75,78,79)          4.6824         estimate D2E/DX2                !
 ! D275  D(74,75,78,126)      -178.6749         estimate D2E/DX2                !
 ! D276  D(76,75,78,79)       -178.3707         estimate D2E/DX2                !
 ! D277  D(76,75,78,126)        -1.7281         estimate D2E/DX2                !
 ! D278  D(75,76,77,123)       -59.099          estimate D2E/DX2                !
 ! D279  D(75,76,77,124)       177.7879         estimate D2E/DX2                !
 ! D280  D(75,76,77,125)        64.5804         estimate D2E/DX2                !
 ! D281  D(75,78,79,80)         -2.6797         estimate D2E/DX2                !
 ! D282  D(75,78,79,127)       176.268          estimate D2E/DX2                !
 ! D283  D(126,78,79,80)      -179.5811         estimate D2E/DX2                !
 ! D284  D(126,78,79,127)       -0.6334         estimate D2E/DX2                !
 ! D285  D(78,79,80,74)          0.297          estimate D2E/DX2                !
 ! D286  D(127,79,80,74)      -178.7516         estimate D2E/DX2                !
 --------------------------------------------------------------------------------
 Trust Radius=3.00D-01 FncErr=1.00D-07 GrdErr=1.00D-06 EigMax=2.50D+02 EigMin=1.00D-04
 Number of steps in this run=    657 maximum allowed number of steps=    762.
[...]
  Beta virt. eigenvalues --    1.92177   1.92839   1.93035   1.93075   1.93686
  Beta virt. eigenvalues --    1.93714   1.93946   1.94077   1.94160   1.94195
  Beta virt. eigenvalues --    1.94441   1.94669   1.94925   1.95220   1.95378
  Beta virt. eigenvalues --    1.95490   1.96057   1.96331   1.96503   1.96594
  Beta virt. eigenvalues --    1.96978   1.97024   1.97711   1.98374   1.98478
  Beta virt. eigenvalues --    1.98728   1.99005   1.99314   1.99604   1.99718
  Beta virt. eigenvalues --    2.00123   2.00233   2.00684   2.00794   2.01725
  Beta virt. eigenvalues --    2.02054   2.02414   2.02555   2.03166   2.03514
  Beta virt. eigenvalues --    2.03645   2.04200   2.04697   2.04884   2.05038
  Beta virt. eigenvalues --    2.05709   2.05883   2.06579   2.06900   2.07179
  Beta virt. eigenvalues --    2.07566   2.07692   2.08465   2.09155   2.09262
  Beta virt. eigenvalues --    2.09815   2.10058   2.10232   2.10891   2.10996
  Beta virt. eigenvalues --    2.11526   2.11617   2.11725   2.11859   2.12091
  Beta virt. eigenvalues --    2.12787   2.12933   2.13091   2.13121   2.13355
  Beta virt. eigenvalues --    2.13501   2.13534   2.13770   2.13886   2.14182
  Beta virt. eigenvalues --    2.14198   2.14665   2.15068   2.15260   2.16587
  Beta virt. eigenvalues --    2.16934   2.17454   2.18003   2.18280   2.18794
  Beta virt. eigenvalues --    2.19388   2.19556   2.19669   2.19982   2.20534
  Beta virt. eigenvalues --    2.21069   2.21279   2.21650   2.21973   2.22778
  Beta virt. eigenvalues --    2.22801   2.22922   2.23046   2.24512   2.24977
  Beta virt. eigenvalues --    2.24986   2.25768   2.26131   2.26249   2.26646
  Beta virt. eigenvalues --    2.26932   2.27359   2.27615   2.27923   2.28559
  Beta virt. eigenvalues --    2.29472   2.29621   2.29911   2.31013   2.31642
  Beta virt. eigenvalues --    2.31985   2.32139   2.32751   2.32788   2.33100
  Beta virt. eigenvalues --    2.33475   2.33542   2.34143   2.35381   2.35743
  Beta virt. eigenvalues --    2.36334   2.36764   2.37228   2.38405   2.38806
  Beta virt. eigenvalues --    2.39173   2.39332   2.39525   2.40518   2.40821
  Beta virt. eigenvalues --    2.41224   2.41720   2.43061   2.43521   2.43725
  Beta virt. eigenvalues --    2.43962   2.44026   2.44067   2.44232   2.44408
  Beta virt. eigenvalues --    2.44493   2.44554   2.44780   2.45310   2.45555
  Beta virt. eigenvalues --    2.45846   2.46706   2.47464   2.47520   2.47972
  Beta virt. eigenvalues --    2.48580   2.48805   2.49027   2.49278   2.49808
  Beta virt. eigenvalues --    2.50307   2.50459   2.50605   2.50666   2.51376
  Beta virt. eigenvalues --    2.51633   2.51737   2.51946   2.52316   2.52438
  Beta virt. eigenvalues --    2.53307   2.53507   2.53816   2.54032   2.54411
  Beta virt. eigenvalues --    2.54487   2.54698   2.54819   2.55496   2.57696
  Beta virt. eigenvalues --    2.57774   2.57855   2.57881   2.58191   2.58465
  Beta virt. eigenvalues --    2.58624   2.59014   2.59179   2.59438   2.60579
  Beta virt. eigenvalues --    2.60983   2.61788   2.62920   2.64370   2.65059
  Beta virt. eigenvalues --    2.67234   2.68542   2.69428   2.70157   2.71522
  Beta virt. eigenvalues --    2.73546   2.73713   2.73870   2.74042   2.74799
  Beta virt. eigenvalues --    2.75322   2.75774   2.75881   2.78745   2.81515
  Beta virt. eigenvalues --    2.84173   2.84678   2.85093   2.85519   2.92088
  Beta virt. eigenvalues --    2.92287   2.92778   2.92880   2.93079   2.94444
  Beta virt. eigenvalues --    2.94571   2.94674   2.94701   2.95090   2.98661
  Beta virt. eigenvalues --    2.99201   2.99594   3.00190   3.03529   3.06283
  Beta virt. eigenvalues --    3.06701   3.06727   3.06846   3.06958   3.07135
  Beta virt. eigenvalues --    3.07219   3.07271   3.07347   3.07419   3.08374
  Beta virt. eigenvalues --    3.08735   3.08968   3.09125   3.09439   3.10328
  Beta virt. eigenvalues --    3.10416   3.10723   3.10907   3.11054   3.23627
  Beta virt. eigenvalues --    3.23872   3.24149   3.24434   3.28853   3.39571
  Beta virt. eigenvalues --    3.39647   3.39765   3.40071   3.40187   3.43683
  Beta virt. eigenvalues --    3.44071   3.44147   3.44250   3.44348   3.49019
  Beta virt. eigenvalues --    3.49305   3.50009   3.50141   3.50482   3.54223
  Beta virt. eigenvalues --    3.54404   3.54912   3.55417   3.57135   3.61785
  Beta virt. eigenvalues --    3.61787   3.61874   3.62954   3.63168   3.66505
  Beta virt. eigenvalues --    3.66609   3.66680   3.67341   3.67609   3.80687
  Beta virt. eigenvalues --    3.80697   3.80772   3.81223   3.81498   4.02751
  Beta virt. eigenvalues --    4.03025   4.03118   4.03906   4.04165   4.23644
  Beta virt. eigenvalues --    4.23660   4.23753   4.24290   4.24541
          Condensed to atoms (all electrons):
          Atomic-Atomic Spin Densities.
 Mulliken charges and spin densities:
               1          2
     1  C    0.033903  -0.000000
     2  C   -0.000623   0.000000
     3  C    0.114667   0.000000
     4  F   -0.121835  -0.000000
     5  C   -0.057874  -0.000000
     6  C    0.123036  -0.000000
     7  O   -0.224607  -0.000000
     8  C    0.058772   0.000000
     9  C   -0.043956  -0.000000
    10  C   -0.188438   0.000000
    11  C    0.190564   0.000000
    12  O   -0.236206   0.000000
    13  C    0.057175   0.000000
    14  C   -0.011660   0.000000
    15  C   -0.155574  -0.000000
    16  S    0.177627   0.000000
    17  C    0.074499   0.000000
    18  C   -0.020866   0.000000
    19  C    0.124504   0.000000
    20  F   -0.118308   0.000000
    21  C   -0.040916  -0.000000
    22  C    0.122468   0.000000
    23  O   -0.234311   0.000000
    24  C    0.059509   0.000000
    25  C   -0.049972  -0.000000
    26  C   -0.186491   0.000000
    27  C    0.178488  -0.000000
    28  O   -0.236660   0.000000
    29  C    0.058501   0.000000
    30  C   -0.009077  -0.000000
    31  C   -0.154857   0.000000
    32  S    0.176317   0.000000
    33  C    0.073148  -0.000000
    34  C   -0.021164   0.000000
    35  C    0.123506  -0.000000
    36  F   -0.121116   0.000000
    37  C   -0.047681  -0.000000
    38  C    0.129137  -0.000000
    39  O   -0.226107   0.000000
    40  C    0.059909   0.000000
    41  C   -0.050849   0.000000
    42  C   -0.191765   0.000000
    43  C    0.188781   0.000000
    44  O   -0.235628  -0.000000
    45  C    0.057084  -0.000000
    46  C   -0.010772  -0.000000
    47  C   -0.155410   0.000000
    48  S    0.178392  -0.000000
    49  C    0.073630   0.000000
    50  C   -0.020961  -0.000000
    51  C    0.123513  -0.000000
    52  F   -0.121324   0.000000
    53  C   -0.047541   0.000000
    54  C    0.129117  -0.000000
    55  O   -0.225968   0.000000
    56  C    0.059670  -0.000000
    57  C   -0.052163   0.000000
    58  C   -0.191949  -0.000000
    59  C    0.188757  -0.000000
    60  O   -0.235610  -0.000000
    61  C    0.057147   0.000000
    62  C   -0.010980   0.000000
    63  C   -0.154682  -0.000000
    64  S    0.176914   0.000000
    65  C    0.073637   0.000000
    66  C   -0.021388  -0.000000
    67  C    0.126113   0.000000
    68  F   -0.119006   0.000000
    69  C   -0.033098  -0.000000
    70  C    0.122630  -0.000000
    71  O   -0.233745  -0.000000
    72  C    0.060025   0.000000
    73  C   -0.051403   0.000000
    74  C   -0.198467   0.000000
    75  C    0.161786  -0.000000
    76  O   -0.236323  -0.000000
    77  C    0.057090   0.000000
    78  C    0.007326  -0.000000
    79  C   -0.127144   0.000000
    80  S    0.177878  -0.000000
    81  H   -0.006461  -0.000000
    82  H   -0.004548   0.000000
    83  H    0.044941  -0.000000
    84  H    0.045086   0.000000
    85  H    0.052471  -0.000000
    86  H   -0.011260  -0.000000
    87  H    0.040412  -0.000000
    88  H    0.048731   0.000000
    89  H    0.043916   0.000000
    90  H   -0.006816   0.000000
    91  H   -0.015478  -0.000000
    92  H    0.055082  -0.000000
    93  H    0.047897  -0.000000
    94  H    0.050743   0.000000
    95  H   -0.008805  -0.000000
    96  H    0.040913   0.000000
    97  H    0.050723  -0.000000
    98  H    0.044221  -0.000000
    99  H   -0.007191  -0.000000
   100  H   -0.014159   0.000000
   101  H    0.048824  -0.000000
   102  H    0.047191  -0.000000
   103  H    0.051306  -0.000000
   104  H   -0.009573   0.000000
   105  H    0.040611   0.000000
   106  H    0.049181   0.000000
   107  H    0.043861  -0.000000
   108  H   -0.007082   0.000000
   109  H   -0.014985   0.000000
   110  H    0.049113   0.000000
   111  H    0.047640  -0.000000
   112  H    0.051182   0.000000
   113  H   -0.008933   0.000000
   114  H    0.040525  -0.000000
   115  H    0.049253  -0.000000
   116  H    0.043594  -0.000000
   117  H   -0.007047   0.000000
   118  H   -0.015780  -0.000000
   119  H    0.049892   0.000000
   120  H    0.048100   0.000000
   121  H    0.053512   0.000000
   122  H   -0.009599  -0.000000
   123  H    0.040134  -0.000000
   124  H    0.049858  -0.000000
   125  H    0.042061  -0.000000
   126  H   -0.006282   0.000000
   127  H    0.022276   0.000000
 Sum of Mulliken charges =  -0.00000   0.00000
 Mulliken charges and spin densities with hydrogens summed into heavy atoms:
               1          2
     1  C    0.027441  -0.000000
     2  C   -0.005171   0.000000
     3  C    0.114667   0.000000
     4  F   -0.121835  -0.000000
     5  C   -0.057874  -0.000000
     6  C    0.123036  -0.000000
     7  O   -0.224607  -0.000000
     8  C    0.201270  -0.000000
     9  C   -0.055216  -0.000000
    10  C   -0.188438   0.000000
    11  C    0.190564   0.000000
    12  O   -0.236206   0.000000
    13  C    0.190235   0.000000
    14  C   -0.018476   0.000000
    15  C   -0.155574  -0.000000
    16  S    0.177627   0.000000
    17  C    0.074499   0.000000
    18  C   -0.036344  -0.000000
    19  C    0.124504   0.000000
    20  F   -0.118308   0.000000
    21  C   -0.040916  -0.000000
    22  C    0.122468   0.000000
    23  O   -0.234311   0.000000
    24  C    0.213231   0.000000
    25  C   -0.058777  -0.000000
    26  C   -0.186491   0.000000
    27  C    0.178488  -0.000000
    28  O   -0.236660   0.000000
    29  C    0.194358   0.000000
    30  C   -0.016268  -0.000000
    31  C   -0.154857   0.000000
    32  S    0.176317   0.000000
    33  C    0.073148  -0.000000
    34  C   -0.035324   0.000000
    35  C    0.123506  -0.000000
    36  F   -0.121116   0.000000
    37  C   -0.047681  -0.000000
    38  C    0.129137  -0.000000
    39  O   -0.226107   0.000000
    40  C    0.207231  -0.000000
    41  C   -0.060422   0.000000
    42  C   -0.191765   0.000000
    43  C    0.188781   0.000000
    44  O   -0.235628  -0.000000
    45  C    0.190736  -0.000000
    46  C   -0.017854   0.000000
    47  C   -0.155410   0.000000
    48  S    0.178392  -0.000000
    49  C    0.073630   0.000000
    50  C   -0.035945  -0.000000
    51  C    0.123513  -0.000000
    52  F   -0.121324   0.000000
    53  C   -0.047541   0.000000
    54  C    0.129117  -0.000000
    55  O   -0.225968   0.000000
    56  C    0.207605  -0.000000
    57  C   -0.061096   0.000000
    58  C   -0.191949  -0.000000
    59  C    0.188757  -0.000000
    60  O   -0.235610  -0.000000
    61  C    0.190519   0.000000
    62  C   -0.018027   0.000000
    63  C   -0.154682  -0.000000
    64  S    0.176914   0.000000
    65  C    0.073637   0.000000
    66  C   -0.037168  -0.000000
    67  C    0.126113   0.000000
    68  F   -0.119006   0.000000
    69  C   -0.033098  -0.000000
    70  C    0.122630  -0.000000
    71  O   -0.233745  -0.000000
    72  C    0.211529   0.000000
    73  C   -0.061002   0.000000
    74  C   -0.198467   0.000000
    75  C    0.161786  -0.000000
    76  O   -0.236323  -0.000000
    77  C    0.189143  -0.000000
    78  C    0.001044  -0.000000
    79  C   -0.104868   0.000000
    80  S    0.177878  -0.000000
 Electronic spatial extent (au):  <R**2>=         307235.8111
 Charge=              0.0000 electrons
 Dipole moment (field-independent basis, Debye):
    X=             -3.7255    Y=              0.5998    Z=              2.9270  Tot=              4.7756
 Quadrupole moment (field-independent basis, Debye-Ang):
   XX=           -382.2161   YY=           -423.0565   ZZ=           -472.8571
   XY=             -6.2292   XZ=            -12.9237   YZ=              3.4221
 Traceless Quadrupole moment (field-independent basis, Debye-Ang):
   XX=             43.8271   YY=              2.9867   ZZ=            -46.8138
   XY=             -6.2292   XZ=            -12.9237   YZ=              3.4221
 Octapole moment (field-independent basis, Debye-Ang**2):
  XXX=           -886.4580  YYY=             59.2545  ZZZ=             59.7646  XYY=             -9.1568
  XXY=            223.4536  XXZ=           1106.8120  XZZ=           -127.3575  YZZ=             19.3506
  YYZ=            -29.9691  XYZ=            110.1094
 Hexadecapole moment (field-independent basis, Debye-Ang**3):
 XXXX=        -318887.0215 YYYY=          -9296.5545 ZZZZ=          -4204.8147 XXXY=          -1593.3122
 XXXZ=          -6398.5103 YYYX=           -627.7352 YYYZ=              7.5185 ZZZX=           -275.0707
 ZZZY=             46.5411 XXYY=         -60916.1717 XXZZ=         -62569.8094 YYZZ=          -2277.7222
 XXYZ=           2205.6148 YYXZ=            465.0768 ZZXY=            351.4201
 N-N= 1.245647147378D+04 E-N=-3.797670269031D+04  KE= 5.526646285445D+03
 Leave Link  601 at Sat Jul 25 00:07:23 2020, MaxMem=  4026531840 cpu:              10.8 elap:               1.5
 (Enter /opt/ohpc/pub/libs/gaussian/g16-A.03/sandybridge/g16/l9999.exe)

 Test job not archived.
 1\1\GINC-SKYLAKE038\FOpt\ULC-wPBE\CC-pVDZ\C60H47F5O10S5\RDU230\25-Jul-
 2020\0\\#P uLC-wPBE/cc-pVDZ iop(3/107=0257400000, 3/108=0257400000) op
 t\\H47 C60 S5 O10 F5\\0,1\C,-18.6825669176,-2.9952589673,0.658425896\C
 ,-17.8763609611,-3.1469665862,-0.4652034954\C,-16.7666807878,-2.315123
 2196,-0.5886530287\F,-15.9833132184,-2.4525653866,-1.6801372313\C,-16.
 42113227,-1.3442249538,0.3537096917\C,-17.2534012257,-1.2278780635,1.4
 943836541\O,-16.8646121706,-0.3000283751,2.4045496354\C,-17.6810486883
 ,-0.1089495428,3.5452863798\C,-18.3825800793,-2.0447326604,1.638237035
 2\C,-15.24421103,-0.475471131,0.1700041779\C,-15.2136785726,0.90632001
 82,0.1256216352\O,-16.3697929283,1.615633346,0.2174849778\C,-16.250491
 5865,3.026273739,0.1801352328\C,-13.8987672286,1.4372746866,-0.0458973
 012\C,-12.9364342928,0.4551559167,-0.1360390988\S,-13.6419033688,-1.11
 83272268,0.001322716\C,-11.4841417285,0.6293230506,-0.323959512\C,-10.
 8436849488,1.7632732646,0.1858334093\C,-9.4753918128,1.911040851,-0.01
 31635115\F,-8.8795160429,2.9973209511,0.5160573076\C,-8.68784707,0.985
 9775879,-0.7042233093\C,-9.3541437936,-0.1624862718,-1.1969141595\O,-8
 .5623945606,-1.0511302204,-1.8521774514\C,-9.1632189794,-2.2272119347,
 -2.3680210311\C,-10.729004929,-0.3344767227,-1.0143463042\C,-7.2461949
 562,1.213960826,-0.8985055938\C,-6.6438479306,2.351520614,-1.407713538
 6\O,-7.4079419204,3.3852801768,-1.84800721\C,-6.7193814945,4.547594615
 3,-2.2738918517\C,-5.2174123467,2.2820365031,-1.4170772263\C,-4.741748
 307,1.0900323238,-0.9162597006\S,-6.0408954488,0.045828113,-0.45363994
 83\C,-3.3354513153,0.665887436,-0.7795749362\C,-2.3716767217,1.1377261
 925,-1.6771784532\C,-1.0534245933,0.7265184264,-1.5193949145\F,-0.1390
 470829,1.1858204431,-2.4009522147\C,-0.6241040273,-0.1440188377,-0.515
 7799351\C,-1.6131070409,-0.6007430469,0.3900261749\O,-1.1638016496,-1.
 408633157,1.3815387677\C,-2.1134516525,-1.9327907883,2.2928464717\C,-2
 .9472337609,-0.2031714728,0.2544634096\C,0.7816210832,-0.5694838853,-0
 .405093282\C,1.2757268763,-1.8615604516,-0.4089375611\O,0.4297623849,-
 2.9130839857,-0.5698269995\C,1.0122092757,-4.2036815368,-0.5408101067\
 C,2.6950634674,-1.9240323724,-0.2623754155\C,3.2738906203,-0.678185606
 3,-0.1541483291\S,2.0775452585,0.5692885838,-0.2195186711\C,4.70549424
 17,-0.3581660212,-0.0014081869\C,5.5523614221,-1.2474195171,0.66889971
 76\C,6.8983832581,-0.9236567782,0.7922616466\F,7.6983259064,-1.7908745
 435,1.4498253514\C,7.4662099895,0.2495701164,0.2919015848\C,6.59400846
 84,1.131065452,-0.3934604114\O,7.1770674885,2.2412043576,-0.9081727723
 \C,6.3475805377,3.1828375911,-1.5659146015\C,5.2350515168,0.8305127477
 ,-0.532245328\C,8.8953589266,0.5583505672,0.4692488754\C,9.4503175641,
 1.6780215579,1.0623516028\O,8.645850422,2.6303359544,1.6038988818\C,9.
 2915075824,3.7555467815,2.1718823344\C,10.8785932572,1.6736479179,1.05
 2169316\C,11.4028718663,0.5471910754,0.4563260837\S,10.1452758664,-0.5
 008604998,-0.1025061517\C,12.8249466145,0.2002309745,0.2766554904\C,13
 .7766234562,1.2116675133,0.1127119829\C,15.1130730316,0.8603846975,-0.
 0436267442\F,16.0033242873,1.8544544631,-0.2299508328\C,15.5736190935,
 -0.459110641,-0.0436959811\C,14.5905746217,-1.467109563,0.1071964915\O
 ,15.0633302396,-2.7411401347,0.0905590493\C,14.1308045333,-3.800156692
 3,0.2254323985\C,13.240918234,-1.1423594193,0.2696623042\C,17.00742657
 53,-0.7610858295,-0.1931113053\C,18.0503249094,-0.2235424096,0.5406982
 713\O,17.7903699301,0.6274172882,1.5692410758\C,18.9112030141,1.219958
 8307,2.1994016935\C,19.3386566719,-0.676332557,0.1107933296\C,19.24647
 55681,-1.5524768202,-0.9401043132\S,17.6212310466,-1.8420785401,-1.407
 1064389\H,-19.5662400796,-3.6320379141,0.7821895473\H,-18.0870713335,-
 3.8826955554,-1.2471495351\H,-17.746937215,-1.0265821376,4.1631224379\
 H,-18.7030487795,0.2162481288,3.2671091266\H,-17.1962601064,0.68586118
 18,4.1335503427\H,-19.0295709755,-1.9531443847,2.5147086714\H,-15.6312
 254149,3.4086334291,1.0163158539\H,-17.2730188237,3.4238636867,0.27978
 21523\H,-15.8207175192,3.3782717323,-0.7791476651\H,-13.6635118189,2.5
 000842779,-0.1404024987\H,-11.3792306981,2.519477083,0.7671452422\H,-8
 .3482704929,-2.7983616862,-2.839089337\H,-9.6216320116,-2.8381696721,-
 1.5657131291\H,-9.9314134539,-1.9921976149,-3.1306166977\H,-11.2383598
 174,-1.2068145997,-1.4331137755\H,-6.0708677969,4.3438326444,-3.149578
 619\H,-7.494796942,5.2737119177,-2.5648893975\H,-6.1054664532,4.981507
 4473,-1.4596650198\H,-4.5573988409,3.0854398292,-1.7525947655\H,-2.629
 4145186,1.7891518789,-2.517174018\H,-2.6164152792,-1.131307085,2.86927
 32495\H,-2.879093981,-2.5454038138,1.7775047059\H,-1.5443174191,-2.571
 2986025,2.9863336992\H,-3.7000954086,-0.5379925238,0.9733887874\H,1.51
 64342885,-4.4051868946,0.4256090462\H,0.1832062824,-4.9177085295,-0.66
 90110971\H,1.7391666302,-4.3462861618,-1.3654399035\H,3.2823711606,-2.
 8453015235,-0.2752850775\H,5.1818186991,-2.1687679127,1.1274058435\H,5
 .8638808401,2.7488900444,-2.4632990013\H,5.5668618335,3.582147588,-0.8
 891139437\H,7.0124470038,4.0035392039,-1.8772295831\H,4.5735726249,1.5
 023678082,-1.0861798368\H,9.8966030122,4.3038109854,1.422163718\H,8.49
 03194851,4.4162593096,2.5394374393\H,9.9411885248,3.4712494884,3.02390
 39397\H,11.5070162558,2.4472114598,1.4999366744\H,13.4977312442,2.2684
 545741,0.0677903647\H,13.6060836342,-3.760979737,1.2002502227\H,13.382
 2517689,-3.7930023532,-0.5911517604\H,14.7205465753,-4.7282930947,0.16
 90792067\H,12.4966142027,-1.9285897383,0.4234110088\H,19.554193358,0.4
 636326055,2.6932594024\H,18.5081361505,1.9003518802,2.9662914708\H,19.
 5227316302,1.804637896,1.4834155352\H,20.2890982112,-0.3753758846,0.55
 7799633\H,20.0645790966,-2.0579898432,-1.4581023242\\Version=EM64L-G16
 RevA.03\State=1-A\HF=-5553.6773298\S2=0.\S2-1=0.\S2A=0.\RMSD=6.246e-09
 \RMSF=1.694e-06\Dipole=-1.4718536,0.3085631,1.1262792\Quadrupole=32.67
 49385,2.4087599,-35.0836985,-5.2606175,-8.9097244,0.2355821\PG=C01 [X(
 C60H47F5O10S5)]\\@


 GOD DOES NOT PLAY WITH DICE.
               -- A. EINSTEIN
 Job cpu time:       3 days  7 hours 15 minutes  2.1 seconds.
 Elapsed time:       0 days 10 hours  4 minutes 43.3 seconds.
 File lengths (MBytes):  RWF=   2116 Int=      0 D2E=      0 Chk=    192 Scr=      8
 Normal termination of Gaussian 16 at Sat Jul 25 00:07:23 2020.
