 Entering Gaussian System, Link 0=g16
 Input=mols_65_7_19_n-n-COC_opt_0.gjf
 Output=mols_65_7_19_n-n-COC_opt_0.log
 Initial command:
 /opt/ohpc/pub/libs/gaussian/g16-A.03/sandybridge/g16/l1.exe "/mnt/gpfs2_4m/scratch/rdu230/ondemand/projects/dihedral_energies/7trial/wtuning/mols_65_7_19_n-n-COC/Gau-42305.inp" -scrdir="/mnt/gpfs2_4m/scratch/rdu230/ondemand/projects/dihedral_energies/7trial/wtuning/mols_65_7_19_n-n-COC/"
 Entering Link 1 = /opt/ohpc/pub/libs/gaussian/g16-A.03/sandybridge/g16/l1.exe PID=     42306.
  
 Copyright (c) 1988,1990,1992,1993,1995,1998,2003,2009,2016,
            Gaussian, Inc.  All Rights Reserved.
  
 This is part of the Gaussian(R) 16 program.  It is based on
 the Gaussian(R) 09 system (copyright 2009, Gaussian, Inc.),
 the Gaussian(R) 03 system (copyright 2003, Gaussian, Inc.),
 the Gaussian(R) 98 system (copyright 1998, Gaussian, Inc.),
 the Gaussian(R) 94 system (copyright 1995, Gaussian, Inc.),
 the Gaussian 92(TM) system (copyright 1992, Gaussian, Inc.),
 the Gaussian 90(TM) system (copyright 1990, Gaussian, Inc.),
 the Gaussian 88(TM) system (copyright 1988, Gaussian, Inc.),
 the Gaussian 86(TM) system (copyright 1986, Carnegie Mellon
 University), and the Gaussian 82(TM) system (copyright 1983,
 Carnegie Mellon University). Gaussian is a federally registered
 trademark of Gaussian, Inc.
  
 This software contains proprietary and confidential information,
 including trade secrets, belonging to Gaussian, Inc.
  
 This software is provided under written license and may be
 used, copied, transmitted, or stored only in accord with that
 written license.
  
 The following legend is applicable only to US Government
 contracts under FAR:
  
                    RESTRICTED RIGHTS LEGEND
  
 Use, reproduction and disclosure by the US Government is
 subject to restrictions as set forth in subparagraphs (a)
 and (c) of the Commercial Computer Software - Restricted
 Rights clause in FAR 52.227-19.
  
 Gaussian, Inc.
 340 Quinnipiac St., Bldg. 40, Wallingford CT 06492
  
  
 ---------------------------------------------------------------
 Warning -- This program may not be used in any manner that
 competes with the business of Gaussian, Inc. or will provide
 assistance to any competitor of Gaussian, Inc.  The licensee
 of this program is prohibited from giving any competitor of
 Gaussian, Inc. access to this program.  By using this program,
 the user acknowledges that Gaussian, Inc. is engaged in the
 business of creating and licensing software in the field of
 computational chemistry and represents and warrants to the
 licensee that it is not a competitor of Gaussian, Inc. and that
 it will not use this program in any manner prohibited above.
 ---------------------------------------------------------------
  

 Cite this work as:
 Gaussian 16, Revision A.03,
 M. J. Frisch, G. W. Trucks, H. B. Schlegel, G. E. Scuseria, 
 M. A. Robb, J. R. Cheeseman, G. Scalmani, V. Barone, 
 G. A. Petersson, H. Nakatsuji, X. Li, M. Caricato, A. V. Marenich, 
 J. Bloino, B. G. Janesko, R. Gomperts, B. Mennucci, H. P. Hratchian, 
 J. V. Ortiz, A. F. Izmaylov, J. L. Sonnenberg, D. Williams-Young, 
 F. Ding, F. Lipparini, F. Egidi, J. Goings, B. Peng, A. Petrone, 
 T. Henderson, D. Ranasinghe, V. G. Zakrzewski, J. Gao, N. Rega, 
 G. Zheng, W. Liang, M. Hada, M. Ehara, K. Toyota, R. Fukuda, 
 J. Hasegawa, M. Ishida, T. Nakajima, Y. Honda, O. Kitao, H. Nakai, 
 T. Vreven, K. Throssell, J. A. Montgomery, Jr., J. E. Peralta, 
 F. Ogliaro, M. J. Bearpark, J. J. Heyd, E. N. Brothers, K. N. Kudin, 
 V. N. Staroverov, T. A. Keith, R. Kobayashi, J. Normand, 
 K. Raghavachari, A. P. Rendell, J. C. Burant, S. S. Iyengar, 
 J. Tomasi, M. Cossi, J. M. Millam, M. Klene, C. Adamo, R. Cammi, 
 J. W. Ochterski, R. L. Martin, K. Morokuma, O. Farkas, 
 J. B. Foresman, and D. J. Fox, Gaussian, Inc., Wallingford CT, 2016.
 
 ******************************************
 Gaussian 16:  EM64L-G16RevA.03 25-Dec-2016
                25-Jul-2020 
 ******************************************
 %mem=30GB
 %nproc=8
 Will use up to    8 processors via shared memory.
 ---------------------------------------------------------------
 #P uLC-wPBE/cc-pVDZ iop(3/107=0178500000, 3/108=0178500000) opt
 ---------------------------------------------------------------
 1/18=20,19=15,26=3,38=1/1,3;
 2/9=110,12=2,17=6,18=5,40=1/2;
 3/5=16,11=2,25=1,30=1,71=1,74=-41,107=178500000,108=178500000,116=2/1,2,3;
 4//1;
 5/5=2,38=5/2;
 6/7=2,8=2,9=2,10=2,28=1/1;
 7//1,2,3,16;
 1/18=20,19=15,26=3/3(2);
 2/9=110/2;
 99//99;
 2/9=110/2;
 3/5=16,11=2,25=1,30=1,71=1,74=-41,107=178500000,108=178500000,116=2/1,2,3;
 4/5=5,16=3,69=1/1;
 5/5=2,38=5/2;
 7//1,2,3,16;
 1/18=20,19=15,26=3/3(-5);
 2/9=110/2;
 6/7=2,8=2,9=2,10=2,19=2,28=1/1;
 99/9=1/99;
 Leave Link    1 at Sat Jul 25 10:35:51 2020, MaxMem=  4026531840 cpu:               2.7 elap:               0.4
 (Enter /opt/ohpc/pub/libs/gaussian/g16-A.03/sandybridge/g16/l101.exe)
 -----------------
 H44 C63 S7 N14 O7
 -----------------
 Symbolic Z-matrix:
 Charge =  0 Multiplicity = 1
 C                    -27.09726   0.83292   1.12901 
 C                    -26.81619  -0.24309   0.42088 
 N                    -25.57744  -0.68287   0.12262 
 C                    -24.63765   0.08195   0.68123 
 N                    -24.74408   1.20932   1.4033 
 C                    -26.11953   1.53194   1.59208 
 C                    -23.23352  -0.37774   0.45288 
 C                    -22.65157  -1.62076   0.17037 
 O                    -23.48532  -2.66465   0.20583 
 C                    -22.8575  -3.91252  -0.10825 
 C                    -21.30754  -1.57508  -0.0133 
 C                    -20.7143  -0.27072   0.17226 
 S                    -21.89734   0.85746   0.47856 
 C                    -19.30832   0.0442    0.04565 
 C                    -18.32723  -0.7634    0.48863 
 N                    -16.93579  -0.42656   0.40577 
 C                    -16.64678   0.81547  -0.04871 
 N                    -17.55969   1.71638  -0.40069 
 C                    -18.89571   1.34404  -0.34967 
 C                    -15.25585   1.11461  -0.04955 
 C                    -14.64997   2.44832  -0.18142 
 O                    -15.44897   3.50164  -0.29879 
 C                    -14.74474   4.7043   -0.55254 
 C                    -13.20613   2.33898  -0.11936 
 C                    -12.71058   1.06569   0.1506 
 S                    -13.97871  -0.0595    0.13456 
 C                    -11.32715   0.63607   0.21689 
 C                    -10.2308   1.42679  -0.05611 
 N                    -8.94711   0.99289   0.03597 
 C                    -8.67759  -0.20188   0.49721 
 N                    -9.67925  -1.11262   0.86686 
 C                    -10.9444  -0.60556   0.76048 
 C                    -7.35502  -0.5934    0.66354 
 C                    -6.78881  -1.63706   1.48381 
 O                    -7.50008  -2.33297   2.31394 
 C                    -6.95248  -3.42944   2.89786 
 C                    -5.35527  -1.62124   1.3407 
 C                    -4.84398  -0.72865   0.42919 
 S                    -6.07538   0.15088  -0.2048 
 C                    -3.37873  -0.46883   0.08973 
 C                    -2.92081   0.83942  -0.19472 
 N                    -1.6614    1.07425  -0.49576 
 C                    -0.80199   0.0455   -0.62576 
 N                    -1.17673  -1.26738  -0.26433 
 C                    -2.49786  -1.42507   0.04401 
 C                     0.57068   0.32509  -0.94246 
 C                     1.12468   1.37536  -1.58048 
 O                     0.29917   2.44469  -1.94056 
 C                     1.00276   3.68133  -2.09276 
 C                     2.5454    1.27632  -1.78993 
 C                     3.0077    0.08573  -1.29404 
 S                     1.84076  -0.9031   -0.709 
 C                     4.40565  -0.35492  -1.3167 
 C                     5.52329   0.55467  -1.18431 
 N                     6.77511   0.27437  -1.2814 
 C                     7.04756  -1.07821  -1.36364 
 N                     6.15433  -2.02371  -1.42574 
 C                     4.91342  -1.67337  -1.41667 
 C                     8.54572  -1.43865  -1.45456 
 C                     9.16339  -2.63796  -1.7526 
 O                     8.36738  -3.77066  -2.07 
 C                     9.08838  -4.88233  -2.29737 
 C                     10.59678  -2.59155  -1.63392 
 C                     10.97765  -1.35166  -1.26589 
 S                     9.65517  -0.25158  -1.05359 
 C                     12.35135  -0.81699  -1.02014 
 C                     13.35616  -1.53158  -0.39185 
 N                     14.56161  -1.16967  -0.15395 
 C                     14.90511   0.05389  -0.64689 
 N                     14.07592   0.88819  -1.27352 
 C                     12.83692   0.38669  -1.47314 
 C                     16.26214   0.60573  -0.25157 
 C                     16.68758   1.90268  -0.10128 
 O                     15.72999   2.9729   -0.20306 
 C                     16.31538   4.30086  -0.14627 
 C                     18.00535   2.04888   0.19628 
 C                     18.67419   0.79036   0.20038 
 S                     17.51991  -0.43733  -0.10287 
 C                     20.08675   0.44207   0.5163 
 C                     21.10683   1.30781   0.18969 
 N                     22.42279   1.12385   0.46799 
 C                     22.7098  -0.00393   1.08323 
 N                     21.79335  -0.93994   1.53478 
 C                     20.46905  -0.62069   1.28027 
 C                     24.08332  -0.1985    1.53271 
 C                     24.98133   0.74478   2.01162 
 O                     24.66014   1.94851   2.25209 
 C                     25.68362   2.87084   2.7 
 C                     26.27962   0.06746   2.20865 
 C                     26.33905  -1.17705   1.84369 
 S                     24.83116  -1.77311   1.25587 
 H                    -28.137    1.12933   1.26861 
 H                    -27.58624  -0.88492  -0.03072 
 H                    -26.23409   2.4919    2.22789 
 H                    -22.17169  -4.16284   0.7644 
 H                    -22.43663  -3.93125  -1.02687 
 H                    -23.60764  -4.68648  -0.06687 
 H                    -20.66304  -2.49901  -0.19799 
 H                    -18.50858  -1.71834   0.82806 
 H                    -19.59998   2.09275  -0.70546 
 H                    -15.44916   5.46101  -0.76734 
 H                    -14.05865   4.6795   -1.40285 
 H                    -14.13733   4.96935   0.32661 
 H                    -12.6077   3.18791  -0.08929 
 H                    -10.37771   2.44471  -0.50311 
 H                    -11.67812  -1.40812   1.09494 
 H                    -6.50036  -4.10571   2.12992 
 H                    -6.19982  -3.09769   3.6581 
 H                    -7.65234  -4.03272   3.4117 
 H                    -4.70252  -2.37827   1.9402 
 H                    -3.57353   1.66218  -0.2229 
 H                    -2.76014  -2.4803    0.22709 
 H                     1.59088   3.96309  -1.12766 
 H                     1.65201   3.68723  -2.92749 
 H                     0.22773   4.52257  -2.24024 
 H                     3.12355   2.03747  -2.18545 
 H                     5.3558    1.65646  -1.09515 
 H                     4.15284  -2.49836  -1.56579 
 H                     8.43047  -5.66196  -2.69501 
 H                     9.52827  -5.32393  -1.40841 
 H                     9.9099   -4.82323  -3.0459 
 H                     11.19837  -3.42776  -1.7748 
 H                     13.05895  -2.5618    0.08167 
 H                     12.2413   1.05294  -2.07936 
 H                     15.48524   4.98926  -0.39844 
 H                     17.12208   4.41867  -0.94579 
 H                     16.66895   4.49677   0.85533 
 H                     18.60071   2.90499   0.37268 
 H                     20.85023   2.21178  -0.42585 
 H                     19.82298  -1.3611    1.66525 
 H                     26.47616   2.95231   1.94423 
 H                     26.09958   2.51804   3.69281 
 H                     25.22241   3.78096   2.89347 
 H                     27.1486   0.57727   2.55383 
 H                     27.18665  -1.9301    1.88871 
 
 ITRead=  0  0  0  0  0  0  0  0  0  0  0  0  0  0  0  0  0  0  0  0
 ITRead=  0  0  0  0  0  0  0  0  0  0  0  0  0  0  0  0  0  0  0  0
 ITRead=  0  0  0  0  0  0  0  0  0  0  0  0  0  0  0  0  0  0  0  0
 ITRead=  0  0  0  0  0  0  0  0  0  0  0  0  0  0  0  0  0  0  0  0
 ITRead=  0  0  0  0  0  0  0  0  0  0  0  0  0  0  0  0  0  0  0  0
 ITRead=  0  0  0  0  0  0  0  0  0  0  0  0  0  0  0  0  0  0  0  0
 ITRead=  0  0  0  0  0  0  0  0  0  0  0  0  0  0  0
 MicOpt= -1 -1 -1 -1 -1 -1 -1 -1 -1 -1 -1 -1 -1 -1 -1 -1 -1 -1 -1 -1
 MicOpt= -1 -1 -1 -1 -1 -1 -1 -1 -1 -1 -1 -1 -1 -1 -1 -1 -1 -1 -1 -1
 MicOpt= -1 -1 -1 -1 -1 -1 -1 -1 -1 -1 -1 -1 -1 -1 -1 -1 -1 -1 -1 -1
 MicOpt= -1 -1 -1 -1 -1 -1 -1 -1 -1 -1 -1 -1 -1 -1 -1 -1 -1 -1 -1 -1
 MicOpt= -1 -1 -1 -1 -1 -1 -1 -1 -1 -1 -1 -1 -1 -1 -1 -1 -1 -1 -1 -1
 MicOpt= -1 -1 -1 -1 -1 -1 -1 -1 -1 -1 -1 -1 -1 -1 -1 -1 -1 -1 -1 -1
 MicOpt= -1 -1 -1 -1 -1 -1 -1 -1 -1 -1 -1 -1 -1 -1 -1
 NAtoms=    135 NQM=      135 NQMF=       0 NMMI=      0 NMMIF=      0
                NMic=       0 NMicF=      0.
                    Isotopes and Nuclear Properties:
 (Nuclear quadrupole moments (NQMom) in fm**2, nuclear magnetic moments (NMagM)
  in nuclear magnetons)

  Atom         1           2           3           4           5           6           7           8           9          10
 IAtWgt=          12          12          14          12          14          12          12          12          16          12
 AtmWgt=  12.0000000  12.0000000  14.0030740  12.0000000  14.0030740  12.0000000  12.0000000  12.0000000  15.9949146  12.0000000
 NucSpn=           0           0           2           0           2           0           0           0           0           0
 AtZEff=  -0.0000000  -0.0000000  -0.0000000  -0.0000000  -0.0000000  -0.0000000  -0.0000000  -0.0000000  -0.0000000  -0.0000000
 NQMom=    0.0000000   0.0000000   2.0440000   0.0000000   2.0440000   0.0000000   0.0000000   0.0000000   0.0000000   0.0000000
 NMagM=    0.0000000   0.0000000   0.4037610   0.0000000   0.4037610   0.0000000   0.0000000   0.0000000   0.0000000   0.0000000
 AtZNuc=   6.0000000   6.0000000   7.0000000   6.0000000   7.0000000   6.0000000   6.0000000   6.0000000   8.0000000   6.0000000

  Atom        11          12          13          14          15          16          17          18          19          20
 IAtWgt=          12          12          32          12          12          14          12          14          12          12
 AtmWgt=  12.0000000  12.0000000  31.9720718  12.0000000  12.0000000  14.0030740  12.0000000  14.0030740  12.0000000  12.0000000
 NucSpn=           0           0           0           0           0           2           0           2           0           0
 AtZEff=  -0.0000000  -0.0000000  -0.0000000  -0.0000000  -0.0000000  -0.0000000  -0.0000000  -0.0000000  -0.0000000  -0.0000000
 NQMom=    0.0000000   0.0000000   0.0000000   0.0000000   0.0000000   2.0440000   0.0000000   2.0440000   0.0000000   0.0000000
 NMagM=    0.0000000   0.0000000   0.0000000   0.0000000   0.0000000   0.4037610   0.0000000   0.4037610   0.0000000   0.0000000
 AtZNuc=   6.0000000   6.0000000  16.0000000   6.0000000   6.0000000   7.0000000   6.0000000   7.0000000   6.0000000   6.0000000

  Atom        21          22          23          24          25          26          27          28          29          30
 IAtWgt=          12          16          12          12          12          32          12          12          14          12
 AtmWgt=  12.0000000  15.9949146  12.0000000  12.0000000  12.0000000  31.9720718  12.0000000  12.0000000  14.0030740  12.0000000
 NucSpn=           0           0           0           0           0           0           0           0           2           0
 AtZEff=  -0.0000000  -0.0000000  -0.0000000  -0.0000000  -0.0000000  -0.0000000  -0.0000000  -0.0000000  -0.0000000  -0.0000000
 NQMom=    0.0000000   0.0000000   0.0000000   0.0000000   0.0000000   0.0000000   0.0000000   0.0000000   2.0440000   0.0000000
 NMagM=    0.0000000   0.0000000   0.0000000   0.0000000   0.0000000   0.0000000   0.0000000   0.0000000   0.4037610   0.0000000
 AtZNuc=   6.0000000   8.0000000   6.0000000   6.0000000   6.0000000  16.0000000   6.0000000   6.0000000   7.0000000   6.0000000

  Atom        31          32          33          34          35          36          37          38          39          40
 IAtWgt=          14          12          12          12          16          12          12          12          32          12
 AtmWgt=  14.0030740  12.0000000  12.0000000  12.0000000  15.9949146  12.0000000  12.0000000  12.0000000  31.9720718  12.0000000
 NucSpn=           2           0           0           0           0           0           0           0           0           0
 AtZEff=  -0.0000000  -0.0000000  -0.0000000  -0.0000000  -0.0000000  -0.0000000  -0.0000000  -0.0000000  -0.0000000  -0.0000000
 NQMom=    2.0440000   0.0000000   0.0000000   0.0000000   0.0000000   0.0000000   0.0000000   0.0000000   0.0000000   0.0000000
 NMagM=    0.4037610   0.0000000   0.0000000   0.0000000   0.0000000   0.0000000   0.0000000   0.0000000   0.0000000   0.0000000
 AtZNuc=   7.0000000   6.0000000   6.0000000   6.0000000   8.0000000   6.0000000   6.0000000   6.0000000  16.0000000   6.0000000

  Atom        41          42          43          44          45          46          47          48          49          50
 IAtWgt=          12          14          12          14          12          12          12          16          12          12
 AtmWgt=  12.0000000  14.0030740  12.0000000  14.0030740  12.0000000  12.0000000  12.0000000  15.9949146  12.0000000  12.0000000
 NucSpn=           0           2           0           2           0           0           0           0           0           0
 AtZEff=  -0.0000000  -0.0000000  -0.0000000  -0.0000000  -0.0000000  -0.0000000  -0.0000000  -0.0000000  -0.0000000  -0.0000000
 NQMom=    0.0000000   2.0440000   0.0000000   2.0440000   0.0000000   0.0000000   0.0000000   0.0000000   0.0000000   0.0000000
 NMagM=    0.0000000   0.4037610   0.0000000   0.4037610   0.0000000   0.0000000   0.0000000   0.0000000   0.0000000   0.0000000
 AtZNuc=   6.0000000   7.0000000   6.0000000   7.0000000   6.0000000   6.0000000   6.0000000   8.0000000   6.0000000   6.0000000

  Atom        51          52          53          54          55          56          57          58          59          60
 IAtWgt=          12          32          12          12          14          12          14          12          12          12
 AtmWgt=  12.0000000  31.9720718  12.0000000  12.0000000  14.0030740  12.0000000  14.0030740  12.0000000  12.0000000  12.0000000
 NucSpn=           0           0           0           0           2           0           2           0           0           0
 AtZEff=  -0.0000000  -0.0000000  -0.0000000  -0.0000000  -0.0000000  -0.0000000  -0.0000000  -0.0000000  -0.0000000  -0.0000000
 NQMom=    0.0000000   0.0000000   0.0000000   0.0000000   2.0440000   0.0000000   2.0440000   0.0000000   0.0000000   0.0000000
 NMagM=    0.0000000   0.0000000   0.0000000   0.0000000   0.4037610   0.0000000   0.4037610   0.0000000   0.0000000   0.0000000
 AtZNuc=   6.0000000  16.0000000   6.0000000   6.0000000   7.0000000   6.0000000   7.0000000   6.0000000   6.0000000   6.0000000

  Atom        61          62          63          64          65          66          67          68          69          70
 IAtWgt=          16          12          12          12          32          12          12          14          12          14
 AtmWgt=  15.9949146  12.0000000  12.0000000  12.0000000  31.9720718  12.0000000  12.0000000  14.0030740  12.0000000  14.0030740
 NucSpn=           0           0           0           0           0           0           0           2           0           2
 AtZEff=  -0.0000000  -0.0000000  -0.0000000  -0.0000000  -0.0000000  -0.0000000  -0.0000000  -0.0000000  -0.0000000  -0.0000000
 NQMom=    0.0000000   0.0000000   0.0000000   0.0000000   0.0000000   0.0000000   0.0000000   2.0440000   0.0000000   2.0440000
 NMagM=    0.0000000   0.0000000   0.0000000   0.0000000   0.0000000   0.0000000   0.0000000   0.4037610   0.0000000   0.4037610
 AtZNuc=   8.0000000   6.0000000   6.0000000   6.0000000  16.0000000   6.0000000   6.0000000   7.0000000   6.0000000   7.0000000

  Atom        71          72          73          74          75          76          77          78          79          80
 IAtWgt=          12          12          12          16          12          12          12          32          12          12
 AtmWgt=  12.0000000  12.0000000  12.0000000  15.9949146  12.0000000  12.0000000  12.0000000  31.9720718  12.0000000  12.0000000
 NucSpn=           0           0           0           0           0           0           0           0           0           0
 AtZEff=  -0.0000000  -0.0000000  -0.0000000  -0.0000000  -0.0000000  -0.0000000  -0.0000000  -0.0000000  -0.0000000  -0.0000000
 NQMom=    0.0000000   0.0000000   0.0000000   0.0000000   0.0000000   0.0000000   0.0000000   0.0000000   0.0000000   0.0000000
 NMagM=    0.0000000   0.0000000   0.0000000   0.0000000   0.0000000   0.0000000   0.0000000   0.0000000   0.0000000   0.0000000
 AtZNuc=   6.0000000   6.0000000   6.0000000   8.0000000   6.0000000   6.0000000   6.0000000  16.0000000   6.0000000   6.0000000

  Atom        81          82          83          84          85          86          87          88          89          90
 IAtWgt=          14          12          14          12          12          12          16          12          12          12
 AtmWgt=  14.0030740  12.0000000  14.0030740  12.0000000  12.0000000  12.0000000  15.9949146  12.0000000  12.0000000  12.0000000
 NucSpn=           2           0           2           0           0           0           0           0           0           0
 AtZEff=  -0.0000000  -0.0000000  -0.0000000  -0.0000000  -0.0000000  -0.0000000  -0.0000000  -0.0000000  -0.0000000  -0.0000000
 NQMom=    2.0440000   0.0000000   2.0440000   0.0000000   0.0000000   0.0000000   0.0000000   0.0000000   0.0000000   0.0000000
 NMagM=    0.4037610   0.0000000   0.4037610   0.0000000   0.0000000   0.0000000   0.0000000   0.0000000   0.0000000   0.0000000
 AtZNuc=   7.0000000   6.0000000   7.0000000   6.0000000   6.0000000   6.0000000   8.0000000   6.0000000   6.0000000   6.0000000

  Atom        91          92          93          94          95          96          97          98          99         100
 IAtWgt=          32           1           1           1           1           1           1           1           1           1
 AtmWgt=  31.9720718   1.0078250   1.0078250   1.0078250   1.0078250   1.0078250   1.0078250   1.0078250   1.0078250   1.0078250
 NucSpn=           0           1           1           1           1           1           1           1           1           1
 AtZEff=  -0.0000000  -0.0000000  -0.0000000  -0.0000000  -0.0000000  -0.0000000  -0.0000000  -0.0000000  -0.0000000  -0.0000000
 NQMom=    0.0000000   0.0000000   0.0000000   0.0000000   0.0000000   0.0000000   0.0000000   0.0000000   0.0000000   0.0000000
 NMagM=    0.0000000   2.7928460   2.7928460   2.7928460   2.7928460   2.7928460   2.7928460   2.7928460   2.7928460   2.7928460
 AtZNuc=  16.0000000   1.0000000   1.0000000   1.0000000   1.0000000   1.0000000   1.0000000   1.0000000   1.0000000   1.0000000

  Atom       101         102         103         104         105         106         107         108         109         110
 IAtWgt=           1           1           1           1           1           1           1           1           1           1
 AtmWgt=   1.0078250   1.0078250   1.0078250   1.0078250   1.0078250   1.0078250   1.0078250   1.0078250   1.0078250   1.0078250
 NucSpn=           1           1           1           1           1           1           1           1           1           1
 AtZEff=  -0.0000000  -0.0000000  -0.0000000  -0.0000000  -0.0000000  -0.0000000  -0.0000000  -0.0000000  -0.0000000  -0.0000000
 NQMom=    0.0000000   0.0000000   0.0000000   0.0000000   0.0000000   0.0000000   0.0000000   0.0000000   0.0000000   0.0000000
 NMagM=    2.7928460   2.7928460   2.7928460   2.7928460   2.7928460   2.7928460   2.7928460   2.7928460   2.7928460   2.7928460
 AtZNuc=   1.0000000   1.0000000   1.0000000   1.0000000   1.0000000   1.0000000   1.0000000   1.0000000   1.0000000   1.0000000

  Atom       111         112         113         114         115         116         117         118         119         120
 IAtWgt=           1           1           1           1           1           1           1           1           1           1
 AtmWgt=   1.0078250   1.0078250   1.0078250   1.0078250   1.0078250   1.0078250   1.0078250   1.0078250   1.0078250   1.0078250
 NucSpn=           1           1           1           1           1           1           1           1           1           1
 AtZEff=  -0.0000000  -0.0000000  -0.0000000  -0.0000000  -0.0000000  -0.0000000  -0.0000000  -0.0000000  -0.0000000  -0.0000000
 NQMom=    0.0000000   0.0000000   0.0000000   0.0000000   0.0000000   0.0000000   0.0000000   0.0000000   0.0000000   0.0000000
 NMagM=    2.7928460   2.7928460   2.7928460   2.7928460   2.7928460   2.7928460   2.7928460   2.7928460   2.7928460   2.7928460
 AtZNuc=   1.0000000   1.0000000   1.0000000   1.0000000   1.0000000   1.0000000   1.0000000   1.0000000   1.0000000   1.0000000

  Atom       121         122         123         124         125         126         127         128         129         130
 IAtWgt=           1           1           1           1           1           1           1           1           1           1
 AtmWgt=   1.0078250   1.0078250   1.0078250   1.0078250   1.0078250   1.0078250   1.0078250   1.0078250   1.0078250   1.0078250
 NucSpn=           1           1           1           1           1           1           1           1           1           1
 AtZEff=  -0.0000000  -0.0000000  -0.0000000  -0.0000000  -0.0000000  -0.0000000  -0.0000000  -0.0000000  -0.0000000  -0.0000000
 NQMom=    0.0000000   0.0000000   0.0000000   0.0000000   0.0000000   0.0000000   0.0000000   0.0000000   0.0000000   0.0000000
 NMagM=    2.7928460   2.7928460   2.7928460   2.7928460   2.7928460   2.7928460   2.7928460   2.7928460   2.7928460   2.7928460
 AtZNuc=   1.0000000   1.0000000   1.0000000   1.0000000   1.0000000   1.0000000   1.0000000   1.0000000   1.0000000   1.0000000

  Atom       131         132         133         134         135
 IAtWgt=           1           1           1           1           1
 AtmWgt=   1.0078250   1.0078250   1.0078250   1.0078250   1.0078250
 NucSpn=           1           1           1           1           1
 AtZEff=  -0.0000000  -0.0000000  -0.0000000  -0.0000000  -0.0000000
 NQMom=    0.0000000   0.0000000   0.0000000   0.0000000   0.0000000
 NMagM=    2.7928460   2.7928460   2.7928460   2.7928460   2.7928460
 AtZNuc=   1.0000000   1.0000000   1.0000000   1.0000000   1.0000000
 Leave Link  101 at Sat Jul 25 10:35:51 2020, MaxMem=  4026531840 cpu:               3.4 elap:               0.5
 (Enter /opt/ohpc/pub/libs/gaussian/g16-A.03/sandybridge/g16/l103.exe)

 GradGradGradGradGradGradGradGradGradGradGradGradGradGradGradGradGradGrad
 Berny optimization.
 Initialization pass.
                           ----------------------------
                           !    Initial Parameters    !
                           ! (Angstroms and Degrees)  !
 --------------------------                            --------------------------
 ! Name  Definition              Value          Derivative Info.                !
 --------------------------------------------------------------------------------
 ! R1    R(1,2)                  1.3184         estimate D2E/DX2                !
 ! R2    R(1,6)                  1.288          estimate D2E/DX2                !
 ! R3    R(1,92)                 1.0901         estimate D2E/DX2                !
 ! R4    R(2,3)                  1.3479         estimate D2E/DX2                !
 ! R5    R(2,93)                 1.0995         estimate D2E/DX2                !
 ! R6    R(3,4)                  1.3342         estimate D2E/DX2                !
 ! R7    R(4,5)                  1.343          estimate D2E/DX2                !
 ! R8    R(4,7)                  1.495          estimate D2E/DX2                !
 ! R9    R(5,6)                  1.4253         estimate D2E/DX2                !
 ! R10   R(6,94)                 1.1571         estimate D2E/DX2                !
 ! R11   R(7,8)                  1.4013         estimate D2E/DX2                !
 ! R12   R(7,13)                 1.8198         estimate D2E/DX2                !
 ! R13   R(8,9)                  1.3364         estimate D2E/DX2                !
 ! R14   R(8,11)                 1.3573         estimate D2E/DX2                !
 ! R15   R(9,10)                 1.4318         estimate D2E/DX2                !
 ! R16   R(10,95)                1.1378         estimate D2E/DX2                !
 ! R17   R(10,96)                1.0106         estimate D2E/DX2                !
 ! R18   R(10,97)                1.0786         estimate D2E/DX2                !
 ! R19   R(11,12)                1.4449         estimate D2E/DX2                !
 ! R20   R(11,98)                1.1416         estimate D2E/DX2                !
 ! R21   R(12,13)                1.6632         estimate D2E/DX2                !
 ! R22   R(12,14)                1.4464         estimate D2E/DX2                !
 ! R23   R(14,15)                1.3457         estimate D2E/DX2                !
 ! R24   R(14,19)                1.4199         estimate D2E/DX2                !
 ! R25   R(15,16)                1.434          estimate D2E/DX2                !
 ! R26   R(15,99)                1.0296         estimate D2E/DX2                !
 ! R27   R(16,17)                1.3538         estimate D2E/DX2                !
 ! R28   R(17,18)                1.33           estimate D2E/DX2                !
 ! R29   R(17,20)                1.4227         estimate D2E/DX2                !
 ! R30   R(18,19)                1.3879         estimate D2E/DX2                !
 ! R31   R(19,100)               1.0877         estimate D2E/DX2                !
 ! R32   R(20,21)                1.4708         estimate D2E/DX2                !
 ! R33   R(20,26)                1.7446         estimate D2E/DX2                !
 ! R34   R(21,22)                1.3273         estimate D2E/DX2                !
 ! R35   R(21,24)                1.4493         estimate D2E/DX2                !
 ! R36   R(22,23)                1.4166         estimate D2E/DX2                !
 ! R37   R(23,101)               1.0559         estimate D2E/DX2                !
 ! R38   R(23,102)               1.0929         estimate D2E/DX2                !
 ! R39   R(23,103)               1.101          estimate D2E/DX2                !
 ! R40   R(24,25)                1.3927         estimate D2E/DX2                !
 ! R41   R(24,104)               1.0391         estimate D2E/DX2                !
 ! R42   R(25,26)                1.6954         estimate D2E/DX2                !
 ! R43   R(25,27)                1.4501         estimate D2E/DX2                !
 ! R44   R(27,28)                1.379          estimate D2E/DX2                !
 ! R45   R(27,32)                1.4084         estimate D2E/DX2                !
 ! R46   R(28,29)                1.3582         estimate D2E/DX2                !
 ! R47   R(28,105)               1.1214         estimate D2E/DX2                !
 ! R48   R(29,30)                1.3088         estimate D2E/DX2                !
 ! R49   R(30,31)                1.4034         estimate D2E/DX2                !
 ! R50   R(30,33)                1.3893         estimate D2E/DX2                !
 ! R51   R(31,32)                1.3671         estimate D2E/DX2                !
 ! R52   R(32,106)               1.1377         estimate D2E/DX2                !
 ! R53   R(33,34)                1.4431         estimate D2E/DX2                !
 ! R54   R(33,39)                1.7162         estimate D2E/DX2                !
 ! R55   R(34,35)                1.2959         estimate D2E/DX2                !
 ! R56   R(34,37)                1.4407         estimate D2E/DX2                !
 ! R57   R(35,36)                1.3576         estimate D2E/DX2                !
 ! R58   R(36,107)               1.1187         estimate D2E/DX2                !
 ! R59   R(36,108)               1.1201         estimate D2E/DX2                !
 ! R60   R(36,109)               1.0572         estimate D2E/DX2                !
 ! R61   R(37,38)                1.3744         estimate D2E/DX2                !
 ! R62   R(37,110)               1.1656         estimate D2E/DX2                !
 ! R63   R(38,39)                1.6407         estimate D2E/DX2                !
 ! R64   R(38,40)                1.5263         estimate D2E/DX2                !
 ! R65   R(40,41)                1.415          estimate D2E/DX2                !
 ! R66   R(40,45)                1.3009         estimate D2E/DX2                !
 ! R67   R(41,42)                1.316          estimate D2E/DX2                !
 ! R68   R(41,111)               1.0506         estimate D2E/DX2                !
 ! R69   R(42,43)                1.3468         estimate D2E/DX2                !
 ! R70   R(43,44)                1.4123         estimate D2E/DX2                !
 ! R71   R(43,46)                1.4362         estimate D2E/DX2                !
 ! R72   R(44,45)                1.3658         estimate D2E/DX2                !
 ! R73   R(45,112)               1.1026         estimate D2E/DX2                !
 ! R74   R(46,47)                1.348          estimate D2E/DX2                !
 ! R75   R(46,52)                1.7821         estimate D2E/DX2                !
 ! R76   R(47,48)                1.3981         estimate D2E/DX2                !
 ! R77   R(47,50)                1.4395         estimate D2E/DX2                !
 ! R78   R(48,49)                1.4309         estimate D2E/DX2                !
 ! R79   R(49,113)               1.1648         estimate D2E/DX2                !
 ! R80   R(49,114)               1.0575         estimate D2E/DX2                !
 ! R81   R(49,115)               1.1533         estimate D2E/DX2                !
 ! R82   R(50,51)                1.3701         estimate D2E/DX2                !
 ! R83   R(50,116)               1.0344         estimate D2E/DX2                !
 ! R84   R(51,52)                1.6376         estimate D2E/DX2                !
 ! R85   R(51,53)                1.4659         estimate D2E/DX2                !
 ! R86   R(53,54)                1.4471         estimate D2E/DX2                !
 ! R87   R(53,58)                1.4164         estimate D2E/DX2                !
 ! R88   R(54,55)                1.2865         estimate D2E/DX2                !
 ! R89   R(54,117)               1.118          estimate D2E/DX2                !
 ! R90   R(55,56)                1.3822         estimate D2E/DX2                !
 ! R91   R(56,57)                1.3022         estimate D2E/DX2                !
 ! R92   R(56,59)                1.5436         estimate D2E/DX2                !
 ! R93   R(57,58)                1.2894         estimate D2E/DX2                !
 ! R94   R(58,118)               1.132          estimate D2E/DX2                !
 ! R95   R(59,60)                1.3815         estimate D2E/DX2                !
 ! R96   R(59,65)                1.6736         estimate D2E/DX2                !
 ! R97   R(60,61)                1.4203         estimate D2E/DX2                !
 ! R98   R(60,63)                1.439          estimate D2E/DX2                !
 ! R99   R(61,62)                1.3444         estimate D2E/DX2                !
 ! R100  R(62,119)               1.0949         estimate D2E/DX2                !
 ! R101  R(62,120)               1.0857         estimate D2E/DX2                !
 ! R102  R(62,121)               1.113          estimate D2E/DX2                !
 ! R103  R(63,64)                1.3483         estimate D2E/DX2                !
 ! R104  R(63,122)               1.0397         estimate D2E/DX2                !
 ! R105  R(64,65)                1.7333         estimate D2E/DX2                !
 ! R106  R(64,66)                1.4944         estimate D2E/DX2                !
 ! R107  R(66,67)                1.3838         estimate D2E/DX2                !
 ! R108  R(66,71)                1.3747         estimate D2E/DX2                !
 ! R109  R(67,68)                1.2809         estimate D2E/DX2                !
 ! R110  R(67,123)               1.1721         estimate D2E/DX2                !
 ! R111  R(68,69)                1.3631         estimate D2E/DX2                !
 ! R112  R(69,70)                1.3328         estimate D2E/DX2                !
 ! R113  R(69,72)                1.5173         estimate D2E/DX2                !
 ! R114  R(70,71)                1.3515         estimate D2E/DX2                !
 ! R115  R(71,124)               1.0799         estimate D2E/DX2                !
 ! R116  R(72,73)                1.3732         estimate D2E/DX2                !
 ! R117  R(72,78)                1.6408         estimate D2E/DX2                !
 ! R118  R(73,74)                1.4397         estimate D2E/DX2                !
 ! R119  R(73,76)                1.3588         estimate D2E/DX2                !
 ! R120  R(74,75)                1.4524         estimate D2E/DX2                !
 ! R121  R(75,125)               1.1075         estimate D2E/DX2                !
 ! R122  R(75,126)               1.1419         estimate D2E/DX2                !
 ! R123  R(75,127)               1.0801         estimate D2E/DX2                !
 ! R124  R(76,77)                1.4252         estimate D2E/DX2                !
 ! R125  R(76,128)               1.0576         estimate D2E/DX2                !
 ! R126  R(77,78)                1.7122         estimate D2E/DX2                !
 ! R127  R(77,79)                1.4888         estimate D2E/DX2                !
 ! R128  R(79,80)                1.3772         estimate D2E/DX2                !
 ! R129  R(79,84)                1.3635         estimate D2E/DX2                !
 ! R130  R(80,81)                1.3576         estimate D2E/DX2                !
 ! R131  R(80,129)               1.1234         estimate D2E/DX2                !
 ! R132  R(81,82)                1.3164         estimate D2E/DX2                !
 ! R133  R(82,83)                1.3856         estimate D2E/DX2                !
 ! R134  R(82,85)                1.4582         estimate D2E/DX2                !
 ! R135  R(83,84)                1.3858         estimate D2E/DX2                !
 ! R136  R(84,130)               1.0554         estimate D2E/DX2                !
 ! R137  R(85,86)                1.3876         estimate D2E/DX2                !
 ! R138  R(85,91)                1.765          estimate D2E/DX2                !
 ! R139  R(86,87)                1.2688         estimate D2E/DX2                !
 ! R140  R(86,89)                1.4775         estimate D2E/DX2                !
 ! R141  R(87,88)                1.4487         estimate D2E/DX2                !
 ! R142  R(88,131)               1.0981         estimate D2E/DX2                !
 ! R143  R(88,132)               1.1328         estimate D2E/DX2                !
 ! R144  R(88,133)               1.0385         estimate D2E/DX2                !
 ! R145  R(89,90)                1.2983         estimate D2E/DX2                !
 ! R146  R(89,134)               1.065          estimate D2E/DX2                !
 ! R147  R(90,91)                1.7247         estimate D2E/DX2                !
 ! R148  R(90,135)               1.1347         estimate D2E/DX2                !
 ! A1    A(2,1,6)              118.3069         estimate D2E/DX2                !
 ! A2    A(2,1,92)             119.6044         estimate D2E/DX2                !
 ! A3    A(6,1,92)             122.0323         estimate D2E/DX2                !
 ! A4    A(1,2,3)              125.5238         estimate D2E/DX2                !
 ! A5    A(1,2,93)             123.2114         estimate D2E/DX2                !
 ! A6    A(3,2,93)             111.2418         estimate D2E/DX2                !
 ! A7    A(2,3,4)              111.5709         estimate D2E/DX2                !
 ! A8    A(3,4,5)              130.5767         estimate D2E/DX2                !
 ! A9    A(3,4,7)              114.9194         estimate D2E/DX2                !
 ! A10   A(5,4,7)              114.4982         estimate D2E/DX2                !
 ! A11   A(4,5,6)              109.7359         estimate D2E/DX2                !
 ! A12   A(1,6,5)              124.199          estimate D2E/DX2                !
 ! A13   A(1,6,94)             124.9339         estimate D2E/DX2                !
 ! A14   A(5,6,94)             110.8607         estimate D2E/DX2                !
 ! A15   A(4,7,8)              133.9159         estimate D2E/DX2                !
 ! A16   A(4,7,13)             118.6036         estimate D2E/DX2                !
 ! A17   A(8,7,13)             107.4585         estimate D2E/DX2                !
 ! A18   A(7,8,9)              115.3687         estimate D2E/DX2                !
 ! A19   A(7,8,11)             114.1209         estimate D2E/DX2                !
 ! A20   A(9,8,11)             130.3639         estimate D2E/DX2                !
 ! A21   A(8,9,10)             113.6647         estimate D2E/DX2                !
 ! A22   A(9,10,95)            106.7269         estimate D2E/DX2                !
 ! A23   A(9,10,96)            113.4632         estimate D2E/DX2                !
 ! A24   A(9,10,97)            108.1803         estimate D2E/DX2                !
 ! A25   A(95,10,96)           116.2366         estimate D2E/DX2                !
 ! A26   A(95,10,97)           103.4093         estimate D2E/DX2                !
 ! A27   A(96,10,97)           108.1305         estimate D2E/DX2                !
 ! A28   A(8,11,12)            114.8076         estimate D2E/DX2                !
 ! A29   A(8,11,98)            123.6225         estimate D2E/DX2                !
 ! A30   A(12,11,98)           121.3065         estimate D2E/DX2                !
 ! A31   A(11,12,13)           110.1178         estimate D2E/DX2                !
 ! A32   A(11,12,14)           125.7625         estimate D2E/DX2                !
 ! A33   A(13,12,14)           124.047          estimate D2E/DX2                !
 ! A34   A(7,13,12)             93.3972         estimate D2E/DX2                !
 ! A35   A(12,14,15)           123.3124         estimate D2E/DX2                !
 ! A36   A(12,14,19)           120.4087         estimate D2E/DX2                !
 ! A37   A(15,14,19)           115.4155         estimate D2E/DX2                !
 ! A38   A(14,15,16)           123.1892         estimate D2E/DX2                !
 ! A39   A(14,15,99)           122.4616         estimate D2E/DX2                !
 ! A40   A(16,15,99)           114.0681         estimate D2E/DX2                !
 ! A41   A(15,16,17)           116.2344         estimate D2E/DX2                !
 ! A42   A(16,17,18)           124.3169         estimate D2E/DX2                !
 ! A43   A(16,17,20)           113.6917         estimate D2E/DX2                !
 ! A44   A(18,17,20)           121.9017         estimate D2E/DX2                !
 ! A45   A(17,18,19)           117.9882         estimate D2E/DX2                !
 ! A46   A(14,19,18)           122.3821         estimate D2E/DX2                !
 ! A47   A(14,19,100)          122.2121         estimate D2E/DX2                !
 ! A48   A(18,19,100)          115.2509         estimate D2E/DX2                !
 ! A49   A(17,20,21)           126.4021         estimate D2E/DX2                !
 ! A50   A(17,20,26)           125.0386         estimate D2E/DX2                !
 ! A51   A(21,20,26)           108.5525         estimate D2E/DX2                !
 ! A52   A(20,21,22)           118.6574         estimate D2E/DX2                !
 ! A53   A(20,21,24)           109.7636         estimate D2E/DX2                !
 ! A54   A(22,21,24)           131.5574         estimate D2E/DX2                !
 ! A55   A(21,22,23)           112.9747         estimate D2E/DX2                !
 ! A56   A(22,23,101)          108.2526         estimate D2E/DX2                !
 ! A57   A(22,23,102)          115.6073         estimate D2E/DX2                !
 ! A58   A(22,23,103)          109.6104         estimate D2E/DX2                !
 ! A59   A(101,23,102)         106.0688         estimate D2E/DX2                !
 ! A60   A(101,23,103)         110.9759         estimate D2E/DX2                !
 ! A61   A(102,23,103)         106.2845         estimate D2E/DX2                !
 ! A62   A(21,24,25)           115.5777         estimate D2E/DX2                !
 ! A63   A(21,24,104)          120.8869         estimate D2E/DX2                !
 ! A64   A(25,24,104)          122.4396         estimate D2E/DX2                !
 ! A65   A(24,25,26)           109.8028         estimate D2E/DX2                !
 ! A66   A(24,25,27)           128.2549         estimate D2E/DX2                !
 ! A67   A(26,25,27)           121.1568         estimate D2E/DX2                !
 ! A68   A(20,26,25)            95.849          estimate D2E/DX2                !
 ! A69   A(25,27,28)           125.4169         estimate D2E/DX2                !
 ! A70   A(25,27,32)           122.5537         estimate D2E/DX2                !
 ! A71   A(28,27,32)           111.4591         estimate D2E/DX2                !
 ! A72   A(27,28,29)           123.6978         estimate D2E/DX2                !
 ! A73   A(27,28,105)          119.6851         estimate D2E/DX2                !
 ! A74   A(29,28,105)          116.1572         estimate D2E/DX2                !
 ! A75   A(28,29,30)           120.676          estimate D2E/DX2                !
 ! A76   A(29,30,31)           122.5675         estimate D2E/DX2                !
 ! A77   A(29,30,33)           119.7028         estimate D2E/DX2                !
 ! A78   A(31,30,33)           117.7137         estimate D2E/DX2                !
 ! A79   A(30,31,32)           113.5356         estimate D2E/DX2                !
 ! A80   A(27,32,31)           127.4809         estimate D2E/DX2                !
 ! A81   A(27,32,106)          124.0623         estimate D2E/DX2                !
 ! A82   A(31,32,106)          108.1983         estimate D2E/DX2                !
 ! A83   A(30,33,34)           130.1921         estimate D2E/DX2                !
 ! A84   A(30,33,39)           121.8039         estimate D2E/DX2                !
 ! A85   A(34,33,39)           107.979          estimate D2E/DX2                !
 ! A86   A(33,34,35)           122.4878         estimate D2E/DX2                !
 ! A87   A(33,34,37)           109.025          estimate D2E/DX2                !
 ! A88   A(35,34,37)           127.9995         estimate D2E/DX2                !
 ! A89   A(34,35,36)           119.1997         estimate D2E/DX2                !
 ! A90   A(35,36,107)          110.8547         estimate D2E/DX2                !
 ! A91   A(35,36,108)          108.891          estimate D2E/DX2                !
 ! A92   A(35,36,109)          113.7586         estimate D2E/DX2                !
 ! A93   A(107,36,108)         111.9257         estimate D2E/DX2                !
 ! A94   A(107,36,109)         104.8464         estimate D2E/DX2                !
 ! A95   A(108,36,109)         106.4963         estimate D2E/DX2                !
 ! A96   A(34,37,38)           116.3056         estimate D2E/DX2                !
 ! A97   A(34,37,110)          119.9336         estimate D2E/DX2                !
 ! A98   A(38,37,110)          123.6815         estimate D2E/DX2                !
 ! A99   A(37,38,39)           108.9781         estimate D2E/DX2                !
 ! A100  A(37,38,40)           127.9643         estimate D2E/DX2                !
 ! A101  A(39,38,40)           122.9094         estimate D2E/DX2                !
 ! A102  A(33,39,38)            97.5635         estimate D2E/DX2                !
 ! A103  A(38,40,41)           120.8484         estimate D2E/DX2                !
 ! A104  A(38,40,45)           122.1884         estimate D2E/DX2                !
 ! A105  A(41,40,45)           116.9629         estimate D2E/DX2                !
 ! A106  A(40,41,42)           121.3772         estimate D2E/DX2                !
 ! A107  A(40,41,111)          121.8976         estimate D2E/DX2                !
 ! A108  A(42,41,111)          116.6592         estimate D2E/DX2                !
 ! A109  A(41,42,43)           119.7659         estimate D2E/DX2                !
 ! A110  A(42,43,44)           121.0676         estimate D2E/DX2                !
 ! A111  A(42,43,46)           118.8469         estimate D2E/DX2                !
 ! A112  A(44,43,46)           119.4056         estimate D2E/DX2                !
 ! A113  A(43,44,45)           114.9461         estimate D2E/DX2                !
 ! A114  A(40,45,44)           125.313          estimate D2E/DX2                !
 ! A115  A(40,45,112)          122.4483         estimate D2E/DX2                !
 ! A116  A(44,45,112)          112.2146         estimate D2E/DX2                !
 ! A117  A(43,46,47)           130.4549         estimate D2E/DX2                !
 ! A118  A(43,46,52)           121.2042         estimate D2E/DX2                !
 ! A119  A(47,46,52)           107.8226         estimate D2E/DX2                !
 ! A120  A(46,47,48)           118.3708         estimate D2E/DX2                !
 ! A121  A(46,47,50)           114.8904         estimate D2E/DX2                !
 ! A122  A(48,47,50)           126.7208         estimate D2E/DX2                !
 ! A123  A(47,48,49)           113.458          estimate D2E/DX2                !
 ! A124  A(48,49,113)          111.667          estimate D2E/DX2                !
 ! A125  A(48,49,114)          112.9958         estimate D2E/DX2                !
 ! A126  A(48,49,115)          108.2737         estimate D2E/DX2                !
 ! A127  A(113,49,114)         110.0397         estimate D2E/DX2                !
 ! A128  A(113,49,115)         105.5938         estimate D2E/DX2                !
 ! A129  A(114,49,115)         107.913          estimate D2E/DX2                !
 ! A130  A(47,50,51)           109.8864         estimate D2E/DX2                !
 ! A131  A(47,50,116)          123.8232         estimate D2E/DX2                !
 ! A132  A(51,50,116)          126.1009         estimate D2E/DX2                !
 ! A133  A(50,51,52)           114.4292         estimate D2E/DX2                !
 ! A134  A(50,51,53)           125.2681         estimate D2E/DX2                !
 ! A135  A(52,51,53)           120.2353         estimate D2E/DX2                !
 ! A136  A(46,52,51)            92.5736         estimate D2E/DX2                !
 ! A137  A(51,53,54)           123.1046         estimate D2E/DX2                !
 ! A138  A(51,53,58)           128.5193         estimate D2E/DX2                !
 ! A139  A(54,53,58)           108.3418         estimate D2E/DX2                !
 ! A140  A(53,54,55)           127.4216         estimate D2E/DX2                !
 ! A141  A(53,54,117)          120.7334         estimate D2E/DX2                !
 ! A142  A(55,54,117)          111.501          estimate D2E/DX2                !
 ! A143  A(54,55,56)           114.1741         estimate D2E/DX2                !
 ! A144  A(55,56,57)           125.3206         estimate D2E/DX2                !
 ! A145  A(55,56,59)           115.0446         estimate D2E/DX2                !
 ! A146  A(57,56,59)           119.5648         estimate D2E/DX2                !
 ! A147  A(56,57,58)           117.5499         estimate D2E/DX2                !
 ! A148  A(53,58,57)           126.7561         estimate D2E/DX2                !
 ! A149  A(53,58,118)          116.5413         estimate D2E/DX2                !
 ! A150  A(57,58,118)          116.5949         estimate D2E/DX2                !
 ! A151  A(56,59,60)           130.4916         estimate D2E/DX2                !
 ! A152  A(56,59,65)           117.6245         estimate D2E/DX2                !
 ! A153  A(60,59,65)           111.7803         estimate D2E/DX2                !
 ! A154  A(59,60,61)           119.3364         estimate D2E/DX2                !
 ! A155  A(59,60,63)           113.5494         estimate D2E/DX2                !
 ! A156  A(61,60,63)           127.0403         estimate D2E/DX2                !
 ! A157  A(60,61,62)           113.3704         estimate D2E/DX2                !
 ! A158  A(61,62,119)          109.1454         estimate D2E/DX2                !
 ! A159  A(61,62,120)          114.5284         estimate D2E/DX2                !
 ! A160  A(61,62,121)          117.756          estimate D2E/DX2                !
 ! A161  A(119,62,120)         104.5481         estimate D2E/DX2                !
 ! A162  A(119,62,121)         103.7153         estimate D2E/DX2                !
 ! A163  A(120,62,121)         105.8558         estimate D2E/DX2                !
 ! A164  A(60,63,64)           109.4842         estimate D2E/DX2                !
 ! A165  A(60,63,122)          122.6308         estimate D2E/DX2                !
 ! A166  A(64,63,122)          127.8181         estimate D2E/DX2                !
 ! A167  A(63,64,65)           113.676          estimate D2E/DX2                !
 ! A168  A(63,64,66)           129.3138         estimate D2E/DX2                !
 ! A169  A(65,64,66)           117.0099         estimate D2E/DX2                !
 ! A170  A(59,65,64)            91.5057         estimate D2E/DX2                !
 ! A171  A(64,66,67)           123.8728         estimate D2E/DX2                !
 ! A172  A(64,66,71)           125.715          estimate D2E/DX2                !
 ! A173  A(67,66,71)           110.1989         estimate D2E/DX2                !
 ! A174  A(66,67,68)           128.4445         estimate D2E/DX2                !
 ! A175  A(66,67,123)          116.9467         estimate D2E/DX2                !
 ! A176  A(68,67,123)          114.3264         estimate D2E/DX2                !
 ! A177  A(67,68,69)           115.0626         estimate D2E/DX2                !
 ! A178  A(68,69,70)           125.1101         estimate D2E/DX2                !
 ! A179  A(68,69,72)           117.2332         estimate D2E/DX2                !
 ! A180  A(70,69,72)           116.8236         estimate D2E/DX2                !
 ! A181  A(69,70,71)           114.0497         estimate D2E/DX2                !
 ! A182  A(66,71,70)           126.8741         estimate D2E/DX2                !
 ! A183  A(66,71,124)          122.031          estimate D2E/DX2                !
 ! A184  A(70,71,124)          111.0773         estimate D2E/DX2                !
 ! A185  A(69,72,73)           130.4734         estimate D2E/DX2                !
 ! A186  A(69,72,78)           118.5545         estimate D2E/DX2                !
 ! A187  A(73,72,78)           110.6711         estimate D2E/DX2                !
 ! A188  A(72,73,74)           119.2278         estimate D2E/DX2                !
 ! A189  A(72,73,76)           115.2164         estimate D2E/DX2                !
 ! A190  A(74,73,76)           125.4884         estimate D2E/DX2                !
 ! A191  A(73,74,75)           114.1316         estimate D2E/DX2                !
 ! A192  A(74,75,125)          104.9102         estimate D2E/DX2                !
 ! A193  A(74,75,126)          110.5919         estimate D2E/DX2                !
 ! A194  A(74,75,127)          109.5144         estimate D2E/DX2                !
 ! A195  A(125,75,126)         107.817          estimate D2E/DX2                !
 ! A196  A(125,75,127)         110.1062         estimate D2E/DX2                !
 ! A197  A(126,75,127)         113.5362         estimate D2E/DX2                !
 ! A198  A(73,76,77)           111.1449         estimate D2E/DX2                !
 ! A199  A(73,76,128)          132.0323         estimate D2E/DX2                !
 ! A200  A(77,76,128)          116.7534         estimate D2E/DX2                !
 ! A201  A(76,77,78)           108.4386         estimate D2E/DX2                !
 ! A202  A(76,77,79)           130.727          estimate D2E/DX2                !
 ! A203  A(78,77,79)           120.6298         estimate D2E/DX2                !
 ! A204  A(72,78,77)            94.417          estimate D2E/DX2                !
 ! A205  A(77,79,80)           120.3572         estimate D2E/DX2                !
 ! A206  A(77,79,84)           124.5588         estimate D2E/DX2                !
 ! A207  A(80,79,84)           114.5281         estimate D2E/DX2                !
 ! A208  A(79,80,81)           125.7455         estimate D2E/DX2                !
 ! A209  A(79,80,129)          117.8139         estimate D2E/DX2                !
 ! A210  A(81,80,129)          116.282          estimate D2E/DX2                !
 ! A211  A(80,81,82)           115.0396         estimate D2E/DX2                !
 ! A212  A(81,82,83)           125.9343         estimate D2E/DX2                !
 ! A213  A(81,82,85)           117.6287         estimate D2E/DX2                !
 ! A214  A(83,82,85)           115.6205         estimate D2E/DX2                !
 ! A215  A(82,83,84)           114.6189         estimate D2E/DX2                !
 ! A216  A(79,84,83)           123.3934         estimate D2E/DX2                !
 ! A217  A(79,84,130)          125.4183         estimate D2E/DX2                !
 ! A218  A(83,84,130)          110.8781         estimate D2E/DX2                !
 ! A219  A(82,85,86)           128.6993         estimate D2E/DX2                !
 ! A220  A(82,85,91)           118.0193         estimate D2E/DX2                !
 ! A221  A(86,85,91)           112.7292         estimate D2E/DX2                !
 ! A222  A(85,86,87)           123.1262         estimate D2E/DX2                !
 ! A223  A(85,86,89)           107.6406         estimate D2E/DX2                !
 ! A224  A(87,86,89)           129.2004         estimate D2E/DX2                !
 ! A225  A(86,87,88)           118.9301         estimate D2E/DX2                !
 ! A226  A(87,88,131)          110.1398         estimate D2E/DX2                !
 ! A227  A(87,88,132)          109.3963         estimate D2E/DX2                !
 ! A228  A(87,88,133)          107.5653         estimate D2E/DX2                !
 ! A229  A(131,88,132)         111.179          estimate D2E/DX2                !
 ! A230  A(131,88,133)         112.5647         estimate D2E/DX2                !
 ! A231  A(132,88,133)         105.8276         estimate D2E/DX2                !
 ! A232  A(86,89,90)           116.2417         estimate D2E/DX2                !
 ! A233  A(86,89,134)          122.7345         estimate D2E/DX2                !
 ! A234  A(90,89,134)          120.8398         estimate D2E/DX2                !
 ! A235  A(89,90,91)           112.7725         estimate D2E/DX2                !
 ! A236  A(89,90,135)          131.2398         estimate D2E/DX2                !
 ! A237  A(91,90,135)          115.9286         estimate D2E/DX2                !
 ! A238  A(85,91,90)            90.4965         estimate D2E/DX2                !
 ! D1    D(6,1,2,3)             -0.5131         estimate D2E/DX2                !
 ! D2    D(6,1,2,93)          -178.6087         estimate D2E/DX2                !
 ! D3    D(92,1,2,3)           176.8126         estimate D2E/DX2                !
 ! D4    D(92,1,2,93)           -1.283          estimate D2E/DX2                !
 ! D5    D(2,1,6,5)             -0.8182         estimate D2E/DX2                !
 ! D6    D(2,1,6,94)          -179.8137         estimate D2E/DX2                !
 ! D7    D(92,1,6,5)          -178.0753         estimate D2E/DX2                !
 ! D8    D(92,1,6,94)            2.9291         estimate D2E/DX2                !
 ! D9    D(1,2,3,4)              2.4801         estimate D2E/DX2                !
 ! D10   D(93,2,3,4)          -179.2293         estimate D2E/DX2                !
 ! D11   D(2,3,4,5)             -3.7544         estimate D2E/DX2                !
 ! D12   D(2,3,4,7)            177.1798         estimate D2E/DX2                !
 ! D13   D(3,4,5,6)              2.6332         estimate D2E/DX2                !
 ! D14   D(7,4,5,6)           -178.2978         estimate D2E/DX2                !
 ! D15   D(3,4,7,8)            -24.8881         estimate D2E/DX2                !
 ! D16   D(3,4,7,13)           153.1589         estimate D2E/DX2                !
 ! D17   D(5,4,7,8)            155.8916         estimate D2E/DX2                !
 ! D18   D(5,4,7,13)           -26.0613         estimate D2E/DX2                !
 ! D19   D(4,5,6,1)             -0.0682         estimate D2E/DX2                !
 ! D20   D(4,5,6,94)           179.0505         estimate D2E/DX2                !
 ! D21   D(4,7,8,9)             -6.2826         estimate D2E/DX2                !
 ! D22   D(4,7,8,11)           177.6536         estimate D2E/DX2                !
 ! D23   D(13,7,8,9)           175.5148         estimate D2E/DX2                !
 ! D24   D(13,7,8,11)           -0.5491         estimate D2E/DX2                !
 ! D25   D(4,7,13,12)         -179.7868         estimate D2E/DX2                !
 ! D26   D(8,7,13,12)           -1.2614         estimate D2E/DX2                !
 ! D27   D(7,8,9,10)           179.0886         estimate D2E/DX2                !
 ! D28   D(11,8,9,10)           -5.6278         estimate D2E/DX2                !
 ! D29   D(7,8,11,12)            2.572          estimate D2E/DX2                !
 ! D30   D(7,8,11,98)          176.7318         estimate D2E/DX2                !
 ! D31   D(9,8,11,12)         -172.7587         estimate D2E/DX2                !
 ! D32   D(9,8,11,98)            1.401          estimate D2E/DX2                !
 ! D33   D(8,9,10,95)           70.0453         estimate D2E/DX2                !
 ! D34   D(8,9,10,96)          -59.2755         estimate D2E/DX2                !
 ! D35   D(8,9,10,97)         -179.249          estimate D2E/DX2                !
 ! D36   D(8,11,12,13)          -3.4863         estimate D2E/DX2                !
 ! D37   D(8,11,12,14)         179.5235         estimate D2E/DX2                !
 ! D38   D(98,11,12,13)       -177.7949         estimate D2E/DX2                !
 ! D39   D(98,11,12,14)          5.2149         estimate D2E/DX2                !
 ! D40   D(11,12,13,7)           2.5822         estimate D2E/DX2                !
 ! D41   D(14,12,13,7)         179.6347         estimate D2E/DX2                !
 ! D42   D(11,12,14,15)        -39.7823         estimate D2E/DX2                !
 ! D43   D(11,12,14,19)        151.3509         estimate D2E/DX2                !
 ! D44   D(13,12,14,15)        143.6291         estimate D2E/DX2                !
 ! D45   D(13,12,14,19)        -25.2378         estimate D2E/DX2                !
 ! D46   D(12,14,15,16)       -177.6482         estimate D2E/DX2                !
 ! D47   D(12,14,15,99)          8.8058         estimate D2E/DX2                !
 ! D48   D(19,14,15,16)         -8.2727         estimate D2E/DX2                !
 ! D49   D(19,14,15,99)        178.1813         estimate D2E/DX2                !
 ! D50   D(12,14,19,18)        175.7337         estimate D2E/DX2                !
 ! D51   D(12,14,19,100)        -9.0062         estimate D2E/DX2                !
 ! D52   D(15,14,19,18)          6.025          estimate D2E/DX2                !
 ! D53   D(15,14,19,100)      -178.7149         estimate D2E/DX2                !
 ! D54   D(14,15,16,17)          5.3198         estimate D2E/DX2                !
 ! D55   D(99,15,16,17)        179.3575         estimate D2E/DX2                !
 ! D56   D(15,16,17,18)          0.5972         estimate D2E/DX2                !
 ! D57   D(15,16,17,20)        177.1993         estimate D2E/DX2                !
 ! D58   D(16,17,18,19)         -2.6483         estimate D2E/DX2                !
 ! D59   D(20,17,18,19)       -178.9828         estimate D2E/DX2                !
 ! D60   D(16,17,20,21)       -164.8798         estimate D2E/DX2                !
 ! D61   D(16,17,20,26)         14.0613         estimate D2E/DX2                !
 ! D62   D(18,17,20,21)         11.8147         estimate D2E/DX2                !
 ! D63   D(18,17,20,26)       -169.2443         estimate D2E/DX2                !
 ! D64   D(17,18,19,14)         -0.7758         estimate D2E/DX2                !
 ! D65   D(17,18,19,100)      -176.3424         estimate D2E/DX2                !
 ! D66   D(17,20,21,22)          0.784          estimate D2E/DX2                !
 ! D67   D(17,20,21,24)        179.2883         estimate D2E/DX2                !
 ! D68   D(26,20,21,22)       -178.3014         estimate D2E/DX2                !
 ! D69   D(26,20,21,24)          0.2029         estimate D2E/DX2                !
 ! D70   D(17,20,26,25)       -175.7659         estimate D2E/DX2                !
 ! D71   D(21,20,26,25)          3.3351         estimate D2E/DX2                !
 ! D72   D(20,21,22,23)       -174.0259         estimate D2E/DX2                !
 ! D73   D(24,21,22,23)          7.8554         estimate D2E/DX2                !
 ! D74   D(20,21,24,25)         -4.8609         estimate D2E/DX2                !
 ! D75   D(20,21,24,104)      -173.1761         estimate D2E/DX2                !
 ! D76   D(22,21,24,25)        173.385          estimate D2E/DX2                !
 ! D77   D(22,21,24,104)         5.0698         estimate D2E/DX2                !
 ! D78   D(21,22,23,101)       172.0986         estimate D2E/DX2                !
 ! D79   D(21,22,23,102)        53.3303         estimate D2E/DX2                !
 ! D80   D(21,22,23,103)       -66.7263         estimate D2E/DX2                !
 ! D81   D(21,24,25,26)          7.3152         estimate D2E/DX2                !
 ! D82   D(21,24,25,27)        177.1126         estimate D2E/DX2                !
 ! D83   D(104,24,25,26)       175.4306         estimate D2E/DX2                !
 ! D84   D(104,24,25,27)       -14.7719         estimate D2E/DX2                !
 ! D85   D(24,25,26,20)         -6.0546         estimate D2E/DX2                !
 ! D86   D(27,25,26,20)       -176.7003         estimate D2E/DX2                !
 ! D87   D(24,25,27,28)         -3.8228         estimate D2E/DX2                !
 ! D88   D(24,25,27,32)        166.767          estimate D2E/DX2                !
 ! D89   D(26,25,27,28)        164.9473         estimate D2E/DX2                !
 ! D90   D(26,25,27,32)        -24.4628         estimate D2E/DX2                !
 ! D91   D(25,27,28,29)        179.0062         estimate D2E/DX2                !
 ! D92   D(25,27,28,105)        -9.082          estimate D2E/DX2                !
 ! D93   D(32,27,28,29)          7.5217         estimate D2E/DX2                !
 ! D94   D(32,27,28,105)       179.4336         estimate D2E/DX2                !
 ! D95   D(25,27,32,31)        179.6349         estimate D2E/DX2                !
 ! D96   D(25,27,32,106)         6.1785         estimate D2E/DX2                !
 ! D97   D(28,27,32,31)         -8.5965         estimate D2E/DX2                !
 ! D98   D(28,27,32,106)       177.9471         estimate D2E/DX2                !
 ! D99   D(27,28,29,30)         -5.2534         estimate D2E/DX2                !
 ! D100  D(105,28,29,30)      -177.4267         estimate D2E/DX2                !
 ! D101  D(28,29,30,31)          2.638          estimate D2E/DX2                !
 ! D102  D(28,29,30,33)       -175.8739         estimate D2E/DX2                !
 ! D103  D(29,30,31,32)         -3.0751         estimate D2E/DX2                !
 ! D104  D(33,30,31,32)        175.4648         estimate D2E/DX2                !
 ! D105  D(29,30,33,34)        159.5091         estimate D2E/DX2                !
 ! D106  D(29,30,33,39)        -22.5401         estimate D2E/DX2                !
 ! D107  D(31,30,33,34)        -19.0743         estimate D2E/DX2                !
 ! D108  D(31,30,33,39)        158.8765         estimate D2E/DX2                !
 ! D109  D(30,31,32,27)          6.5463         estimate D2E/DX2                !
 ! D110  D(30,31,32,106)      -179.1571         estimate D2E/DX2                !
 ! D111  D(30,33,34,35)         -5.7382         estimate D2E/DX2                !
 ! D112  D(30,33,34,37)       -178.3132         estimate D2E/DX2                !
 ! D113  D(39,33,34,35)        176.0926         estimate D2E/DX2                !
 ! D114  D(39,33,34,37)          3.5176         estimate D2E/DX2                !
 ! D115  D(30,33,39,38)        179.815          estimate D2E/DX2                !
 ! D116  D(34,33,39,38)         -1.8306         estimate D2E/DX2                !
 ! D117  D(33,34,35,36)        169.8412         estimate D2E/DX2                !
 ! D118  D(37,34,35,36)        -19.0776         estimate D2E/DX2                !
 ! D119  D(33,34,37,38)         -4.2678         estimate D2E/DX2                !
 ! D120  D(33,34,37,110)       178.8517         estimate D2E/DX2                !
 ! D121  D(35,34,37,38)       -176.3168         estimate D2E/DX2                !
 ! D122  D(35,34,37,110)         6.8028         estimate D2E/DX2                !
 ! D123  D(34,35,36,107)       -51.2485         estimate D2E/DX2                !
 ! D124  D(34,35,36,108)        72.3037         estimate D2E/DX2                !
 ! D125  D(34,35,36,109)      -169.1061         estimate D2E/DX2                !
 ! D126  D(34,37,38,39)          2.8982         estimate D2E/DX2                !
 ! D127  D(34,37,38,40)        178.5266         estimate D2E/DX2                !
 ! D128  D(110,37,38,39)       179.6493         estimate D2E/DX2                !
 ! D129  D(110,37,38,40)        -4.7224         estimate D2E/DX2                !
 ! D130  D(37,38,39,33)         -0.5291         estimate D2E/DX2                !
 ! D131  D(40,38,39,33)       -176.4242         estimate D2E/DX2                !
 ! D132  D(37,38,40,41)       -142.7431         estimate D2E/DX2                !
 ! D133  D(37,38,40,45)         37.425          estimate D2E/DX2                !
 ! D134  D(39,38,40,41)         32.3314         estimate D2E/DX2                !
 ! D135  D(39,38,40,45)       -147.5005         estimate D2E/DX2                !
 ! D136  D(38,40,41,42)       -179.6245         estimate D2E/DX2                !
 ! D137  D(38,40,41,111)        -2.679          estimate D2E/DX2                !
 ! D138  D(45,40,41,42)          0.2158         estimate D2E/DX2                !
 ! D139  D(45,40,41,111)       177.1613         estimate D2E/DX2                !
 ! D140  D(38,40,45,44)        179.3435         estimate D2E/DX2                !
 ! D141  D(38,40,45,112)         1.2709         estimate D2E/DX2                !
 ! D142  D(41,40,45,44)         -0.4946         estimate D2E/DX2                !
 ! D143  D(41,40,45,112)      -178.5671         estimate D2E/DX2                !
 ! D144  D(40,41,42,43)          4.5014         estimate D2E/DX2                !
 ! D145  D(111,41,42,43)      -172.597          estimate D2E/DX2                !
 ! D146  D(41,42,43,44)         -8.9332         estimate D2E/DX2                !
 ! D147  D(41,42,43,46)       -179.4274         estimate D2E/DX2                !
 ! D148  D(42,43,44,45)          8.3            estimate D2E/DX2                !
 ! D149  D(46,43,44,45)        178.7419         estimate D2E/DX2                !
 ! D150  D(42,43,46,47)        -25.7592         estimate D2E/DX2                !
 ! D151  D(42,43,46,52)        163.5663         estimate D2E/DX2                !
 ! D152  D(44,43,46,47)        163.5858         estimate D2E/DX2                !
 ! D153  D(44,43,46,52)         -7.0887         estimate D2E/DX2                !
 ! D154  D(43,44,45,40)         -3.5921         estimate D2E/DX2                !
 ! D155  D(43,44,45,112)       174.651          estimate D2E/DX2                !
 ! D156  D(43,46,47,48)          5.009          estimate D2E/DX2                !
 ! D157  D(43,46,47,50)       -176.4305         estimate D2E/DX2                !
 ! D158  D(52,46,47,48)        176.6378         estimate D2E/DX2                !
 ! D159  D(52,46,47,50)         -4.8017         estimate D2E/DX2                !
 ! D160  D(43,46,52,51)        178.3724         estimate D2E/DX2                !
 ! D161  D(47,46,52,51)          5.8141         estimate D2E/DX2                !
 ! D162  D(46,47,48,49)        155.8696         estimate D2E/DX2                !
 ! D163  D(50,47,48,49)        -22.5013         estimate D2E/DX2                !
 ! D164  D(46,47,50,51)          1.0866         estimate D2E/DX2                !
 ! D165  D(46,47,50,116)      -174.1768         estimate D2E/DX2                !
 ! D166  D(48,47,50,51)        179.5064         estimate D2E/DX2                !
 ! D167  D(48,47,50,116)         4.243          estimate D2E/DX2                !
 ! D168  D(47,48,49,113)       -56.2618         estimate D2E/DX2                !
 ! D169  D(47,48,49,114)        68.4295         estimate D2E/DX2                !
 ! D170  D(47,48,49,115)      -172.098          estimate D2E/DX2                !
 ! D171  D(47,50,51,52)          3.6888         estimate D2E/DX2                !
 ! D172  D(47,50,51,53)       -179.3069         estimate D2E/DX2                !
 ! D173  D(116,50,51,52)       178.8183         estimate D2E/DX2                !
 ! D174  D(116,50,51,53)        -4.1773         estimate D2E/DX2                !
 ! D175  D(50,51,52,46)         -5.5217         estimate D2E/DX2                !
 ! D176  D(53,51,52,46)        177.3091         estimate D2E/DX2                !
 ! D177  D(50,51,53,54)         33.8718         estimate D2E/DX2                !
 ! D178  D(50,51,53,58)       -148.5122         estimate D2E/DX2                !
 ! D179  D(52,51,53,54)       -149.2853         estimate D2E/DX2                !
 ! D180  D(52,51,53,58)         28.3307         estimate D2E/DX2                !
 ! D181  D(51,53,54,55)       -174.9592         estimate D2E/DX2                !
 ! D182  D(51,53,54,117)        -2.2897         estimate D2E/DX2                !
 ! D183  D(58,53,54,55)          7.0057         estimate D2E/DX2                !
 ! D184  D(58,53,54,117)       179.6751         estimate D2E/DX2                !
 ! D185  D(51,53,58,57)       -179.5683         estimate D2E/DX2                !
 ! D186  D(51,53,58,118)         4.3545         estimate D2E/DX2                !
 ! D187  D(54,53,58,57)         -1.672          estimate D2E/DX2                !
 ! D188  D(54,53,58,118)      -177.7492         estimate D2E/DX2                !
 ! D189  D(53,54,55,56)         -8.1867         estimate D2E/DX2                !
 ! D190  D(117,54,55,56)       178.5829         estimate D2E/DX2                !
 ! D191  D(54,55,56,57)          4.1517         estimate D2E/DX2                !
 ! D192  D(54,55,56,59)       -178.9197         estimate D2E/DX2                !
 ! D193  D(55,56,57,58)          0.3626         estimate D2E/DX2                !
 ! D194  D(59,56,57,58)       -176.4381         estimate D2E/DX2                !
 ! D195  D(55,56,59,60)       -168.6711         estimate D2E/DX2                !
 ! D196  D(55,56,59,65)         15.3735         estimate D2E/DX2                !
 ! D197  D(57,56,59,60)          8.4479         estimate D2E/DX2                !
 ! D198  D(57,56,59,65)       -167.5075         estimate D2E/DX2                !
 ! D199  D(56,57,58,53)         -1.4576         estimate D2E/DX2                !
 ! D200  D(56,57,58,118)       174.6178         estimate D2E/DX2                !
 ! D201  D(56,59,60,61)          1.6772         estimate D2E/DX2                !
 ! D202  D(56,59,60,63)       -175.4151         estimate D2E/DX2                !
 ! D203  D(65,59,60,61)        177.8185         estimate D2E/DX2                !
 ! D204  D(65,59,60,63)          0.7261         estimate D2E/DX2                !
 ! D205  D(56,59,65,64)        176.2269         estimate D2E/DX2                !
 ! D206  D(60,59,65,64)         -0.4616         estimate D2E/DX2                !
 ! D207  D(59,60,61,62)       -177.9785         estimate D2E/DX2                !
 ! D208  D(63,60,61,62)         -1.3182         estimate D2E/DX2                !
 ! D209  D(59,60,63,64)         -0.65           estimate D2E/DX2                !
 ! D210  D(59,60,63,122)       176.5871         estimate D2E/DX2                !
 ! D211  D(61,60,63,64)       -177.4743         estimate D2E/DX2                !
 ! D212  D(61,60,63,122)        -0.2371         estimate D2E/DX2                !
 ! D213  D(60,61,62,119)      -170.6553         estimate D2E/DX2                !
 ! D214  D(60,61,62,120)        72.5563         estimate D2E/DX2                !
 ! D215  D(60,61,62,121)       -52.86           estimate D2E/DX2                !
 ! D216  D(60,63,64,65)          0.2951         estimate D2E/DX2                !
 ! D217  D(60,63,64,66)       -179.8876         estimate D2E/DX2                !
 ! D218  D(122,63,64,65)      -176.7593         estimate D2E/DX2                !
 ! D219  D(122,63,64,66)         3.058          estimate D2E/DX2                !
 ! D220  D(63,64,65,59)          0.0865         estimate D2E/DX2                !
 ! D221  D(66,64,65,59)       -179.7549         estimate D2E/DX2                !
 ! D222  D(63,64,66,67)        -39.0387         estimate D2E/DX2                !
 ! D223  D(63,64,66,71)        135.1284         estimate D2E/DX2                !
 ! D224  D(65,64,66,67)        140.7736         estimate D2E/DX2                !
 ! D225  D(65,64,66,71)        -45.0594         estimate D2E/DX2                !
 ! D226  D(64,66,67,68)        178.9254         estimate D2E/DX2                !
 ! D227  D(64,66,67,123)        -7.5735         estimate D2E/DX2                !
 ! D228  D(71,66,67,68)          3.9695         estimate D2E/DX2                !
 ! D229  D(71,66,67,123)       177.4706         estimate D2E/DX2                !
 ! D230  D(64,66,71,70)       -179.4782         estimate D2E/DX2                !
 ! D231  D(64,66,71,124)        -1.1431         estimate D2E/DX2                !
 ! D232  D(67,66,71,70)         -4.6366         estimate D2E/DX2                !
 ! D233  D(67,66,71,124)       173.6986         estimate D2E/DX2                !
 ! D234  D(66,67,68,69)         -3.5506         estimate D2E/DX2                !
 ! D235  D(123,67,68,69)      -177.1933         estimate D2E/DX2                !
 ! D236  D(67,68,69,70)          3.5535         estimate D2E/DX2                !
 ! D237  D(67,68,69,72)        172.735          estimate D2E/DX2                !
 ! D238  D(68,69,70,71)         -4.135          estimate D2E/DX2                !
 ! D239  D(72,69,70,71)       -173.3563         estimate D2E/DX2                !
 ! D240  D(68,69,72,73)       -150.5945         estimate D2E/DX2                !
 ! D241  D(68,69,72,78)         36.3571         estimate D2E/DX2                !
 ! D242  D(70,69,72,73)         19.4978         estimate D2E/DX2                !
 ! D243  D(70,69,72,78)       -153.5506         estimate D2E/DX2                !
 ! D244  D(69,70,71,66)          4.9096         estimate D2E/DX2                !
 ! D245  D(69,70,71,124)      -173.5779         estimate D2E/DX2                !
 ! D246  D(69,72,73,74)          6.2863         estimate D2E/DX2                !
 ! D247  D(69,72,73,76)       -176.5361         estimate D2E/DX2                !
 ! D248  D(78,72,73,74)        179.7621         estimate D2E/DX2                !
[...]
  Beta virt. eigenvalues --    2.17400   2.17629   2.17818   2.17917   2.18426
  Beta virt. eigenvalues --    2.18450   2.18485   2.18501   2.18559   2.18601
  Beta virt. eigenvalues --    2.18898   2.19050   2.19143   2.19194   2.19245
  Beta virt. eigenvalues --    2.19313   2.19376   2.19428   2.19651   2.21689
  Beta virt. eigenvalues --    2.21787   2.21993   2.22338   2.22690   2.23024
  Beta virt. eigenvalues --    2.24377   2.24484   2.24648   2.24864   2.25089
  Beta virt. eigenvalues --    2.25361   2.25672   2.27616   2.27649   2.27754
  Beta virt. eigenvalues --    2.27806   2.27838   2.27934   2.34108   2.34770
  Beta virt. eigenvalues --    2.34884   2.35039   2.35392   2.35554   2.35597
  Beta virt. eigenvalues --    2.35688   2.36386   2.36877   2.36963   2.37000
  Beta virt. eigenvalues --    2.37092   2.37144   2.37185   2.38342   2.39547
  Beta virt. eigenvalues --    2.39576   2.39651   2.39675   2.39727   2.39731
  Beta virt. eigenvalues --    2.39756   2.39779   2.39805   2.39909   2.40059
  Beta virt. eigenvalues --    2.40222   2.40414   2.40903   2.41546   2.41752
  Beta virt. eigenvalues --    2.41932   2.41996   2.42168   2.42408   2.42892
  Beta virt. eigenvalues --    2.42922   2.42979   2.43063   2.43248   2.44334
  Beta virt. eigenvalues --    2.44678   2.45487   2.46557   2.46650   2.46741
  Beta virt. eigenvalues --    2.46822   2.46869   2.46888   2.47055   2.47701
  Beta virt. eigenvalues --    2.47748   2.47775   2.47840   2.47883   2.47963
  Beta virt. eigenvalues --    2.48647   2.50720   2.50729   2.50853   2.50875
  Beta virt. eigenvalues --    2.50944   2.50989   2.53826   2.57174   2.57590
  Beta virt. eigenvalues --    2.57658   2.57744   2.57821   2.57890   2.58081
  Beta virt. eigenvalues --    2.58632   2.58886   2.59197   2.59305   2.59581
  Beta virt. eigenvalues --    2.59763   2.59836   2.60357   2.64628   2.64649
  Beta virt. eigenvalues --    2.64706   2.64733   2.64888   2.65053   2.72158
  Beta virt. eigenvalues --    2.75672   2.75853   2.76111   2.76400   2.76634
  Beta virt. eigenvalues --    2.76769   2.77709   2.78245   2.78401   2.78622
  Beta virt. eigenvalues --    2.78914   2.79228   2.79461   2.84434   2.84515
  Beta virt. eigenvalues --    2.84544   2.84572   2.84592   2.84986   2.85262
  Beta virt. eigenvalues --    2.85773   2.86061   2.86101   2.86187   2.86293
  Beta virt. eigenvalues --    2.86362   2.88807   2.88824   2.88829   2.88857
  Beta virt. eigenvalues --    2.88870   2.88983   2.89029   2.90620   2.92474
  Beta virt. eigenvalues --    2.93057   2.93372   2.93752   2.94089   2.94302
  Beta virt. eigenvalues --    2.95695   3.01441   3.01480   3.01499   3.01519
  Beta virt. eigenvalues --    3.01536   3.01569   3.01617   3.01666   3.01768
  Beta virt. eigenvalues --    3.02173   3.02696   3.03222   3.03425   3.03621
  Beta virt. eigenvalues --    3.04816   3.05187   3.05424   3.05674   3.05901
  Beta virt. eigenvalues --    3.06070   3.06160   3.30088   3.30176   3.30253
  Beta virt. eigenvalues --    3.30326   3.30411   3.30455   3.36450   3.36554
  Beta virt. eigenvalues --    3.36614   3.36661   3.36699   3.36748   3.36765
  Beta virt. eigenvalues --    3.38591   3.44467   3.44602   3.44737   3.44882
  Beta virt. eigenvalues --    3.45015   3.45112   3.45252
          Condensed to atoms (all electrons):
          Atomic-Atomic Spin Densities.
 Mulliken charges and spin densities:
               1          2
     1  C   -0.064459  -0.000000
     2  C    0.111026   0.000000
     3  N   -0.181786  -0.000000
     4  C    0.199822   0.000000
     5  N   -0.211567  -0.000000
     6  C    0.119314   0.000000
     7  C   -0.194537  -0.000000
     8  C    0.149981   0.000000
     9  O   -0.204319   0.000000
    10  C    0.058019   0.000000
    11  C   -0.000870  -0.000000
    12  C   -0.158002   0.000000
    13  S    0.194926  -0.000000
    14  C   -0.056523  -0.000000
    15  C    0.130320   0.000000
    16  N   -0.208007   0.000000
    17  C    0.201445   0.000000
    18  N   -0.176823  -0.000000
    19  C    0.121500  -0.000000
    20  C   -0.195379  -0.000000
    21  C    0.150146   0.000000
    22  O   -0.203645  -0.000000
    23  C    0.057703  -0.000000
    24  C    0.000384   0.000000
    25  C   -0.157344  -0.000000
    26  S    0.195151  -0.000000
    27  C   -0.057298   0.000000
    28  C    0.130595   0.000000
    29  N   -0.207851  -0.000000
    30  C    0.201677  -0.000000
    31  N   -0.176710   0.000000
    32  C    0.121633  -0.000000
    33  C   -0.195553  -0.000000
    34  C    0.150392   0.000000
    35  O   -0.203632  -0.000000
    36  C    0.057625  -0.000000
    37  C    0.000303  -0.000000
    38  C   -0.157190  -0.000000
    39  S    0.195260   0.000000
    40  C   -0.057119   0.000000
    41  C    0.121644   0.000000
    42  N   -0.176785  -0.000000
    43  C    0.201856   0.000000
    44  N   -0.207787   0.000000
    45  C    0.130688  -0.000000
    46  C   -0.195612   0.000000
    47  C    0.150380  -0.000000
    48  O   -0.203666   0.000000
    49  C    0.057667  -0.000000
    50  C    0.000225   0.000000
    51  C   -0.156888  -0.000000
    52  S    0.195362  -0.000000
    53  C   -0.057283  -0.000000
    54  C    0.130510  -0.000000
    55  N   -0.207770   0.000000
    56  C    0.201777   0.000000
    57  N   -0.176673  -0.000000
    58  C    0.121541   0.000000
    59  C   -0.195724  -0.000000
    60  C    0.150447  -0.000000
    61  O   -0.203647  -0.000000
    62  C    0.057599  -0.000000
    63  C    0.000310   0.000000
    64  C   -0.156972   0.000000
    65  S    0.195126   0.000000
    66  C   -0.057338  -0.000000
    67  C    0.130605   0.000000
    68  N   -0.207665  -0.000000
    69  C    0.201774   0.000000
    70  N   -0.176898   0.000000
    71  C    0.121513  -0.000000
    72  C   -0.195851  -0.000000
    73  C    0.150013   0.000000
    74  O   -0.203778  -0.000000
    75  C    0.057826   0.000000
    76  C    0.000858  -0.000000
    77  C   -0.156444  -0.000000
    78  S    0.194793   0.000000
    79  C   -0.058185   0.000000
    80  C    0.118389   0.000000
    81  N   -0.178137   0.000000
    82  C    0.210506  -0.000000
    83  N   -0.206768   0.000000
    84  C    0.130512  -0.000000
    85  C   -0.208700   0.000000
    86  C    0.136294  -0.000000
    87  O   -0.204462  -0.000000
    88  C    0.056316  -0.000000
    89  C    0.022582  -0.000000
    90  C   -0.118763   0.000000
    91  S    0.198655   0.000000
    92  H   -0.007590  -0.000000
    93  H    0.004032  -0.000000
    94  H    0.007818   0.000000
    95  H    0.043323   0.000000
    96  H    0.045329  -0.000000
    97  H    0.053574  -0.000000
    98  H   -0.013849  -0.000000
    99  H    0.000426  -0.000000
   100  H    0.007173   0.000000
   101  H    0.054908   0.000000
   102  H    0.043713   0.000000
   103  H    0.045823   0.000000
   104  H   -0.013335   0.000000
   105  H    0.000650   0.000000
   106  H    0.007352  -0.000000
   107  H    0.044032   0.000000
   108  H    0.045912   0.000000
   109  H    0.054997   0.000000
   110  H   -0.013036  -0.000000
   111  H    0.007017  -0.000000
   112  H    0.000756   0.000000
   113  H    0.043921   0.000000
   114  H    0.045987   0.000000
   115  H    0.054852   0.000000
   116  H   -0.013171   0.000000
   117  H    0.000605  -0.000000
   118  H    0.007373  -0.000000
   119  H    0.054968   0.000000
   120  H    0.044215   0.000000
   121  H    0.045920  -0.000000
   122  H   -0.012974  -0.000000
   123  H    0.000768   0.000000
   124  H    0.006757  -0.000000
   125  H    0.054504  -0.000000
   126  H    0.043634  -0.000000
   127  H    0.045914   0.000000
   128  H   -0.013360   0.000000
   129  H   -0.003071  -0.000000
   130  H    0.010090  -0.000000
   131  H    0.043845  -0.000000
   132  H    0.043511  -0.000000
   133  H    0.052595   0.000000
   134  H   -0.009757   0.000000
   135  H    0.021266  -0.000000
 Sum of Mulliken charges =  -0.00000   0.00000
 Mulliken charges and spin densities with hydrogens summed into heavy atoms:
               1          2
     1  C   -0.072049  -0.000000
     2  C    0.115059   0.000000
     3  N   -0.181786  -0.000000
     4  C    0.199822   0.000000
     5  N   -0.211567  -0.000000
     6  C    0.127132   0.000000
     7  C   -0.194537  -0.000000
     8  C    0.149981   0.000000
     9  O   -0.204319   0.000000
    10  C    0.200245   0.000000
    11  C   -0.014718  -0.000000
    12  C   -0.158002   0.000000
    13  S    0.194926  -0.000000
    14  C   -0.056523  -0.000000
    15  C    0.130746   0.000000
    16  N   -0.208007   0.000000
    17  C    0.201445   0.000000
    18  N   -0.176823  -0.000000
    19  C    0.128673  -0.000000
    20  C   -0.195379  -0.000000
    21  C    0.150146   0.000000
    22  O   -0.203645  -0.000000
    23  C    0.202148   0.000000
    24  C   -0.012951   0.000000
    25  C   -0.157344  -0.000000
    26  S    0.195151  -0.000000
    27  C   -0.057298   0.000000
    28  C    0.131245   0.000000
    29  N   -0.207851  -0.000000
    30  C    0.201677  -0.000000
    31  N   -0.176710   0.000000
    32  C    0.128986  -0.000000
    33  C   -0.195553  -0.000000
    34  C    0.150392   0.000000
    35  O   -0.203632  -0.000000
    36  C    0.202566   0.000000
    37  C   -0.012733  -0.000000
    38  C   -0.157190  -0.000000
    39  S    0.195260   0.000000
    40  C   -0.057119   0.000000
    41  C    0.128661   0.000000
    42  N   -0.176785  -0.000000
    43  C    0.201856   0.000000
    44  N   -0.207787   0.000000
    45  C    0.131445  -0.000000
    46  C   -0.195612   0.000000
    47  C    0.150380  -0.000000
    48  O   -0.203666   0.000000
    49  C    0.202427   0.000000
    50  C   -0.012946   0.000000
    51  C   -0.156888  -0.000000
    52  S    0.195362  -0.000000
    53  C   -0.057283  -0.000000
    54  C    0.131114  -0.000000
    55  N   -0.207770   0.000000
    56  C    0.201777   0.000000
    57  N   -0.176673  -0.000000
    58  C    0.128914   0.000000
    59  C   -0.195724  -0.000000
    60  C    0.150447  -0.000000
    61  O   -0.203647  -0.000000
    62  C    0.202701  -0.000000
    63  C   -0.012664   0.000000
    64  C   -0.156972   0.000000
    65  S    0.195126   0.000000
    66  C   -0.057338  -0.000000
    67  C    0.131373   0.000000
    68  N   -0.207665  -0.000000
    69  C    0.201774   0.000000
    70  N   -0.176898   0.000000
    71  C    0.128270  -0.000000
    72  C   -0.195851  -0.000000
    73  C    0.150013   0.000000
    74  O   -0.203778  -0.000000
    75  C    0.201877   0.000000
    76  C   -0.012502  -0.000000
    77  C   -0.156444  -0.000000
    78  S    0.194793   0.000000
    79  C   -0.058185   0.000000
    80  C    0.115318   0.000000
    81  N   -0.178137   0.000000
    82  C    0.210506  -0.000000
    83  N   -0.206768   0.000000
    84  C    0.140602  -0.000000
    85  C   -0.208700   0.000000
    86  C    0.136294  -0.000000
    87  O   -0.204462  -0.000000
    88  C    0.196267  -0.000000
    89  C    0.012825  -0.000000
    90  C   -0.097497   0.000000
    91  S    0.198655   0.000000
 Electronic spatial extent (au):  <R**2>=         634462.6730
 Charge=             -0.0000 electrons
 Dipole moment (field-independent basis, Debye):
    X=              2.0219    Y=              1.3184    Z=             -1.2244  Tot=              2.7065
 Quadrupole moment (field-independent basis, Debye-Ang):
   XX=           -358.2498   YY=           -487.1193   ZZ=           -561.4130
   XY=             46.1075   XZ=            -11.3502   YZ=              2.2545
 Traceless Quadrupole moment (field-independent basis, Debye-Ang):
   XX=            110.6776   YY=            -18.1919   ZZ=            -92.4856
   XY=             46.1075   XZ=            -11.3502   YZ=              2.2545
 Octapole moment (field-independent basis, Debye-Ang**2):
  XXX=           2586.0434  YYY=             99.6420  ZZZ=            -10.8856  XYY=            -94.4973
  XXY=            341.8074  XXZ=           -577.6094  XZZ=            -28.0305  YZZ=            -55.6501
  YYZ=            -34.8369  XYZ=           -112.6905
 Hexadecapole moment (field-independent basis, Debye-Ang**3):
 XXXX=        -572574.5391 YYYY=         -10630.6134 ZZZZ=          -3362.4570 XXXY=          19595.8683
 XXXZ=          -2839.6562 YYYX=           1250.0605 YYYZ=             88.6029 ZZZX=           -169.4209
 ZZZY=             18.2819 XXYY=        -129055.1566 XXZZ=        -143498.3291 YYZZ=          -2427.9667
 XXYZ=           1502.8011 YYXZ=            343.6289 ZZXY=            332.3691
 N-N= 1.326516715044D+04 E-N=-4.181342318800D+04  KE= 6.473159857028D+03
 Leave Link  601 at Sat Jul 25 17:45:09 2020, MaxMem=  4026531840 cpu:              13.0 elap:               1.8
 (Enter /opt/ohpc/pub/libs/gaussian/g16-A.03/sandybridge/g16/l9999.exe)

 Test job not archived.
 1\1\GINC-SKYLAKE005\FOpt\ULC-wPBE\CC-pVDZ\C63H44N14O7S7\RDU230\25-Jul-
 2020\0\\#P uLC-wPBE/cc-pVDZ iop(3/107=0178500000, 3/108=0178500000) op
 t\\H44 C63 S7 N14 O7\\0,1\C,-27.1385341156,-0.5571884227,0.0959786854\
 C,-26.6712069075,-1.8453758373,-0.1809962784\N,-25.3708629229,-2.14576
 14061,-0.299146965\C,-24.5144368511,-1.1140641225,-0.1336890348\N,-24.
 8518334472,0.1724085076,0.1366616313\C,-26.158742723,0.4300193753,0.24
 78623762\C,-23.0803072848,-1.3678927342,-0.2476464026\C,-22.3730739376
 ,-2.5445329005,-0.5155311095\O,-23.0152347979,-3.7156546693,-0.7331049
 674\C,-22.1988340201,-4.8512607786,-0.998776293\C,-20.9578200299,-2.34
 55633755,-0.5360713766\C,-20.5966299749,-1.0315921016,-0.2862248496\S,
 -21.987800445,-0.0265075505,-0.0133733478\C,-19.2393859535,-0.47817593
 62,-0.2343351149\C,-18.1256849982,-1.2531059259,0.1472090443\N,-16.881
 6509834,-0.7779199499,0.1838236223\C,-16.7193772495,0.5265121969,-0.15
 47932513\N,-17.7056374737,1.3732922804,-0.5227025305\C,-18.9367676905,
 0.8578320443,-0.5617959935\C,-15.3478597723,1.0193145135,-0.1046182854
 \C,-14.8155150612,2.2833045072,-0.3828005007\O,-15.6099877876,3.309524
 9519,-0.7634561839\C,-14.9672907525,4.5536315664,-1.0218781363\C,-13.3
 981561642,2.3358602694,-0.2087310083\C,-12.861492486,1.1247377237,0.19
 74173666\S,-14.0875959694,-0.0960368765,0.3610427172\C,-11.4521864772,
 0.8238512816,0.4692689892\C,-10.4001791508,1.5010519009,-0.1797594894\
 N,-9.1133187039,1.2585003289,0.0644973111\C,-8.8397861441,0.291306707,
 0.9769704152\N,-9.7563964688,-0.4359083601,1.6525658872\C,-11.03542460
 63,-0.1534373044,1.3939612128\C,-7.4237054855,0.0420334111,1.218372633
 9\C,-6.7833518032,-0.8569729792,2.0788932674\O,-7.4916102928,-1.684454
 915,2.8804869463\C,-6.7424307876,-2.5571460769,3.7201774055\C,-5.35886
 7393,-0.7741421083,2.003092784\C,-4.9235409353,0.1770294822,1.09447700
 71\S,-6.2562487685,0.9748152702,0.3148525447\C,-3.5367469365,0.5237018
 431,0.7671392007\C,-3.1426245786,1.804007738,0.3320933521\N,-1.8837945
 001,2.1339717564,0.0337989607\C,-0.9627970256,1.1568051743,0.183712979
 \N,-1.2154008813,-0.1122781413,0.5943080332\C,-2.4846581033,-0.4087129
 377,0.8690135778\C,0.4339852706,1.4518642057,-0.1118867141\C,1.0508467
 977,2.6292249809,-0.5501557143\O,0.3325841066,3.7510209199,-0.78394638
 53\C,1.0577473042,4.8936038444,-1.2272310698\C,2.4626964413,2.48413490
 82,-0.7154236447\C,2.9118342288,1.2104023286,-0.4059162751\S,1.6091453
 489,0.1778692533,0.1011696915\C,4.2912151691,0.7161019434,-0.464952454
 7\C,5.4019739457,1.5633580528,-0.2779237682\N,6.6635692755,1.141478720
 5,-0.3465253479\C,6.8497940856,-0.1806199702,-0.5924850644\N,5.8701722
 817,-1.0933730419,-0.7739806751\C,4.6192465302,-0.6306798423,-0.714856
 2896\C,8.2398812245,-0.6152212694,-0.6552157147\C,8.7975247255,-1.8773
 492381,-0.8897218767\O,8.0157040835,-2.957026924,-1.1174601982\C,8.684
 0686323,-4.1933933672,-1.3471556865\C,10.2261362895,-1.8625739408,-0.8
 664026389\C,10.7464799681,-0.6029849963,-0.6163260981\S,9.4895344825,0
 .5769220365,-0.3967146022\C,12.1613454005,-0.2282757369,-0.5253786631\
 C,13.1539723844,-1.135826731,-0.1038276997\N,14.4468543787,-0.82379464
 64,-0.0307981138\C,14.7861684813,0.4456326034,-0.3723610556\N,13.92836
 09546,1.4079425942,-0.777431161\C,12.6431997568,1.054259061,-0.8520841
 507\C,16.2067998272,0.7591578408,-0.2810476708\C,16.9050924553,1.94214
 49459,-0.5487682499\O,16.2607873785,3.0576738107,-0.960866381\C,17.065
 0968016,4.2073711334,-1.2034984076\C,18.31121686,1.81540665,-0.3284456
 169\C,18.675747904,0.5497881245,0.1016511019\S,17.2992794632,-0.503246
 1183,0.2317489963\C,20.0260246593,0.0744901201,0.4207892187\C,21.17578
 25331,0.5996054557,-0.1999965444\N,22.4196691595,0.2045004824,0.080728
 1488\C,22.5380894236,-0.7711927654,1.0087859039\N,21.5093119113,-1.367
 4614043,1.6633678627\C,20.2839307296,-0.9363622272,1.3684464383\C,23.8
 690816189,-1.2520314779,1.3609205191\C,25.1328331531,-0.875688604,0.89
 26378743\O,25.2761652954,0.089467041,-0.0460116153\C,26.6066142767,0.3
 880511927,-0.4540313486\C,26.193188833,-1.6144469361,1.5122893991\C,25
 .7193889299,-2.5264367802,2.4288447399\S,24.0040327827,-2.5143931544,2
 .5625128622\H,-28.2081868401,-0.3334260283,0.1887008473\H,-27.37298172
 12,-2.6852076202,-0.3160000138\H,-26.4307829604,1.475378274,0.46825899
 19\H,-21.5181731599,-5.0752595105,-0.1502711382\H,-21.5987769205,-4.71
 84559464,-1.9238221122\H,-22.8949497508,-5.6959440355,-1.1372747435\H,
 -20.2270628322,-3.128813683,-0.7604500982\H,-18.2548971536,-2.30489952
 25,0.4513068494\H,-19.7389011588,1.5436577117,-0.8838038658\H,-15.7690
 940347,5.2486774409,-1.3237377176\H,-14.2276603901,4.4697509521,-1.845
 9951085\H,-14.4627790579,4.9506815679,-0.11576063\H,-12.792549944,3.23
 77494681,-0.3414345723\H,-10.615617821,2.2658542168,-0.9440458015\H,-1
 1.7836212211,-0.7313166026,1.962963965\H,-6.1015838038,-3.2448253195,3
 .1289082407\H,-6.1100251338,-1.9930213179,4.4378320411\H,-7.4873537747
 ,-3.1475180942,4.2801878757\H,-4.6723371195,-1.3654546755,2.6169113395
 \H,-3.8909927062,2.608523964,0.2309550498\H,-2.6873423627,-1.448695166
 6,1.1736620168\H,1.8156500246,5.213098064,-0.4810896834\H,1.557650076,
 4.709422665,-2.2015843235\H,0.309498844,5.6949520618,-1.3499174457\H,3
 .1259339401,3.2736846057,-1.0821096438\H,5.2571756049,2.6317018024,-0.
 0473573349\H,3.8201970363,-1.3720380243,-0.8864744265\H,7.8875516684,-
 4.9412134561,-1.5000892753\H,9.3031725813,-4.4928180605,-0.4752586925\
 H,9.3238390818,-4.151524657,-2.2538639288\H,10.8560677857,-2.736291437
 4,-1.0601279322\H,12.8815243323,-2.1591538297,0.2028780812\H,11.946166
 9037,1.8337865264,-1.2043036391\H,16.3687820916,4.9963232716,-1.534901
 3908\H,17.8142207915,4.0226657751,-2.0022167808\H,17.5867445417,4.5446
 784029,-0.2830052529\H,19.0313623535,2.6310571413,-0.4458500548\H,21.0
 794615962,1.3739077239,-0.9794698613\H,19.4533517612,-1.4086415785,1.9
 199869779\H,27.1048800848,-0.4943147223,-0.9086213152\H,27.2225266984,
 0.7594893244,0.3922928753\H,26.5170498444,1.1839223575,-1.2130372317\H
 ,27.2571077588,-1.4808649183,1.293790829\H,26.3106227638,-3.2150306087
 ,3.0406923428\\Version=EM64L-G16RevA.03\State=1-A\HF=-6503.4803904\S2=
 0.\S2-1=0.\S2A=0.\RMSD=5.887e-09\RMSF=1.414e-06\Dipole=0.7982581,0.392
 5108,-0.5852856\Quadrupole=82.2812149,-15.6299962,-66.6512186,31.74031
 8,-15.2171477,-11.0752472\PG=C01 [X(C63H44N14O7S7)]\\@


            THE IRISH PIG
 'TWAS AN EVENING IN NOVEMBER,
 AS I VERY WELL REMEMBER
 I WAS STROLLING DOWN THE STREET IN DRUNKEN PRIDE,
 BUT MY KNEES WERE ALL A'FLUTTER
 SO I LANDED IN THE GUTTER,
 AND A PIG CAME UP AND LAY DOWN BY MY SIDE.

 YES, I LAY THERE IN THE GUTTER
 THINKING THOUGHTS I COULD NOT UTTER
 WHEN A COLLEEN PASSING BY DID SOFTLY SAY,
 'YE CAN TELL A MAN THAT BOOZES
 BY THE COMPANY THAT HE CHOOSES.' -
 AT THAT, THE PIG GOT UP AND WALKED AWAY!
     -- THE ECONOMIST, AUGUST 23, 1986
 Job cpu time:       2 days  8 hours 17 minutes 48.1 seconds.
 Elapsed time:       0 days  7 hours  9 minutes 15.2 seconds.
 File lengths (MBytes):  RWF=   2572 Int=      0 D2E=      0 Chk=    232 Scr=      8
 Normal termination of Gaussian 16 at Sat Jul 25 17:45:09 2020.
