 Entering Gaussian System, Link 0=g16
 Input=mols_65_7_09_c-cF-N_opt_0.gjf
 Output=mols_65_7_09_c-cF-N_opt_0.log
 Initial command:
 /opt/ohpc/pub/libs/gaussian/g16-A.03/sandybridge/g16/l1.exe "/mnt/gpfs2_4m/scratch/rdu230/ondemand/projects/dihedral_energies/7trial/wtuning/mols_65_7_09_c-cF-N/Gau-376661.inp" -scrdir="/mnt/gpfs2_4m/scratch/rdu230/ondemand/projects/dihedral_energies/7trial/wtuning/mols_65_7_09_c-cF-N/"
 Entering Link 1 = /opt/ohpc/pub/libs/gaussian/g16-A.03/sandybridge/g16/l1.exe PID=    376662.
  
 Copyright (c) 1988,1990,1992,1993,1995,1998,2003,2009,2016,
            Gaussian, Inc.  All Rights Reserved.
  
 This is part of the Gaussian(R) 16 program.  It is based on
 the Gaussian(R) 09 system (copyright 2009, Gaussian, Inc.),
 the Gaussian(R) 03 system (copyright 2003, Gaussian, Inc.),
 the Gaussian(R) 98 system (copyright 1998, Gaussian, Inc.),
 the Gaussian(R) 94 system (copyright 1995, Gaussian, Inc.),
 the Gaussian 92(TM) system (copyright 1992, Gaussian, Inc.),
 the Gaussian 90(TM) system (copyright 1990, Gaussian, Inc.),
 the Gaussian 88(TM) system (copyright 1988, Gaussian, Inc.),
 the Gaussian 86(TM) system (copyright 1986, Carnegie Mellon
 University), and the Gaussian 82(TM) system (copyright 1983,
 Carnegie Mellon University). Gaussian is a federally registered
 trademark of Gaussian, Inc.
  
 This software contains proprietary and confidential information,
 including trade secrets, belonging to Gaussian, Inc.
  
 This software is provided under written license and may be
 used, copied, transmitted, or stored only in accord with that
 written license.
  
 The following legend is applicable only to US Government
 contracts under FAR:
  
                    RESTRICTED RIGHTS LEGEND
  
 Use, reproduction and disclosure by the US Government is
 subject to restrictions as set forth in subparagraphs (a)
 and (c) of the Commercial Computer Software - Restricted
 Rights clause in FAR 52.227-19.
  
 Gaussian, Inc.
 340 Quinnipiac St., Bldg. 40, Wallingford CT 06492
  
  
 ---------------------------------------------------------------
 Warning -- This program may not be used in any manner that
 competes with the business of Gaussian, Inc. or will provide
 assistance to any competitor of Gaussian, Inc.  The licensee
 of this program is prohibited from giving any competitor of
 Gaussian, Inc. access to this program.  By using this program,
 the user acknowledges that Gaussian, Inc. is engaged in the
 business of creating and licensing software in the field of
 computational chemistry and represents and warrants to the
 licensee that it is not a competitor of Gaussian, Inc. and that
 it will not use this program in any manner prohibited above.
 ---------------------------------------------------------------
  

 Cite this work as:
 Gaussian 16, Revision A.03,
 M. J. Frisch, G. W. Trucks, H. B. Schlegel, G. E. Scuseria, 
 M. A. Robb, J. R. Cheeseman, G. Scalmani, V. Barone, 
 G. A. Petersson, H. Nakatsuji, X. Li, M. Caricato, A. V. Marenich, 
 J. Bloino, B. G. Janesko, R. Gomperts, B. Mennucci, H. P. Hratchian, 
 J. V. Ortiz, A. F. Izmaylov, J. L. Sonnenberg, D. Williams-Young, 
 F. Ding, F. Lipparini, F. Egidi, J. Goings, B. Peng, A. Petrone, 
 T. Henderson, D. Ranasinghe, V. G. Zakrzewski, J. Gao, N. Rega, 
 G. Zheng, W. Liang, M. Hada, M. Ehara, K. Toyota, R. Fukuda, 
 J. Hasegawa, M. Ishida, T. Nakajima, Y. Honda, O. Kitao, H. Nakai, 
 T. Vreven, K. Throssell, J. A. Montgomery, Jr., J. E. Peralta, 
 F. Ogliaro, M. J. Bearpark, J. J. Heyd, E. N. Brothers, K. N. Kudin, 
 V. N. Staroverov, T. A. Keith, R. Kobayashi, J. Normand, 
 K. Raghavachari, A. P. Rendell, J. C. Burant, S. S. Iyengar, 
 J. Tomasi, M. Cossi, J. M. Millam, M. Klene, C. Adamo, R. Cammi, 
 J. W. Ochterski, R. L. Martin, K. Morokuma, O. Farkas, 
 J. B. Foresman, and D. J. Fox, Gaussian, Inc., Wallingford CT, 2016.
 
 ******************************************
 Gaussian 16:  EM64L-G16RevA.03 25-Dec-2016
                25-Jul-2020 
 ******************************************
 %mem=30GB
 %nproc=8
 Will use up to    8 processors via shared memory.
 ---------------------------------------------------------------
 #P uLC-wPBE/cc-pVDZ iop(3/107=0090500000, 3/108=0090500000) opt
 ---------------------------------------------------------------
 1/18=20,19=15,26=3,38=1/1,3;
 2/9=110,12=2,17=6,18=5,40=1/2;
 3/5=16,11=2,25=1,30=1,71=1,74=-41,107=90500000,108=90500000,116=2/1,2,3;
 4//1;
 5/5=2,38=5/2;
 6/7=2,8=2,9=2,10=2,28=1/1;
 7//1,2,3,16;
 1/18=20,19=15,26=3/3(2);
 2/9=110/2;
 99//99;
 2/9=110/2;
 3/5=16,11=2,25=1,30=1,71=1,74=-41,107=90500000,108=90500000,116=2/1,2,3;
 4/5=5,16=3,69=1/1;
 5/5=2,38=5/2;
 7//1,2,3,16;
 1/18=20,19=15,26=3/3(-5);
 2/9=110/2;
 6/7=2,8=2,9=2,10=2,19=2,28=1/1;
 99/9=1/99;
 Leave Link    1 at Sat Jul 25 06:00:40 2020, MaxMem=  4026531840 cpu:               2.4 elap:               0.4
 (Enter /opt/ohpc/pub/libs/gaussian/g16-A.03/sandybridge/g16/l101.exe)
 ----------------
 H30 C63 S7 N7 F7
 ----------------
 Symbolic Z-matrix:
 Charge =  0 Multiplicity = 1
 C                     27.02147  -2.43498  -0.62365 
 C                     26.06691  -3.4018   -0.47551 
 C                     24.78322  -3.06537  -0.11088 
 C                     24.4148  -1.72485   0.05714 
 C                     25.33182  -0.74441  -0.06892 
 F                     25.02406   0.48314   0.12043 
 C                     26.66619  -1.03243  -0.42082 
 C                     23.00374  -1.4191    0.48508 
 N                     22.70712  -0.74774   1.47235 
 C                     21.34939  -0.59492   1.56885 
 C                     20.60102  -1.09255   0.54541 
 S                     21.67946  -1.90439  -0.51212 
 C                     19.17115  -1.13095   0.21511 
 C                     18.52519  -2.28479  -0.14876 
 C                     17.10525  -2.2619   -0.39732 
 C                     16.33107  -1.04975  -0.23008 
 C                     17.05588   0.126     0.17411 
 F                     16.4793   1.23382   0.38586 
 C                     18.41918   0.10241   0.45142 
 C                     14.96492  -1.08431  -0.46007 
 N                     14.38534  -1.91954  -1.26243 
 C                     12.96797  -1.77326  -1.27165 
 C                     12.49662  -0.76595  -0.43976 
 S                     13.83339   0.00467   0.40803 
 C                     11.0964  -0.23937  -0.19124 
 C                     10.13381  -1.16345   0.12396 
 C                     8.83788  -0.74998   0.41556 
 C                     8.5333    0.60088   0.4072 
 C                     9.5109    1.52891   0.06847 
 F                     9.17202   2.80627   0.04611 
 C                     10.76171   1.10655  -0.23863 
 C                     7.15014   0.98525   0.83561 
 N                     6.94671   1.75386   1.90126 
 C                     5.57824   2.06204   1.94416 
 C                     4.78913   1.57411   0.88976 
 S                     5.7837    0.71115  -0.12776 
 C                     3.4453    1.78327   0.68871 
 C                     2.91165   3.04265   0.62856 
 C                     1.47221   3.29734   0.49953 
 C                     0.62223   2.28694   0.34858 
 C                     1.10219   0.94759   0.41824 
 F                     0.32686  -0.17735   0.2995 
 C                     2.51796   0.75356   0.54768 
 C                    -0.79876   2.53458   0.30078 
 N                    -1.26642   3.72527   0.66676 
 C                    -2.68445   3.7389    0.44439 
 C                    -3.28361   2.67831  -0.06592 
 S                    -1.99636   1.45445  -0.30393 
 C                    -4.71188   2.39204  -0.3584 
 C                    -5.48888   3.41648  -0.8126 
 C                    -6.87602   3.28948  -0.99041 
 C                    -7.44534   2.05895  -0.85419 
 C                    -6.59223   0.97564  -0.49748 
 F                    -7.09922  -0.25192  -0.34387 
 C                    -5.2101    1.13965  -0.24208 
 C                    -8.92636   1.88624  -1.0487 
 N                    -9.56258   2.89541  -1.62949 
 C                    -10.94096   2.54352  -1.6472 
 C                    -11.27817   1.40176  -1.15817 
 S                    -9.89246   0.52724  -0.59315 
 C                    -12.65089   0.77323  -1.02879 
 C                    -12.88128  -0.53003  -1.46172 
 C                    -14.18915  -1.05511  -1.38412 
 C                    -15.28424  -0.31439  -0.79472 
 C                    -14.95803   1.04062  -0.41421 
 F                    -15.89441   1.83029   0.09241 
 C                    -13.69522   1.55479  -0.50675 
 C                    -16.61589  -0.84807  -0.81399 
 N                    -16.95885  -1.91385  -1.63228 
 C                    -18.3333  -2.18845  -1.48075 
 C                    -18.98712  -1.50836  -0.46746 
 S                    -17.79665  -0.40946   0.29387 
 C                    -20.36191  -1.56905  -0.05864 
 C                    -21.05323  -0.4154    0.38774 
 C                    -22.37223  -0.5849    0.80476 
 C                    -23.09081  -1.73957   0.78127 
 C                    -22.38481  -2.90862   0.38727 
 F                    -22.89749  -4.14779   0.37044 
 C                    -21.05243  -2.7925   -0.06716 
 C                    -24.53758  -1.84149   1.20621 
 N                    -24.99801  -1.02259   2.09478 
 C                    -26.36776  -1.33534   2.1972 
 C                    -26.89224  -2.29026   1.42347 
 S                    -25.57452  -2.99581   0.47209 
 H                     28.03648  -2.61974  -0.91166 
 H                     26.34603  -4.46248  -0.64486 
 H                     24.03778  -3.94213  -0.0257 
 H                     27.39999  -0.31982  -0.56097 
 H                     20.92929  -0.02119   2.34948 
 H                     19.05701  -3.1781   -0.34747 
 H                     16.59    -3.08366  -0.77471 
 H                     18.93055   0.95217   0.73083 
 H                     12.36295  -2.39972  -1.89457 
 H                     10.34082  -2.23517   0.12331 
 H                     8.11088  -1.50479   0.68566 
 H                     11.51877   1.84051  -0.40511 
 H                     5.18638   2.59058   2.80805 
 H                     3.51803   3.95126   0.78818 
 H                     1.12261   4.30513   0.50433 
 H                     2.83722  -0.31768   0.61453 
 H                    -3.17124   4.71887   0.7205 
 H                    -5.0344    4.43333  -0.96217 
 H                    -7.47441   4.10384  -1.3027 
 H                    -4.73013   0.26157   0.09217 
 H                    -11.64897   3.26949  -2.06325 
 H                    -12.09534  -1.14973  -1.88204 
 H                    -14.4035  -2.05702  -1.67947 
 H                    -13.5118   2.54411  -0.0937 
 H                    -18.77163  -2.93022  -2.02766 
 H                    -20.56864   0.5112    0.44573 
 H                    -22.93893   0.30068   1.12048 
 H                    -20.46434  -3.71884  -0.31942 
 H                    -26.98977  -0.67817   2.9474 
 H                    -27.82737  -2.69257   1.42276 
 
 ITRead=  0  0  0  0  0  0  0  0  0  0  0  0  0  0  0  0  0  0  0  0
 ITRead=  0  0  0  0  0  0  0  0  0  0  0  0  0  0  0  0  0  0  0  0
 ITRead=  0  0  0  0  0  0  0  0  0  0  0  0  0  0  0  0  0  0  0  0
 ITRead=  0  0  0  0  0  0  0  0  0  0  0  0  0  0  0  0  0  0  0  0
 ITRead=  0  0  0  0  0  0  0  0  0  0  0  0  0  0  0  0  0  0  0  0
 ITRead=  0  0  0  0  0  0  0  0  0  0  0  0  0  0
 MicOpt= -1 -1 -1 -1 -1 -1 -1 -1 -1 -1 -1 -1 -1 -1 -1 -1 -1 -1 -1 -1
 MicOpt= -1 -1 -1 -1 -1 -1 -1 -1 -1 -1 -1 -1 -1 -1 -1 -1 -1 -1 -1 -1
 MicOpt= -1 -1 -1 -1 -1 -1 -1 -1 -1 -1 -1 -1 -1 -1 -1 -1 -1 -1 -1 -1
 MicOpt= -1 -1 -1 -1 -1 -1 -1 -1 -1 -1 -1 -1 -1 -1 -1 -1 -1 -1 -1 -1
 MicOpt= -1 -1 -1 -1 -1 -1 -1 -1 -1 -1 -1 -1 -1 -1 -1 -1 -1 -1 -1 -1
 MicOpt= -1 -1 -1 -1 -1 -1 -1 -1 -1 -1 -1 -1 -1 -1
 NAtoms=    114 NQM=      114 NQMF=       0 NMMI=      0 NMMIF=      0
                NMic=       0 NMicF=      0.
                    Isotopes and Nuclear Properties:
 (Nuclear quadrupole moments (NQMom) in fm**2, nuclear magnetic moments (NMagM)
  in nuclear magnetons)

  Atom         1           2           3           4           5           6           7           8           9          10
 IAtWgt=          12          12          12          12          12          19          12          12          14          12
 AtmWgt=  12.0000000  12.0000000  12.0000000  12.0000000  12.0000000  18.9984033  12.0000000  12.0000000  14.0030740  12.0000000
 NucSpn=           0           0           0           0           0           1           0           0           2           0
 AtZEff=  -0.0000000  -0.0000000  -0.0000000  -0.0000000  -0.0000000  -0.0000000  -0.0000000  -0.0000000  -0.0000000  -0.0000000
 NQMom=    0.0000000   0.0000000   0.0000000   0.0000000   0.0000000   0.0000000   0.0000000   0.0000000   2.0440000   0.0000000
 NMagM=    0.0000000   0.0000000   0.0000000   0.0000000   0.0000000   2.6288670   0.0000000   0.0000000   0.4037610   0.0000000
 AtZNuc=   6.0000000   6.0000000   6.0000000   6.0000000   6.0000000   9.0000000   6.0000000   6.0000000   7.0000000   6.0000000

  Atom        11          12          13          14          15          16          17          18          19          20
 IAtWgt=          12          32          12          12          12          12          12          19          12          12
 AtmWgt=  12.0000000  31.9720718  12.0000000  12.0000000  12.0000000  12.0000000  12.0000000  18.9984033  12.0000000  12.0000000
 NucSpn=           0           0           0           0           0           0           0           1           0           0
 AtZEff=  -0.0000000  -0.0000000  -0.0000000  -0.0000000  -0.0000000  -0.0000000  -0.0000000  -0.0000000  -0.0000000  -0.0000000
 NQMom=    0.0000000   0.0000000   0.0000000   0.0000000   0.0000000   0.0000000   0.0000000   0.0000000   0.0000000   0.0000000
 NMagM=    0.0000000   0.0000000   0.0000000   0.0000000   0.0000000   0.0000000   0.0000000   2.6288670   0.0000000   0.0000000
 AtZNuc=   6.0000000  16.0000000   6.0000000   6.0000000   6.0000000   6.0000000   6.0000000   9.0000000   6.0000000   6.0000000

  Atom        21          22          23          24          25          26          27          28          29          30
 IAtWgt=          14          12          12          32          12          12          12          12          12          19
 AtmWgt=  14.0030740  12.0000000  12.0000000  31.9720718  12.0000000  12.0000000  12.0000000  12.0000000  12.0000000  18.9984033
 NucSpn=           2           0           0           0           0           0           0           0           0           1
 AtZEff=  -0.0000000  -0.0000000  -0.0000000  -0.0000000  -0.0000000  -0.0000000  -0.0000000  -0.0000000  -0.0000000  -0.0000000
 NQMom=    2.0440000   0.0000000   0.0000000   0.0000000   0.0000000   0.0000000   0.0000000   0.0000000   0.0000000   0.0000000
 NMagM=    0.4037610   0.0000000   0.0000000   0.0000000   0.0000000   0.0000000   0.0000000   0.0000000   0.0000000   2.6288670
 AtZNuc=   7.0000000   6.0000000   6.0000000  16.0000000   6.0000000   6.0000000   6.0000000   6.0000000   6.0000000   9.0000000

  Atom        31          32          33          34          35          36          37          38          39          40
 IAtWgt=          12          12          14          12          12          32          12          12          12          12
 AtmWgt=  12.0000000  12.0000000  14.0030740  12.0000000  12.0000000  31.9720718  12.0000000  12.0000000  12.0000000  12.0000000
 NucSpn=           0           0           2           0           0           0           0           0           0           0
 AtZEff=  -0.0000000  -0.0000000  -0.0000000  -0.0000000  -0.0000000  -0.0000000  -0.0000000  -0.0000000  -0.0000000  -0.0000000
 NQMom=    0.0000000   0.0000000   2.0440000   0.0000000   0.0000000   0.0000000   0.0000000   0.0000000   0.0000000   0.0000000
 NMagM=    0.0000000   0.0000000   0.4037610   0.0000000   0.0000000   0.0000000   0.0000000   0.0000000   0.0000000   0.0000000
 AtZNuc=   6.0000000   6.0000000   7.0000000   6.0000000   6.0000000  16.0000000   6.0000000   6.0000000   6.0000000   6.0000000

  Atom        41          42          43          44          45          46          47          48          49          50
 IAtWgt=          12          19          12          12          14          12          12          32          12          12
 AtmWgt=  12.0000000  18.9984033  12.0000000  12.0000000  14.0030740  12.0000000  12.0000000  31.9720718  12.0000000  12.0000000
 NucSpn=           0           1           0           0           2           0           0           0           0           0
 AtZEff=  -0.0000000  -0.0000000  -0.0000000  -0.0000000  -0.0000000  -0.0000000  -0.0000000  -0.0000000  -0.0000000  -0.0000000
 NQMom=    0.0000000   0.0000000   0.0000000   0.0000000   2.0440000   0.0000000   0.0000000   0.0000000   0.0000000   0.0000000
 NMagM=    0.0000000   2.6288670   0.0000000   0.0000000   0.4037610   0.0000000   0.0000000   0.0000000   0.0000000   0.0000000
 AtZNuc=   6.0000000   9.0000000   6.0000000   6.0000000   7.0000000   6.0000000   6.0000000  16.0000000   6.0000000   6.0000000

  Atom        51          52          53          54          55          56          57          58          59          60
 IAtWgt=          12          12          12          19          12          12          14          12          12          32
 AtmWgt=  12.0000000  12.0000000  12.0000000  18.9984033  12.0000000  12.0000000  14.0030740  12.0000000  12.0000000  31.9720718
 NucSpn=           0           0           0           1           0           0           2           0           0           0
 AtZEff=  -0.0000000  -0.0000000  -0.0000000  -0.0000000  -0.0000000  -0.0000000  -0.0000000  -0.0000000  -0.0000000  -0.0000000
 NQMom=    0.0000000   0.0000000   0.0000000   0.0000000   0.0000000   0.0000000   2.0440000   0.0000000   0.0000000   0.0000000
 NMagM=    0.0000000   0.0000000   0.0000000   2.6288670   0.0000000   0.0000000   0.4037610   0.0000000   0.0000000   0.0000000
 AtZNuc=   6.0000000   6.0000000   6.0000000   9.0000000   6.0000000   6.0000000   7.0000000   6.0000000   6.0000000  16.0000000

  Atom        61          62          63          64          65          66          67          68          69          70
 IAtWgt=          12          12          12          12          12          19          12          12          14          12
 AtmWgt=  12.0000000  12.0000000  12.0000000  12.0000000  12.0000000  18.9984033  12.0000000  12.0000000  14.0030740  12.0000000
 NucSpn=           0           0           0           0           0           1           0           0           2           0
 AtZEff=  -0.0000000  -0.0000000  -0.0000000  -0.0000000  -0.0000000  -0.0000000  -0.0000000  -0.0000000  -0.0000000  -0.0000000
 NQMom=    0.0000000   0.0000000   0.0000000   0.0000000   0.0000000   0.0000000   0.0000000   0.0000000   2.0440000   0.0000000
 NMagM=    0.0000000   0.0000000   0.0000000   0.0000000   0.0000000   2.6288670   0.0000000   0.0000000   0.4037610   0.0000000
 AtZNuc=   6.0000000   6.0000000   6.0000000   6.0000000   6.0000000   9.0000000   6.0000000   6.0000000   7.0000000   6.0000000

  Atom        71          72          73          74          75          76          77          78          79          80
 IAtWgt=          12          32          12          12          12          12          12          19          12          12
 AtmWgt=  12.0000000  31.9720718  12.0000000  12.0000000  12.0000000  12.0000000  12.0000000  18.9984033  12.0000000  12.0000000
 NucSpn=           0           0           0           0           0           0           0           1           0           0
 AtZEff=  -0.0000000  -0.0000000  -0.0000000  -0.0000000  -0.0000000  -0.0000000  -0.0000000  -0.0000000  -0.0000000  -0.0000000
 NQMom=    0.0000000   0.0000000   0.0000000   0.0000000   0.0000000   0.0000000   0.0000000   0.0000000   0.0000000   0.0000000
 NMagM=    0.0000000   0.0000000   0.0000000   0.0000000   0.0000000   0.0000000   0.0000000   2.6288670   0.0000000   0.0000000
 AtZNuc=   6.0000000  16.0000000   6.0000000   6.0000000   6.0000000   6.0000000   6.0000000   9.0000000   6.0000000   6.0000000

  Atom        81          82          83          84          85          86          87          88          89          90
 IAtWgt=          14          12          12          32           1           1           1           1           1           1
 AtmWgt=  14.0030740  12.0000000  12.0000000  31.9720718   1.0078250   1.0078250   1.0078250   1.0078250   1.0078250   1.0078250
 NucSpn=           2           0           0           0           1           1           1           1           1           1
 AtZEff=  -0.0000000  -0.0000000  -0.0000000  -0.0000000  -0.0000000  -0.0000000  -0.0000000  -0.0000000  -0.0000000  -0.0000000
 NQMom=    2.0440000   0.0000000   0.0000000   0.0000000   0.0000000   0.0000000   0.0000000   0.0000000   0.0000000   0.0000000
 NMagM=    0.4037610   0.0000000   0.0000000   0.0000000   2.7928460   2.7928460   2.7928460   2.7928460   2.7928460   2.7928460
 AtZNuc=   7.0000000   6.0000000   6.0000000  16.0000000   1.0000000   1.0000000   1.0000000   1.0000000   1.0000000   1.0000000

  Atom        91          92          93          94          95          96          97          98          99         100
 IAtWgt=           1           1           1           1           1           1           1           1           1           1
 AtmWgt=   1.0078250   1.0078250   1.0078250   1.0078250   1.0078250   1.0078250   1.0078250   1.0078250   1.0078250   1.0078250
 NucSpn=           1           1           1           1           1           1           1           1           1           1
 AtZEff=  -0.0000000  -0.0000000  -0.0000000  -0.0000000  -0.0000000  -0.0000000  -0.0000000  -0.0000000  -0.0000000  -0.0000000
 NQMom=    0.0000000   0.0000000   0.0000000   0.0000000   0.0000000   0.0000000   0.0000000   0.0000000   0.0000000   0.0000000
 NMagM=    2.7928460   2.7928460   2.7928460   2.7928460   2.7928460   2.7928460   2.7928460   2.7928460   2.7928460   2.7928460
 AtZNuc=   1.0000000   1.0000000   1.0000000   1.0000000   1.0000000   1.0000000   1.0000000   1.0000000   1.0000000   1.0000000

  Atom       101         102         103         104         105         106         107         108         109         110
 IAtWgt=           1           1           1           1           1           1           1           1           1           1
 AtmWgt=   1.0078250   1.0078250   1.0078250   1.0078250   1.0078250   1.0078250   1.0078250   1.0078250   1.0078250   1.0078250
 NucSpn=           1           1           1           1           1           1           1           1           1           1
 AtZEff=  -0.0000000  -0.0000000  -0.0000000  -0.0000000  -0.0000000  -0.0000000  -0.0000000  -0.0000000  -0.0000000  -0.0000000
 NQMom=    0.0000000   0.0000000   0.0000000   0.0000000   0.0000000   0.0000000   0.0000000   0.0000000   0.0000000   0.0000000
 NMagM=    2.7928460   2.7928460   2.7928460   2.7928460   2.7928460   2.7928460   2.7928460   2.7928460   2.7928460   2.7928460
 AtZNuc=   1.0000000   1.0000000   1.0000000   1.0000000   1.0000000   1.0000000   1.0000000   1.0000000   1.0000000   1.0000000

  Atom       111         112         113         114
 IAtWgt=           1           1           1           1
 AtmWgt=   1.0078250   1.0078250   1.0078250   1.0078250
 NucSpn=           1           1           1           1
 AtZEff=  -0.0000000  -0.0000000  -0.0000000  -0.0000000
 NQMom=    0.0000000   0.0000000   0.0000000   0.0000000
 NMagM=    2.7928460   2.7928460   2.7928460   2.7928460
 AtZNuc=   1.0000000   1.0000000   1.0000000   1.0000000
 Leave Link  101 at Sat Jul 25 06:00:41 2020, MaxMem=  4026531840 cpu:               2.5 elap:               0.6
 (Enter /opt/ohpc/pub/libs/gaussian/g16-A.03/sandybridge/g16/l103.exe)

 GradGradGradGradGradGradGradGradGradGradGradGradGradGradGradGradGradGrad
 Berny optimization.
 Initialization pass.
                           ----------------------------
                           !    Initial Parameters    !
                           ! (Angstroms and Degrees)  !
 --------------------------                            --------------------------
 ! Name  Definition              Value          Derivative Info.                !
 --------------------------------------------------------------------------------
 ! R1    R(1,2)                  1.3667         estimate D2E/DX2                !
 ! R2    R(1,7)                  1.461          estimate D2E/DX2                !
 ! R3    R(1,85)                 1.0711         estimate D2E/DX2                !
 ! R4    R(2,3)                  1.3762         estimate D2E/DX2                !
 ! R5    R(2,86)                 1.1098         estimate D2E/DX2                !
 ! R6    R(3,4)                  1.4003         estimate D2E/DX2                !
 ! R7    R(3,87)                 1.154          estimate D2E/DX2                !
 ! R8    R(4,5)                  1.3484         estimate D2E/DX2                !
 ! R9    R(4,8)                  1.5059         estimate D2E/DX2                !
 ! R10   R(5,6)                  1.2796         estimate D2E/DX2                !
 ! R11   R(5,7)                  1.4097         estimate D2E/DX2                !
 ! R12   R(7,88)                 1.0324         estimate D2E/DX2                !
 ! R13   R(8,9)                  1.2302         estimate D2E/DX2                !
 ! R14   R(8,12)                 1.7273         estimate D2E/DX2                !
 ! R15   R(9,10)                 1.3697         estimate D2E/DX2                !
 ! R16   R(10,11)                1.362          estimate D2E/DX2                !
 ! R17   R(10,89)                1.056          estimate D2E/DX2                !
 ! R18   R(11,12)                1.7148         estimate D2E/DX2                !
 ! R19   R(11,13)                1.468          estimate D2E/DX2                !
 ! R20   R(13,14)                1.3715         estimate D2E/DX2                !
 ! R21   R(13,19)                1.4637         estimate D2E/DX2                !
 ! R22   R(14,15)                1.4417         estimate D2E/DX2                !
 ! R23   R(14,90)                1.0585         estimate D2E/DX2                !
 ! R24   R(15,16)                1.448          estimate D2E/DX2                !
 ! R25   R(15,91)                1.0408         estimate D2E/DX2                !
 ! R26   R(16,17)                1.4391         estimate D2E/DX2                !
 ! R27   R(16,20)                1.3858         estimate D2E/DX2                !
 ! R28   R(17,18)                1.2667         estimate D2E/DX2                !
 ! R29   R(17,19)                1.3914         estimate D2E/DX2                !
 ! R30   R(19,92)                1.0304         estimate D2E/DX2                !
 ! R31   R(20,21)                1.2951         estimate D2E/DX2                !
 ! R32   R(20,24)                1.7944         estimate D2E/DX2                !
 ! R33   R(21,22)                1.4249         estimate D2E/DX2                !
 ! R34   R(22,23)                1.3888         estimate D2E/DX2                !
 ! R35   R(22,93)                1.0708         estimate D2E/DX2                !
 ! R36   R(23,24)                1.7606         estimate D2E/DX2                !
 ! R37   R(23,25)                1.5165         estimate D2E/DX2                !
 ! R38   R(25,26)                1.3711         estimate D2E/DX2                !
 ! R39   R(25,31)                1.3877         estimate D2E/DX2                !
 ! R40   R(26,27)                1.3912         estimate D2E/DX2                !
 ! R41   R(26,94)                1.0915         estimate D2E/DX2                !
 ! R42   R(27,28)                1.3848         estimate D2E/DX2                !
 ! R43   R(27,95)                1.0822         estimate D2E/DX2                !
 ! R44   R(28,29)                1.3899         estimate D2E/DX2                !
 ! R45   R(28,32)                1.4981         estimate D2E/DX2                !
 ! R46   R(29,30)                1.3217         estimate D2E/DX2                !
 ! R47   R(29,31)                1.3554         estimate D2E/DX2                !
 ! R48   R(31,96)                1.0675         estimate D2E/DX2                !
 ! R49   R(32,33)                1.3296         estimate D2E/DX2                !
 ! R50   R(32,36)                1.6942         estimate D2E/DX2                !
 ! R51   R(33,34)                1.4034         estimate D2E/DX2                !
 ! R52   R(34,35)                1.4045         estimate D2E/DX2                !
 ! R53   R(34,97)                1.0859         estimate D2E/DX2                !
 ! R54   R(35,36)                1.6641         estimate D2E/DX2                !
 ! R55   R(35,37)                1.3748         estimate D2E/DX2                !
 ! R56   R(37,38)                1.3691         estimate D2E/DX2                !
 ! R57   R(37,43)                1.3929         estimate D2E/DX2                !
 ! R58   R(38,39)                1.4675         estimate D2E/DX2                !
 ! R59   R(38,98)                1.104          estimate D2E/DX2                !
 ! R60   R(39,40)                1.329          estimate D2E/DX2                !
 ! R61   R(39,99)                1.0667         estimate D2E/DX2                !
 ! R62   R(40,41)                1.4245         estimate D2E/DX2                !
 ! R63   R(40,44)                1.4432         estimate D2E/DX2                !
 ! R64   R(41,42)                1.3714         estimate D2E/DX2                !
 ! R65   R(41,43)                1.4349         estimate D2E/DX2                !
 ! R66   R(43,100)               1.1198         estimate D2E/DX2                !
 ! R67   R(44,45)                1.3306         estimate D2E/DX2                !
 ! R68   R(44,48)                1.7224         estimate D2E/DX2                !
 ! R69   R(45,46)                1.4354         estimate D2E/DX2                !
 ! R70   R(46,47)                1.3207         estimate D2E/DX2                !
 ! R71   R(46,101)               1.1285         estimate D2E/DX2                !
 ! R72   R(47,48)                1.7921         estimate D2E/DX2                !
 ! R73   R(47,49)                1.4857         estimate D2E/DX2                !
 ! R74   R(49,50)                1.3636         estimate D2E/DX2                !
 ! R75   R(49,55)                1.3529         estimate D2E/DX2                !
 ! R76   R(50,51)                1.4042         estimate D2E/DX2                !
 ! R77   R(50,102)               1.1238         estimate D2E/DX2                !
 ! R78   R(51,52)                1.3627         estimate D2E/DX2                !
 ! R79   R(51,103)               1.0577         estimate D2E/DX2                !
 ! R80   R(52,53)                1.4243         estimate D2E/DX2                !
 ! R81   R(52,56)                1.5037         estimate D2E/DX2                !
 ! R82   R(53,54)                1.337          estimate D2E/DX2                !
 ! R83   R(53,55)                1.4151         estimate D2E/DX2                !
 ! R84   R(55,104)               1.055          estimate D2E/DX2                !
 ! R85   R(56,57)                1.3268         estimate D2E/DX2                !
 ! R86   R(56,60)                1.7285         estimate D2E/DX2                !
 ! R87   R(57,58)                1.4227         estimate D2E/DX2                !
 ! R88   R(58,59)                1.287          estimate D2E/DX2                !
 ! R89   R(58,105)               1.0961         estimate D2E/DX2                !
 ! R90   R(59,60)                1.7333         estimate D2E/DX2                !
 ! R91   R(59,61)                1.5153         estimate D2E/DX2                !
 ! R92   R(61,62)                1.3925         estimate D2E/DX2                !
 ! R93   R(61,67)                1.405          estimate D2E/DX2                !
 ! R94   R(62,63)                1.4115         estimate D2E/DX2                !
 ! R95   R(62,106)               1.0855         estimate D2E/DX2                !
 ! R96   R(63,64)                1.4475         estimate D2E/DX2                !
 ! R97   R(63,107)               1.0663         estimate D2E/DX2                !
 ! R98   R(64,65)                1.4447         estimate D2E/DX2                !
 ! R99   R(64,68)                1.4347         estimate D2E/DX2                !
 ! R100  R(65,66)                1.3255         estimate D2E/DX2                !
 ! R101  R(65,67)                1.3666         estimate D2E/DX2                !
 ! R102  R(67,108)               1.0877         estimate D2E/DX2                !
 ! R103  R(68,69)                1.3868         estimate D2E/DX2                !
 ! R104  R(68,72)                1.6775         estimate D2E/DX2                !
 ! R105  R(69,70)                1.4098         estimate D2E/DX2                !
 ! R106  R(70,71)                1.3845         estimate D2E/DX2                !
 ! R107  R(70,109)               1.0205         estimate D2E/DX2                !
 ! R108  R(71,72)                1.7901         estimate D2E/DX2                !
 ! R109  R(71,73)                1.4356         estimate D2E/DX2                !
 ! R110  R(73,74)                1.4171         estimate D2E/DX2                !
 ! R111  R(73,79)                1.4049         estimate D2E/DX2                !
 ! R112  R(74,75)                1.3937         estimate D2E/DX2                !
 ! R113  R(74,110)               1.0473         estimate D2E/DX2                !
 ! R114  R(75,76)                1.3602         estimate D2E/DX2                !
 ! R115  R(75,111)               1.0978         estimate D2E/DX2                !
 ! R116  R(76,77)                1.4214         estimate D2E/DX2                !
 ! R117  R(76,80)                1.5113         estimate D2E/DX2                !
 ! R118  R(77,78)                1.3411         estimate D2E/DX2                !
 ! R119  R(77,79)                1.4125         estimate D2E/DX2                !
 ! R120  R(79,112)               1.1259         estimate D2E/DX2                !
 ! R121  R(80,81)                1.2931         estimate D2E/DX2                !
 ! R122  R(80,84)                1.7166         estimate D2E/DX2                !
 ! R123  R(81,82)                1.4087         estimate D2E/DX2                !
 ! R124  R(82,83)                1.3363         estimate D2E/DX2                !
 ! R125  R(82,113)               1.1754         estimate D2E/DX2                !
 ! R126  R(83,84)                1.7718         estimate D2E/DX2                !
 ! R127  R(83,114)               1.018          estimate D2E/DX2                !
 ! A1    A(2,1,7)              119.6179         estimate D2E/DX2                !
 ! A2    A(2,1,85)             124.678          estimate D2E/DX2                !
 ! A3    A(7,1,85)             115.6812         estimate D2E/DX2                !
 ! A4    A(1,2,3)              120.4814         estimate D2E/DX2                !
 ! A5    A(1,2,86)             118.9409         estimate D2E/DX2                !
 ! A6    A(3,2,86)             120.5753         estimate D2E/DX2                !
 ! A7    A(2,3,4)              120.7444         estimate D2E/DX2                !
 ! A8    A(2,3,87)             115.872          estimate D2E/DX2                !
 ! A9    A(4,3,87)             123.2651         estimate D2E/DX2                !
 ! A10   A(3,4,5)              120.393          estimate D2E/DX2                !
 ! A11   A(3,4,8)              118.3581         estimate D2E/DX2                !
 ! A12   A(5,4,8)              121.078          estimate D2E/DX2                !
 ! A13   A(4,5,6)              121.3415         estimate D2E/DX2                !
 ! A14   A(4,5,7)              121.2328         estimate D2E/DX2                !
 ! A15   A(6,5,7)              117.425          estimate D2E/DX2                !
 ! A16   A(1,7,5)              117.4502         estimate D2E/DX2                !
 ! A17   A(1,7,88)             118.094          estimate D2E/DX2                !
 ! A18   A(5,7,88)             124.4455         estimate D2E/DX2                !
 ! A19   A(4,8,9)              124.3878         estimate D2E/DX2                !
 ! A20   A(4,8,12)             119.8203         estimate D2E/DX2                !
 ! A21   A(9,8,12)             115.5805         estimate D2E/DX2                !
 ! A22   A(8,9,10)             110.881          estimate D2E/DX2                !
 ! A23   A(9,10,11)            116.8049         estimate D2E/DX2                !
 ! A24   A(9,10,89)            120.4682         estimate D2E/DX2                !
 ! A25   A(11,10,89)           122.3714         estimate D2E/DX2                !
 ! A26   A(10,11,12)           106.907          estimate D2E/DX2                !
 ! A27   A(10,11,13)           135.5446         estimate D2E/DX2                !
 ! A28   A(12,11,13)           117.4786         estimate D2E/DX2                !
 ! A29   A(8,12,11)             89.6053         estimate D2E/DX2                !
 ! A30   A(11,13,14)           122.7139         estimate D2E/DX2                !
 ! A31   A(11,13,19)           116.2328         estimate D2E/DX2                !
 ! A32   A(14,13,19)           120.6482         estimate D2E/DX2                !
 ! A33   A(13,14,15)           119.7524         estimate D2E/DX2                !
 ! A34   A(13,14,90)           121.5469         estimate D2E/DX2                !
 ! A35   A(15,14,90)           118.4181         estimate D2E/DX2                !
 ! A36   A(14,15,16)           121.3305         estimate D2E/DX2                !
 ! A37   A(14,15,91)           122.5182         estimate D2E/DX2                !
 ! A38   A(16,15,91)           115.9866         estimate D2E/DX2                !
 ! A39   A(15,16,17)           116.5568         estimate D2E/DX2                !
 ! A40   A(15,16,20)           119.1463         estimate D2E/DX2                !
 ! A41   A(17,16,20)           124.2968         estimate D2E/DX2                !
 ! A42   A(16,17,18)           122.1549         estimate D2E/DX2                !
 ! A43   A(16,17,19)           122.3833         estimate D2E/DX2                !
 ! A44   A(18,17,19)           115.309          estimate D2E/DX2                !
 ! A45   A(13,19,17)           119.0434         estimate D2E/DX2                !
 ! A46   A(13,19,92)           118.9297         estimate D2E/DX2                !
 ! A47   A(17,19,92)           121.7573         estimate D2E/DX2                !
 ! A48   A(16,20,21)           124.0604         estimate D2E/DX2                !
 ! A49   A(16,20,24)           121.7511         estimate D2E/DX2                !
 ! A50   A(21,20,24)           114.1359         estimate D2E/DX2                !
 ! A51   A(20,21,22)           112.5166         estimate D2E/DX2                !
 ! A52   A(21,22,23)           114.0893         estimate D2E/DX2                !
 ! A53   A(21,22,93)           120.3811         estimate D2E/DX2                !
 ! A54   A(23,22,93)           125.523          estimate D2E/DX2                !
 ! A55   A(22,23,24)           110.3781         estimate D2E/DX2                !
 ! A56   A(22,23,25)           131.558          estimate D2E/DX2                !
 ! A57   A(24,23,25)           118.046          estimate D2E/DX2                !
 ! A58   A(20,24,23)            88.8655         estimate D2E/DX2                !
 ! A59   A(23,25,26)           116.8653         estimate D2E/DX2                !
 ! A60   A(23,25,31)           123.6334         estimate D2E/DX2                !
 ! A61   A(26,25,31)           119.4857         estimate D2E/DX2                !
 ! A62   A(25,26,27)           120.1236         estimate D2E/DX2                !
 ! A63   A(25,26,94)           121.9012         estimate D2E/DX2                !
 ! A64   A(27,26,94)           117.944          estimate D2E/DX2                !
 ! A65   A(26,27,28)           119.5737         estimate D2E/DX2                !
 ! A66   A(26,27,95)           118.0851         estimate D2E/DX2                !
 ! A67   A(28,27,95)           122.2845         estimate D2E/DX2                !
 ! A68   A(27,28,29)           119.8759         estimate D2E/DX2                !
 ! A69   A(27,28,32)           116.8475         estimate D2E/DX2                !
 ! A70   A(29,28,32)           123.215          estimate D2E/DX2                !
 ! A71   A(28,29,30)           117.9751         estimate D2E/DX2                !
 ! A72   A(28,29,31)           119.7513         estimate D2E/DX2                !
 ! A73   A(30,29,31)           122.27           estimate D2E/DX2                !
 ! A74   A(25,31,29)           121.1343         estimate D2E/DX2                !
 ! A75   A(25,31,96)           120.0749         estimate D2E/DX2                !
 ! A76   A(29,31,96)           118.3935         estimate D2E/DX2                !
 ! A77   A(28,32,33)           121.25           estimate D2E/DX2                !
 ! A78   A(28,32,36)           122.7192         estimate D2E/DX2                !
 ! A79   A(33,32,36)           115.2063         estimate D2E/DX2                !
 ! A80   A(32,33,34)           107.4958         estimate D2E/DX2                !
 ! A81   A(33,34,35)           116.6564         estimate D2E/DX2                !
 ! A82   A(33,34,97)           118.8863         estimate D2E/DX2                !
 ! A83   A(35,34,97)           124.3045         estimate D2E/DX2                !
 ! A84   A(34,35,36)           107.6622         estimate D2E/DX2                !
 ! A85   A(34,35,37)           127.3109         estimate D2E/DX2                !
 ! A86   A(36,35,37)           125.0073         estimate D2E/DX2                !
 ! A87   A(32,36,35)            92.8918         estimate D2E/DX2                !
 ! A88   A(35,37,38)           121.8283         estimate D2E/DX2                !
 ! A89   A(35,37,43)           123.5802         estimate D2E/DX2                !
 ! A90   A(38,37,43)           114.5866         estimate D2E/DX2                !
 ! A91   A(37,38,39)           123.0822         estimate D2E/DX2                !
 ! A92   A(37,38,98)           122.4548         estimate D2E/DX2                !
 ! A93   A(39,38,98)           114.1197         estimate D2E/DX2                !
 ! A94   A(38,39,40)           120.3574         estimate D2E/DX2                !
 ! A95   A(38,39,99)           119.0156         estimate D2E/DX2                !
 ! A96   A(40,39,99)           120.6096         estimate D2E/DX2                !
 ! A97   A(39,40,41)           119.5913         estimate D2E/DX2                !
 ! A98   A(39,40,44)           120.2012         estimate D2E/DX2                !
 ! A99   A(41,40,44)           119.651          estimate D2E/DX2                !
 ! A100  A(40,41,42)           125.2083         estimate D2E/DX2                !
 ! A101  A(40,41,43)           117.6466         estimate D2E/DX2                !
 ! A102  A(42,41,43)           117.0475         estimate D2E/DX2                !
 ! A103  A(37,43,41)           124.4768         estimate D2E/DX2                !
 ! A104  A(37,43,100)          120.754          estimate D2E/DX2                !
 ! A105  A(41,43,100)          114.5859         estimate D2E/DX2                !
 ! A106  A(40,44,45)           119.3744         estimate D2E/DX2                !
 ! A107  A(40,44,48)           126.0604         estimate D2E/DX2                !
 ! A108  A(45,44,48)           114.4167         estimate D2E/DX2                !
 ! A109  A(44,45,46)           108.2467         estimate D2E/DX2                !
 ! A110  A(45,46,47)           120.0264         estimate D2E/DX2                !
 ! A111  A(45,46,101)          113.3577         estimate D2E/DX2                !
 ! A112  A(47,46,101)          126.5979         estimate D2E/DX2                !
 ! A113  A(46,47,48)           105.8952         estimate D2E/DX2                !
 ! A114  A(46,47,49)           131.8288         estimate D2E/DX2                !
 ! A115  A(48,47,49)           122.1938         estimate D2E/DX2                !
 ! A116  A(44,48,47)            91.4063         estimate D2E/DX2                !
 ! A117  A(47,49,50)           117.9419         estimate D2E/DX2                !
 ! A118  A(47,49,55)           121.0285         estimate D2E/DX2                !
 ! A119  A(50,49,55)           120.9481         estimate D2E/DX2                !
 ! A120  A(49,50,51)           122.4858         estimate D2E/DX2                !
 ! A121  A(49,50,102)          119.5815         estimate D2E/DX2                !
 ! A122  A(51,50,102)          117.676          estimate D2E/DX2                !
 ! A123  A(50,51,52)           118.7978         estimate D2E/DX2                !
 ! A124  A(50,51,103)          121.7759         estimate D2E/DX2                !
 ! A125  A(52,51,103)          119.2358         estimate D2E/DX2                !
 ! A126  A(51,52,53)           117.4918         estimate D2E/DX2                !
 ! A127  A(51,52,56)           120.1512         estimate D2E/DX2                !
 ! A128  A(53,52,56)           122.3429         estimate D2E/DX2                !
 ! A129  A(52,53,54)           119.9988         estimate D2E/DX2                !
 ! A130  A(52,53,55)           122.8255         estimate D2E/DX2                !
 ! A131  A(54,53,55)           117.1331         estimate D2E/DX2                !
 ! A132  A(49,55,53)           116.8385         estimate D2E/DX2                !
 ! A133  A(49,55,104)          129.0622         estimate D2E/DX2                !
 ! A134  A(53,55,104)          113.8947         estimate D2E/DX2                !
 ! A135  A(52,56,57)           116.2019         estimate D2E/DX2                !
 ! A136  A(52,56,60)           127.3512         estimate D2E/DX2                !
 ! A137  A(57,56,60)           116.4459         estimate D2E/DX2                !
 ! A138  A(56,57,58)           106.3727         estimate D2E/DX2                !
 ! A139  A(57,58,59)           117.9393         estimate D2E/DX2                !
 ! A140  A(57,58,105)          117.8215         estimate D2E/DX2                !
 ! A141  A(59,58,105)          124.2326         estimate D2E/DX2                !
 ! A142  A(58,59,60)           111.2226         estimate D2E/DX2                !
 ! A143  A(58,59,61)           129.6248         estimate D2E/DX2                !
 ! A144  A(60,59,61)           119.1525         estimate D2E/DX2                !
 ! A145  A(56,60,59)            87.9504         estimate D2E/DX2                !
 ! A146  A(59,61,62)           120.7672         estimate D2E/DX2                !
 ! A147  A(59,61,67)           118.3168         estimate D2E/DX2                !
 ! A148  A(62,61,67)           120.8756         estimate D2E/DX2                !
 ! A149  A(61,62,63)           118.9724         estimate D2E/DX2                !
 ! A150  A(61,62,106)          122.3356         estimate D2E/DX2                !
 ! A151  A(63,62,106)          118.672          estimate D2E/DX2                !
 ! A152  A(62,63,64)           122.2101         estimate D2E/DX2                !
 ! A153  A(62,63,107)          121.3708         estimate D2E/DX2                !
 ! A154  A(64,63,107)          116.2016         estimate D2E/DX2                !
 ! A155  A(63,64,65)           114.6054         estimate D2E/DX2                !
 ! A156  A(63,64,68)           120.4215         estimate D2E/DX2                !
 ! A157  A(65,64,68)           124.1927         estimate D2E/DX2                !
 ! A158  A(64,65,66)           119.9931         estimate D2E/DX2                !
 ! A159  A(64,65,67)           122.9348         estimate D2E/DX2                !
 ! A160  A(66,65,67)           117.0328         estimate D2E/DX2                !
 ! A161  A(61,67,65)           120.1793         estimate D2E/DX2                !
 ! A162  A(61,67,108)          121.4489         estimate D2E/DX2                !
 ! A163  A(65,67,108)          118.1861         estimate D2E/DX2                !
 ! A164  A(64,68,69)           121.5564         estimate D2E/DX2                !
 ! A165  A(64,68,72)           123.1741         estimate D2E/DX2                !
 ! A166  A(69,68,72)           114.6186         estimate D2E/DX2                !
 ! A167  A(68,69,70)           109.1102         estimate D2E/DX2                !
 ! A168  A(69,70,71)           116.3213         estimate D2E/DX2                !
 ! A169  A(69,70,109)          120.1808         estimate D2E/DX2                !
 ! A170  A(71,70,109)          123.123          estimate D2E/DX2                !
 ! A171  A(70,71,72)           107.3836         estimate D2E/DX2                !
 ! A172  A(70,71,73)           129.786          estimate D2E/DX2                !
 ! A173  A(72,71,73)           122.8001         estimate D2E/DX2                !
 ! A174  A(68,72,71)            91.5309         estimate D2E/DX2                !
 ! A175  A(71,73,74)           121.4992         estimate D2E/DX2                !
 ! A176  A(71,73,79)           120.3832         estimate D2E/DX2                !
 ! A177  A(74,73,79)           118.1057         estimate D2E/DX2                !
 ! A178  A(73,74,75)           117.1901         estimate D2E/DX2                !
 ! A179  A(73,74,110)          120.7976         estimate D2E/DX2                !
 ! A180  A(75,74,110)          121.9351         estimate D2E/DX2                !
 ! A181  A(74,75,76)           126.73           estimate D2E/DX2                !
 ! A182  A(74,75,111)          118.4575         estimate D2E/DX2                !
 ! A183  A(76,75,111)          114.6493         estimate D2E/DX2                !
 ! A184  A(75,76,77)           116.1407         estimate D2E/DX2                !
 ! A185  A(75,76,80)           123.9249         estimate D2E/DX2                !
 ! A186  A(77,76,80)           119.8651         estimate D2E/DX2                !
 ! A187  A(76,77,78)           124.997          estimate D2E/DX2                !
 ! A188  A(76,77,79)           119.3457         estimate D2E/DX2                !
 ! A189  A(78,77,79)           115.6268         estimate D2E/DX2                !
 ! A190  A(73,79,77)           122.226          estimate D2E/DX2                !
 ! A191  A(73,79,112)          117.4608         estimate D2E/DX2                !
 ! A192  A(77,79,112)          119.8113         estimate D2E/DX2                !
 ! A193  A(76,80,81)           119.4301         estimate D2E/DX2                !
 ! A194  A(76,80,84)           120.2235         estimate D2E/DX2                !
 ! A195  A(81,80,84)           120.3066         estimate D2E/DX2                !
 ! A196  A(80,81,82)           104.8078         estimate D2E/DX2                !
 ! A197  A(81,82,83)           119.8805         estimate D2E/DX2                !
 ! A198  A(81,82,113)          115.9011         estimate D2E/DX2                !
 ! A199  A(83,82,113)          124.1529         estimate D2E/DX2                !
 ! A200  A(82,83,84)           107.6723         estimate D2E/DX2                !
 ! A201  A(82,83,114)          130.043          estimate D2E/DX2                !
 ! A202  A(84,83,114)          121.697          estimate D2E/DX2                !
 ! A203  A(80,84,83)            87.2399         estimate D2E/DX2                !
 ! D1    D(7,1,2,3)             -1.3227         estimate D2E/DX2                !
 ! D2    D(7,1,2,86)           179.2307         estimate D2E/DX2                !
 ! D3    D(85,1,2,3)          -179.5041         estimate D2E/DX2                !
 ! D4    D(85,1,2,86)            1.0492         estimate D2E/DX2                !
 ! D5    D(2,1,7,5)              0.329          estimate D2E/DX2                !
 ! D6    D(2,1,7,88)          -178.555          estimate D2E/DX2                !
 ! D7    D(85,1,7,5)           178.6696         estimate D2E/DX2                !
 ! D8    D(85,1,7,88)           -0.2143         estimate D2E/DX2                !
 ! D9    D(1,2,3,4)              2.8622         estimate D2E/DX2                !
 ! D10   D(1,2,3,87)           179.0312         estimate D2E/DX2                !
 ! D11   D(86,2,3,4)          -177.7002         estimate D2E/DX2                !
 ! D12   D(86,2,3,87)           -1.5313         estimate D2E/DX2                !
 ! D13   D(2,3,4,5)             -3.4332         estimate D2E/DX2                !
 ! D14   D(2,3,4,8)           -178.7326         estimate D2E/DX2                !
 ! D15   D(87,3,4,5)          -179.3101         estimate D2E/DX2                !
 ! D16   D(87,3,4,8)             5.3905         estimate D2E/DX2                !
 ! D17   D(3,4,5,6)           -177.8643         estimate D2E/DX2                !
 ! D18   D(3,4,5,7)              2.4353         estimate D2E/DX2                !
 ! D19   D(8,4,5,6)             -2.6943         estimate D2E/DX2                !
 ! D20   D(8,4,5,7)            177.6053         estimate D2E/DX2                !
 ! D21   D(3,4,8,9)            124.744          estimate D2E/DX2                !
 ! D22   D(3,4,8,12)           -60.7793         estimate D2E/DX2                !
 ! D23   D(5,4,8,9)            -50.5218         estimate D2E/DX2                !
 ! D24   D(5,4,8,12)           123.9548         estimate D2E/DX2                !
 ! D25   D(4,5,7,1)             -0.9038         estimate D2E/DX2                !
 ! D26   D(4,5,7,88)           177.9022         estimate D2E/DX2                !
 ! D27   D(6,5,7,1)            179.3845         estimate D2E/DX2                !
 ! D28   D(6,5,7,88)            -1.8094         estimate D2E/DX2                !
 ! D29   D(4,8,9,10)           177.3316         estimate D2E/DX2                !
 ! D30   D(12,8,9,10)            2.6438         estimate D2E/DX2                !
 ! D31   D(4,8,12,11)         -174.8814         estimate D2E/DX2                !
 ! D32   D(9,8,12,11)            0.0664         estimate D2E/DX2                !
 ! D33   D(8,9,10,11)           -5.0737         estimate D2E/DX2                !
 ! D34   D(8,9,10,89)         -178.3892         estimate D2E/DX2                !
 ! D35   D(9,10,11,12)           4.9214         estimate D2E/DX2                !
 ! D36   D(9,10,11,13)        -178.332          estimate D2E/DX2                !
 ! D37   D(89,10,11,12)        178.0992         estimate D2E/DX2                !
 ! D38   D(89,10,11,13)         -5.1542         estimate D2E/DX2                !
 ! D39   D(10,11,12,8)          -2.7035         estimate D2E/DX2                !
 ! D40   D(13,11,12,8)         179.8643         estimate D2E/DX2                !
 ! D41   D(10,11,13,14)       -130.1244         estimate D2E/DX2                !
 ! D42   D(10,11,13,19)         42.6038         estimate D2E/DX2                !
 ! D43   D(12,11,13,14)         46.3667         estimate D2E/DX2                !
 ! D44   D(12,11,13,19)       -140.9051         estimate D2E/DX2                !
 ! D45   D(11,13,14,15)        177.016          estimate D2E/DX2                !
 ! D46   D(11,13,14,90)         -9.1872         estimate D2E/DX2                !
 ! D47   D(19,13,14,15)          4.5997         estimate D2E/DX2                !
 ! D48   D(19,13,14,90)        178.3965         estimate D2E/DX2                !
 ! D49   D(11,13,19,17)       -179.215          estimate D2E/DX2                !
 ! D50   D(11,13,19,92)          6.642          estimate D2E/DX2                !
 ! D51   D(14,13,19,17)         -6.3259         estimate D2E/DX2                !
 ! D52   D(14,13,19,92)        179.5311         estimate D2E/DX2                !
 ! D53   D(13,14,15,16)         -1.9777         estimate D2E/DX2                !
 ! D54   D(13,14,15,91)        173.1691         estimate D2E/DX2                !
 ! D55   D(90,14,15,16)       -175.9677         estimate D2E/DX2                !
 ! D56   D(90,14,15,91)         -0.8209         estimate D2E/DX2                !
 ! D57   D(14,15,16,17)          0.9502         estimate D2E/DX2                !
 ! D58   D(14,15,16,20)       -178.9402         estimate D2E/DX2                !
 ! D59   D(91,15,16,17)       -174.4978         estimate D2E/DX2                !
 ! D60   D(91,15,16,20)          5.6117         estimate D2E/DX2                !
 ! D61   D(15,16,17,18)       -178.0803         estimate D2E/DX2                !
 ! D62   D(15,16,17,19)         -2.785          estimate D2E/DX2                !
 ! D63   D(20,16,17,18)          1.8039         estimate D2E/DX2                !
 ! D64   D(20,16,17,19)        177.0992         estimate D2E/DX2                !
 ! D65   D(15,16,20,21)        -26.9568         estimate D2E/DX2                !
 ! D66   D(15,16,20,24)        150.2484         estimate D2E/DX2                !
 ! D67   D(17,16,20,21)        153.1618         estimate D2E/DX2                !
 ! D68   D(17,16,20,24)        -29.633          estimate D2E/DX2                !
 ! D69   D(16,17,19,13)          5.3946         estimate D2E/DX2                !
 ! D70   D(16,17,19,92)        179.3652         estimate D2E/DX2                !
 ! D71   D(18,17,19,13)       -179.0108         estimate D2E/DX2                !
 ! D72   D(18,17,19,92)         -5.0401         estimate D2E/DX2                !
 ! D73   D(16,20,21,22)        177.6053         estimate D2E/DX2                !
 ! D74   D(24,20,21,22)          0.2094         estimate D2E/DX2                !
 ! D75   D(16,20,24,23)       -178.2334         estimate D2E/DX2                !
 ! D76   D(21,20,24,23)         -0.7704         estimate D2E/DX2                !
 ! D77   D(20,21,22,23)          0.6855         estimate D2E/DX2                !
 ! D78   D(20,21,22,93)        179.801          estimate D2E/DX2                !
 ! D79   D(21,22,23,24)         -1.2468         estimate D2E/DX2                !
 ! D80   D(21,22,23,25)        177.1457         estimate D2E/DX2                !
 ! D81   D(93,22,23,24)        179.6909         estimate D2E/DX2                !
 ! D82   D(93,22,23,25)         -1.9167         estimate D2E/DX2                !
 ! D83   D(22,23,24,20)          1.1009         estimate D2E/DX2                !
 ! D84   D(25,23,24,20)       -177.5362         estimate D2E/DX2                !
 ! D85   D(22,23,25,26)         51.8184         estimate D2E/DX2                !
 ! D86   D(22,23,25,31)       -129.6331         estimate D2E/DX2                !
 ! D87   D(24,23,25,26)       -129.889          estimate D2E/DX2                !
 ! D88   D(24,23,25,31)         48.6594         estimate D2E/DX2                !
 ! D89   D(23,25,26,27)        177.5354         estimate D2E/DX2                !
 ! D90   D(23,25,26,94)         -4.5351         estimate D2E/DX2                !
 ! D91   D(31,25,26,27)         -1.0763         estimate D2E/DX2                !
 ! D92   D(31,25,26,94)        176.8533         estimate D2E/DX2                !
 ! D93   D(23,25,31,29)       -176.1016         estimate D2E/DX2                !
 ! D94   D(23,25,31,96)         -3.4526         estimate D2E/DX2                !
 ! D95   D(26,25,31,29)          2.4108         estimate D2E/DX2                !
 ! D96   D(26,25,31,96)        175.0598         estimate D2E/DX2                !
 ! D97   D(25,26,27,28)         -1.0815         estimate D2E/DX2                !
 ! D98   D(25,26,27,95)       -178.4048         estimate D2E/DX2                !
 ! D99   D(94,26,27,28)       -179.0919         estimate D2E/DX2                !
 ! D100  D(94,26,27,95)          3.5849         estimate D2E/DX2                !
 ! D101  D(26,27,28,29)          1.9685         estimate D2E/DX2                !
 ! D102  D(26,27,28,32)       -175.2692         estimate D2E/DX2                !
 ! D103  D(95,27,28,29)        179.175          estimate D2E/DX2                !
 ! D104  D(95,27,28,32)          1.9373         estimate D2E/DX2                !
 ! D105  D(27,28,29,30)        178.6454         estimate D2E/DX2                !
 ! D106  D(27,28,29,31)         -0.6773         estimate D2E/DX2                !
 ! D107  D(32,28,29,30)         -4.3007         estimate D2E/DX2                !
 ! D108  D(32,28,29,31)        176.3767         estimate D2E/DX2                !
 ! D109  D(27,28,32,33)        118.0298         estimate D2E/DX2                !
 ! D110  D(27,28,32,36)        -72.8699         estimate D2E/DX2                !
 ! D111  D(29,28,32,33)        -59.1071         estimate D2E/DX2                !
 ! D112  D(29,28,32,36)        109.9932         estimate D2E/DX2                !
 ! D113  D(28,29,31,25)         -1.525          estimate D2E/DX2                !
 ! D114  D(28,29,31,96)       -174.2944         estimate D2E/DX2                !
 ! D115  D(30,29,31,25)        179.1825         estimate D2E/DX2                !
 ! D116  D(30,29,31,96)          6.413          estimate D2E/DX2                !
 ! D117  D(28,32,33,34)        173.0646         estimate D2E/DX2                !
 ! D118  D(36,32,33,34)          3.1915         estimate D2E/DX2                !
 ! D119  D(28,32,36,35)       -172.1718         estimate D2E/DX2                !
 ! D120  D(33,32,36,35)         -2.4639         estimate D2E/DX2                !
 ! D121  D(32,33,34,35)         -2.6303         estimate D2E/DX2                !
 ! D122  D(32,33,34,97)        173.0717         estimate D2E/DX2                !
 ! D123  D(33,34,35,36)          0.9264         estimate D2E/DX2                !
 ! D124  D(33,34,35,37)       -177.516          estimate D2E/DX2                !
 ! D125  D(97,34,35,36)       -174.5174         estimate D2E/DX2                !
 ! D126  D(97,34,35,37)          7.0402         estimate D2E/DX2                !
 ! D127  D(34,35,36,32)          0.7769         estimate D2E/DX2                !
 ! D128  D(37,35,36,32)        179.2645         estimate D2E/DX2                !
 ! D129  D(34,35,37,38)         55.0366         estimate D2E/DX2                !
 ! D130  D(34,35,37,43)       -124.1161         estimate D2E/DX2                !
 ! D131  D(36,35,37,38)       -123.1513         estimate D2E/DX2                !
 ! D132  D(36,35,37,43)         57.6959         estimate D2E/DX2                !
 ! D133  D(35,37,38,39)       -176.0444         estimate D2E/DX2                !
 ! D134  D(35,37,38,98)         -3.17           estimate D2E/DX2                !
 ! D135  D(43,37,38,39)          3.1794         estimate D2E/DX2                !
 ! D136  D(43,37,38,98)        176.0538         estimate D2E/DX2                !
 ! D137  D(35,37,43,41)        176.0487         estimate D2E/DX2                !
 ! D138  D(35,37,43,100)         1.2409         estimate D2E/DX2                !
 ! D139  D(38,37,43,41)         -3.1597         estimate D2E/DX2                !
 ! D140  D(38,37,43,100)      -177.9675         estimate D2E/DX2                !
 ! D141  D(37,38,39,40)         -4.3357         estimate D2E/DX2                !
 ! D142  D(37,38,39,99)        177.1762         estimate D2E/DX2                !
 ! D143  D(98,38,39,40)       -177.7503         estimate D2E/DX2                !
 ! D144  D(98,38,39,99)          3.7615         estimate D2E/DX2                !
 ! D145  D(38,39,40,41)          4.9401         estimate D2E/DX2                !
 ! D146  D(38,39,40,44)        176.357          estimate D2E/DX2                !
 ! D147  D(99,39,40,41)       -176.5961         estimate D2E/DX2                !
 ! D148  D(99,39,40,44)         -5.1791         estimate D2E/DX2                !
 ! D149  D(39,40,41,42)        178.9604         estimate D2E/DX2                !
 ! D150  D(39,40,41,43)         -4.7478         estimate D2E/DX2                !
 ! D151  D(44,40,41,42)          7.4958         estimate D2E/DX2                !
 ! D152  D(44,40,41,43)       -176.2124         estimate D2E/DX2                !
 ! D153  D(39,40,44,45)        -13.0973         estimate D2E/DX2                !
 ! D154  D(39,40,44,48)        162.2125         estimate D2E/DX2                !
 ! D155  D(41,40,44,45)        158.3145         estimate D2E/DX2                !
 ! D156  D(41,40,44,48)        -26.3757         estimate D2E/DX2                !
 ! D157  D(40,41,43,37)          3.9615         estimate D2E/DX2                !
 ! D158  D(40,41,43,100)       179.0553         estimate D2E/DX2                !
 ! D159  D(42,41,43,37)       -179.44           estimate D2E/DX2                !
 ! D160  D(42,41,43,100)        -4.3462         estimate D2E/DX2                !
 ! D161  D(40,44,45,46)        176.2641         estimate D2E/DX2                !
 ! D162  D(48,44,45,46)          0.427          estimate D2E/DX2                !
 ! D163  D(40,44,48,47)       -175.4362         estimate D2E/DX2                !
 ! D164  D(45,44,48,47)          0.0756         estimate D2E/DX2                !
 ! D165  D(44,45,46,47)         -0.9957         estimate D2E/DX2                !
 ! D166  D(44,45,46,101)      -179.5503         estimate D2E/DX2                !
 ! D167  D(45,46,47,48)          1.0158         estimate D2E/DX2                !
 ! D168  D(45,46,47,49)        177.6813         estimate D2E/DX2                !
 ! D169  D(101,46,47,48)       179.3629         estimate D2E/DX2                !
 ! D170  D(101,46,47,49)        -3.9716         estimate D2E/DX2                !
 ! D171  D(46,47,48,44)         -0.5883         estimate D2E/DX2                !
 ! D172  D(49,47,48,44)       -177.6526         estimate D2E/DX2                !
 ! D173  D(46,47,49,50)         36.5826         estimate D2E/DX2                !
 ! D174  D(46,47,49,55)       -146.6694         estimate D2E/DX2                !
 ! D175  D(48,47,49,50)       -147.2078         estimate D2E/DX2                !
 ! D176  D(48,47,49,55)         29.5402         estimate D2E/DX2                !
 ! D177  D(47,49,50,51)       -173.425          estimate D2E/DX2                !
 ! D178  D(47,49,50,102)         0.616          estimate D2E/DX2                !
 ! D179  D(55,49,50,51)          9.8242         estimate D2E/DX2                !
 ! D180  D(55,49,50,102)      -176.1347         estimate D2E/DX2                !
 ! D181  D(47,49,55,53)        177.8726         estimate D2E/DX2                !
 ! D182  D(47,49,55,104)         3.4363         estimate D2E/DX2                !
 ! D183  D(50,49,55,53)         -5.4773         estimate D2E/DX2                !
 ! D184  D(50,49,55,104)      -179.9136         estimate D2E/DX2                !
 ! D185  D(49,50,51,52)         -7.7987         estimate D2E/DX2                !
 ! D186  D(49,50,51,103)       177.2576         estimate D2E/DX2                !
 ! D187  D(102,50,51,52)       178.0527         estimate D2E/DX2                !
 ! D188  D(102,50,51,103)        3.109          estimate D2E/DX2                !
 ! D189  D(50,51,52,53)          1.8207         estimate D2E/DX2                !
 ! D190  D(50,51,52,56)       -179.516          estimate D2E/DX2                !
 ! D191  D(103,51,52,53)       176.8952         estimate D2E/DX2                !
 ! D192  D(103,51,52,56)        -4.4416         estimate D2E/DX2                !
 ! D193  D(51,52,53,54)        179.6616         estimate D2E/DX2                !
 ! D194  D(51,52,53,55)          2.1073         estimate D2E/DX2                !
 ! D195  D(56,52,53,54)          1.0297         estimate D2E/DX2                !
 ! D196  D(56,52,53,55)       -176.5246         estimate D2E/DX2                !
 ! D197  D(51,52,56,57)         14.2364         estimate D2E/DX2                !
 ! D198  D(51,52,56,60)       -165.3742         estimate D2E/DX2                !
 ! D199  D(53,52,56,57)       -167.1671         estimate D2E/DX2                !
 ! D200  D(53,52,56,60)         13.2223         estimate D2E/DX2                !
 ! D201  D(52,53,55,49)         -0.3604         estimate D2E/DX2                !
 ! D202  D(52,53,55,104)       174.9167         estimate D2E/DX2                !
 ! D203  D(54,53,55,49)       -177.9805         estimate D2E/DX2                !
 ! D204  D(54,53,55,104)        -2.7034         estimate D2E/DX2                !
 ! D205  D(52,56,57,58)       -177.155          estimate D2E/DX2                !
 ! D206  D(60,56,57,58)          2.4993         estimate D2E/DX2                !
 ! D207  D(52,56,60,59)        177.0089         estimate D2E/DX2                !
 ! D208  D(57,56,60,59)         -2.6009         estimate D2E/DX2                !
 ! D209  D(56,57,58,59)         -1.0152         estimate D2E/DX2                !
 ! D210  D(56,57,58,105)       178.0917         estimate D2E/DX2                !
 ! D211  D(57,58,59,60)         -0.8551         estimate D2E/DX2                !
 ! D212  D(57,58,59,61)        179.2468         estimate D2E/DX2                !
 ! D213  D(105,58,59,60)      -179.8998         estimate D2E/DX2                !
 ! D214  D(105,58,59,61)         0.2022         estimate D2E/DX2                !
 ! D215  D(58,59,60,56)          1.8293         estimate D2E/DX2                !
 ! D216  D(61,59,60,56)       -178.2606         estimate D2E/DX2                !
 ! D217  D(58,59,61,62)        130.4355         estimate D2E/DX2                !
 ! D218  D(58,59,61,67)        -47.2729         estimate D2E/DX2                !
 ! D219  D(60,59,61,62)        -49.4557         estimate D2E/DX2                !
 ! D220  D(60,59,61,67)        132.8359         estimate D2E/DX2                !
 ! D221  D(59,61,62,63)       -176.8989         estimate D2E/DX2                !
 ! D222  D(59,61,62,106)         1.4481         estimate D2E/DX2                !
 ! D223  D(67,61,62,63)          0.7506         estimate D2E/DX2                !
 ! D224  D(67,61,62,106)       179.0976         estimate D2E/DX2                !
 ! D225  D(59,61,67,65)        177.8512         estimate D2E/DX2                !
 ! D226  D(59,61,67,108)        -7.1912         estimate D2E/DX2                !
 ! D227  D(62,61,67,65)          0.1454         estimate D2E/DX2                !
 ! D228  D(62,61,67,108)       175.103          estimate D2E/DX2                !
 ! D229  D(61,62,63,64)         -3.8391         estimate D2E/DX2                !
 ! D230  D(61,62,63,107)      -178.2756         estimate D2E/DX2                !
 ! D231  D(106,62,63,64)       177.7527         estimate D2E/DX2                !
 ! D232  D(106,62,63,107)        3.3163         estimate D2E/DX2                !
 ! D233  D(62,63,64,65)          5.6167         estimate D2E/DX2                !
 ! D234  D(62,63,64,68)        175.9147         estimate D2E/DX2                !
 ! D235  D(107,63,64,65)      -179.6768         estimate D2E/DX2                !
 ! D236  D(107,63,64,68)        -9.3788         estimate D2E/DX2                !
 ! D237  D(63,64,65,66)        177.6206         estimate D2E/DX2                !
 ! D238  D(63,64,65,67)         -4.7294         estimate D2E/DX2                !
 ! D239  D(68,64,65,66)          7.7394         estimate D2E/DX2                !
 ! D240  D(68,64,65,67)       -174.6106         estimate D2E/DX2                !
 ! D241  D(63,64,68,69)        -14.4862         estimate D2E/DX2                !
 ! D242  D(63,64,68,72)        155.7647         estimate D2E/DX2                !
 ! D243  D(65,64,68,69)        154.8387         estimate D2E/DX2                !
 ! D244  D(65,64,68,72)        -34.9104         estimate D2E/DX2                !
 ! D245  D(64,65,67,61)          2.0301         estimate D2E/DX2                !
 ! D246  D(64,65,67,108)      -173.0898         estimate D2E/DX2                !
 ! D247  D(66,65,67,61)        179.7452         estimate D2E/DX2                !
 ! D248  D(66,65,67,108)         4.6253         estimate D2E/DX2                !
 ! D249  D(64,68,69,70)       -177.7853         estimate D2E/DX2                !
 ! D250  D(72,68,69,70)         11.1841         estimate D2E/DX2                !
 ! D251  D(64,68,72,71)       -179.5554         estimate D2E/DX2                !
 ! D252  D(69,68,72,71)         -8.6881         estimate D2E/DX2                !
 ! D253  D(68,69,70,71)         -8.4327         estimate D2E/DX2                !
 ! D254  D(68,69,70,109)       178.379          estimate D2E/DX2                !
 ! D255  D(69,70,71,72)          2.2886         estimate D2E/DX2                !
 ! D256  D(69,70,71,73)       -179.7082         estimate D2E/DX2                !
 ! D257  D(109,70,71,72)       175.2567         estimate D2E/DX2                !
 ! D258  D(109,70,71,73)        -6.7402         estimate D2E/DX2                !
 ! D259  D(70,71,72,68)          3.499          estimate D2E/DX2                !
 ! D260  D(73,71,72,68)       -174.6755         estimate D2E/DX2                !
 ! D261  D(70,71,73,74)       -143.4713         estimate D2E/DX2                !
 ! D262  D(70,71,73,79)         37.8043         estimate D2E/DX2                !
 ! D263  D(72,71,73,74)         34.2615         estimate D2E/DX2                !
 ! D264  D(72,71,73,79)       -144.4629         estimate D2E/DX2                !
 ! D265  D(71,73,74,75)       -177.9424         estimate D2E/DX2                !
 ! D266  D(71,73,74,110)        -1.0767         estimate D2E/DX2                !
 ! D267  D(79,73,74,75)          0.81           estimate D2E/DX2                !
 ! D268  D(79,73,74,110)       177.6758         estimate D2E/DX2                !
 ! D269  D(71,73,79,77)        176.9023         estimate D2E/DX2                !
 ! D270  D(71,73,79,112)         5.0521         estimate D2E/DX2                !
 ! D271  D(74,73,79,77)         -1.8646         estimate D2E/DX2                !
 ! D272  D(74,73,79,112)      -173.7148         estimate D2E/DX2                !
 ! D273  D(73,74,75,76)         -2.7415         estimate D2E/DX2                !
 ! D274  D(73,74,75,111)      -177.8298         estimate D2E/DX2                !
 ! D275  D(110,74,75,76)      -179.569          estimate D2E/DX2                !
 ! D276  D(110,74,75,111)        5.3426         estimate D2E/DX2                !
 ! D277  D(74,75,76,77)          5.2446         estimate D2E/DX2                !
 ! D278  D(74,75,76,80)       -177.7959         estimate D2E/DX2                !
 ! D279  D(111,75,76,77)      -179.5061         estimate D2E/DX2                !
 ! D280  D(111,75,76,80)        -2.5466         estimate D2E/DX2                !
 ! D281  D(75,76,77,78)        176.2604         estimate D2E/DX2                !
 ! D282  D(75,76,77,79)         -5.8393         estimate D2E/DX2                !
 ! D283  D(80,76,77,78)         -0.8305         estimate D2E/DX2                !
 ! D284  D(80,76,77,79)        177.0698         estimate D2E/DX2                !
 ! D285  D(75,76,80,81)        -28.4235         estimate D2E/DX2                !
 ! D286  D(75,76,80,84)        149.2871         estimate D2E/DX2                !
 ! D287  D(77,76,80,81)        148.4289         estimate D2E/DX2                !
 ! D288  D(77,76,80,84)        -33.8605         estimate D2E/DX2                !
 ! D289  D(76,77,79,73)          4.4849         estimate D2E/DX2                !
 ! D290  D(76,77,79,112)       176.1492         estimate D2E/DX2                !
 ! D291  D(78,77,79,73)       -177.4227         estimate D2E/DX2                !
 ! D292  D(78,77,79,112)        -5.7585         estimate D2E/DX2                !
 ! D293  D(76,80,81,82)        176.6944         estimate D2E/DX2                !
 ! D294  D(84,80,81,82)         -1.0142         estimate D2E/DX2                !
 ! D295  D(76,80,84,83)       -175.4182         estimate D2E/DX2                !
 ! D296  D(81,80,84,83)          2.2722         estimate D2E/DX2                !
 ! D297  D(80,81,82,83)         -1.4556         estimate D2E/DX2                !
 ! D298  D(80,81,82,113)      -178.6345         estimate D2E/DX2                !
 ! D299  D(81,82,83,84)          3.0177         estimate D2E/DX2                !
 ! D300  D(81,82,83,114)       174.1597         estimate D2E/DX2                !
 ! D301  D(113,82,83,84)       179.951          estimate D2E/DX2                !
 ! D302  D(113,82,83,114)       -8.907          estimate D2E/DX2                !
 ! D303  D(82,83,84,80)         -2.6895         estimate D2E/DX2                !
 ! D304  D(114,83,84,80)      -174.7254         estimate D2E/DX2                !
 --------------------------------------------------------------------------------
 Trust Radius=3.00D-01 FncErr=1.00D-07 GrdErr=1.00D-06 EigMax=2.50D+02 EigMin=1.00D-04
 Number of steps in this run=    644 maximum allowed number of steps=    684.
 GradGradGradGradGradGradGradGradGradGradGradGradGradGradGradGradGradGrad

 Leave Link  103 at Sat Jul 25 06:00:41 2020, MaxMem=  4026531840 cpu:               0.3 elap:               0.1
 (Enter /opt/ohpc/pub/libs/gaussian/g16-A.03/sandybridge/g16/l202.exe)
 Stoichiometry    C63H30F7N7S7
 Framework group  C1[X(C63H30F7N7S7)]
 Deg. of freedom   336
 Full point group                 C1      NOp   1
 Largest Abelian subgroup         C1      NOp   1
 Largest concise Abelian subgroup C1      NOp   1
                         Standard orientation:                         
 ---------------------------------------------------------------------
 Center     Atomic      Atomic             Coordinates (Angstroms)
 Number     Number       Type             X           Y           Z
 ---------------------------------------------------------------------
      1          6           0       27.025911   -2.440050   -0.633661
      2          6           0       26.071170   -3.406868   -0.486595
      3          6           0       24.787606   -3.070629   -0.121342
      4          6           0       24.419492   -1.730250    0.048428
      5          6           0       25.336694   -0.749840   -0.076519
      6          9           0       25.029212    0.477532    0.114434
      7          6           0       26.670945   -1.037692   -0.428991
      8          6           0       23.008556   -1.424753    0.476981
      9          7           0       22.712230   -0.754588    1.465149
     10          6           0       21.354547   -0.601608    1.562043
     11          6           0       20.605911   -1.097781    0.538090
     12         16           0       21.684023   -1.908505   -0.520640
     13          6           0       19.175985   -1.135466    0.207960
     14          6           0       18.529732   -2.288712   -0.157280
     15          6           0       17.109757   -2.265207   -0.405589
     16          6           0       16.335855   -1.053116   -0.236697
     17          6           0       17.060969    0.121976    0.168880
     18          9           0       16.484653    1.229638    0.382123
     19          6           0       18.424312    0.097743    0.445949
     20          6           0       14.969660   -1.087096   -0.466518
     21          7           0       14.389784   -1.921183   -1.269847
     22          6           0       12.972443   -1.774599   -1.278673
     23          6           0       12.501426   -0.768249   -0.445425
     24         16           0       13.838486    0.001013    0.403137
     25          6           0       11.101354   -0.241699   -0.196022
     26          6           0       10.138620   -1.165980    0.118150
     27          6           0        8.842824   -0.752612    0.410473
     28          6           0        8.538521    0.598318    0.403871
     29          6           0        9.516262    1.526580    0.066180
     30          9           0        9.177646    2.804029    0.045492
     31          6           0       10.766937    1.104344   -0.241653
     32          6           0        7.155507    0.982426    0.832981
[...]
  Beta virt. eigenvalues --    1.84292   1.84605   1.84749   1.85095   1.85120
  Beta virt. eigenvalues --    1.85350   1.85402   1.85421   1.85673   1.85932
  Beta virt. eigenvalues --    1.85990   1.86265   1.86486   1.86684   1.87086
  Beta virt. eigenvalues --    1.87348   1.87636   1.87737   1.88128   1.88332
  Beta virt. eigenvalues --    1.88640   1.89221   1.89729   1.90389   1.90478
  Beta virt. eigenvalues --    1.90746   1.91078   1.91489   1.91873   1.92026
  Beta virt. eigenvalues --    1.92204   1.92786   1.93300   1.93468   1.93569
  Beta virt. eigenvalues --    1.93952   1.94193   1.94341   1.94766   1.94960
  Beta virt. eigenvalues --    1.95239   1.95498   1.95658   1.95789   1.96135
  Beta virt. eigenvalues --    1.96408   1.96628   1.96728   1.97017   1.97531
  Beta virt. eigenvalues --    1.97993   1.98141   1.98508   1.98855   1.99038
  Beta virt. eigenvalues --    1.99638   2.00139   2.00407   2.01055   2.01598
  Beta virt. eigenvalues --    2.01694   2.02411   2.02762   2.03279   2.03415
  Beta virt. eigenvalues --    2.03492   2.03679   2.04229   2.04242   2.04664
  Beta virt. eigenvalues --    2.05195   2.05264   2.06010   2.06297   2.07275
  Beta virt. eigenvalues --    2.08335   2.08627   2.08879   2.08967   2.09691
  Beta virt. eigenvalues --    2.10374   2.11010   2.11684   2.12505   2.13576
  Beta virt. eigenvalues --    2.13691   2.14025   2.14436   2.15053   2.15888
  Beta virt. eigenvalues --    2.16643   2.16899   2.17228   2.17422   2.19515
  Beta virt. eigenvalues --    2.19851   2.20154   2.20351   2.20580   2.20599
  Beta virt. eigenvalues --    2.22151   2.22653   2.23099   2.23753   2.23942
  Beta virt. eigenvalues --    2.24126   2.24321   2.24588   2.24675   2.24938
  Beta virt. eigenvalues --    2.25236   2.25581   2.25926   2.26351   2.26459
  Beta virt. eigenvalues --    2.26989   2.27757   2.28205   2.28298   2.28678
  Beta virt. eigenvalues --    2.29149   2.31241   2.31594   2.31792   2.32080
  Beta virt. eigenvalues --    2.32341   2.32557   2.32769   2.33065   2.33347
  Beta virt. eigenvalues --    2.33358   2.33437   2.33615   2.33657   2.33900
  Beta virt. eigenvalues --    2.34133   2.36810   2.37619   2.37814   2.38025
  Beta virt. eigenvalues --    2.38228   2.38744   2.38842   2.38907   2.38933
  Beta virt. eigenvalues --    2.39390   2.39728   2.39862   2.40381   2.40513
  Beta virt. eigenvalues --    2.41687   2.43910   2.44253   2.45660   2.46256
  Beta virt. eigenvalues --    2.46422   2.46497   2.46757   2.46981   2.47009
  Beta virt. eigenvalues --    2.47425   2.47851   2.48014   2.48685   2.49066
  Beta virt. eigenvalues --    2.51385   2.53250   2.53639   2.54226   2.54714
  Beta virt. eigenvalues --    2.55111   2.55235   2.57876   2.58425   2.58888
  Beta virt. eigenvalues --    2.59647   2.59838   2.61012   2.61871   2.64687
  Beta virt. eigenvalues --    2.64792   2.65629   2.65810   2.65986   2.66320
  Beta virt. eigenvalues --    2.66586   2.66697   2.67341   2.67754   2.67982
  Beta virt. eigenvalues --    2.69360   2.69552   2.71926   2.72435   2.73426
  Beta virt. eigenvalues --    2.73705   2.74475   2.74734   2.74887   2.75158
  Beta virt. eigenvalues --    2.75815   2.77992   2.78786   2.79592   2.80314
  Beta virt. eigenvalues --    2.81069   2.81350   2.84652   2.84684   2.85148
  Beta virt. eigenvalues --    2.85451   2.85555   2.85588   2.86955   2.95740
  Beta virt. eigenvalues --    2.96777   2.97191   2.98426   2.99509   3.00272
  Beta virt. eigenvalues --    3.03810   3.28004   3.28498   3.29206   3.29886
  Beta virt. eigenvalues --    3.30206   3.30782   3.35995   3.49814   3.49873
  Beta virt. eigenvalues --    3.49944   3.50068   3.50360   3.51568   3.51874
  Beta virt. eigenvalues --    3.54660   3.54777   3.55002   3.55031   3.55087
  Beta virt. eigenvalues --    3.55703   3.55754   3.68021   3.68068   3.68153
  Beta virt. eigenvalues --    3.68242   3.68528   3.70504   3.70724   3.89536
  Beta virt. eigenvalues --    3.89629   3.89690   3.89804   3.90056   3.92369
  Beta virt. eigenvalues --    3.92504   4.11350   4.11390   4.11463   4.11593
  Beta virt. eigenvalues --    4.11804   4.13109   4.13323
          Condensed to atoms (all electrons):
          Atomic-Atomic Spin Densities.
 Mulliken charges and spin densities:
               1          2
     1  C    0.039764  -0.000000
     2  C    0.037472  -0.000000
     3  C   -0.003159   0.000000
     4  C    0.015776   0.000000
     5  C    0.096635  -0.000000
     6  F   -0.098899  -0.000000
     7  C    0.024998   0.000000
     8  C   -0.008905  -0.000000
     9  N   -0.161091  -0.000000
    10  C    0.124013  -0.000000
    11  C   -0.189421   0.000000
    12  S    0.122856   0.000000
    13  C    0.097853  -0.000000
    14  C    0.015608  -0.000000
    15  C    0.050368  -0.000000
    16  C    0.014231   0.000000
    17  C    0.063942  -0.000000
    18  F   -0.122142   0.000000
    19  C    0.008293   0.000000
    20  C    0.007840  -0.000000
    21  N   -0.179877   0.000000
    22  C    0.134287  -0.000000
    23  C   -0.201484   0.000000
    24  S    0.148074  -0.000000
    25  C    0.101656   0.000000
    26  C    0.003555  -0.000000
    27  C    0.003721   0.000000
    28  C    0.029020  -0.000000
    29  C    0.103528  -0.000000
    30  F   -0.095156  -0.000000
    31  C   -0.000780  -0.000000
    32  C   -0.009170   0.000000
    33  N   -0.163881  -0.000000
    34  C    0.124615  -0.000000
    35  C   -0.186342   0.000000
    36  S    0.119122  -0.000000
    37  C    0.096054  -0.000000
    38  C    0.013787  -0.000000
    39  C    0.051192   0.000000
    40  C    0.015717  -0.000000
    41  C    0.060207   0.000000
    42  F   -0.122184   0.000000
    43  C    0.012296   0.000000
    44  C    0.007724   0.000000
    45  N   -0.179398  -0.000000
    46  C    0.134322   0.000000
    47  C   -0.200183  -0.000000
    48  S    0.144949   0.000000
    49  C    0.096865   0.000000
    50  C    0.012864   0.000000
    51  C    0.051201  -0.000000
    52  C    0.015314   0.000000
    53  C    0.060290  -0.000000
    54  F   -0.121897   0.000000
    55  C    0.011526  -0.000000
    56  C    0.007725   0.000000
    57  N   -0.179804  -0.000000
    58  C    0.134213   0.000000
    59  C   -0.201919  -0.000000
    60  S    0.146466   0.000000
    61  C    0.098891   0.000000
    62  C    0.013702   0.000000
    63  C    0.050845  -0.000000
    64  C    0.014662   0.000000
    65  C    0.063293  -0.000000
    66  F   -0.122888   0.000000
    67  C    0.006651   0.000000
    68  C    0.007289  -0.000000
    69  N   -0.179806  -0.000000
    70  C    0.133697  -0.000000
    71  C   -0.201017  -0.000000
    72  S    0.145790  -0.000000
    73  C    0.096754   0.000000
    74  C    0.012943  -0.000000
    75  C    0.049252  -0.000000
    76  C    0.023665   0.000000
    77  C    0.065501  -0.000000
    78  F   -0.124598  -0.000000
    79  C    0.005210  -0.000000
    80  C   -0.015279  -0.000000
    81  N   -0.182444   0.000000
    82  C    0.132075  -0.000000
    83  C   -0.164071   0.000000
    84  S    0.157182  -0.000000
    85  H   -0.008923  -0.000000
    86  H   -0.014031  -0.000000
    87  H   -0.010730  -0.000000
    88  H   -0.002109   0.000000
    89  H    0.004510   0.000000
    90  H   -0.016176  -0.000000
    91  H   -0.013431  -0.000000
    92  H   -0.010181  -0.000000
    93  H    0.003154   0.000000
    94  H   -0.023936  -0.000000
    95  H   -0.009266  -0.000000
    96  H   -0.004278  -0.000000
    97  H    0.005569   0.000000
    98  H   -0.020058  -0.000000
    99  H   -0.012615   0.000000
   100  H   -0.006271   0.000000
   101  H    0.004351   0.000000
   102  H   -0.021716  -0.000000
   103  H   -0.013286  -0.000000
   104  H   -0.003821   0.000000
   105  H    0.003397  -0.000000
   106  H   -0.013349  -0.000000
   107  H   -0.013222  -0.000000
   108  H   -0.012366   0.000000
   109  H    0.002882   0.000000
   110  H   -0.014413   0.000000
   111  H   -0.013791   0.000000
   112  H   -0.013270   0.000000
   113  H    0.001215   0.000000
   114  H    0.024611  -0.000000
 Sum of Mulliken charges =  -0.00000  -0.00000
 Mulliken charges and spin densities with hydrogens summed into heavy atoms:
               1          2
     1  C    0.030841  -0.000000
     2  C    0.023442  -0.000000
     3  C   -0.013889   0.000000
     4  C    0.015776   0.000000
     5  C    0.096635  -0.000000
     6  F   -0.098899  -0.000000
     7  C    0.022889   0.000000
     8  C   -0.008905  -0.000000
     9  N   -0.161091  -0.000000
    10  C    0.128523   0.000000
    11  C   -0.189421   0.000000
    12  S    0.122856   0.000000
    13  C    0.097853  -0.000000
    14  C   -0.000568  -0.000000
    15  C    0.036937  -0.000000
    16  C    0.014231   0.000000
    17  C    0.063942  -0.000000
    18  F   -0.122142   0.000000
    19  C   -0.001888   0.000000
    20  C    0.007840  -0.000000
    21  N   -0.179877   0.000000
    22  C    0.137441  -0.000000
    23  C   -0.201484   0.000000
    24  S    0.148074  -0.000000
    25  C    0.101656   0.000000
    26  C   -0.020381  -0.000000
    27  C   -0.005545   0.000000
    28  C    0.029020  -0.000000
    29  C    0.103528  -0.000000
    30  F   -0.095156  -0.000000
    31  C   -0.005057  -0.000000
    32  C   -0.009170   0.000000
    33  N   -0.163881  -0.000000
    34  C    0.130184  -0.000000
    35  C   -0.186342   0.000000
    36  S    0.119122  -0.000000
    37  C    0.096054  -0.000000
    38  C   -0.006271  -0.000000
    39  C    0.038578   0.000000
    40  C    0.015717  -0.000000
    41  C    0.060207   0.000000
    42  F   -0.122184   0.000000
    43  C    0.006024   0.000000
    44  C    0.007724   0.000000
    45  N   -0.179398  -0.000000
    46  C    0.138673   0.000000
    47  C   -0.200183  -0.000000
    48  S    0.144949   0.000000
    49  C    0.096865   0.000000
    50  C   -0.008852   0.000000
    51  C    0.037916  -0.000000
    52  C    0.015314   0.000000
    53  C    0.060290  -0.000000
    54  F   -0.121897   0.000000
    55  C    0.007705  -0.000000
    56  C    0.007725   0.000000
    57  N   -0.179804  -0.000000
    58  C    0.137610   0.000000
    59  C   -0.201919  -0.000000
    60  S    0.146466   0.000000
    61  C    0.098891   0.000000
    62  C    0.000353   0.000000
    63  C    0.037622  -0.000000
    64  C    0.014662   0.000000
    65  C    0.063293  -0.000000
    66  F   -0.122888   0.000000
    67  C   -0.005715   0.000000
    68  C    0.007289  -0.000000
    69  N   -0.179806  -0.000000
    70  C    0.136579  -0.000000
    71  C   -0.201017  -0.000000
    72  S    0.145790  -0.000000
    73  C    0.096754   0.000000
    74  C   -0.001470   0.000000
    75  C    0.035461  -0.000000
    76  C    0.023665   0.000000
    77  C    0.065501  -0.000000
    78  F   -0.124598  -0.000000
    79  C   -0.008059  -0.000000
    80  C   -0.015279  -0.000000
    81  N   -0.182444   0.000000
    82  C    0.133290  -0.000000
    83  C   -0.139460   0.000000
    84  S    0.157182  -0.000000
 Electronic spatial extent (au):  <R**2>=         580067.6944
 Charge=             -0.0000 electrons
 Dipole moment (field-independent basis, Debye):
    X=              2.2243    Y=             -3.1022    Z=             -1.0852  Tot=              3.9685
 Quadrupole moment (field-independent basis, Debye-Ang):
   XX=           -429.6490   YY=           -487.9926   ZZ=           -530.7305
   XY=            -55.3339   XZ=            -24.1571   YZ=              2.4852
 Traceless Quadrupole moment (field-independent basis, Debye-Ang):
   XX=             53.1417   YY=             -5.2019   ZZ=            -47.9398
   XY=            -55.3339   XZ=            -24.1571   YZ=              2.4852
 Octapole moment (field-independent basis, Debye-Ang**2):
  XXX=            772.3963  YYY=            -93.3392  ZZZ=             29.5838  XYY=            222.8895
  XXY=          -1827.1868  XXZ=           -533.2150  XZZ=              7.0604  YZZ=              2.0705
  YYZ=            -34.6045  XYZ=            221.3817
 Hexadecapole moment (field-independent basis, Debye-Ang**3):
 XXXX=        -628761.3627 YYYY=         -28064.9491 ZZZZ=          -1223.8331 XXXY=         -21204.1096
 XXXZ=         -15850.8389 YYYX=          -1517.7301 YYYZ=             99.9017 ZZZX=             84.1718
 ZZZY=            -43.8220 XXYY=        -117086.9171 XXZZ=        -130831.4456 YYZZ=          -5264.3384
 XXYZ=           2355.9490 YYXZ=          -1146.8202 ZZXY=            315.8482
 N-N= 1.140280852180D+04 E-N=-3.759448464538D+04  KE= 6.256506650547D+03
 Leave Link  601 at Sat Jul 25 12:01:43 2020, MaxMem=  4026531840 cpu:              10.2 elap:               1.4
 (Enter /opt/ohpc/pub/libs/gaussian/g16-A.03/sandybridge/g16/l9999.exe)

 Test job not archived.
 1\1\GINC-SKYLAKE011\FOpt\ULC-wPBE\CC-pVDZ\C63H30F7N7S7\RDU230\25-Jul-2
 020\0\\#P uLC-wPBE/cc-pVDZ iop(3/107=0090500000, 3/108=0090500000) opt
 \\H30 C63 S7 N7 F7\\0,1\C,26.1503554789,-5.0686210669,-1.1161338862\C,
 24.8846486883,-5.6441613372,-1.3110627045\C,23.7352811651,-4.934890868
 ,-0.9517063515\C,23.8048131261,-3.6357094437,-0.3949965266\C,25.096174
 4416,-3.0862799617,-0.2143582744\F,25.2382506551,-1.8447660723,0.29099
 713\C,26.2545381474,-3.7850436121,-0.5661006706\C,22.5912903668,-2.894
 9841504,-0.0305997385\N,22.5242973749,-1.8943410526,0.8266459094\C,21.
 2457706909,-1.4310478611,0.9454464078\C,20.2661714408,-2.0528412534,0.
 1791344343\S,21.0286276695,-3.3115588091,-0.7704131849\C,18.8304400512
 ,-1.7713405762,0.1133202655\C,17.9018847977,-2.7162347564,-0.389984703
 4\C,16.5391267951,-2.4338677927,-0.4347469394\C,16.0220404428,-1.19754
 93842,0.0225382217\C,16.9641218453,-0.2741796524,0.5188395071\F,16.528
 4594107,0.9365821601,0.9645783798\C,18.3303124457,-0.5297483113,0.5661
 903859\C,14.5810630929,-0.9501869993,-0.0458643607\N,13.7297844434,-1.
 8461037613,-0.5239329737\C,12.448948712,-1.3826224484,-0.4797197801\C,
 12.2541267252,-0.1051192952,0.0349861379\S,13.8123401957,0.5476634767,
 0.496524\C,11.0029308224,0.6396021688,0.1922921428\C,9.7553317962,-0.0
 318797522,0.1843327242\C,8.5653564539,0.6775961862,0.3242868802\C,8.53
 64259241,2.0843659067,0.484592912\C,9.7932168136,2.7350016039,0.497413
 8963\F,9.861440084,4.0740175294,0.6256717225\C,10.9940384481,2.0414778
 064,0.3530603173\C,7.2760891402,2.8162848349,0.6255921827\N,7.14270581
 54,4.0444846739,1.0907996278\C,5.8343474702,4.4313570224,1.0972918293\
 C,4.8943164108,3.5177543944,0.6322182028\S,5.7379400542,2.0639103816,0
 .1399939056\C,3.4406173954,3.6648338946,0.535287031\C,2.8421027702,4.9
 509889096,0.5479894296\C,1.4606160785,5.0998736735,0.4713967376\C,0.59
 53474217,3.9824005781,0.3684385136\C,1.2132284267,2.7169613068,0.34961
 40366\F,0.4355857742,1.6033659862,0.2533240391\C,2.5912904574,2.541734
 7816,0.4325834461\C,-0.849950021,4.1969681074,0.2854471662\N,-1.389555
 4808,5.4067958509,0.3074148611\C,-2.7477725716,5.3437906135,0.21446479
 07\C,-3.3189112951,4.0790551982,0.1172387923\S,-2.0333096515,2.8896673
 696,0.1433416755\C,-4.7341948163,3.717546709,0.0124413965\C,-5.6985460
 982,4.6761105586,-0.3921526758\C,-7.047056498,4.3440909277,-0.48084508
 39\C,-7.5144560884,3.0401785299,-0.1821139611\C,-6.5378110193,2.104114
 6672,0.2097310981\F,-6.9241563215,0.8340589588,0.5123341476\C,-5.18500
 05302,2.4137019424,0.3130646605\C,-8.9430683658,2.7440294164,-0.297542
 6885\N,-9.8276895649,3.6559124758,-0.6739630319\C,-11.0879575027,3.138
 2834863,-0.7032901351\C,-11.2331293147,1.8006173398,-0.3502520736\S,-9
 .6520488705,1.160857486,0.0484704236\C,-12.450993329,0.9889860054,-0.2
 983660862\C,-12.4088716283,-0.4276011484,-0.2871376835\C,-13.577864724
 2,-1.1830536996,-0.2469368404\C,-14.8556097275,-0.5733195196,-0.220233
 1934\C,-14.8724498998,0.8358975443,-0.2319672372\F,-16.0713331753,1.48
 13951602,-0.1975986583\C,-13.7189340758,1.6119956669,-0.2641000952\C,-
 16.0537246914,-1.4132612337,-0.1806628563\N,-15.991369932,-2.736639097
 6,-0.170819716\C,-17.2367579186,-3.2891914689,-0.1329358387\C,-18.3185
 221895,-2.4151358172,-0.1122186117\S,-17.7032520226,-0.7756127369,-0.1
 4025237\C,-19.750518298,-2.721961279,-0.0780287299\C,-20.7309831332,-1
 .7693093223,-0.4504227399\C,-22.0877920756,-2.0826915124,-0.4207176653
 \C,-22.5463531062,-3.3615533582,-0.0236617152\C,-21.5534806378,-4.2917
 946383,0.3418622495\F,-21.9316200987,-5.5375323874,0.7428402679\C,-20.
 1932685297,-4.0007063712,0.3281177777\C,-23.9853192072,-3.6406943224,-
 0.0116130315\N,-24.8848737951,-2.7366442463,-0.3622882774\C,-26.155479
 7125,-3.2391762624,-0.26763484\C,-26.2608576906,-4.5463111394,0.159909
 6624\S,-24.6855838669,-5.1979557701,0.4653462935\H,27.0610437729,-5.61
 93555394,-1.3902718577\H,24.792839306,-6.6531510588,-1.7354525251\H,22
 .7467640017,-5.3990896445,-1.084298098\H,27.2256501203,-3.2987093491,-
 0.4034589013\H,21.0435718718,-0.6157604449,1.6527354178\H,18.259815176
 9,-3.6954108809,-0.7384751255\H,15.8194399125,-3.1665814029,-0.8226200
 386\H,18.9929998332,0.2602104822,0.9416626673\H,11.6432276692,-2.01867
 7736,-0.8691054066\H,9.7213218223,-1.1256449716,0.0975634033\H,7.61445
 26378,0.1249572679,0.3380638433\H,11.9242668508,2.6262022784,0.3493567
 874\H,5.5794074528,5.4244007454,1.4900777459\H,3.4754943548,5.84650670
 08,0.5976324182\H,0.9959676945,6.0945705033,0.4778917303\H,2.986994659
 1,1.5170747759,0.430656606\H,-3.3234087998,6.2781022236,0.2444189191\H
 ,-5.3785894244,5.6916216089,-0.6605809351\H,-7.7940680446,5.0838926957
 ,-0.7971414738\H,-4.4953755686,1.6259529122,0.645498117\H,-11.91674027
 53,3.7842252268,-1.0217931241\H,-11.43840235,-0.9425925097,-0.32502384
 77\H,-13.5451910018,-2.2803995316,-0.2409639626\H,-13.8287739197,2.703
 6319074,-0.2425142488\H,-17.3299734148,-4.3831512259,-0.1443883014\H,-
 20.4181374716,-0.7692765152,-0.7830186531\H,-22.8477572639,-1.34569416
 23,-0.7116793646\H,-19.4934932589,-4.7794652236,0.6570169351\H,-27.006
 848841,-2.5971112168,-0.52881074\H,-27.1626327863,-5.1495106558,0.3093
 013245\\Version=EM64L-G16RevA.03\State=1-A\HF=-6284.1646111\S2=0.\S2-1
 =0.\S2A=0.\RMSD=3.762e-09\RMSF=2.329e-06\Dipole=0.8798326,-1.1909201,-
 0.4952776\Quadrupole=39.8297022,-4.477809,-35.3518931,-39.8881368,-20.
 244903,3.544521\PG=C01 [X(C63H30F7N7S7)]\\@


 THOUGH I SPEAK WITH THE TONGUES OF MEN AND OF ANGELS, 
 AND HAVE NOT LOVE,
 I AM BECOME AS SOUNDING BRASS, A TINKLING CYMBAL.
 AND THOUGH I HAVE THE GIFT OF PROPHECY,
 AND UNDERSTAND ALL MYSTERIES, AND ALL KNOWLEDGE.
 AND THOUGH I HAVE ALL FAITH, SO THAT I COULD REMOVE MOUNTAINS,
 AND HAVE NOT LOVE, I AM NOTHING.
 AND THOUGH I BESTOW ALL MY GOODS TO FEED THE POOR,
 AND THOUGH I GIVE MY BODY TO BE BURNED,
 AND HAVE NOT LOVE IT PROFITETH ME NOTHING.
 LOVE SUFFERETH LONG, AND IS KIND,
 LOVE ENVIETH NOT,
 LOVE VAUNTETH NOT ITSELF, IS NOT PUFFED UP,
 DOTH NOT BEHAVE ITSELF UNSEEMLY, SEEKETH NOT HER OWN,
 IS NOT EASILY PROVOKED, THINKETH NO EVIL,
 REJOICETH NOT IN INIQUITY, BUT REJOICETH IN THE TRUTH,
 BEARETH ALL THINGS, BELIEVETH ALL THINGS,
 HOPETH ALL THINGS, ENDURETH ALL THINGS.
 LOVE NEVER FAILETH, BUT WHETHER THERE BE PROPHECIES, THEY SHALL FAIL, 
 WHETHER THERE BE TONGUES, THEY SHALL CEASE,
 WHETHER THERE BE KNOWLEDGE, IT SHALL VANISH AWAY.
 FOR WE KNOW IN PART, AND WE PROPHESY IN PART.
 BUT WHEN THAT WHICH IS PERFECT IS COME, THEN THAT WHICH IS IN PART 
 SHALL BE DONE AWAY. 
 WHEN I WAS A CHILD, I SPAKE AS A CHILD, I UNDERSTOOD AS A CHILD, 
 I THOUGHT AS A CHILD.
 BUT WHEN I BECAME A MAN, I PUT AWAY CHILDISH THINGS.
 FOR NOW WE SEE THROUGH A GLASS, DARKLY, BUT THEN FACE TO FACE.
 NOW I KNOW IN PART. BUT THEN SHALL I KNOW EVEN AS ALSO I AM KNOWN.
 AND NOW ABIDETH FAITH, HOPE AND LOVE, THESE THREE.
 BUT THE GREATEST OF THESE IS LOVE.

                     I CORINTHIANS 13
 Job cpu time:       1 days 22 hours 58 minutes  4.1 seconds.
 Elapsed time:       0 days  6 hours  0 minutes 58.8 seconds.
 File lengths (MBytes):  RWF=   2052 Int=      0 D2E=      0 Chk=    184 Scr=      8
 Normal termination of Gaussian 16 at Sat Jul 25 12:01:43 2020.
