 Entering Gaussian System, Link 0=g16
 Input=mols_65_3_11_c-cF-COC_opt_0.gjf
 Output=mols_65_3_11_c-cF-COC_opt_0.log
 Initial command:
 /opt/ohpc/pub/libs/gaussian/g16-A.03/sandybridge/g16/l1.exe "/mnt/gpfs2_4m/scratch/rdu230/ondemand/projects/dihedral_energies/7trial/wtuning/mols_65_3_11_c-cF-COC/Gau-350725.inp" -scrdir="/mnt/gpfs2_4m/scratch/rdu230/ondemand/projects/dihedral_energies/7trial/wtuning/mols_65_3_11_c-cF-COC/"
 Entering Link 1 = /opt/ohpc/pub/libs/gaussian/g16-A.03/sandybridge/g16/l1.exe PID=    350728.
  
 Copyright (c) 1988,1990,1992,1993,1995,1998,2003,2009,2016,
            Gaussian, Inc.  All Rights Reserved.
  
 This is part of the Gaussian(R) 16 program.  It is based on
 the Gaussian(R) 09 system (copyright 2009, Gaussian, Inc.),
 the Gaussian(R) 03 system (copyright 2003, Gaussian, Inc.),
 the Gaussian(R) 98 system (copyright 1998, Gaussian, Inc.),
 the Gaussian(R) 94 system (copyright 1995, Gaussian, Inc.),
 the Gaussian 92(TM) system (copyright 1992, Gaussian, Inc.),
 the Gaussian 90(TM) system (copyright 1990, Gaussian, Inc.),
 the Gaussian 88(TM) system (copyright 1988, Gaussian, Inc.),
 the Gaussian 86(TM) system (copyright 1986, Carnegie Mellon
 University), and the Gaussian 82(TM) system (copyright 1983,
 Carnegie Mellon University). Gaussian is a federally registered
 trademark of Gaussian, Inc.
  
 This software contains proprietary and confidential information,
 including trade secrets, belonging to Gaussian, Inc.
  
 This software is provided under written license and may be
 used, copied, transmitted, or stored only in accord with that
 written license.
  
 The following legend is applicable only to US Government
 contracts under FAR:
  
                    RESTRICTED RIGHTS LEGEND
  
 Use, reproduction and disclosure by the US Government is
 subject to restrictions as set forth in subparagraphs (a)
 and (c) of the Commercial Computer Software - Restricted
 Rights clause in FAR 52.227-19.
  
 Gaussian, Inc.
 340 Quinnipiac St., Bldg. 40, Wallingford CT 06492
  
  
 ---------------------------------------------------------------
 Warning -- This program may not be used in any manner that
 competes with the business of Gaussian, Inc. or will provide
 assistance to any competitor of Gaussian, Inc.  The licensee
 of this program is prohibited from giving any competitor of
 Gaussian, Inc. access to this program.  By using this program,
 the user acknowledges that Gaussian, Inc. is engaged in the
 business of creating and licensing software in the field of
 computational chemistry and represents and warrants to the
 licensee that it is not a competitor of Gaussian, Inc. and that
 it will not use this program in any manner prohibited above.
 ---------------------------------------------------------------
  

 Cite this work as:
 Gaussian 16, Revision A.03,
 M. J. Frisch, G. W. Trucks, H. B. Schlegel, G. E. Scuseria, 
 M. A. Robb, J. R. Cheeseman, G. Scalmani, V. Barone, 
 G. A. Petersson, H. Nakatsuji, X. Li, M. Caricato, A. V. Marenich, 
 J. Bloino, B. G. Janesko, R. Gomperts, B. Mennucci, H. P. Hratchian, 
 J. V. Ortiz, A. F. Izmaylov, J. L. Sonnenberg, D. Williams-Young, 
 F. Ding, F. Lipparini, F. Egidi, J. Goings, B. Peng, A. Petrone, 
 T. Henderson, D. Ranasinghe, V. G. Zakrzewski, J. Gao, N. Rega, 
 G. Zheng, W. Liang, M. Hada, M. Ehara, K. Toyota, R. Fukuda, 
 J. Hasegawa, M. Ishida, T. Nakajima, Y. Honda, O. Kitao, H. Nakai, 
 T. Vreven, K. Throssell, J. A. Montgomery, Jr., J. E. Peralta, 
 F. Ogliaro, M. J. Bearpark, J. J. Heyd, E. N. Brothers, K. N. Kudin, 
 V. N. Staroverov, T. A. Keith, R. Kobayashi, J. Normand, 
 K. Raghavachari, A. P. Rendell, J. C. Burant, S. S. Iyengar, 
 J. Tomasi, M. Cossi, J. M. Millam, M. Klene, C. Adamo, R. Cammi, 
 J. W. Ochterski, R. L. Martin, K. Morokuma, O. Farkas, 
 J. B. Foresman, and D. J. Fox, Gaussian, Inc., Wallingford CT, 2016.
 
 ******************************************
 Gaussian 16:  EM64L-G16RevA.03 25-Dec-2016
                23-Jul-2020 
 ******************************************
 %mem=30GB
 %nproc=8
 Will use up to    8 processors via shared memory.
 ---------------------------------------------------------------
 #P uLC-wPBE/cc-pVDZ iop(3/107=0467500000, 3/108=0467500000) opt
 ---------------------------------------------------------------
 1/18=20,19=15,26=3,38=1/1,3;
 2/9=110,12=2,17=6,18=5,40=1/2;
 3/5=16,11=2,25=1,30=1,71=1,74=-41,107=467500000,108=467500000,116=2/1,2,3;
 4//1;
 5/5=2,38=5/2;
 6/7=2,8=2,9=2,10=2,28=1/1;
 7//1,2,3,16;
 1/18=20,19=15,26=3/3(2);
 2/9=110/2;
 99//99;
 2/9=110/2;
 3/5=16,11=2,25=1,30=1,71=1,74=-41,107=467500000,108=467500000,116=2/1,2,3;
 4/5=5,16=3,69=1/1;
 5/5=2,38=5/2;
 7//1,2,3,16;
 1/18=20,19=15,26=3/3(-5);
 2/9=110/2;
 6/7=2,8=2,9=2,10=2,19=2,28=1/1;
 99/9=1/99;
 Leave Link    1 at Thu Jul 23 10:00:15 2020, MaxMem=  4026531840 cpu:               2.1 elap:               0.3
 (Enter /opt/ohpc/pub/libs/gaussian/g16-A.03/sandybridge/g16/l101.exe)
 ----------------
 H23 C33 S3 O3 F3
 ----------------
 Symbolic Z-matrix:
 Charge =  0 Multiplicity = 1
 C                    -10.71417  -2.98483  -0.43801 
 C                    -10.55683  -1.91853  -1.32623 
 C                    -9.46541  -1.04752  -1.20427 
 C                    -8.45831  -1.29762  -0.27003 
 C                    -8.60644  -2.38875   0.65875 
 F                    -7.7791   -2.576     1.58043 
 C                    -9.76086  -3.25187   0.49846 
 C                    -7.36962  -0.4042   -0.1368 
 C                    -7.3493    1.02289   0.03346 
 O                    -8.56147   1.72987   0.10047 
 C                    -8.41726   3.08504   0.44548 
 C                    -6.04135   1.51347   0.03731 
 C                    -5.08143   0.53566  -0.13352 
 S                    -5.75569  -0.95193  -0.32872 
 C                    -3.59411   0.78154  -0.12356 
 C                    -3.02857   1.58882  -1.08786 
 C                    -1.6242    1.73266  -1.05332 
 C                    -0.84652   1.09708  -0.06668 
 C                    -1.39732   0.25091   0.82859 
 F                    -0.6834   -0.35792   1.81449 
 C                    -2.86101   0.0973    0.80775 
 C                     0.67709   1.35085  -0.11367 
 C                     1.33642   2.53039  -0.05169 
 O                     0.67446   3.71868   0.13824 
 C                     1.42305   4.8541    0.34665 
 C                     2.74711   2.32412  -0.07964 
 C                     3.07295   1.04563  -0.12041 
 S                     1.66184  -0.01538  -0.21609 
 C                     4.4127    0.39599  -0.22518 
 C                     5.42647   1.02708  -1.01002 
 C                     6.72256   0.40679  -1.02671 
 C                     7.03677  -0.66611  -0.31786 
 C                     6.05179  -1.26202   0.54936 
 F                     6.38338  -2.27288   1.30249 
 C                     4.76092  -0.73066   0.62854 
 C                     8.40172  -1.23578  -0.3124 
 C                     9.61801  -0.55755   0.08826 
 O                     9.6307    0.72566   0.50546 
 C                     10.84079   1.23261   1.00184 
 C                     10.70662  -1.38722  -0.14686 
 C                     10.38952  -2.6517   -0.71599 
 S                     8.67858  -2.74023  -0.91287 
 H                    -11.51564  -3.74245  -0.50834 
 H                    -11.37956  -1.78885  -2.0247 
 H                    -9.47107  -0.25325  -1.9255 
 H                    -9.83679  -4.09706   1.19878 
 H                    -7.91326   3.61443  -0.44168 
 H                    -9.40664   3.42547   0.53843 
 H                    -7.91263   3.25997   1.33469 
 H                    -5.75879   2.63053   0.13487 
 H                    -3.59123   2.1546   -1.76267 
 H                    -1.16665   2.42003  -1.72407 
 H                    -3.21309  -0.54582   1.56071 
 H                     2.16719   5.03664  -0.50615 
 H                     0.83045   5.75504   0.39877 
 H                     1.99764   4.74863   1.27511 
 H                     3.53184   3.15047   0.02129 
 H                     5.19584   1.85614  -1.58996 
 H                     7.46511   0.91207  -1.65095 
 H                     4.08613  -1.18022   1.23651 
 H                     10.66779   2.1446    1.39022 
 H                     11.53094   1.25082   0.23772 
 H                     11.18829   0.57818   1.78084 
 H                     11.79084  -1.11393   0.0154 
 H                     10.99432  -3.4505   -0.89368 
 
 ITRead=  0  0  0  0  0  0  0  0  0  0  0  0  0  0  0  0  0  0  0  0
 ITRead=  0  0  0  0  0  0  0  0  0  0  0  0  0  0  0  0  0  0  0  0
 ITRead=  0  0  0  0  0  0  0  0  0  0  0  0  0  0  0  0  0  0  0  0
 ITRead=  0  0  0  0  0
 MicOpt= -1 -1 -1 -1 -1 -1 -1 -1 -1 -1 -1 -1 -1 -1 -1 -1 -1 -1 -1 -1
 MicOpt= -1 -1 -1 -1 -1 -1 -1 -1 -1 -1 -1 -1 -1 -1 -1 -1 -1 -1 -1 -1
 MicOpt= -1 -1 -1 -1 -1 -1 -1 -1 -1 -1 -1 -1 -1 -1 -1 -1 -1 -1 -1 -1
 MicOpt= -1 -1 -1 -1 -1
 NAtoms=     65 NQM=       65 NQMF=       0 NMMI=      0 NMMIF=      0
                NMic=       0 NMicF=      0.
                    Isotopes and Nuclear Properties:
 (Nuclear quadrupole moments (NQMom) in fm**2, nuclear magnetic moments (NMagM)
  in nuclear magnetons)

  Atom         1           2           3           4           5           6           7           8           9          10
 IAtWgt=          12          12          12          12          12          19          12          12          12          16
 AtmWgt=  12.0000000  12.0000000  12.0000000  12.0000000  12.0000000  18.9984033  12.0000000  12.0000000  12.0000000  15.9949146
 NucSpn=           0           0           0           0           0           1           0           0           0           0
 AtZEff=  -0.0000000  -0.0000000  -0.0000000  -0.0000000  -0.0000000  -0.0000000  -0.0000000  -0.0000000  -0.0000000  -0.0000000
 NQMom=    0.0000000   0.0000000   0.0000000   0.0000000   0.0000000   0.0000000   0.0000000   0.0000000   0.0000000   0.0000000
 NMagM=    0.0000000   0.0000000   0.0000000   0.0000000   0.0000000   2.6288670   0.0000000   0.0000000   0.0000000   0.0000000
 AtZNuc=   6.0000000   6.0000000   6.0000000   6.0000000   6.0000000   9.0000000   6.0000000   6.0000000   6.0000000   8.0000000

  Atom        11          12          13          14          15          16          17          18          19          20
 IAtWgt=          12          12          12          32          12          12          12          12          12          19
 AtmWgt=  12.0000000  12.0000000  12.0000000  31.9720718  12.0000000  12.0000000  12.0000000  12.0000000  12.0000000  18.9984033
 NucSpn=           0           0           0           0           0           0           0           0           0           1
 AtZEff=  -0.0000000  -0.0000000  -0.0000000  -0.0000000  -0.0000000  -0.0000000  -0.0000000  -0.0000000  -0.0000000  -0.0000000
 NQMom=    0.0000000   0.0000000   0.0000000   0.0000000   0.0000000   0.0000000   0.0000000   0.0000000   0.0000000   0.0000000
 NMagM=    0.0000000   0.0000000   0.0000000   0.0000000   0.0000000   0.0000000   0.0000000   0.0000000   0.0000000   2.6288670
 AtZNuc=   6.0000000   6.0000000   6.0000000  16.0000000   6.0000000   6.0000000   6.0000000   6.0000000   6.0000000   9.0000000

  Atom        21          22          23          24          25          26          27          28          29          30
 IAtWgt=          12          12          12          16          12          12          12          32          12          12
 AtmWgt=  12.0000000  12.0000000  12.0000000  15.9949146  12.0000000  12.0000000  12.0000000  31.9720718  12.0000000  12.0000000
 NucSpn=           0           0           0           0           0           0           0           0           0           0
 AtZEff=  -0.0000000  -0.0000000  -0.0000000  -0.0000000  -0.0000000  -0.0000000  -0.0000000  -0.0000000  -0.0000000  -0.0000000
 NQMom=    0.0000000   0.0000000   0.0000000   0.0000000   0.0000000   0.0000000   0.0000000   0.0000000   0.0000000   0.0000000
 NMagM=    0.0000000   0.0000000   0.0000000   0.0000000   0.0000000   0.0000000   0.0000000   0.0000000   0.0000000   0.0000000
 AtZNuc=   6.0000000   6.0000000   6.0000000   8.0000000   6.0000000   6.0000000   6.0000000  16.0000000   6.0000000   6.0000000

  Atom        31          32          33          34          35          36          37          38          39          40
 IAtWgt=          12          12          12          19          12          12          12          16          12          12
 AtmWgt=  12.0000000  12.0000000  12.0000000  18.9984033  12.0000000  12.0000000  12.0000000  15.9949146  12.0000000  12.0000000
 NucSpn=           0           0           0           1           0           0           0           0           0           0
 AtZEff=  -0.0000000  -0.0000000  -0.0000000  -0.0000000  -0.0000000  -0.0000000  -0.0000000  -0.0000000  -0.0000000  -0.0000000
 NQMom=    0.0000000   0.0000000   0.0000000   0.0000000   0.0000000   0.0000000   0.0000000   0.0000000   0.0000000   0.0000000
 NMagM=    0.0000000   0.0000000   0.0000000   2.6288670   0.0000000   0.0000000   0.0000000   0.0000000   0.0000000   0.0000000
 AtZNuc=   6.0000000   6.0000000   6.0000000   9.0000000   6.0000000   6.0000000   6.0000000   8.0000000   6.0000000   6.0000000

  Atom        41          42          43          44          45          46          47          48          49          50
 IAtWgt=          12          32           1           1           1           1           1           1           1           1
 AtmWgt=  12.0000000  31.9720718   1.0078250   1.0078250   1.0078250   1.0078250   1.0078250   1.0078250   1.0078250   1.0078250
 NucSpn=           0           0           1           1           1           1           1           1           1           1
 AtZEff=  -0.0000000  -0.0000000  -0.0000000  -0.0000000  -0.0000000  -0.0000000  -0.0000000  -0.0000000  -0.0000000  -0.0000000
 NQMom=    0.0000000   0.0000000   0.0000000   0.0000000   0.0000000   0.0000000   0.0000000   0.0000000   0.0000000   0.0000000
 NMagM=    0.0000000   0.0000000   2.7928460   2.7928460   2.7928460   2.7928460   2.7928460   2.7928460   2.7928460   2.7928460
 AtZNuc=   6.0000000  16.0000000   1.0000000   1.0000000   1.0000000   1.0000000   1.0000000   1.0000000   1.0000000   1.0000000

  Atom        51          52          53          54          55          56          57          58          59          60
 IAtWgt=           1           1           1           1           1           1           1           1           1           1
 AtmWgt=   1.0078250   1.0078250   1.0078250   1.0078250   1.0078250   1.0078250   1.0078250   1.0078250   1.0078250   1.0078250
 NucSpn=           1           1           1           1           1           1           1           1           1           1
 AtZEff=  -0.0000000  -0.0000000  -0.0000000  -0.0000000  -0.0000000  -0.0000000  -0.0000000  -0.0000000  -0.0000000  -0.0000000
 NQMom=    0.0000000   0.0000000   0.0000000   0.0000000   0.0000000   0.0000000   0.0000000   0.0000000   0.0000000   0.0000000
 NMagM=    2.7928460   2.7928460   2.7928460   2.7928460   2.7928460   2.7928460   2.7928460   2.7928460   2.7928460   2.7928460
 AtZNuc=   1.0000000   1.0000000   1.0000000   1.0000000   1.0000000   1.0000000   1.0000000   1.0000000   1.0000000   1.0000000

  Atom        61          62          63          64          65
 IAtWgt=           1           1           1           1           1
 AtmWgt=   1.0078250   1.0078250   1.0078250   1.0078250   1.0078250
 NucSpn=           1           1           1           1           1
 AtZEff=  -0.0000000  -0.0000000  -0.0000000  -0.0000000  -0.0000000
 NQMom=    0.0000000   0.0000000   0.0000000   0.0000000   0.0000000
 NMagM=    2.7928460   2.7928460   2.7928460   2.7928460   2.7928460
 AtZNuc=   1.0000000   1.0000000   1.0000000   1.0000000   1.0000000
 Leave Link  101 at Thu Jul 23 10:00:15 2020, MaxMem=  4026531840 cpu:               2.3 elap:               0.5
 (Enter /opt/ohpc/pub/libs/gaussian/g16-A.03/sandybridge/g16/l103.exe)

 GradGradGradGradGradGradGradGradGradGradGradGradGradGradGradGradGradGrad
 Berny optimization.
 Initialization pass.
                           ----------------------------
                           !    Initial Parameters    !
                           ! (Angstroms and Degrees)  !
 --------------------------                            --------------------------
 ! Name  Definition              Value          Derivative Info.                !
 --------------------------------------------------------------------------------
 ! R1    R(1,2)                  1.3967         estimate D2E/DX2                !
 ! R2    R(1,7)                  1.3627         estimate D2E/DX2                !
 ! R3    R(1,43)                 1.1051         estimate D2E/DX2                !
 ! R4    R(2,3)                  1.4017         estimate D2E/DX2                !
 ! R5    R(2,44)                 1.087          estimate D2E/DX2                !
 ! R6    R(3,4)                  1.3963         estimate D2E/DX2                !
 ! R7    R(3,45)                 1.0729         estimate D2E/DX2                !
 ! R8    R(4,5)                  1.4405         estimate D2E/DX2                !
 ! R9    R(4,8)                  1.4146         estimate D2E/DX2                !
 ! R10   R(5,6)                  1.2526         estimate D2E/DX2                !
 ! R11   R(5,7)                  1.4503         estimate D2E/DX2                !
 ! R12   R(7,46)                 1.1003         estimate D2E/DX2                !
 ! R13   R(8,9)                  1.4374         estimate D2E/DX2                !
 ! R14   R(8,14)                 1.7151         estimate D2E/DX2                !
 ! R15   R(9,10)                 1.4049         estimate D2E/DX2                !
 ! R16   R(9,12)                 1.3969         estimate D2E/DX2                !
 ! R17   R(10,11)                1.4058         estimate D2E/DX2                !
 ! R18   R(11,47)                1.1495         estimate D2E/DX2                !
 ! R19   R(11,48)                1.0504         estimate D2E/DX2                !
 ! R20   R(11,49)                1.0373         estimate D2E/DX2                !
 ! R21   R(12,13)                1.3808         estimate D2E/DX2                !
 ! R22   R(12,50)                1.1564         estimate D2E/DX2                !
 ! R23   R(13,14)                1.6449         estimate D2E/DX2                !
 ! R24   R(13,15)                1.5075         estimate D2E/DX2                !
 ! R25   R(15,16)                1.3789         estimate D2E/DX2                !
 ! R26   R(15,21)                1.3686         estimate D2E/DX2                !
 ! R27   R(16,17)                1.4121         estimate D2E/DX2                !
 ! R28   R(16,51)                1.045          estimate D2E/DX2                !
 ! R29   R(17,18)                1.4079         estimate D2E/DX2                !
 ! R30   R(17,52)                1.0638         estimate D2E/DX2                !
 ! R31   R(18,19)                1.3494         estimate D2E/DX2                !
 ! R32   R(18,22)                1.5453         estimate D2E/DX2                !
 ! R33   R(19,20)                1.361          estimate D2E/DX2                !
 ! R34   R(19,21)                1.4719         estimate D2E/DX2                !
 ! R35   R(21,53)                1.051          estimate D2E/DX2                !
 ! R36   R(22,23)                1.3527         estimate D2E/DX2                !
 ! R37   R(22,28)                1.6872         estimate D2E/DX2                !
 ! R38   R(23,24)                1.3734         estimate D2E/DX2                !
 ! R39   R(23,26)                1.426          estimate D2E/DX2                !
 ! R40   R(24,25)                1.3759         estimate D2E/DX2                !
 ! R41   R(25,54)                1.1465         estimate D2E/DX2                !
 ! R42   R(25,55)                1.0796         estimate D2E/DX2                !
 ! R43   R(25,56)                1.097          estimate D2E/DX2                !
 ! R44   R(26,27)                1.32           estimate D2E/DX2                !
 ! R45   R(26,57)                1.144          estimate D2E/DX2                !
 ! R46   R(27,28)                1.7681         estimate D2E/DX2                !
 ! R47   R(27,29)                1.4926         estimate D2E/DX2                !
 ! R48   R(29,30)                1.429          estimate D2E/DX2                !
 ! R49   R(29,35)                1.4558         estimate D2E/DX2                !
 ! R50   R(30,31)                1.437          estimate D2E/DX2                !
 ! R51   R(30,58)                1.0377         estimate D2E/DX2                !
 ! R52   R(31,32)                1.3238         estimate D2E/DX2                !
 ! R53   R(31,59)                1.0938         estimate D2E/DX2                !
 ! R54   R(32,33)                1.4413         estimate D2E/DX2                !
 ! R55   R(32,36)                1.4791         estimate D2E/DX2                !
 ! R56   R(33,34)                1.3035         estimate D2E/DX2                !
 ! R57   R(33,35)                1.3982         estimate D2E/DX2                !
 ! R58   R(35,60)                1.0134         estimate D2E/DX2                !
 ! R59   R(36,37)                1.4491         estimate D2E/DX2                !
 ! R60   R(36,42)                1.6433         estimate D2E/DX2                !
 ! R61   R(37,38)                1.3494         estimate D2E/DX2                !
 ! R62   R(37,40)                1.3888         estimate D2E/DX2                !
 ! R63   R(38,39)                1.4028         estimate D2E/DX2                !
 ! R64   R(39,61)                1.0062         estimate D2E/DX2                !
 ! R65   R(39,62)                1.0298         estimate D2E/DX2                !
 ! R66   R(39,63)                1.0751         estimate D2E/DX2                !
 ! R67   R(40,41)                1.4225         estimate D2E/DX2                !
 ! R68   R(40,64)                1.1298         estimate D2E/DX2                !
 ! R69   R(41,42)                1.7245         estimate D2E/DX2                !
 ! R70   R(41,65)                1.0176         estimate D2E/DX2                !
 ! A1    A(2,1,7)              120.519          estimate D2E/DX2                !
 ! A2    A(2,1,43)             124.3757         estimate D2E/DX2                !
 ! A3    A(7,1,43)             114.6284         estimate D2E/DX2                !
 ! A4    A(1,2,3)              120.4503         estimate D2E/DX2                !
 ! A5    A(1,2,44)             114.4857         estimate D2E/DX2                !
 ! A6    A(3,2,44)             124.8286         estimate D2E/DX2                !
 ! A7    A(2,3,4)              120.5661         estimate D2E/DX2                !
 ! A8    A(2,3,45)             113.4178         estimate D2E/DX2                !
 ! A9    A(4,3,45)             125.8875         estimate D2E/DX2                !
 ! A10   A(3,4,5)              119.5312         estimate D2E/DX2                !
 ! A11   A(3,4,8)              120.3295         estimate D2E/DX2                !
 ! A12   A(5,4,8)              119.7878         estimate D2E/DX2                !
 ! A13   A(4,5,6)              121.3131         estimate D2E/DX2                !
 ! A14   A(4,5,7)              117.476          estimate D2E/DX2                !
 ! A15   A(6,5,7)              121.2051         estimate D2E/DX2                !
 ! A16   A(1,7,5)              121.0753         estimate D2E/DX2                !
 ! A17   A(1,7,46)             122.66           estimate D2E/DX2                !
 ! A18   A(5,7,46)             116.2158         estimate D2E/DX2                !
 ! A19   A(4,8,9)              130.4722         estimate D2E/DX2                !
 ! A20   A(4,8,14)             120.7943         estimate D2E/DX2                !
 ! A21   A(9,8,14)             108.4834         estimate D2E/DX2                !
 ! A22   A(8,9,10)             119.544          estimate D2E/DX2                !
 ! A23   A(8,9,12)             111.2375         estimate D2E/DX2                !
 ! A24   A(10,9,12)            129.1253         estimate D2E/DX2                !
 ! A25   A(9,10,11)            114.0982         estimate D2E/DX2                !
 ! A26   A(10,11,47)           107.4284         estimate D2E/DX2                !
 ! A27   A(10,11,48)           103.7396         estimate D2E/DX2                !
 ! A28   A(10,11,49)           115.0151         estimate D2E/DX2                !
 ! A29   A(47,11,48)           109.3905         estimate D2E/DX2                !
 ! A30   A(47,11,49)           111.7557         estimate D2E/DX2                !
 ! A31   A(48,11,49)           109.13           estimate D2E/DX2                !
 ! A32   A(9,12,13)            113.6953         estimate D2E/DX2                !
 ! A33   A(9,12,50)            124.6292         estimate D2E/DX2                !
 ! A34   A(13,12,50)           121.6428         estimate D2E/DX2                !
 ! A35   A(12,13,14)           111.7233         estimate D2E/DX2                !
 ! A36   A(12,13,15)           124.7181         estimate D2E/DX2                !
 ! A37   A(14,13,15)           123.5524         estimate D2E/DX2                !
 ! A38   A(8,14,13)             94.7975         estimate D2E/DX2                !
 ! A39   A(13,15,16)           119.7026         estimate D2E/DX2                !
 ! A40   A(13,15,21)           116.8361         estimate D2E/DX2                !
 ! A41   A(16,15,21)           123.2912         estimate D2E/DX2                !
 ! A42   A(15,16,17)           116.7695         estimate D2E/DX2                !
 ! A43   A(15,16,51)           123.2104         estimate D2E/DX2                !
 ! A44   A(17,16,51)           119.743          estimate D2E/DX2                !
 ! A45   A(16,17,18)           121.3647         estimate D2E/DX2                !
 ! A46   A(16,17,52)           118.5625         estimate D2E/DX2                !
 ! A47   A(18,17,52)           119.7336         estimate D2E/DX2                !
 ! A48   A(17,18,19)           121.5042         estimate D2E/DX2                !
 ! A49   A(17,18,22)           116.6902         estimate D2E/DX2                !
 ! A50   A(19,18,22)           121.708          estimate D2E/DX2                !
 ! A51   A(18,19,20)           123.1616         estimate D2E/DX2                !
 ! A52   A(18,19,21)           117.5134         estimate D2E/DX2                !
 ! A53   A(20,19,21)           119.0258         estimate D2E/DX2                !
 ! A54   A(15,21,19)           119.3505         estimate D2E/DX2                !
 ! A55   A(15,21,53)           127.8823         estimate D2E/DX2                !
 ! A56   A(19,21,53)           112.7596         estimate D2E/DX2                !
 ! A57   A(18,22,23)           128.4886         estimate D2E/DX2                !
 ! A58   A(18,22,28)           116.38           estimate D2E/DX2                !
 ! A59   A(23,22,28)           115.1112         estimate D2E/DX2                !
 ! A60   A(22,23,24)           121.7255         estimate D2E/DX2                !
 ! A61   A(22,23,26)           110.8033         estimate D2E/DX2                !
 ! A62   A(24,23,26)           127.2052         estimate D2E/DX2                !
 ! A63   A(23,24,25)           118.2108         estimate D2E/DX2                !
 ! A64   A(24,25,54)           111.8312         estimate D2E/DX2                !
 ! A65   A(24,25,55)           113.4114         estimate D2E/DX2                !
 ! A66   A(24,25,56)           109.5032         estimate D2E/DX2                !
 ! A67   A(54,25,55)           105.0301         estimate D2E/DX2                !
 ! A68   A(54,25,56)           107.7528         estimate D2E/DX2                !
 ! A69   A(55,25,56)           109.0801         estimate D2E/DX2                !
 ! A70   A(23,26,27)           112.6384         estimate D2E/DX2                !
 ! A71   A(23,26,57)           124.9161         estimate D2E/DX2                !
 ! A72   A(27,26,57)           122.2078         estimate D2E/DX2                !
 ! A73   A(26,27,28)           112.6981         estimate D2E/DX2                !
 ! A74   A(26,27,29)           130.1872         estimate D2E/DX2                !
 ! A75   A(28,27,29)           116.8326         estimate D2E/DX2                !
 ! A76   A(22,28,27)            88.6599         estimate D2E/DX2                !
 ! A77   A(27,29,30)           118.8885         estimate D2E/DX2                !
 ! A78   A(27,29,35)           120.6875         estimate D2E/DX2                !
 ! A79   A(30,29,35)           119.6149         estimate D2E/DX2                !
 ! A80   A(29,30,31)           117.105          estimate D2E/DX2                !
 ! A81   A(29,30,58)           120.1402         estimate D2E/DX2                !
 ! A82   A(31,30,58)           122.6038         estimate D2E/DX2                !
 ! A83   A(30,31,32)           123.8992         estimate D2E/DX2                !
 ! A84   A(30,31,59)           114.8054         estimate D2E/DX2                !
 ! A85   A(32,31,59)           121.258          estimate D2E/DX2                !
 ! A86   A(31,32,33)           119.6753         estimate D2E/DX2                !
 ! A87   A(31,32,36)           122.2214         estimate D2E/DX2                !
 ! A88   A(33,32,36)           117.9829         estimate D2E/DX2                !
 ! A89   A(32,33,34)           119.6325         estimate D2E/DX2                !
 ! A90   A(32,33,35)           120.5231         estimate D2E/DX2                !
 ! A91   A(34,33,35)           119.7935         estimate D2E/DX2                !
 ! A92   A(29,35,33)           118.7982         estimate D2E/DX2                !
 ! A93   A(29,35,60)           122.4001         estimate D2E/DX2                !
 ! A94   A(33,35,60)           118.6927         estimate D2E/DX2                !
 ! A95   A(32,36,37)           126.5368         estimate D2E/DX2                !
 ! A96   A(32,36,42)           120.4459         estimate D2E/DX2                !
 ! A97   A(37,36,42)           112.8363         estimate D2E/DX2                !
 ! A98   A(36,37,38)           122.5787         estimate D2E/DX2                !
 ! A99   A(36,37,40)           109.3603         estimate D2E/DX2                !
 ! A100  A(38,37,40)           127.813          estimate D2E/DX2                !
 ! A101  A(37,38,39)           117.4637         estimate D2E/DX2                !
 ! A102  A(38,39,61)           108.4101         estimate D2E/DX2                !
 ! A103  A(38,39,62)           108.7813         estimate D2E/DX2                !
 ! A104  A(38,39,63)           108.3755         estimate D2E/DX2                !
 ! A105  A(61,39,62)           112.68           estimate D2E/DX2                !
 ! A106  A(61,39,63)           109.123          estimate D2E/DX2                !
 ! A107  A(62,39,63)           109.3772         estimate D2E/DX2                !
 ! A108  A(37,40,41)           115.0914         estimate D2E/DX2                !
 ! A109  A(37,40,64)           125.6898         estimate D2E/DX2                !
 ! A110  A(41,40,64)           119.1038         estimate D2E/DX2                !
 ! A111  A(40,41,42)           108.2089         estimate D2E/DX2                !
 ! A112  A(40,41,65)           129.4354         estimate D2E/DX2                !
 ! A113  A(42,41,65)           121.9679         estimate D2E/DX2                !
 ! A114  A(36,42,41)            94.4985         estimate D2E/DX2                !
 ! D1    D(7,1,2,3)             -4.7483         estimate D2E/DX2                !
 ! D2    D(7,1,2,44)          -179.4367         estimate D2E/DX2                !
 ! D3    D(43,1,2,3)          -176.3902         estimate D2E/DX2                !
 ! D4    D(43,1,2,44)            8.9214         estimate D2E/DX2                !
 ! D5    D(2,1,7,5)              4.1891         estimate D2E/DX2                !
 ! D6    D(2,1,7,46)          -178.4505         estimate D2E/DX2                !
 ! D7    D(43,1,7,5)           176.6052         estimate D2E/DX2                !
 ! D8    D(43,1,7,46)           -6.0344         estimate D2E/DX2                !
 ! D9    D(1,2,3,4)              5.6046         estimate D2E/DX2                !
 ! D10   D(1,2,3,45)          -178.282          estimate D2E/DX2                !
 ! D11   D(44,2,3,4)           179.7138         estimate D2E/DX2                !
 ! D12   D(44,2,3,45)           -4.1728         estimate D2E/DX2                !
 ! D13   D(2,3,4,5)             -5.8361         estimate D2E/DX2                !
 ! D14   D(2,3,4,8)           -179.0155         estimate D2E/DX2                !
 ! D15   D(45,3,4,5)           178.567          estimate D2E/DX2                !
 ! D16   D(45,3,4,8)             5.3876         estimate D2E/DX2                !
 ! D17   D(3,4,5,6)           -174.0327         estimate D2E/DX2                !
 ! D18   D(3,4,5,7)              5.1023         estimate D2E/DX2                !
 ! D19   D(8,4,5,6)             -0.816          estimate D2E/DX2                !
 ! D20   D(8,4,5,7)            178.319          estimate D2E/DX2                !
 ! D21   D(3,4,8,9)             50.6687         estimate D2E/DX2                !
 ! D22   D(3,4,8,14)          -122.8812         estimate D2E/DX2                !
 ! D23   D(5,4,8,9)           -122.4932         estimate D2E/DX2                !
 ! D24   D(5,4,8,14)            63.9569         estimate D2E/DX2                !
 ! D25   D(4,5,7,1)             -4.3416         estimate D2E/DX2                !
 ! D26   D(4,5,7,46)           178.1353         estimate D2E/DX2                !
 ! D27   D(6,5,7,1)            174.7944         estimate D2E/DX2                !
 ! D28   D(6,5,7,46)            -2.7287         estimate D2E/DX2                !
 ! D29   D(4,8,9,10)             0.6013         estimate D2E/DX2                !
 ! D30   D(4,8,9,12)          -176.202          estimate D2E/DX2                !
 ! D31   D(14,8,9,10)          174.7615         estimate D2E/DX2                !
 ! D32   D(14,8,9,12)           -2.0418         estimate D2E/DX2                !
 ! D33   D(4,8,14,13)          177.2081         estimate D2E/DX2                !
 ! D34   D(9,8,14,13)            2.3777         estimate D2E/DX2                !
 ! D35   D(8,9,10,11)          171.9247         estimate D2E/DX2                !
 ! D36   D(12,9,10,11)         -11.9171         estimate D2E/DX2                !
 ! D37   D(8,9,12,13)            0.5956         estimate D2E/DX2                !
 ! D38   D(8,9,12,50)          178.5357         estimate D2E/DX2                !
 ! D39   D(10,9,12,13)        -175.8191         estimate D2E/DX2                !
 ! D40   D(10,9,12,50)           2.1211         estimate D2E/DX2                !
 ! D41   D(9,10,11,47)          69.4546         estimate D2E/DX2                !
 ! D42   D(9,10,11,48)        -174.761          estimate D2E/DX2                !
 ! D43   D(9,10,11,49)         -55.6579         estimate D2E/DX2                !
 ! D44   D(9,12,13,14)           1.2239         estimate D2E/DX2                !
 ! D45   D(9,12,13,15)        -177.8892         estimate D2E/DX2                !
 ! D46   D(50,12,13,14)       -176.7853         estimate D2E/DX2                !
 ! D47   D(50,12,13,15)          4.1017         estimate D2E/DX2                !
 ! D48   D(12,13,14,8)          -2.11           estimate D2E/DX2                !
 ! D49   D(15,13,14,8)         177.0152         estimate D2E/DX2                !
 ! D50   D(12,13,15,16)        -62.9092         estimate D2E/DX2                !
 ! D51   D(12,13,15,21)        121.6739         estimate D2E/DX2                !
 ! D52   D(14,13,15,16)        118.0795         estimate D2E/DX2                !
 ! D53   D(14,13,15,21)        -57.3374         estimate D2E/DX2                !
 ! D54   D(13,15,16,17)       -177.4703         estimate D2E/DX2                !
 ! D55   D(13,15,16,51)          8.6036         estimate D2E/DX2                !
 ! D56   D(21,15,16,17)         -2.3635         estimate D2E/DX2                !
 ! D57   D(21,15,16,51)       -176.2896         estimate D2E/DX2                !
 ! D58   D(13,15,21,19)        177.3663         estimate D2E/DX2                !
 ! D59   D(13,15,21,53)         -3.7122         estimate D2E/DX2                !
 ! D60   D(16,15,21,19)          2.1292         estimate D2E/DX2                !
 ! D61   D(16,15,21,53)       -178.9493         estimate D2E/DX2                !
 ! D62   D(15,16,17,18)         -0.9766         estimate D2E/DX2                !
 ! D63   D(15,16,17,52)       -174.2697         estimate D2E/DX2                !
 ! D64   D(51,16,17,18)        173.1713         estimate D2E/DX2                !
 ! D65   D(51,16,17,52)         -0.1218         estimate D2E/DX2                !
 ! D66   D(16,17,18,19)          4.7054         estimate D2E/DX2                !
 ! D67   D(16,17,18,22)       -178.8283         estimate D2E/DX2                !
 ! D68   D(52,17,18,19)        177.9213         estimate D2E/DX2                !
 ! D69   D(52,17,18,22)         -5.6125         estimate D2E/DX2                !
 ! D70   D(17,18,19,20)       -178.4672         estimate D2E/DX2                !
 ! D71   D(17,18,19,21)         -4.8208         estimate D2E/DX2                !
 ! D72   D(22,18,19,20)          5.2442         estimate D2E/DX2                !
 ! D73   D(22,18,19,21)        178.8906         estimate D2E/DX2                !
 ! D74   D(17,18,22,23)         57.8782         estimate D2E/DX2                !
 ! D75   D(17,18,22,28)       -123.8473         estimate D2E/DX2                !
 ! D76   D(19,18,22,23)       -125.6634         estimate D2E/DX2                !
 ! D77   D(19,18,22,28)         52.6112         estimate D2E/DX2                !
 ! D78   D(18,19,21,15)          1.5397         estimate D2E/DX2                !
 ! D79   D(18,19,21,53)       -177.5373         estimate D2E/DX2                !
 ! D80   D(20,19,21,15)        175.4579         estimate D2E/DX2                !
 ! D81   D(20,19,21,53)         -3.619          estimate D2E/DX2                !
 ! D82   D(18,22,23,24)          3.4025         estimate D2E/DX2                !
 ! D83   D(18,22,23,26)        177.8798         estimate D2E/DX2                !
 ! D84   D(28,22,23,24)       -174.8904         estimate D2E/DX2                !
 ! D85   D(28,22,23,26)         -0.4131         estimate D2E/DX2                !
 ! D86   D(18,22,28,27)       -176.753          estimate D2E/DX2                !
 ! D87   D(23,22,28,27)          1.7555         estimate D2E/DX2                !
 ! D88   D(22,23,24,25)        172.5078         estimate D2E/DX2                !
 ! D89   D(26,23,24,25)         -1.0065         estimate D2E/DX2                !
 ! D90   D(22,23,26,27)         -1.7872         estimate D2E/DX2                !
 ! D91   D(22,23,26,57)       -176.2705         estimate D2E/DX2                !
 ! D92   D(24,23,26,27)        172.3136         estimate D2E/DX2                !
 ! D93   D(24,23,26,57)         -2.1696         estimate D2E/DX2                !
 ! D94   D(23,24,25,54)         56.3104         estimate D2E/DX2                !
 ! D95   D(23,24,25,55)        174.857          estimate D2E/DX2                !
 ! D96   D(23,24,25,56)        -63.0531         estimate D2E/DX2                !
 ! D97   D(23,26,27,28)          3.1013         estimate D2E/DX2                !
 ! D98   D(23,26,27,29)        176.7051         estimate D2E/DX2                !
 ! D99   D(57,26,27,28)        177.7554         estimate D2E/DX2                !
 ! D100  D(57,26,27,29)         -8.6409         estimate D2E/DX2                !
 ! D101  D(26,27,28,22)         -2.7909         estimate D2E/DX2                !
 ! D102  D(29,27,28,22)       -177.318          estimate D2E/DX2                !
 ! D103  D(26,27,29,30)        -35.076          estimate D2E/DX2                !
 ! D104  D(26,27,29,35)        134.5848         estimate D2E/DX2                !
 ! D105  D(28,27,29,30)        138.3102         estimate D2E/DX2                !
 ! D106  D(28,27,29,35)        -52.029          estimate D2E/DX2                !
 ! D107  D(27,29,30,31)        176.7586         estimate D2E/DX2                !
 ! D108  D(27,29,30,58)         -7.5915         estimate D2E/DX2                !
 ! D109  D(35,29,30,31)          6.9848         estimate D2E/DX2                !
 ! D110  D(35,29,30,58)       -177.3653         estimate D2E/DX2                !
 ! D111  D(27,29,35,33)       -176.5058         estimate D2E/DX2                !
 ! D112  D(27,29,35,60)          7.3416         estimate D2E/DX2                !
 ! D113  D(30,29,35,33)         -6.9195         estimate D2E/DX2                !
 ! D114  D(30,29,35,60)        176.9279         estimate D2E/DX2                !
 ! D115  D(29,30,31,32)         -3.0995         estimate D2E/DX2                !
 ! D116  D(29,30,31,59)        179.1042         estimate D2E/DX2                !
 ! D117  D(58,30,31,32)       -178.6336         estimate D2E/DX2                !
 ! D118  D(58,30,31,59)          3.5701         estimate D2E/DX2                !
 ! D119  D(30,31,32,33)         -1.0311         estimate D2E/DX2                !
 ! D120  D(30,31,32,36)       -176.9601         estimate D2E/DX2                !
 ! D121  D(59,31,32,33)        176.6287         estimate D2E/DX2                !
 ! D122  D(59,31,32,36)          0.6997         estimate D2E/DX2                !
 ! D123  D(31,32,33,34)       -176.2105         estimate D2E/DX2                !
 ! D124  D(31,32,33,35)          1.1914         estimate D2E/DX2                !
 ! D125  D(36,32,33,34)         -0.1102         estimate D2E/DX2                !
 ! D126  D(36,32,33,35)        177.2916         estimate D2E/DX2                !
 ! D127  D(31,32,36,37)         59.0591         estimate D2E/DX2                !
 ! D128  D(31,32,36,42)       -115.6874         estimate D2E/DX2                !
 ! D129  D(33,32,36,37)       -116.9356         estimate D2E/DX2                !
 ! D130  D(33,32,36,42)         68.3178         estimate D2E/DX2                !
 ! D131  D(32,33,35,29)          2.7703         estimate D2E/DX2                !
 ! D132  D(32,33,35,60)        179.0674         estimate D2E/DX2                !
 ! D133  D(34,33,35,29)       -179.832          estimate D2E/DX2                !
 ! D134  D(34,33,35,60)         -3.5349         estimate D2E/DX2                !
 ! D135  D(32,36,37,38)         -0.6116         estimate D2E/DX2                !
 ! D136  D(32,36,37,40)       -175.3008         estimate D2E/DX2                !
 ! D137  D(42,36,37,38)        174.4751         estimate D2E/DX2                !
 ! D138  D(42,36,37,40)         -0.2142         estimate D2E/DX2                !
 ! D139  D(32,36,42,41)        175.2429         estimate D2E/DX2                !
 ! D140  D(37,36,42,41)         -0.1787         estimate D2E/DX2                !
 ! D141  D(36,37,38,39)        173.3906         estimate D2E/DX2                !
 ! D142  D(40,37,38,39)        -12.9555         estimate D2E/DX2                !
 ! D143  D(36,37,40,41)          0.6219         estimate D2E/DX2                !
 ! D144  D(36,37,40,64)        176.6657         estimate D2E/DX2                !
 ! D145  D(38,37,40,41)       -173.7124         estimate D2E/DX2                !
 ! D146  D(38,37,40,64)          2.3314         estimate D2E/DX2                !
 ! D147  D(37,38,39,61)       -172.1313         estimate D2E/DX2                !
 ! D148  D(37,38,39,62)         65.0196         estimate D2E/DX2                !
 ! D149  D(37,38,39,63)        -53.812          estimate D2E/DX2                !
 ! D150  D(37,40,41,42)         -0.7401         estimate D2E/DX2                !
 ! D151  D(37,40,41,65)       -173.5748         estimate D2E/DX2                !
 ! D152  D(64,40,41,42)       -177.063          estimate D2E/DX2                !
 ! D153  D(64,40,41,65)         10.1023         estimate D2E/DX2                !
 ! D154  D(40,41,42,36)          0.5076         estimate D2E/DX2                !
 ! D155  D(65,41,42,36)        173.9872         estimate D2E/DX2                !
 --------------------------------------------------------------------------------
 Trust Radius=3.00D-01 FncErr=1.00D-07 GrdErr=1.00D-06 EigMax=2.50D+02 EigMin=1.00D-04
 Number of steps in this run=    349 maximum allowed number of steps=    390.
 GradGradGradGradGradGradGradGradGradGradGradGradGradGradGradGradGradGrad

 Leave Link  103 at Thu Jul 23 10:00:15 2020, MaxMem=  4026531840 cpu:               0.1 elap:               0.0
 (Enter /opt/ohpc/pub/libs/gaussian/g16-A.03/sandybridge/g16/l202.exe)
 Stoichiometry    C33H23F3O3S3
 Framework group  C1[X(C33H23F3O3S3)]
 Deg. of freedom   189
 Full point group                 C1      NOp   1
 Largest Abelian subgroup         C1      NOp   1
 Largest concise Abelian subgroup C1      NOp   1
                         Standard orientation:                         
 ---------------------------------------------------------------------
 Center     Atomic      Atomic             Coordinates (Angstroms)
 Number     Number       Type             X           Y           Z
 ---------------------------------------------------------------------
      1          6           0      -10.712806   -2.987902   -0.425519
      2          6           0      -10.555124   -1.925323   -1.318136
      3          6           0       -9.463721   -1.053844   -1.199424
      4          6           0       -8.456954   -1.300073   -0.263792
      5          6           0       -8.605451   -2.387304    0.669486
      6          9           0       -7.778438   -2.570728    1.592229
      7          6           0       -9.759835   -3.251056    0.512390
      8          6           0       -7.368286   -0.406135   -0.133915
      9          6           0       -7.347985    1.021660    0.030389
     10          8           0       -8.560152    1.728940    0.094015
     11          6           0       -8.416029    3.085537    0.433415
     12          6           0       -6.040023    1.512208    0.032655
     13          6           0       -5.080066    0.533672   -0.133752
     14         16           0       -5.754306   -0.954710   -0.322977
     15          6           0       -3.592746    0.779543   -0.124297
     16          6           0       -3.026843    1.582772   -1.091760
     17          6           0       -1.622474    1.726715   -1.057321
     18          6           0       -0.845169    1.095244   -0.067763
     19          6           0       -1.396305    0.252834    0.830838
     20          9           0       -0.682752   -0.351892    1.819527
     21          6           0       -2.859994    0.099185    0.810126
     22          6           0        0.678465    1.348765   -0.115270
     23          6           0        1.337807    2.528536   -0.057988
     24          8           0        0.675818    3.717632    0.126745
     25          6           0        1.424364    4.853896    0.330676
     26          6           0        2.748502    2.322120   -0.084571
     27          6           0        3.074324    1.043453   -0.119890
     28         16           0        1.663209   -0.017900   -0.211634
     29          6           0        4.414089    0.393344   -0.221464
     30          6           0        5.428151    1.021119   -1.008582
     31          6           0        6.724235    0.400729   -1.022223
     32          6           0        7.038160   -0.669209   -0.308780
     33          6           0        6.052850   -1.261457    0.560575
     34          9           0        6.384150   -2.269177    1.318039
     35          6           0        4.761971   -0.729732    0.637074
     36          6           0        8.403087   -1.238885   -0.300456
     37          6           0        9.619259   -0.559020    0.097798
     38          8           0        9.631837    0.725920    0.509631
     39          6           0       10.841767    1.234900    1.004318
     40          6           0       10.707923   -1.389696   -0.133469
     41          6           0       10.390991   -2.656539   -0.697421
     42         16           0        8.680113   -2.745843   -0.894537
     43          1           0      -11.514278   -3.745791   -0.492970
     44          1           0      -11.377599   -1.798541   -2.017435
     45          1           0       -9.469097   -0.262600   -1.923970
     46          1           0       -9.836041   -4.093307    1.216209
     47          1           0       -7.911704    3.611199   -0.455775
     48          1           0       -9.405431    3.426380    0.524587
     49          1           0       -7.911711    3.264165    1.322060
     50          1           0       -5.757466    2.629659    0.125642
     51          1           0       -3.589248    2.145743   -1.769120
     52          1           0       -1.164670    2.411269   -1.730776
     53          1           0       -3.212362   -0.540781    1.565642
     54          1           0        2.168820    5.032846   -0.522621
     55          1           0        0.831777    5.755057    0.378823
     56          1           0        1.998627    4.752289    1.259765
     57          1           0        3.533227    3.148855    0.013183
     58          1           0        5.197758    1.847760   -1.592063
     59          1           0        7.467013    0.903381   -1.648303
     60          1           0        4.086953   -1.176732    1.246683
     61          1           0       10.668658    2.148509    1.388829
     62          1           0       11.532189    1.249905    0.240378
     63          1           0       11.188970    0.583718    1.786171
     64          1           0       11.792101   -1.115767    0.028026
     65          1           0       10.995825   -3.456093   -0.871561
 ---------------------------------------------------------------------
 Rotational constants (GHZ):           0.1924154           0.0175863           0.0164995
 Leave Link  202 at Thu Jul 23 10:00:15 2020, MaxMem=  4026531840 cpu:               0.1 elap:               0.0
 (Enter /opt/ohpc/pub/libs/gaussian/g16-A.03/sandybridge/g16/l301.exe)
 Standard basis: CC-pVDZ (5D, 7F)
 Ernie: Thresh=  0.10000D-02 Tol=  0.10000D-05 Strict=F.
 Ernie:  108 primitive shells out of 1123 were deleted.
 There are   757 symmetry adapted cartesian basis functions of A   symmetry.
 There are   715 symmetry adapted basis functions of A   symmetry.
   715 basis functions,  1661 primitive gaussians,   757 cartesian basis functions
   160 alpha electrons      160 beta electrons
       nuclear repulsion energy      4806.1111886344 Hartrees.
 IExCor=32609 DFT=T Ex+Corr=LC-wPBE ExCW=0 ScaHFX=  1.000000
 ScaDFX=  1.000000  0.000000  1.000000  1.000000 ScalE2=  1.000000  1.000000
 IRadAn=      5 IRanWt=     -1 IRanGd=            0 ICorTp=0 IEmpDi=  4
 HFx  wShort=  0.000000 wLong=  0.467500 cFull=  0.000000 cShort=  0.000000 cLong=  1.000000
 DFx  wShort=  0.000000 wLong=  0.467500 cFull=  0.000000 cShort=  0.000000 cLong=  1.000000
 NAtoms=   65 NActive=   65 NUniq=   65 SFac= 1.00D+00 NAtFMM=   60 NAOKFM=T Big=T
 Integral buffers will be    131072 words long.
 Raffenetti 2 integral format.
 Two-electron integral symmetry is turned on.
 Leave Link  301 at Thu Jul 23 10:00:16 2020, MaxMem=  4026531840 cpu:               0.5 elap:               0.1
 (Enter /opt/ohpc/pub/libs/gaussian/g16-A.03/sandybridge/g16/l302.exe)
 NPDir=0 NMtPBC=     1 NCelOv=     1 NCel=       1 NClECP=     1 NCelD=      1
         NCelK=      1 NCelE2=     1 NClLst=     1 CellRange=     0.0.
 One-electron integrals computed using PRISM.
 One-electron integral symmetry used in STVInt
 NBasis=   715 RedAO= T EigKep=  3.48D-04  NBF=   715
 NBsUse=   715 1.00D-06 EigRej= -1.00D+00 NBFU=   715
 Precomputing XC quadrature grid using
 IXCGrd= 4 IRadAn=           5 IRanWt=          -1 IRanGd=           0 AccXCQ= 0.00D+00.
 Generated NRdTot=       0 NPtTot=           0 NUsed=           0 NTot=          32
 NSgBfM=   656   656   656   656   656 MxSgAt=    65 MxSgA2=    65.
 Leave Link  302 at Thu Jul 23 10:00:18 2020, MaxMem=  4026531840 cpu:              13.4 elap:               1.8
 (Enter /opt/ohpc/pub/libs/gaussian/g16-A.03/sandybridge/g16/l303.exe)
 DipDrv:  MaxL=1.
 Leave Link  303 at Thu Jul 23 10:00:18 2020, MaxMem=  4026531840 cpu:               1.1 elap:               0.2
 (Enter /opt/ohpc/pub/libs/gaussian/g16-A.03/sandybridge/g16/l401.exe)
 ExpMin= 1.22D-01 ExpMax= 1.11D+05 ExpMxC= 1.07D+03 IAcc=3 IRadAn=         5 AccDes= 0.00D+00
 Harris functional with IExCor=32609 and IRadAn=       5 diagonalized for initial guess.
 HarFok:  IExCor=32609 AccDes= 0.00D+00 IRadAn=         5 IDoV= 1 UseB2=F ITyADJ=14
 ICtDFT=  3500011 ScaDFX=  1.000000  1.000000  1.000000  1.000000
 FoFCou: FMM=F IPFlag=           0 FMFlag=      100000 FMFlg1=        2001
         NFxFlg=           0 DoJE=T BraDBF=F KetDBF=T FulRan=T
         wScrn=  0.000000 ICntrl=       500 IOpCl=  0 I1Cent=   200000004 NGrid=           0
         NMat0=    1 NMatS0=      1 NMatT0=    0 NMatD0=    1 NMtDS0=    0 NMtDT0=    0
 Petite list used in FoFCou.
 Harris En= -2989.09372632859    
 JPrj=0 DoOrth=F DoCkMO=F.
 Initial guess <Sx>= 0.0000 <Sy>= 0.0000 <Sz>= 0.0000 <S**2>=-0.0000 S=-0.0000
 Leave Link  401 at Thu Jul 23 10:00:25 2020, MaxMem=  4026531840 cpu:              54.7 elap:               6.9
 (Enter /opt/ohpc/pub/libs/gaussian/g16-A.03/sandybridge/g16/l502.exe)
 Integral symmetry usage will be decided dynamically.
 UHF open shell SCF:
 Using DIIS extrapolation, IDIIS=  1040.
 NGot=  4026531840 LenX=  4025371915 LenY=  4024798109
 Requested convergence on RMS density matrix=1.00D-08 within 128 cycles.
 Requested convergence on MAX density matrix=1.00D-06.
 Requested convergence on             energy=1.00D-06.
 No special actions if energy rises.
 Fock matrices will be formed incrementally for  20 cycles.
 Integral accuracy reduced to 1.0D-05 until final iterations.

 Cycle   1  Pass 0  IDiag  1:
 FoFJK:  IHMeth= 1 ICntrl=       0 DoSepK=T KAlg= 0 I1Cent=           0 FoldK=F
 IRaf=         1 NMat=       1 IRICut=       1 DoRegI=T DoRafI=F ISym2E= 0 IDoP0=0 IntGTp=1.
 FoFCou: FMM=T IPFlag=           0 FMFlag=      100000 FMFlg1=        2001
         NFxFlg=           0 DoJE=T BraDBF=F KetDBF=F FulRan=T
         wScrn=  0.000000 ICntrl=       500 IOpCl=  0 I1Cent=           0 NGrid=           0
         NMat0=    1 NMatS0=      1 NMatT0=    0 NMatD0=    1 NMtDS0=    0 NMtDT0=    0
 Symmetry not used in FoFCou.
 FMM levels:  10  Number of levels for PrismC:   9
 E= -2988.60259329644    
 DIIS: error= 1.71D-02 at cycle   1 NSaved=   1.
 NSaved= 1 IEnMin= 1 EnMin= -2988.60259329644     IErMin= 1 ErrMin= 1.71D-02
 ErrMax= 1.71D-02  0.00D+00 EMaxC= 1.00D-01 BMatC= 3.21D+00 BMatP= 3.21D+00
 IDIUse=3 WtCom= 8.29D-01 WtEn= 1.71D-01
 Coeff-Com:  0.100D+01
 Coeff-En:   0.100D+01
 Coeff:      0.100D+01
 Gap=     0.380 Goal=   None    Shift=    0.000
 Gap=     0.380 Goal=   None    Shift=    0.000
 GapD=    0.380 DampG=1.000 DampE=0.500 DampFc=0.5000 IDamp=-1.
 Damping current iteration by 5.00D-01
 RMSDP=2.53D-03 MaxDP=1.27D-01              OVMax= 1.75D-01

 Cycle   2  Pass 0  IDiag  1:
 RMSU=  1.25D-03    CP:  9.86D-01
 E= -2989.07768198077     Delta-E=       -0.475088684338 Rises=F Damp=T
 DIIS: error= 5.64D-03 at cycle   2 NSaved=   2.
 NSaved= 2 IEnMin= 2 EnMin= -2989.07768198077     IErMin= 2 ErrMin= 5.64D-03
 ErrMax= 5.64D-03  0.00D+00 EMaxC= 1.00D-01 BMatC= 2.18D-01 BMatP= 3.21D+00
 IDIUse=3 WtCom= 9.44D-01 WtEn= 5.64D-02
 Coeff-Com: -0.143D+00 0.114D+01
 Coeff-En:   0.000D+00 0.100D+01
 Coeff:     -0.135D+00 0.113D+01
 Gap=     0.359 Goal=   None    Shift=    0.000
 Gap=     0.359 Goal=   None    Shift=    0.000
 RMSDP=8.50D-04 MaxDP=2.73D-02 DE=-4.75D-01 OVMax= 9.98D-02

 Cycle   3  Pass 0  IDiag  1:
 RMSU=  7.79D-04    CP:  9.77D-01  1.25D+00
 E= -2989.50533706763     Delta-E=       -0.427655086861 Rises=F Damp=F
 DIIS: error= 2.08D-03 at cycle   3 NSaved=   3.
 NSaved= 3 IEnMin= 3 EnMin= -2989.50533706763     IErMin= 3 ErrMin= 2.08D-03
 ErrMax= 2.08D-03  0.00D+00 EMaxC= 1.00D-01 BMatC= 4.54D-02 BMatP= 2.18D-01
 IDIUse=3 WtCom= 9.79D-01 WtEn= 2.08D-02
 Coeff-Com: -0.723D-01 0.350D+00 0.722D+00
 Coeff-En:   0.000D+00 0.000D+00 0.100D+01
 Coeff:     -0.708D-01 0.343D+00 0.728D+00
 Gap=     0.328 Goal=   None    Shift=    0.000
 Gap=     0.328 Goal=   None    Shift=    0.000
 RMSDP=2.18D-04 MaxDP=1.16D-02 DE=-4.28D-01 OVMax= 2.61D-02

 Cycle   4  Pass 0  IDiag  1:
 RMSU=  1.87D-04    CP:  9.76D-01  1.31D+00  9.00D-01
 E= -2989.51714444751     Delta-E=       -0.011807379872 Rises=F Damp=F
 DIIS: error= 7.82D-04 at cycle   4 NSaved=   4.
 NSaved= 4 IEnMin= 4 EnMin= -2989.51714444751     IErMin= 4 ErrMin= 7.82D-04
 ErrMax= 7.82D-04  0.00D+00 EMaxC= 1.00D-01 BMatC= 7.03D-03 BMatP= 4.54D-02
 IDIUse=3 WtCom= 9.92D-01 WtEn= 7.82D-03
 Coeff-Com: -0.170D-02-0.972D-02 0.254D+00 0.758D+00
 Coeff-En:   0.000D+00 0.000D+00 0.000D+00 0.100D+01
 Coeff:     -0.168D-02-0.964D-02 0.252D+00 0.760D+00
 Gap=     0.329 Goal=   None    Shift=    0.000
 Gap=     0.329 Goal=   None    Shift=    0.000
 RMSDP=8.80D-05 MaxDP=4.96D-03 DE=-1.18D-02 OVMax= 9.44D-03

 Cycle   5  Pass 0  IDiag  1:
 RMSU=  6.38D-05    CP:  9.76D-01  1.31D+00  9.75D-01  9.29D-01
 E= -2989.51939004139     Delta-E=       -0.002245593881 Rises=F Damp=F
 DIIS: error= 3.09D-04 at cycle   5 NSaved=   5.
 NSaved= 5 IEnMin= 5 EnMin= -2989.51939004139     IErMin= 5 ErrMin= 3.09D-04
 ErrMax= 3.09D-04  0.00D+00 EMaxC= 1.00D-01 BMatC= 7.96D-04 BMatP= 7.03D-03
 IDIUse=3 WtCom= 9.97D-01 WtEn= 3.09D-03
 Coeff-Com:  0.900D-02-0.411D-01 0.179D-01 0.242D+00 0.772D+00
 Coeff-En:   0.000D+00 0.000D+00 0.000D+00 0.000D+00 0.100D+01
 Coeff:      0.897D-02-0.410D-01 0.179D-01 0.242D+00 0.773D+00
 Gap=     0.330 Goal=   None    Shift=    0.000
 Gap=     0.330 Goal=   None    Shift=    0.000
 RMSDP=3.76D-05 MaxDP=2.17D-03 DE=-2.25D-03 OVMax= 6.10D-03

 Cycle   6  Pass 0  IDiag  1:
 RMSU=  2.84D-05    CP:  9.76D-01  1.31D+00  9.96D-01  1.02D+00  1.07D+00
 E= -2989.51976686797     Delta-E=       -0.000376826586 Rises=F Damp=F
 DIIS: error= 1.16D-04 at cycle   6 NSaved=   6.
 NSaved= 6 IEnMin= 6 EnMin= -2989.51976686797     IErMin= 6 ErrMin= 1.16D-04
 ErrMax= 1.16D-04  0.00D+00 EMaxC= 1.00D-01 BMatC= 1.77D-04 BMatP= 7.96D-04
 IDIUse=3 WtCom= 9.99D-01 WtEn= 1.16D-03
 Coeff-Com:  0.493D-02-0.157D-01-0.364D-01-0.544D-01 0.256D+00 0.846D+00
 Coeff-En:   0.000D+00 0.000D+00 0.000D+00 0.000D+00 0.000D+00 0.100D+01
 Coeff:      0.493D-02-0.157D-01-0.364D-01-0.544D-01 0.255D+00 0.846D+00
 Gap=     0.330 Goal=   None    Shift=    0.000
 Gap=     0.330 Goal=   None    Shift=    0.000
 RMSDP=2.25D-05 MaxDP=1.57D-03 DE=-3.77D-04 OVMax= 3.17D-03

 Cycle   7  Pass 0  IDiag  1:
 RMSU=  1.35D-05    CP:  9.76D-01  1.31D+00  1.01D+00  1.06D+00  1.29D+00
                    CP:  1.16D+00
 E= -2989.51989235001     Delta-E=       -0.000125482037 Rises=F Damp=F
 DIIS: error= 8.91D-05 at cycle   7 NSaved=   7.
 NSaved= 7 IEnMin= 7 EnMin= -2989.51989235001     IErMin= 7 ErrMin= 8.91D-05
 ErrMax= 8.91D-05  0.00D+00 EMaxC= 1.00D-01 BMatC= 3.45D-05 BMatP= 1.77D-04
 IDIUse=1 WtCom= 1.00D+00 WtEn= 0.00D+00
 Coeff-Com: -0.446D-04 0.321D-02-0.951D-02-0.618D-01-0.113D+00 0.219D+00
 Coeff-Com:  0.962D+00
 Coeff:     -0.446D-04 0.321D-02-0.951D-02-0.618D-01-0.113D+00 0.219D+00
 Coeff:      0.962D+00
 Gap=     0.331 Goal=   None    Shift=    0.000
 Gap=     0.331 Goal=   None    Shift=    0.000
 RMSDP=1.59D-05 MaxDP=8.80D-04 DE=-1.25D-04 OVMax= 2.51D-03

 Cycle   8  Pass 0  IDiag  1:
 RMSU=  8.75D-06    CP:  9.76D-01  1.31D+00  1.01D+00  1.08D+00  1.38D+00
                    CP:  1.50D+00  1.35D+00
 E= -2989.51992695856     Delta-E=       -0.000034608554 Rises=F Damp=F
 DIIS: error= 2.19D-05 at cycle   8 NSaved=   8.
 NSaved= 8 IEnMin= 8 EnMin= -2989.51992695856     IErMin= 8 ErrMin= 2.19D-05
 ErrMax= 2.19D-05  0.00D+00 EMaxC= 1.00D-01 BMatC= 6.91D-06 BMatP= 3.45D-05
 IDIUse=1 WtCom= 1.00D+00 WtEn= 0.00D+00
 Coeff-Com: -0.718D-03 0.338D-02 0.445D-02-0.812D-02-0.845D-01-0.975D-01
 Coeff-Com:  0.299D+00 0.884D+00
 Coeff:     -0.718D-03 0.338D-02 0.445D-02-0.812D-02-0.845D-01-0.975D-01
 Coeff:      0.299D+00 0.884D+00
 Gap=     0.331 Goal=   None    Shift=    0.000
 Gap=     0.331 Goal=   None    Shift=    0.000
 RMSDP=1.08D-05 MaxDP=3.93D-04 DE=-3.46D-05 OVMax= 9.36D-04

 Cycle   9  Pass 0  IDiag  1:
 RMSU=  6.64D-06    CP:  9.76D-01  1.31D+00  1.01D+00  1.08D+00  1.43D+00
                    CP:  1.63D+00  1.76D+00  1.52D+00
 E= -2989.51993371536     Delta-E=       -0.000006756795 Rises=F Damp=F
 DIIS: error= 1.81D-05 at cycle   9 NSaved=   9.
 NSaved= 9 IEnMin= 9 EnMin= -2989.51993371536     IErMin= 9 ErrMin= 1.81D-05
 ErrMax= 1.81D-05  0.00D+00 EMaxC= 1.00D-01 BMatC= 1.54D-06 BMatP= 6.91D-06
 IDIUse=1 WtCom= 1.00D+00 WtEn= 0.00D+00
 Coeff-Com: -0.142D-03 0.439D-03 0.257D-02 0.621D-02-0.784D-02-0.590D-01
 Coeff-Com: -0.472D-01 0.245D+00 0.860D+00
 Coeff:     -0.142D-03 0.439D-03 0.257D-02 0.621D-02-0.784D-02-0.590D-01
 Coeff:     -0.472D-01 0.245D+00 0.860D+00
 Gap=     0.331 Goal=   None    Shift=    0.000
 Gap=     0.331 Goal=   None    Shift=    0.000
 RMSDP=1.05D-05 MaxDP=3.04D-04 DE=-6.76D-06 OVMax= 3.09D-04

 Cycle  10  Pass 0  IDiag  1:
 RMSU=  5.49D-06    CP:  9.76D-01  1.31D+00  1.01D+00  1.08D+00  1.44D+00
                    CP:  1.69D+00  1.99D+00  2.24D+00  1.79D+00
 E= -2989.51993816971     Delta-E=       -0.000004454348 Rises=F Damp=F
 DIIS: error= 2.96D-05 at cycle  10 NSaved=  10.
 NSaved=10 IEnMin=10 EnMin= -2989.51993816971     IErMin= 9 ErrMin= 1.81D-05
 ErrMax= 2.96D-05  0.00D+00 EMaxC= 1.00D-01 BMatC= 1.50D-06 BMatP= 1.54D-06
 IDIUse=1 WtCom= 1.00D+00 WtEn= 0.00D+00
 Coeff-Com: -0.103D-03 0.314D-03 0.192D-02 0.467D-02-0.559D-02-0.441D-01
 Coeff-Com: -0.357D-01 0.181D+00 0.640D+00 0.258D+00
 Coeff:     -0.103D-03 0.314D-03 0.192D-02 0.467D-02-0.559D-02-0.441D-01
 Coeff:     -0.357D-01 0.181D+00 0.640D+00 0.258D+00
 Gap=     0.331 Goal=   None    Shift=    0.000
 Gap=     0.331 Goal=   None    Shift=    0.000
 RMSDP=3.74D-06 MaxDP=1.21D-04 DE=-4.45D-06 OVMax= 2.69D-05

 Initial convergence to 1.0D-05 achieved.  Increase integral accuracy.
 Cycle  11  Pass 1  IDiag  1:
 E= -2989.51930727627     Delta-E=        0.000630893438 Rises=F Damp=F
 DIIS: error= 1.72D-04 at cycle   1 NSaved=   1.
 NSaved= 1 IEnMin= 1 EnMin= -2989.51930727627     IErMin= 1 ErrMin= 1.72D-04
 ErrMax= 1.72D-04  0.00D+00 EMaxC= 1.00D-01 BMatC= 1.13D-04 BMatP= 1.13D-04
 IDIUse=3 WtCom= 9.98D-01 WtEn= 1.72D-03
 Coeff-Com:  0.100D+01
 Coeff-En:   0.100D+01
 Coeff:      0.100D+01
 Gap=     0.331 Goal=   None    Shift=    0.000
 Gap=     0.331 Goal=   None    Shift=    0.000
 RMSDP=3.74D-06 MaxDP=1.21D-04 DE= 6.31D-04 OVMax= 3.88D-04

 Cycle  12  Pass 1  IDiag  1:
 RMSU=  1.28D-04    CP:  1.00D+00
 E= -2989.51932992822     Delta-E=       -0.000022651948 Rises=F Damp=F
 DIIS: error= 7.71D-06 at cycle   2 NSaved=   2.
 NSaved= 2 IEnMin= 2 EnMin= -2989.51932992822     IErMin= 2 ErrMin= 7.71D-06
 ErrMax= 7.71D-06  0.00D+00 EMaxC= 1.00D-01 BMatC= 2.36D-07 BMatP= 1.13D-04
 IDIUse=1 WtCom= 1.00D+00 WtEn= 0.00D+00
 Coeff-Com: -0.363D-01 0.104D+01
 Coeff:     -0.363D-01 0.104D+01
 Gap=     0.331 Goal=   None    Shift=    0.000
 Gap=     0.331 Goal=   None    Shift=    0.000
 RMSDP=6.56D-06 MaxDP=2.67D-04 DE=-2.27D-05 OVMax= 4.71D-05

 Cycle  13  Pass 1  IDiag  1:
 RMSU=  2.22D-06    CP:  1.00D+00  1.05D+00
 E= -2989.51933000614     Delta-E=       -0.000000077927 Rises=F Damp=F
 DIIS: error= 1.32D-06 at cycle   3 NSaved=   3.
 NSaved= 3 IEnMin= 3 EnMin= -2989.51933000614     IErMin= 3 ErrMin= 1.32D-06
 ErrMax= 1.32D-06  0.00D+00 EMaxC= 1.00D-01 BMatC= 1.65D-08 BMatP= 2.36D-07
 IDIUse=1 WtCom= 1.00D+00 WtEn= 0.00D+00
 Coeff-Com: -0.577D-02 0.144D+00 0.862D+00
 Coeff:     -0.577D-02 0.144D+00 0.862D+00
 Gap=     0.331 Goal=   None    Shift=    0.000
 Gap=     0.331 Goal=   None    Shift=    0.000
 RMSDP=3.24D-07 MaxDP=1.17D-05 DE=-7.79D-08 OVMax= 2.79D-05

 Cycle  14  Pass 1  IDiag  1:
 RMSU=  1.98D-07    CP:  1.00D+00  1.05D+00  1.09D+00
 E= -2989.51932998864     Delta-E=        0.000000017507 Rises=F Damp=F
 DIIS: error= 1.52D-06 at cycle   4 NSaved=   4.
 NSaved= 4 IEnMin= 3 EnMin= -2989.51933000614     IErMin= 3 ErrMin= 1.32D-06
 ErrMax= 1.52D-06  0.00D+00 EMaxC= 1.00D-01 BMatC= 1.03D-08 BMatP= 1.65D-08
 IDIUse=1 WtCom= 1.00D+00 WtEn= 0.00D+00
 Coeff-Com:  0.245D-02-0.803D-01 0.435D+00 0.643D+00
 Coeff:      0.245D-02-0.803D-01 0.435D+00 0.643D+00
 Gap=     0.331 Goal=   None    Shift=    0.000
 Gap=     0.331 Goal=   None    Shift=    0.000
 RMSDP=1.34D-07 MaxDP=7.24D-06 DE= 1.75D-08 OVMax= 1.56D-05

 Cycle  15  Pass 1  IDiag  1:
 RMSU=  9.56D-08    CP:  1.00D+00  1.05D+00  1.13D+00  9.93D-01
 E= -2989.51932999261     Delta-E=       -0.000000003968 Rises=F Damp=F
 DIIS: error= 3.87D-07 at cycle   5 NSaved=   5.
 NSaved= 5 IEnMin= 3 EnMin= -2989.51933000614     IErMin= 5 ErrMin= 3.87D-07
 ErrMax= 3.87D-07  0.00D+00 EMaxC= 1.00D-01 BMatC= 7.83D-10 BMatP= 1.03D-08
 IDIUse=1 WtCom= 1.00D+00 WtEn= 0.00D+00
 Coeff-Com:  0.544D-03-0.123D-01-0.134D+00-0.449D-01 0.119D+01
 Coeff:      0.544D-03-0.123D-01-0.134D+00-0.449D-01 0.119D+01
 Gap=     0.331 Goal=   None    Shift=    0.000
 Gap=     0.331 Goal=   None    Shift=    0.000
 RMSDP=7.49D-08 MaxDP=3.92D-06 DE=-3.97D-09 OVMax= 1.30D-05

 Cycle  16  Pass 1  IDiag  1:
 RMSU=  3.86D-08    CP:  1.00D+00  1.05D+00  1.14D+00  1.22D+00  1.43D+00
 E= -2989.51932999351     Delta-E=       -0.000000000905 Rises=F Damp=F
 DIIS: error= 4.01D-07 at cycle   6 NSaved=   6.
 NSaved= 6 IEnMin= 3 EnMin= -2989.51933000614     IErMin= 5 ErrMin= 3.87D-07
 ErrMax= 4.01D-07  0.00D+00 EMaxC= 1.00D-01 BMatC= 3.45D-10 BMatP= 7.83D-10
 IDIUse=1 WtCom= 1.00D+00 WtEn= 0.00D+00
 Coeff-Com: -0.606D-03 0.225D-01-0.219D+00-0.248D+00 0.585D+00 0.860D+00
 Coeff:     -0.606D-03 0.225D-01-0.219D+00-0.248D+00 0.585D+00 0.860D+00
 Gap=     0.331 Goal=   None    Shift=    0.000
 Gap=     0.331 Goal=   None    Shift=    0.000
 RMSDP=4.55D-08 MaxDP=2.35D-06 DE=-9.05D-10 OVMax= 8.63D-06

 Cycle  17  Pass 1  IDiag  1:
 RMSU=  2.02D-08    CP:  1.00D+00  1.05D+00  1.14D+00  1.33D+00  1.75D+00
                    CP:  1.35D+00
 E= -2989.51932999409     Delta-E=       -0.000000000581 Rises=F Damp=F
 DIIS: error= 5.86D-08 at cycle   7 NSaved=   7.
 NSaved= 7 IEnMin= 3 EnMin= -2989.51933000614     IErMin= 7 ErrMin= 5.86D-08
 ErrMax= 5.86D-08  0.00D+00 EMaxC= 1.00D-01 BMatC= 2.45D-11 BMatP= 3.45D-10
 IDIUse=1 WtCom= 1.00D+00 WtEn= 0.00D+00
 Coeff-Com: -0.226D-03 0.756D-02-0.477D-01-0.637D-01 0.299D-01 0.231D+00
 Coeff-Com:  0.843D+00
 Coeff:     -0.226D-03 0.756D-02-0.477D-01-0.637D-01 0.299D-01 0.231D+00
 Coeff:      0.843D+00
 Gap=     0.331 Goal=   None    Shift=    0.000
 Gap=     0.331 Goal=   None    Shift=    0.000
 RMSDP=1.08D-08 MaxDP=5.48D-07 DE=-5.81D-10 OVMax= 1.66D-06

 Cycle  18  Pass 1  IDiag  1:
 RMSU=  4.81D-09    CP:  1.00D+00  1.05D+00  1.14D+00  1.35D+00  1.79D+00
                    CP:  1.53D+00  1.16D+00
 E= -2989.51932999408     Delta-E=        0.000000000012 Rises=F Damp=F
 DIIS: error= 3.37D-08 at cycle   8 NSaved=   8.
 NSaved= 8 IEnMin= 3 EnMin= -2989.51933000614     IErMin= 8 ErrMin= 3.37D-08
 ErrMax= 3.37D-08  0.00D+00 EMaxC= 1.00D-01 BMatC= 3.82D-12 BMatP= 2.45D-11
 IDIUse=1 WtCom= 1.00D+00 WtEn= 0.00D+00
 Coeff-Com:  0.670D-04-0.269D-02 0.322D-01 0.354D-01-0.108D+00-0.112D+00
 Coeff-Com:  0.207D+00 0.948D+00
 Coeff:      0.670D-04-0.269D-02 0.322D-01 0.354D-01-0.108D+00-0.112D+00
 Coeff:      0.207D+00 0.948D+00
 Gap=     0.331 Goal=   None    Shift=    0.000
 Gap=     0.331 Goal=   None    Shift=    0.000
 RMSDP=5.17D-09 MaxDP=2.15D-07 DE= 1.18D-11 OVMax= 6.45D-07

 SCF Done:  E(ULC-wPBE) =  -2989.51932999     A.U. after   18 cycles
            NFock= 18  Conv=0.52D-08     -V/T= 2.0047
 <Sx>= 0.0000 <Sy>= 0.0000 <Sz>= 0.0000 <S**2>=-0.0000 S=-0.0000
 <L.S>= 0.000000000000E+00
 KE= 2.975531579219D+03 PE=-1.664400482769D+04 EE= 5.872842729839D+03
 Annihilation of the first spin contaminant:
 S**2 before annihilation    -0.0000,   after    -0.0000
 Leave Link  502 at Thu Jul 23 10:07:10 2020, MaxMem=  4026531840 cpu:            3172.7 elap:             404.8
 (Enter /opt/ohpc/pub/libs/gaussian/g16-A.03/sandybridge/g16/l601.exe)
 Copying SCF densities to generalized density rwf, IOpCl= 1 IROHF=0.

 **********************************************************************

            Population analysis using the SCF density.

 **********************************************************************

 Orbital symmetries:
 Alpha Orbitals:
       Occupied  (A) (A) (A) (A) (A) (A) (A) (A) (A) (A) (A) (A)
                 (A) (A) (A) (A) (A) (A) (A) (A) (A) (A) (A) (A)
                 (A) (A) (A) (A) (A) (A) (A) (A) (A) (A) (A) (A)
                 (A) (A) (A) (A) (A) (A) (A) (A) (A) (A) (A) (A)
                 (A) (A) (A) (A) (A) (A) (A) (A) (A) (A) (A) (A)
                 (A) (A) (A) (A) (A) (A) (A) (A) (A) (A) (A) (A)
                 (A) (A) (A) (A) (A) (A) (A) (A) (A) (A) (A) (A)
                 (A) (A) (A) (A) (A) (A) (A) (A) (A) (A) (A) (A)
                 (A) (A) (A) (A) (A) (A) (A) (A) (A) (A) (A) (A)
                 (A) (A) (A) (A) (A) (A) (A) (A) (A) (A) (A) (A)
                 (A) (A) (A) (A) (A) (A) (A) (A) (A) (A) (A) (A)
                 (A) (A) (A) (A) (A) (A) (A) (A) (A) (A) (A) (A)
                 (A) (A) (A) (A) (A) (A) (A) (A) (A) (A) (A) (A)
                 (A) (A) (A) (A)
       Virtual   (A) (A) (A) (A) (A) (A) (A) (A) (A) (A) (A) (A)
                 (A) (A) (A) (A) (A) (A) (A) (A) (A) (A) (A) (A)
                 (A) (A) (A) (A) (A) (A) (A) (A) (A) (A) (A) (A)
                 (A) (A) (A) (A) (A) (A) (A) (A) (A) (A) (A) (A)
                 (A) (A) (A) (A) (A) (A) (A) (A) (A) (A) (A) (A)
                 (A) (A) (A) (A) (A) (A) (A) (A) (A) (A) (A) (A)
                 (A) (A) (A) (A) (A) (A) (A) (A) (A) (A) (A) (A)
                 (A) (A) (A) (A) (A) (A) (A) (A) (A) (A) (A) (A)
                 (A) (A) (A) (A) (A) (A) (A) (A) (A) (A) (A) (A)
                 (A) (A) (A) (A) (A) (A) (A) (A) (A) (A) (A) (A)
                 (A) (A) (A) (A) (A) (A) (A) (A) (A) (A) (A) (A)
                 (A) (A) (A) (A) (A) (A) (A) (A) (A) (A) (A) (A)
                 (A) (A) (A) (A) (A) (A) (A) (A) (A) (A) (A) (A)
                 (A) (A) (A) (A) (A) (A) (A) (A) (A) (A) (A) (A)
                 (A) (A) (A) (A) (A) (A) (A) (A) (A) (A) (A) (A)
                 (A) (A) (A) (A) (A) (A) (A) (A) (A) (A) (A) (A)
                 (A) (A) (A) (A) (A) (A) (A) (A) (A) (A) (A) (A)
                 (A) (A) (A) (A) (A) (A) (A) (A) (A) (A) (A) (A)
                 (A) (A) (A) (A) (A) (A) (A) (A) (A) (A) (A) (A)
                 (A) (A) (A) (A) (A) (A) (A) (A) (A) (A) (A) (A)
                 (A) (A) (A) (A) (A) (A) (A) (A) (A) (A) (A) (A)
                 (A) (A) (A) (A) (A) (A) (A) (A) (A) (A) (A) (A)
                 (A) (A) (A) (A) (A) (A) (A) (A) (A) (A) (A) (A)
                 (A) (A) (A) (A) (A) (A) (A) (A) (A) (A) (A) (A)
                 (A) (A) (A) (A) (A) (A) (A) (A) (A) (A) (A) (A)
                 (A) (A) (A) (A) (A) (A) (A) (A) (A) (A) (A) (A)
                 (A) (A) (A) (A) (A) (A) (A) (A) (A) (A) (A) (A)
                 (A) (A) (A) (A) (A) (A) (A) (A) (A) (A) (A) (A)
                 (A) (A) (A) (A) (A) (A) (A) (A) (A) (A) (A) (A)
                 (A) (A) (A) (A) (A) (A) (A) (A) (A) (A) (A) (A)
                 (A) (A) (A) (A) (A) (A) (A) (A) (A) (A) (A) (A)
                 (A) (A) (A) (A) (A) (A) (A) (A) (A) (A) (A) (A)
                 (A) (A) (A) (A) (A) (A) (A) (A) (A) (A) (A) (A)
                 (A) (A) (A) (A) (A) (A) (A) (A) (A) (A) (A) (A)
                 (A) (A) (A) (A) (A) (A) (A) (A) (A) (A) (A) (A)
                 (A) (A) (A) (A) (A) (A) (A) (A) (A) (A) (A) (A)
                 (A) (A) (A) (A) (A) (A) (A) (A) (A) (A) (A) (A)
                 (A) (A) (A) (A) (A) (A) (A) (A) (A) (A) (A) (A)
                 (A) (A) (A) (A) (A) (A) (A) (A) (A) (A) (A) (A)
                 (A) (A) (A) (A) (A) (A) (A) (A) (A) (A) (A) (A)
                 (A) (A) (A) (A) (A) (A) (A) (A) (A) (A) (A) (A)
                 (A) (A) (A) (A) (A) (A) (A) (A) (A) (A) (A) (A)
                 (A) (A) (A) (A) (A) (A) (A) (A) (A) (A) (A) (A)
                 (A) (A) (A) (A) (A) (A) (A) (A) (A) (A) (A) (A)
                 (A) (A) (A) (A) (A) (A) (A) (A) (A) (A) (A) (A)
                 (A) (A) (A) (A) (A) (A) (A) (A) (A) (A) (A) (A)
                 (A) (A) (A)
 Beta  Orbitals:
       Occupied  (A) (A) (A) (A) (A) (A) (A) (A) (A) (A) (A) (A)
                 (A) (A) (A) (A) (A) (A) (A) (A) (A) (A) (A) (A)
                 (A) (A) (A) (A) (A) (A) (A) (A) (A) (A) (A) (A)
                 (A) (A) (A) (A) (A) (A) (A) (A) (A) (A) (A) (A)
                 (A) (A) (A) (A) (A) (A) (A) (A) (A) (A) (A) (A)
                 (A) (A) (A) (A) (A) (A) (A) (A) (A) (A) (A) (A)
                 (A) (A) (A) (A) (A) (A) (A) (A) (A) (A) (A) (A)
                 (A) (A) (A) (A) (A) (A) (A) (A) (A) (A) (A) (A)
                 (A) (A) (A) (A) (A) (A) (A) (A) (A) (A) (A) (A)
                 (A) (A) (A) (A) (A) (A) (A) (A) (A) (A) (A) (A)
                 (A) (A) (A) (A) (A) (A) (A) (A) (A) (A) (A) (A)
                 (A) (A) (A) (A) (A) (A) (A) (A) (A) (A) (A) (A)
                 (A) (A) (A) (A) (A) (A) (A) (A) (A) (A) (A) (A)
                 (A) (A) (A) (A)
       Virtual   (A) (A) (A) (A) (A) (A) (A) (A) (A) (A) (A) (A)
                 (A) (A) (A) (A) (A) (A) (A) (A) (A) (A) (A) (A)
                 (A) (A) (A) (A) (A) (A) (A) (A) (A) (A) (A) (A)
                 (A) (A) (A) (A) (A) (A) (A) (A) (A) (A) (A) (A)
                 (A) (A) (A) (A) (A) (A) (A) (A) (A) (A) (A) (A)
                 (A) (A) (A) (A) (A) (A) (A) (A) (A) (A) (A) (A)
                 (A) (A) (A) (A) (A) (A) (A) (A) (A) (A) (A) (A)
                 (A) (A) (A) (A) (A) (A) (A) (A) (A) (A) (A) (A)
                 (A) (A) (A) (A) (A) (A) (A) (A) (A) (A) (A) (A)
                 (A) (A) (A) (A) (A) (A) (A) (A) (A) (A) (A) (A)
                 (A) (A) (A) (A) (A) (A) (A) (A) (A) (A) (A) (A)
                 (A) (A) (A) (A) (A) (A) (A) (A) (A) (A) (A) (A)
                 (A) (A) (A) (A) (A) (A) (A) (A) (A) (A) (A) (A)
                 (A) (A) (A) (A) (A) (A) (A) (A) (A) (A) (A) (A)
                 (A) (A) (A) (A) (A) (A) (A) (A) (A) (A) (A) (A)
                 (A) (A) (A) (A) (A) (A) (A) (A) (A) (A) (A) (A)
                 (A) (A) (A) (A) (A) (A) (A) (A) (A) (A) (A) (A)
                 (A) (A) (A) (A) (A) (A) (A) (A) (A) (A) (A) (A)
                 (A) (A) (A) (A) (A) (A) (A) (A) (A) (A) (A) (A)
                 (A) (A) (A) (A) (A) (A) (A) (A) (A) (A) (A) (A)
                 (A) (A) (A) (A) (A) (A) (A) (A) (A) (A) (A) (A)
                 (A) (A) (A) (A) (A) (A) (A) (A) (A) (A) (A) (A)
                 (A) (A) (A) (A) (A) (A) (A) (A) (A) (A) (A) (A)
                 (A) (A) (A) (A) (A) (A) (A) (A) (A) (A) (A) (A)
                 (A) (A) (A) (A) (A) (A) (A) (A) (A) (A) (A) (A)
                 (A) (A) (A) (A) (A) (A) (A) (A) (A) (A) (A) (A)
                 (A) (A) (A) (A) (A) (A) (A) (A) (A) (A) (A) (A)
                 (A) (A) (A) (A) (A) (A) (A) (A) (A) (A) (A) (A)
                 (A) (A) (A) (A) (A) (A) (A) (A) (A) (A) (A) (A)
                 (A) (A) (A) (A) (A) (A) (A) (A) (A) (A) (A) (A)
                 (A) (A) (A) (A) (A) (A) (A) (A) (A) (A) (A) (A)
                 (A) (A) (A) (A) (A) (A) (A) (A) (A) (A) (A) (A)
                 (A) (A) (A) (A) (A) (A) (A) (A) (A) (A) (A) (A)
                 (A) (A) (A) (A) (A) (A) (A) (A) (A) (A) (A) (A)
                 (A) (A) (A) (A) (A) (A) (A) (A) (A) (A) (A) (A)
                 (A) (A) (A) (A) (A) (A) (A) (A) (A) (A) (A) (A)
                 (A) (A) (A) (A) (A) (A) (A) (A) (A) (A) (A) (A)
                 (A) (A) (A) (A) (A) (A) (A) (A) (A) (A) (A) (A)
                 (A) (A) (A) (A) (A) (A) (A) (A) (A) (A) (A) (A)
                 (A) (A) (A) (A) (A) (A) (A) (A) (A) (A) (A) (A)
                 (A) (A) (A) (A) (A) (A) (A) (A) (A) (A) (A) (A)
                 (A) (A) (A) (A) (A) (A) (A) (A) (A) (A) (A) (A)
                 (A) (A) (A) (A) (A) (A) (A) (A) (A) (A) (A) (A)
                 (A) (A) (A) (A) (A) (A) (A) (A) (A) (A) (A) (A)
                 (A) (A) (A) (A) (A) (A) (A) (A) (A) (A) (A) (A)
                 (A) (A) (A) (A) (A) (A) (A) (A) (A) (A) (A) (A)
                 (A) (A) (A)
 The electronic state is 1-A.
 Alpha  occ. eigenvalues --  -88.36106 -88.35812 -88.35500 -24.55728 -24.54604
 Alpha  occ. eigenvalues --  -24.53886 -19.04849 -19.04550 -19.04354 -10.25495
 Alpha  occ. eigenvalues --  -10.25457 -10.25439 -10.22513 -10.22426 -10.22381
 Alpha  occ. eigenvalues --  -10.21444 -10.20110 -10.19947 -10.19858 -10.19603
 Alpha  occ. eigenvalues --  -10.19335 -10.18921 -10.18717 -10.18685 -10.18619
 Alpha  occ. eigenvalues --  -10.18576 -10.18255 -10.17963 -10.17541 -10.17515
 Alpha  occ. eigenvalues --  -10.17424 -10.17148 -10.17109 -10.17007 -10.16844
 Alpha  occ. eigenvalues --  -10.16749 -10.16734 -10.16663 -10.16567 -10.16379
 Alpha  occ. eigenvalues --  -10.16258 -10.15618  -7.97055  -7.96830  -7.96406
 Alpha  occ. eigenvalues --   -5.98220  -5.98005  -5.97672  -5.97635  -5.97456
 Alpha  occ. eigenvalues --   -5.97422  -5.97157  -5.97122  -5.96629  -1.43544
 Alpha  occ. eigenvalues --   -1.40523  -1.37645  -1.24509  -1.24367  -1.22453
 Alpha  occ. eigenvalues --   -1.08967  -1.08604  -1.07684  -1.05523  -1.04180
 Alpha  occ. eigenvalues --   -1.03628  -0.98199  -0.96556  -0.94915  -0.92943
 Alpha  occ. eigenvalues --   -0.92866  -0.92543  -0.92261  -0.91836  -0.91332
 Alpha  occ. eigenvalues --   -0.90811  -0.89166  -0.88239  -0.85940  -0.84942
 Alpha  occ. eigenvalues --   -0.83623  -0.80208  -0.79405  -0.78795  -0.78230
 Alpha  occ. eigenvalues --   -0.77828  -0.76329  -0.73201  -0.72614  -0.72171
 Alpha  occ. eigenvalues --   -0.71289  -0.70803  -0.70485  -0.69430  -0.69232
 Alpha  occ. eigenvalues --   -0.68709  -0.67662  -0.66319  -0.65922  -0.65123
 Alpha  occ. eigenvalues --   -0.65005  -0.64722  -0.64658  -0.63031  -0.62972
 Alpha  occ. eigenvalues --   -0.62497  -0.62414  -0.62228  -0.61969  -0.61233
 Alpha  occ. eigenvalues --   -0.61169  -0.61072  -0.59728  -0.58820  -0.58424
 Alpha  occ. eigenvalues --   -0.58337  -0.57832  -0.57616  -0.56872  -0.56464
 Alpha  occ. eigenvalues --   -0.55425  -0.55074  -0.54691  -0.54516  -0.54259
 Alpha  occ. eigenvalues --   -0.53811  -0.53640  -0.53315  -0.52822  -0.52349
 Alpha  occ. eigenvalues --   -0.51688  -0.51529  -0.50515  -0.49639  -0.49489
 Alpha  occ. eigenvalues --   -0.49382  -0.48316  -0.48269  -0.47484  -0.47060
 Alpha  occ. eigenvalues --   -0.46638  -0.46569  -0.45822  -0.45639  -0.45469
 Alpha  occ. eigenvalues --   -0.45451  -0.45019  -0.44716  -0.39831  -0.38520
 Alpha  occ. eigenvalues --   -0.37727  -0.36326  -0.35975  -0.35836  -0.35081
 Alpha  occ. eigenvalues --   -0.34976  -0.34277  -0.31703  -0.30644  -0.30150
 Alpha virt. eigenvalues --    0.02927   0.04469   0.05948   0.06342   0.07541
 Alpha virt. eigenvalues --    0.08243   0.08286   0.09657   0.10760   0.13428
 Alpha virt. eigenvalues --    0.15106   0.15201   0.15830   0.16409   0.16558
 Alpha virt. eigenvalues --    0.16567   0.16825   0.17035   0.17193   0.17852
 Alpha virt. eigenvalues --    0.18369   0.19352   0.19616   0.20075   0.20835
 Alpha virt. eigenvalues --    0.21412   0.21753   0.22021   0.22318   0.22622
 Alpha virt. eigenvalues --    0.22962   0.23001   0.23345   0.23532   0.23743
 Alpha virt. eigenvalues --    0.24023   0.24270   0.24630   0.24945   0.25129
 Alpha virt. eigenvalues --    0.25604   0.26108   0.26186   0.27085   0.27254
[...]
     6 F(19)  Bbb     0.0000     0.000     0.000     0.000 -0.6327  0.0564  0.7724
              Bcc     0.0000     0.000     0.000     0.000  0.7040  0.4575  0.5432
 
              Baa    -0.0000    -0.000    -0.000    -0.000  0.9768  0.0072  0.2138
     7 C(13)  Bbb     0.0000     0.000     0.000     0.000 -0.1800  0.5677  0.8033
              Bcc     0.0000     0.000     0.000     0.000  0.1156  0.8232 -0.5559
 
              Baa    -0.0000    -0.000    -0.000    -0.000  0.0390 -0.1384  0.9896
     8 C(13)  Bbb     0.0000     0.000     0.000     0.000  0.9599  0.2805  0.0014
              Bcc     0.0000     0.000     0.000     0.000 -0.2778  0.9498  0.1437
 
              Baa    -0.0000    -0.000    -0.000    -0.000 -0.3273  0.9417  0.0785
     9 C(13)  Bbb    -0.0000    -0.000    -0.000    -0.000  0.9449  0.3263  0.0258
              Bcc     0.0000     0.000     0.000     0.000  0.0013 -0.0826  0.9966
 
              Baa    -0.0000     0.000     0.000     0.000 -0.0139  0.8959 -0.4441
    10 O(17)  Bbb    -0.0000     0.000     0.000     0.000  0.7866  0.2840  0.5483
              Bcc     0.0000    -0.000    -0.000    -0.000 -0.6174  0.3417  0.7086
 
              Baa    -0.0000    -0.000    -0.000    -0.000 -0.6505  0.7108 -0.2674
    11 C(13)  Bbb     0.0000     0.000     0.000     0.000  0.0832  0.4167  0.9052
              Bcc     0.0000     0.000     0.000     0.000  0.7549  0.5666 -0.3302
 
              Baa    -0.0000    -0.000    -0.000    -0.000  0.0661 -0.0986  0.9929
    12 C(13)  Bbb     0.0000     0.000     0.000     0.000  0.9644  0.2616 -0.0382
              Bcc     0.0000     0.000     0.000     0.000 -0.2560  0.9601  0.1123
 
              Baa    -0.0000    -0.000    -0.000    -0.000 -0.2214  0.9734  0.0594
    13 C(13)  Bbb     0.0000     0.000     0.000     0.000  0.9719  0.2152  0.0958
              Bcc     0.0000     0.000     0.000     0.000 -0.0804 -0.0789  0.9936
 
              Baa    -0.0000    -0.000    -0.000    -0.000  0.0724  0.9791 -0.1901
    14 S(33)  Bbb     0.0000     0.000     0.000     0.000 -0.0406  0.1933  0.9803
              Bcc     0.0000     0.000     0.000     0.000  0.9965 -0.0633  0.0537
 
              Baa    -0.0000    -0.000    -0.000    -0.000  0.1496  0.4837  0.8623
    15 C(13)  Bbb     0.0000     0.000     0.000     0.000  0.8937 -0.4393  0.0913
              Bcc     0.0000     0.000     0.000     0.000  0.4230  0.7570 -0.4980
 
              Baa    -0.0000    -0.000    -0.000    -0.000  0.9468  0.2650  0.1824
    16 C(13)  Bbb    -0.0000    -0.000    -0.000    -0.000 -0.2951  0.4896  0.8205
              Bcc     0.0000     0.000     0.000     0.000 -0.1281  0.8307 -0.5418
 
              Baa    -0.0000    -0.000    -0.000    -0.000 -0.0553  0.4317  0.9003
    17 C(13)  Bbb     0.0000     0.000     0.000     0.000 -0.2978  0.8535 -0.4275
              Bcc     0.0000     0.000     0.000     0.000  0.9530  0.2918 -0.0813
 
              Baa    -0.0000    -0.000    -0.000    -0.000 -0.5430  0.8189  0.1858
    18 C(13)  Bbb     0.0000     0.000     0.000     0.000  0.7570  0.5732 -0.3137
              Bcc     0.0000     0.000     0.000     0.000  0.3634  0.0297  0.9311
 
              Baa    -0.0000    -0.000    -0.000    -0.000 -0.2495  0.3183  0.9146
    19 C(13)  Bbb    -0.0000    -0.000    -0.000    -0.000  0.9672  0.1293  0.2188
              Bcc     0.0000     0.000     0.000     0.000 -0.0486  0.9391 -0.3401
 
              Baa    -0.0000    -0.000    -0.000    -0.000  0.1379  0.5053  0.8518
    20 F(19)  Bbb     0.0000     0.000     0.000     0.000 -0.0012  0.8601 -0.5101
              Bcc     0.0000     0.000     0.000     0.000  0.9905 -0.0693 -0.1192
 
              Baa    -0.0000    -0.000    -0.000    -0.000  0.9237  0.3383 -0.1796
    21 C(13)  Bbb    -0.0000    -0.000    -0.000    -0.000 -0.3766  0.7165 -0.5872
              Bcc     0.0000     0.000     0.000     0.000 -0.0699  0.6101  0.7892
 
              Baa    -0.0000    -0.000    -0.000    -0.000  0.2464  0.9674  0.0582
    22 C(13)  Bbb    -0.0000    -0.000    -0.000    -0.000  0.9497 -0.2530  0.1846
              Bcc     0.0000     0.000     0.000     0.000 -0.1933 -0.0098  0.9811
 
              Baa    -0.0000    -0.000    -0.000    -0.000  0.9954 -0.0350  0.0892
    23 C(13)  Bbb     0.0000     0.000     0.000     0.000 -0.0902 -0.0294  0.9955
              Bcc     0.0000     0.000     0.000     0.000  0.0322  0.9990  0.0324
 
              Baa    -0.0000     0.000     0.000     0.000 -0.1453  0.9825  0.1169
    24 O(17)  Bbb     0.0000    -0.000    -0.000    -0.000  0.1177 -0.1001  0.9880
              Bcc     0.0000    -0.000    -0.000    -0.000  0.9824  0.1573 -0.1011
 
              Baa    -0.0000    -0.000    -0.000    -0.000 -0.2147 -0.5261  0.8229
    25 C(13)  Bbb    -0.0000    -0.000    -0.000    -0.000  0.0413  0.8369  0.5458
              Bcc     0.0000     0.000     0.000     0.000  0.9758 -0.1512  0.1580
 
              Baa    -0.0000    -0.000    -0.000    -0.000 -0.1969  0.9802 -0.0197
    26 C(13)  Bbb    -0.0000    -0.000    -0.000    -0.000  0.0636  0.0328  0.9974
              Bcc     0.0000     0.000     0.000     0.000  0.9784  0.1951 -0.0688
 
              Baa    -0.0000    -0.000    -0.000    -0.000  0.7984 -0.2150  0.5624
    27 C(13)  Bbb    -0.0000    -0.000    -0.000    -0.000 -0.5598  0.0789  0.8249
              Bcc     0.0000     0.000     0.000     0.000  0.2217  0.9734  0.0574
 
              Baa    -0.0000    -0.000    -0.000    -0.000 -0.1829  0.9830 -0.0155
    28 S(33)  Bbb     0.0000     0.000     0.000     0.000 -0.1489 -0.0121  0.9888
              Bcc     0.0000     0.000     0.000     0.000  0.9718  0.1831  0.1486
 
              Baa    -0.0000    -0.000    -0.000    -0.000  0.3128  0.5035  0.8054
    29 C(13)  Bbb    -0.0000    -0.000    -0.000    -0.000 -0.4445  0.8269 -0.3444
              Bcc     0.0000     0.000     0.000     0.000  0.8394  0.2502 -0.4825
 
              Baa    -0.0000    -0.000    -0.000    -0.000  0.3427  0.8062 -0.4823
    30 C(13)  Bbb    -0.0000    -0.000    -0.000    -0.000  0.8836 -0.4510 -0.1260
              Bcc     0.0000     0.000     0.000     0.000  0.3190  0.3830  0.8669
 
              Baa    -0.0000    -0.000    -0.000    -0.000  0.4688  0.7534 -0.4611
    31 C(13)  Bbb    -0.0000    -0.000    -0.000    -0.000  0.8754 -0.3264  0.3567
              Bcc     0.0000     0.000     0.000     0.000 -0.1182  0.5709  0.8125
 
              Baa    -0.0000    -0.000    -0.000    -0.000  0.3814  0.7725 -0.5077
    32 C(13)  Bbb     0.0000     0.000     0.000     0.000  0.2384  0.4485  0.8614
              Bcc     0.0000     0.000     0.000     0.000  0.8932 -0.4496 -0.0131
 
              Baa    -0.0000    -0.000    -0.000    -0.000  0.9447  0.2639 -0.1948
    33 C(13)  Bbb    -0.0000    -0.000    -0.000    -0.000 -0.3277  0.7871 -0.5226
              Bcc     0.0000     0.000     0.000     0.000  0.0154  0.5575  0.8300
 
              Baa    -0.0000    -0.000    -0.000    -0.000  0.9437 -0.1727 -0.2820
    34 F(19)  Bbb    -0.0000    -0.000    -0.000    -0.000  0.1703  0.9848 -0.0331
              Bcc     0.0000     0.000     0.000     0.000  0.2835 -0.0168  0.9588
 
              Baa    -0.0000    -0.000    -0.000    -0.000  0.9651 -0.2457 -0.0912
    35 C(13)  Bbb    -0.0000    -0.000    -0.000    -0.000  0.1754  0.8641 -0.4719
              Bcc     0.0000     0.000     0.000     0.000  0.1947  0.4394  0.8769
 
              Baa    -0.0000    -0.000    -0.000    -0.000  0.6213  0.7753 -0.1138
    36 C(13)  Bbb    -0.0000    -0.000    -0.000    -0.000  0.3388 -0.1348  0.9312
              Bcc     0.0000     0.000     0.000     0.000  0.7066 -0.6170 -0.3464
 
              Baa    -0.0000    -0.000    -0.000    -0.000  0.9927 -0.1012  0.0653
    37 C(13)  Bbb     0.0000     0.000     0.000     0.000  0.0914  0.9861  0.1388
              Bcc     0.0000     0.000     0.000     0.000 -0.0784 -0.1318  0.9882
 
              Baa    -0.0000     0.000     0.000     0.000  0.2365  0.9714  0.0205
    38 O(17)  Bbb    -0.0000     0.000     0.000     0.000 -0.2597  0.0429  0.9647
              Bcc     0.0000    -0.000    -0.000    -0.000  0.9363 -0.2335  0.2624
 
              Baa    -0.0000    -0.000    -0.000    -0.000 -0.4086 -0.2442  0.8794
    39 C(13)  Bbb    -0.0000    -0.000    -0.000    -0.000 -0.3636  0.9273  0.0886
              Bcc     0.0000     0.000     0.000     0.000  0.8372  0.2836  0.4677
 
              Baa    -0.0000    -0.000    -0.000    -0.000  0.5922  0.8052  0.0327
    40 C(13)  Bbb    -0.0000    -0.000    -0.000    -0.000  0.0246 -0.0586  0.9980
              Bcc     0.0000     0.000     0.000     0.000  0.8054 -0.5902 -0.0545
 
              Baa    -0.0000    -0.000    -0.000    -0.000 -0.4196  0.9060  0.0557
    41 C(13)  Bbb     0.0000     0.000     0.000     0.000 -0.0937 -0.1042  0.9901
              Bcc     0.0000     0.000     0.000     0.000  0.9029  0.4102  0.1286
 
              Baa    -0.0000    -0.000    -0.000    -0.000 -0.2915  0.9561  0.0299
    42 S(33)  Bbb     0.0000     0.000     0.000     0.000  0.1131  0.0034  0.9936
              Bcc     0.0000     0.000     0.000     0.000  0.9499  0.2930 -0.1092
 
              Baa    -0.0000    -0.000    -0.000    -0.000  0.8412  0.1965  0.5038
    43 H(1)   Bbb     0.0000     0.000     0.000     0.000 -0.3626  0.8962  0.2558
              Bcc     0.0000     0.000     0.000     0.000 -0.4012 -0.3979  0.8251
 
              Baa    -0.0000    -0.000    -0.000    -0.000  0.6732  0.6225  0.3992
    44 H(1)   Bbb     0.0000     0.000     0.000     0.000 -0.3407 -0.2180  0.9145
              Bcc     0.0000     0.000     0.000     0.000 -0.6563  0.7517 -0.0654
 
              Baa    -0.0000    -0.000    -0.000    -0.000  0.1612  0.3769  0.9121
    45 H(1)   Bbb    -0.0000    -0.000    -0.000    -0.000  0.9529  0.1813 -0.2433
              Bcc     0.0000     0.000     0.000     0.000 -0.2570  0.9083 -0.3299
 
              Baa    -0.0000    -0.000    -0.000    -0.000 -0.0190  0.9708 -0.2392
    46 H(1)   Bbb     0.0000     0.000     0.000     0.000  0.2526  0.2362  0.9383
              Bcc     0.0000     0.000     0.000     0.000  0.9674 -0.0426 -0.2497
 
              Baa    -0.0000    -0.000    -0.000    -0.000  0.8434 -0.4544 -0.2868
    47 H(1)   Bbb    -0.0000    -0.000    -0.000    -0.000  0.4860  0.4172  0.7680
              Bcc     0.0000     0.000     0.000     0.000  0.2293  0.7871 -0.5727
 
              Baa    -0.0000    -0.000    -0.000    -0.000  0.9975  0.0472  0.0529
    48 H(1)   Bbb     0.0000     0.000     0.000     0.000 -0.0381 -0.2724  0.9614
              Bcc     0.0000     0.000     0.000     0.000 -0.0598  0.9610  0.2699
 
              Baa    -0.0000    -0.000    -0.000    -0.000  0.7319  0.1007  0.6740
    49 H(1)   Bbb    -0.0000    -0.000    -0.000    -0.000 -0.2571  0.9567  0.1362
              Bcc     0.0000     0.000     0.000     0.000 -0.6311 -0.2730  0.7261
 
              Baa    -0.0000    -0.000    -0.000    -0.000  0.1016 -0.3291  0.9388
    50 H(1)   Bbb    -0.0000    -0.000    -0.000    -0.000 -0.3912  0.8545  0.3419
              Bcc     0.0000     0.000     0.000     0.000  0.9147  0.4020  0.0419
 
              Baa    -0.0000    -0.000    -0.000    -0.000 -0.1351  0.3878  0.9118
    51 H(1)   Bbb    -0.0000    -0.000    -0.000    -0.000  0.8552  0.5104 -0.0904
              Bcc     0.0000     0.000     0.000     0.000 -0.5004  0.7675 -0.4006
 
              Baa    -0.0000    -0.000    -0.000    -0.000  0.2491  0.9575 -0.1455
    52 H(1)   Bbb     0.0000     0.000     0.000     0.000  0.4393  0.0222  0.8981
              Bcc     0.0000     0.000     0.000     0.000  0.8631 -0.2876 -0.4150
 
              Baa    -0.0000    -0.000    -0.000    -0.000  0.1299  0.4056  0.9048
    53 H(1)   Bbb    -0.0000    -0.000    -0.000    -0.000  0.9159 -0.3987  0.0473
              Bcc     0.0000     0.000     0.000     0.000  0.3799  0.8225 -0.4232
 
              Baa    -0.0000    -0.000    -0.000    -0.000  0.9642  0.1055  0.2434
    54 H(1)   Bbb     0.0000     0.000     0.000     0.000 -0.1196  0.9918  0.0439
              Bcc     0.0000     0.000     0.000     0.000 -0.2368 -0.0715  0.9689
 
              Baa    -0.0000    -0.000    -0.000    -0.000 -0.2896  0.4216  0.8593
    55 H(1)   Bbb    -0.0000    -0.000    -0.000    -0.000 -0.4478  0.7337 -0.5110
              Bcc     0.0000     0.000     0.000     0.000  0.8459  0.5328  0.0236
 
              Baa    -0.0000    -0.000    -0.000    -0.000  0.8504  0.3248  0.4139
    56 H(1)   Bbb     0.0000     0.000     0.000     0.000  0.0442  0.7398 -0.6714
              Bcc     0.0000     0.000     0.000     0.000 -0.5243  0.5892  0.6148
 
              Baa    -0.0000    -0.000    -0.000    -0.000  0.7212 -0.6600  0.2103
    57 H(1)   Bbb     0.0000     0.000     0.000     0.000 -0.5020 -0.2888  0.8152
              Bcc     0.0000     0.000     0.000     0.000  0.4773  0.6935  0.5396
 
              Baa    -0.0000    -0.000    -0.000    -0.000  0.0908  0.8192 -0.5663
    58 H(1)   Bbb    -0.0000    -0.000    -0.000    -0.000  0.9945 -0.1047  0.0079
              Bcc     0.0000     0.000     0.000     0.000  0.0528  0.5639  0.8242
 
              Baa    -0.0000    -0.000    -0.000    -0.000  0.7912  0.4194 -0.4451
    59 H(1)   Bbb     0.0000     0.000     0.000     0.000  0.1434  0.5802  0.8017
              Bcc     0.0000     0.000     0.000     0.000 -0.5945  0.6982 -0.3989
 
              Baa    -0.0000    -0.000    -0.000    -0.000  0.5788  0.6275 -0.5207
    60 H(1)   Bbb     0.0000     0.000     0.000     0.000  0.7698 -0.6312  0.0950
              Bcc     0.0000     0.000     0.000     0.000  0.2691  0.4558  0.8484
 
              Baa    -0.0000    -0.000    -0.000    -0.000  0.2172  0.5398  0.8133
    61 H(1)   Bbb    -0.0000    -0.000    -0.000    -0.000  0.9097  0.1903 -0.3692
              Bcc     0.0000     0.000     0.000     0.000 -0.3540  0.8200 -0.4497
 
              Baa    -0.0000    -0.000    -0.000    -0.000  0.8777  0.2981 -0.3752
    62 H(1)   Bbb     0.0000     0.000     0.000     0.000  0.1230  0.6167  0.7776
              Bcc     0.0000     0.000     0.000     0.000 -0.4632  0.7286 -0.5046
 
              Baa    -0.0000    -0.000    -0.000    -0.000  0.7409  0.6661  0.0859
    63 H(1)   Bbb    -0.0000    -0.000    -0.000    -0.000 -0.3791  0.3093  0.8721
              Bcc     0.0000     0.000     0.000     0.000 -0.5543  0.6787 -0.4817
 
              Baa    -0.0000    -0.000    -0.000    -0.000  0.0023 -0.0408  0.9992
    64 H(1)   Bbb     0.0000     0.000     0.000     0.000  0.8231 -0.5674 -0.0251
              Bcc     0.0000     0.000     0.000     0.000  0.5679  0.8225  0.0323
 
              Baa    -0.0000    -0.000    -0.000    -0.000  0.7069 -0.7066 -0.0331
    65 H(1)   Bbb    -0.0000    -0.000    -0.000    -0.000  0.0277 -0.0191  0.9994
              Bcc     0.0000     0.000     0.000     0.000  0.7068  0.7074 -0.0061
 

 ---------------------------------------------------------------------------------

 No NMR shielding tensors so no spin-rotation constants.
 Leave Link  601 at Thu Jul 23 12:18:43 2020, MaxMem=  4026531840 cpu:               7.5 elap:               1.0
 (Enter /opt/ohpc/pub/libs/gaussian/g16-A.03/sandybridge/g16/l9999.exe)

 Test job not archived.
 1\1\GINC-SKYLAKE038\FOpt\ULC-wPBE\CC-pVDZ\C33H23F3O3S3\RDU230\23-Jul-2
 020\0\\#P uLC-wPBE/cc-pVDZ iop(3/107=0467500000, 3/108=0467500000) opt
 \\H23 C33 S3 O3 F3\\0,1\C,-10.9036350814,-2.8508442268,-0.5104065171\C
 ,-10.9191617513,-1.5398557972,-0.9600496502\C,-9.7882053196,-0.7505566
 502,-0.8493541911\C,-8.6075604143,-1.2376766184,-0.2836234752\C,-8.633
 7988567,-2.5593248888,0.1502028654\F,-7.5264456928,-3.0907089083,0.691
 5597824\C,-9.7471926138,-3.3656615366,0.0480868833\C,-7.4112369658,-0.
 394127912,-0.159882924\C,-7.359301872,0.9738980793,-0.0563899042\O,-8.
 4867420219,1.7172434644,-0.0057069083\C,-8.342483576,3.0898514133,0.25
 47395922\C,-6.0358024798,1.4897004443,-0.0072704437\C,-5.0919447639,0.
 5092371206,-0.0801573103\S,-5.810778293,-1.0363792861,-0.2016382887\C,
 -3.6326869314,0.6740648481,-0.050099239\C,-3.034484948,1.8187114926,-0
 .5723635691\C,-1.6641223607,1.9840370146,-0.5365877068\C,-0.8175892245
 ,1.0197586086,0.0165985467\C,-1.4455642496,-0.1163611284,0.5173642167\
 F,-0.698091528,-1.0910544045,1.0559765335\C,-2.8091485572,-0.302762906
 8,0.4972629805\C,0.6376656884,1.2008570912,0.057152363\C,1.3352949107,
 2.3842279798,0.0418208925\O,0.6977166125,3.5756248081,0.0360399356\C,1
 .4874411198,4.7303931243,0.1645967767\C,2.7456969157,2.2122072671,0.03
 86447395\C,3.1098781613,0.8988411573,0.0460005233\S,1.7423317095,-0.12
 52213671,0.0626647491\C,4.4736930716,0.3531318189,0.0530246642\C,5.515
 6653749,1.0337038219,-0.5727683167\C,6.8015332274,0.5303527995,-0.5598
 96033\C,7.1166045879,-0.6748288597,0.0720945637\C,6.0519125851,-1.3351
 851053,0.6764906388\F,6.2754749577,-2.5034225028,1.2955093987\C,4.7626
 291843,-0.8528037843,0.6808764211\C,8.4859060526,-1.2039877506,0.08708
 10233\C,9.6561404625,-0.4920481473,-0.0128460838\O,9.6533186994,0.8568
 465634,-0.1005974415\C,10.8973068112,1.507345548,-0.0498646018\C,10.82
 0629649,-1.3123740645,-0.0166996023\C,10.5066665567,-2.6292398248,0.07
 27644454\S,8.8339265988,-2.8924456246,0.1777190782\H,-11.7896191255,-3
 .476880506,-0.5963706025\H,-11.8203471884,-1.1251487208,-1.407153699\H
 ,-9.8068031867,0.2754421939,-1.2028291715\H,-9.6842358281,-4.387929887
 4,0.413099\H,-7.797828417,3.6001145338,-0.5518823316\H,-9.353233581,3.
 5011041311,0.3142302141\H,-7.8282569441,3.2662673855,1.2093328616\H,-5
 .7867305354,2.5389905105,0.1107438308\H,-3.6508770849,2.5836287029,-1.
 0395681909\H,-1.2221442228,2.8831227368,-0.9530935094\H,-3.2110698465,
 -1.2143007286,0.9341502206\H,2.1663443972,4.8535025203,-0.69059206\H,0
 .7960115161,5.5762058576,0.1922490025\H,2.0718405933,4.7161038654,1.09
 45855085\H,3.4661272894,3.022881717,0.0637880587\H,5.312185771,1.96165
 66117,-1.1027167452\H,7.5961771202,1.0770267894,-1.0570179476\H,3.9988
 552313,-1.4279768195,1.1996914248\H,10.6868774458,2.5795504271,-0.0708
 073436\H,11.5239721949,1.2509978231,-0.9153602023\H,11.438814822,1.267
 6965494,0.8754136686\H,11.8389554914,-0.9439729879,-0.0810450257\H,11.
 1956226526,-3.4672868757,0.0963686319\\Version=EM64L-G16RevA.03\State=
 1-A\HF=-2989.6554528\S2=0.\S2-1=0.\S2A=0.\RMSD=8.088e-09\RMSF=3.242e-0
 6\Dipole=1.165028,2.6388687,-0.3866562\Quadrupole=37.2302356,-2.969381
 ,-34.2608546,2.1821829,-1.0607377,-1.4328601\PG=C01 [X(C33H23F3O3S3)]\
 \@


 EXPERIMENTALISTS THINK SILICON IS REALLY FUN TO USE
     ITS PLACE IN NOVEL COMPOUNDS IS CERTAIN TO AMUSE
 THEY SIT ALL DAY IN LABORATORIES MAKING ALL THIS SLUDGE
     "LOADED WITH THE SILICON THEY SAY", TO ME IT LOOKS LIKE FUDGE.
 FOR HAPPY THOUGH THEY BE WITH CRUD, I'D LIKE TO KNOW A LITTLE
      ABOUT THE PI BONDS ON THE EDGE AND SIGMAS IN THE MIDDLE.

 SO LETS DERIVE A WAVEFUNCTION.....6-31G*
     USE AN OPTIMAL GEOMETRY AND SEE WHERE ELECTRONS ARE.
 BUT WHAT OF CORRELATION?  ASKS THE WIRY LITTLE SKEPTIC.
     WE'LL THROW IN PERTURBATION AS AN ELECTRON ANTISEPTIC.
 AND WHEN THE PROGRAM GIVES US ANSWERS IN THEM WE CAN TRUST
     SINCE NOBODY CAN MAKE THE STUFF, WE HAVE NO CHOICE, WE MUST.

 SO THEORY GUYS HAVE GOT IT MADE, IN ROOMS FREE OF POLLUTION.
     INSTEAD OF PROBLEMS WITH THE REFLUX, THEY HAVE ONLY SOLUTIONS.
 AND WHEN THE FEDS ANNOUNCE THE LIST OF CARCINOGENIC TERRORS,
     THE THEORISTS SIT SAFELY AT THEIR TERMINALS FIXING ERRORS.
 IN OTHER WORDS, EXPERIMENTALISTS WILL LIKELY DIE OF CANCER
     FROM WORKING HARD YET FRUITLESSLY...TILL THEORY GIVES THE ANSWER.
          -- THOMAS A. HOLME, 1983
 Job cpu time:       0 days 18 hours  4 minutes 22.3 seconds.
 Elapsed time:       0 days  2 hours 18 minutes 26.7 seconds.
 File lengths (MBytes):  RWF=    616 Int=      0 D2E=      0 Chk=     56 Scr=      8
 Normal termination of Gaussian 16 at Thu Jul 23 12:18:44 2020.
