 Entering Gaussian System, Link 0=g16
 Input=mols_65_7_18_n-n-CF_opt_0.gjf
 Output=mols_65_7_18_n-n-CF_opt_0.log
 Initial command:
 /opt/ohpc/pub/libs/gaussian/g16-A.03/sandybridge/g16/l1.exe "/mnt/gpfs2_4m/scratch/rdu230/ondemand/projects/dihedral_energies/7trial/wtuning/redos_512cycles/mols_65_7_18_n-n-CF/Gau-377916.inp" -scrdir="/mnt/gpfs2_4m/scratch/rdu230/ondemand/projects/dihedral_energies/7trial/wtuning/redos_512cycles/mols_65_7_18_n-n-CF/"
 Entering Link 1 = /opt/ohpc/pub/libs/gaussian/g16-A.03/sandybridge/g16/l1.exe PID=    377918.
  
 Copyright (c) 1988,1990,1992,1993,1995,1998,2003,2009,2016,
            Gaussian, Inc.  All Rights Reserved.
  
 This is part of the Gaussian(R) 16 program.  It is based on
 the Gaussian(R) 09 system (copyright 2009, Gaussian, Inc.),
 the Gaussian(R) 03 system (copyright 2003, Gaussian, Inc.),
 the Gaussian(R) 98 system (copyright 1998, Gaussian, Inc.),
 the Gaussian(R) 94 system (copyright 1995, Gaussian, Inc.),
 the Gaussian 92(TM) system (copyright 1992, Gaussian, Inc.),
 the Gaussian 90(TM) system (copyright 1990, Gaussian, Inc.),
 the Gaussian 88(TM) system (copyright 1988, Gaussian, Inc.),
 the Gaussian 86(TM) system (copyright 1986, Carnegie Mellon
 University), and the Gaussian 82(TM) system (copyright 1983,
 Carnegie Mellon University). Gaussian is a federally registered
 trademark of Gaussian, Inc.
  
 This software contains proprietary and confidential information,
 including trade secrets, belonging to Gaussian, Inc.
  
 This software is provided under written license and may be
 used, copied, transmitted, or stored only in accord with that
 written license.
  
 The following legend is applicable only to US Government
 contracts under FAR:
  
                    RESTRICTED RIGHTS LEGEND
  
 Use, reproduction and disclosure by the US Government is
 subject to restrictions as set forth in subparagraphs (a)
 and (c) of the Commercial Computer Software - Restricted
 Rights clause in FAR 52.227-19.
  
 Gaussian, Inc.
 340 Quinnipiac St., Bldg. 40, Wallingford CT 06492
  
  
 ---------------------------------------------------------------
 Warning -- This program may not be used in any manner that
 competes with the business of Gaussian, Inc. or will provide
 assistance to any competitor of Gaussian, Inc.  The licensee
 of this program is prohibited from giving any competitor of
 Gaussian, Inc. access to this program.  By using this program,
 the user acknowledges that Gaussian, Inc. is engaged in the
 business of creating and licensing software in the field of
 computational chemistry and represents and warrants to the
 licensee that it is not a competitor of Gaussian, Inc. and that
 it will not use this program in any manner prohibited above.
 ---------------------------------------------------------------
  

 Cite this work as:
 Gaussian 16, Revision A.03,
 M. J. Frisch, G. W. Trucks, H. B. Schlegel, G. E. Scuseria, 
 M. A. Robb, J. R. Cheeseman, G. Scalmani, V. Barone, 
 G. A. Petersson, H. Nakatsuji, X. Li, M. Caricato, A. V. Marenich, 
 J. Bloino, B. G. Janesko, R. Gomperts, B. Mennucci, H. P. Hratchian, 
 J. V. Ortiz, A. F. Izmaylov, J. L. Sonnenberg, D. Williams-Young, 
 F. Ding, F. Lipparini, F. Egidi, J. Goings, B. Peng, A. Petrone, 
 T. Henderson, D. Ranasinghe, V. G. Zakrzewski, J. Gao, N. Rega, 
 G. Zheng, W. Liang, M. Hada, M. Ehara, K. Toyota, R. Fukuda, 
 J. Hasegawa, M. Ishida, T. Nakajima, Y. Honda, O. Kitao, H. Nakai, 
 T. Vreven, K. Throssell, J. A. Montgomery, Jr., J. E. Peralta, 
 F. Ogliaro, M. J. Bearpark, J. J. Heyd, E. N. Brothers, K. N. Kudin, 
 V. N. Staroverov, T. A. Keith, R. Kobayashi, J. Normand, 
 K. Raghavachari, A. P. Rendell, J. C. Burant, S. S. Iyengar, 
 J. Tomasi, M. Cossi, J. M. Millam, M. Klene, C. Adamo, R. Cammi, 
 J. W. Ochterski, R. L. Martin, K. Morokuma, O. Farkas, 
 J. B. Foresman, and D. J. Fox, Gaussian, Inc., Wallingford CT, 2016.
 
 ******************************************
 Gaussian 16:  EM64L-G16RevA.03 25-Dec-2016
                26-Jul-2020 
 ******************************************
 %mem=30GB
 %nproc=8
 Will use up to    8 processors via shared memory.
 ---------------------------------------------------------------
 #P uLC-wPBE/cc-pVDZ iop(3/107=0394500000, 3/108=0394500000) opt
 ---------------------------------------------------------------
 1/18=20,19=15,26=3,38=1/1,3;
 2/9=110,12=2,17=6,18=5,40=1/2;
 3/5=16,11=2,25=1,30=1,71=1,74=-41,107=394500000,108=394500000,116=2/1,2,3;
 4//1;
 5/5=2,38=5/2;
 6/7=2,8=2,9=2,10=2,28=1/1;
 7//1,2,3,16;
 1/18=20,19=15,26=3/3(2);
 2/9=110/2;
 99//99;
 2/9=110/2;
 3/5=16,11=2,25=1,30=1,71=1,74=-41,107=394500000,108=394500000,116=2/1,2,3;
 4/5=5,16=3,69=1/1;
 5/5=2,38=5/2;
 7//1,2,3,16;
 1/18=20,19=15,26=3/3(-5);
 2/9=110/2;
 6/7=2,8=2,9=2,10=2,19=2,28=1/1;
 99/9=1/99;
 Leave Link    1 at Sun Jul 26 12:21:40 2020, MaxMem=  4026531840 cpu:               2.0 elap:               0.3
 (Enter /opt/ohpc/pub/libs/gaussian/g16-A.03/sandybridge/g16/l101.exe)
 -----------------
 H23 C56 S7 N14 F7
 -----------------
 Symbolic Z-matrix:
 Charge =  0 Multiplicity = 1
 C                    -26.98995  -0.72603  -0.86546 
 C                    -25.96264  -0.84653  -1.72573 
 N                    -24.62384  -0.47538  -1.44415 
 C                    -24.4087   0.05583  -0.20164 
 N                    -25.37928   0.26713   0.73178 
 C                    -26.69248  -0.14843   0.32842 
 C                    -23.14672   0.433     0.16621 
 C                    -22.64628   1.11537   1.31814 
 F                    -23.4047   1.43552   2.32143 
 C                    -21.26626   1.29008   1.30789 
 C                    -20.61237   0.77659   0.22762 
 S                    -21.75131   0.10439  -0.90392 
 C                    -19.1524   0.83034  -0.10219 
 C                    -18.73122   0.9897   -1.41652 
 N                    -17.38138   1.09752  -1.67363 
 C                    -16.5003   0.96868  -0.69128 
 N                    -16.90983   0.75597   0.56652 
 C                    -18.19801   0.73566   0.80926 
 C                    -15.13091   0.9653   -1.03186 
 C                    -14.45348   1.19993  -2.15663 
 F                    -15.16309   1.4808   -3.36648 
 C                    -13.07663   1.22283  -2.14815 
 C                    -12.55527   0.87958  -0.84774 
 S                    -13.93929   0.69129   0.18812 
 C                    -11.25286   0.70965  -0.43043 
 C                    -10.16179   0.30575  -1.25979 
 N                    -8.95454   0.10298  -0.90755 
 C                    -8.63134   0.45016   0.38931 
 N                    -9.48305   0.90699   1.25675 
 C                    -10.78166   0.95892   0.83531 
 C                    -7.23829   0.21036   0.83626 
 C                    -6.70418   0.33953   2.11897 
 F                    -7.44813   0.61037   3.15238 
 C                    -5.34836   0.10643   2.15747 
 C                    -4.74473  -0.15142   0.8649 
 S                    -5.99935  -0.0688   -0.29318 
 C                    -3.32157  -0.50393   0.58212 
 C                    -2.28847  -0.02413   1.39387 
 N                    -1.03279  -0.35127   1.16701 
 C                    -0.69662  -1.05898  -0.01214 
 N                    -1.64763  -1.50701  -0.81614 
 C                    -2.93831  -1.21685  -0.52304 
 C                     0.60756  -1.38719  -0.27609 
 C                     1.19548  -2.13307  -1.25734 
 F                     0.41009  -2.73234  -2.28627 
 C                     2.62663  -2.26115  -1.27145 
 C                     3.17021  -1.59692  -0.20007 
 S                     1.94813  -0.86858   0.69974 
 C                     4.60522  -1.54713   0.22771 
 C                     5.56374  -1.55136  -0.76943 
 N                     6.92449  -1.55509  -0.43521 
 C                     7.20974  -1.4537    0.88592 
 N                     6.36378  -1.38571   1.86082 
 C                     5.03582  -1.48374   1.47467 
 C                     8.60146  -1.30262   1.28697 
 C                     9.1792   -1.21986   2.4793 
 F                     8.48866  -1.08029   3.67214 
 C                     10.57504  -1.05906   2.47097 
 C                     11.08414  -1.19427   1.18427 
 S                     9.85612  -1.30226   0.04298 
 C                     12.52104  -1.1749    0.82629 
 C                     13.02714  -1.93844  -0.19312 
 N                     14.32365  -1.92897  -0.61867 
 C                     15.18664  -1.06109   0.08281 
 N                     14.70538  -0.2283    1.06438 
 C                     13.45933  -0.27597   1.36531 
 C                     16.53066  -1.00418  -0.3036 
 C                     17.27687  -1.82537  -1.12409 
 F                     16.69279  -2.97453  -1.74458 
 C                     18.65582  -1.50317  -1.31031 
 C                     18.98536  -0.31784  -0.66028 
 S                     17.63475   0.23815   0.19636 
 C                     20.25672   0.39059  -0.64457 
 C                     21.1091   0.3628   -1.75966 
 N                     22.30937   1.01814  -1.69466 
 C                     22.62104   1.64628  -0.66052 
 N                     21.9353   1.6901    0.52044 
 C                     20.74904   1.0374    0.49344 
 C                     23.91831   2.42618  -0.59392 
 C                     24.45951   3.23909   0.39976 
 F                     23.80076   3.46093   1.488 
 C                     25.72496   3.79966   0.06771 
 C                     26.10841   3.29295  -1.16299 
 S                     25.04079   2.28287  -1.96696 
 H                    -27.96587  -1.00319  -1.09794 
 H                    -26.09118  -1.31941  -2.70973 
 H                    -27.43341   0.01485   1.08338 
 H                    -20.73849   1.73394   2.19746 
 H                    -19.39173   1.12186  -2.22557 
 H                    -18.44498   0.60001   1.95205 
 H                    -12.43912   1.39013  -3.04724 
 H                    -10.42358   0.03437  -2.34251 
 H                    -11.41042   1.41104   1.63829 
 H                    -4.7571    0.12436   3.04912 
 H                    -2.45023   0.51765   2.33176 
 H                    -3.64126  -1.53363  -1.30696 
 H                     3.18192  -2.87671  -2.02178 
 H                     5.42218  -1.63467  -1.82244 
 H                     4.37013  -1.41653   2.35804 
 H                     11.17719  -0.97217   3.34778 
 H                     12.47325  -2.64452  -0.75334 
 H                     13.17396   0.40591   2.1979 
 H                     19.29348  -2.05434  -1.92036 
 H                     20.82557  -0.18926  -2.62271 
 H                     20.18329   1.07776   1.39048 
 H                     26.27097   4.38754   0.67118 
 H                     27.03529   3.54184  -1.68152 
 
 ITRead=  0  0  0  0  0  0  0  0  0  0  0  0  0  0  0  0  0  0  0  0
 ITRead=  0  0  0  0  0  0  0  0  0  0  0  0  0  0  0  0  0  0  0  0
 ITRead=  0  0  0  0  0  0  0  0  0  0  0  0  0  0  0  0  0  0  0  0
 ITRead=  0  0  0  0  0  0  0  0  0  0  0  0  0  0  0  0  0  0  0  0
 ITRead=  0  0  0  0  0  0  0  0  0  0  0  0  0  0  0  0  0  0  0  0
 ITRead=  0  0  0  0  0  0  0
 MicOpt= -1 -1 -1 -1 -1 -1 -1 -1 -1 -1 -1 -1 -1 -1 -1 -1 -1 -1 -1 -1
 MicOpt= -1 -1 -1 -1 -1 -1 -1 -1 -1 -1 -1 -1 -1 -1 -1 -1 -1 -1 -1 -1
 MicOpt= -1 -1 -1 -1 -1 -1 -1 -1 -1 -1 -1 -1 -1 -1 -1 -1 -1 -1 -1 -1
 MicOpt= -1 -1 -1 -1 -1 -1 -1 -1 -1 -1 -1 -1 -1 -1 -1 -1 -1 -1 -1 -1
 MicOpt= -1 -1 -1 -1 -1 -1 -1 -1 -1 -1 -1 -1 -1 -1 -1 -1 -1 -1 -1 -1
 MicOpt= -1 -1 -1 -1 -1 -1 -1
 NAtoms=    107 NQM=      107 NQMF=       0 NMMI=      0 NMMIF=      0
                NMic=       0 NMicF=      0.
                    Isotopes and Nuclear Properties:
 (Nuclear quadrupole moments (NQMom) in fm**2, nuclear magnetic moments (NMagM)
  in nuclear magnetons)

  Atom         1           2           3           4           5           6           7           8           9          10
 IAtWgt=          12          12          14          12          14          12          12          12          19          12
 AtmWgt=  12.0000000  12.0000000  14.0030740  12.0000000  14.0030740  12.0000000  12.0000000  12.0000000  18.9984033  12.0000000
 NucSpn=           0           0           2           0           2           0           0           0           1           0
 AtZEff=  -0.0000000  -0.0000000  -0.0000000  -0.0000000  -0.0000000  -0.0000000  -0.0000000  -0.0000000  -0.0000000  -0.0000000
 NQMom=    0.0000000   0.0000000   2.0440000   0.0000000   2.0440000   0.0000000   0.0000000   0.0000000   0.0000000   0.0000000
 NMagM=    0.0000000   0.0000000   0.4037610   0.0000000   0.4037610   0.0000000   0.0000000   0.0000000   2.6288670   0.0000000
 AtZNuc=   6.0000000   6.0000000   7.0000000   6.0000000   7.0000000   6.0000000   6.0000000   6.0000000   9.0000000   6.0000000

  Atom        11          12          13          14          15          16          17          18          19          20
 IAtWgt=          12          32          12          12          14          12          14          12          12          12
 AtmWgt=  12.0000000  31.9720718  12.0000000  12.0000000  14.0030740  12.0000000  14.0030740  12.0000000  12.0000000  12.0000000
 NucSpn=           0           0           0           0           2           0           2           0           0           0
 AtZEff=  -0.0000000  -0.0000000  -0.0000000  -0.0000000  -0.0000000  -0.0000000  -0.0000000  -0.0000000  -0.0000000  -0.0000000
 NQMom=    0.0000000   0.0000000   0.0000000   0.0000000   2.0440000   0.0000000   2.0440000   0.0000000   0.0000000   0.0000000
 NMagM=    0.0000000   0.0000000   0.0000000   0.0000000   0.4037610   0.0000000   0.4037610   0.0000000   0.0000000   0.0000000
 AtZNuc=   6.0000000  16.0000000   6.0000000   6.0000000   7.0000000   6.0000000   7.0000000   6.0000000   6.0000000   6.0000000

  Atom        21          22          23          24          25          26          27          28          29          30
 IAtWgt=          19          12          12          32          12          12          14          12          14          12
 AtmWgt=  18.9984033  12.0000000  12.0000000  31.9720718  12.0000000  12.0000000  14.0030740  12.0000000  14.0030740  12.0000000
 NucSpn=           1           0           0           0           0           0           2           0           2           0
 AtZEff=  -0.0000000  -0.0000000  -0.0000000  -0.0000000  -0.0000000  -0.0000000  -0.0000000  -0.0000000  -0.0000000  -0.0000000
 NQMom=    0.0000000   0.0000000   0.0000000   0.0000000   0.0000000   0.0000000   2.0440000   0.0000000   2.0440000   0.0000000
 NMagM=    2.6288670   0.0000000   0.0000000   0.0000000   0.0000000   0.0000000   0.4037610   0.0000000   0.4037610   0.0000000
 AtZNuc=   9.0000000   6.0000000   6.0000000  16.0000000   6.0000000   6.0000000   7.0000000   6.0000000   7.0000000   6.0000000

  Atom        31          32          33          34          35          36          37          38          39          40
 IAtWgt=          12          12          19          12          12          32          12          12          14          12
 AtmWgt=  12.0000000  12.0000000  18.9984033  12.0000000  12.0000000  31.9720718  12.0000000  12.0000000  14.0030740  12.0000000
 NucSpn=           0           0           1           0           0           0           0           0           2           0
 AtZEff=  -0.0000000  -0.0000000  -0.0000000  -0.0000000  -0.0000000  -0.0000000  -0.0000000  -0.0000000  -0.0000000  -0.0000000
 NQMom=    0.0000000   0.0000000   0.0000000   0.0000000   0.0000000   0.0000000   0.0000000   0.0000000   2.0440000   0.0000000
 NMagM=    0.0000000   0.0000000   2.6288670   0.0000000   0.0000000   0.0000000   0.0000000   0.0000000   0.4037610   0.0000000
 AtZNuc=   6.0000000   6.0000000   9.0000000   6.0000000   6.0000000  16.0000000   6.0000000   6.0000000   7.0000000   6.0000000

  Atom        41          42          43          44          45          46          47          48          49          50
 IAtWgt=          14          12          12          12          19          12          12          32          12          12
 AtmWgt=  14.0030740  12.0000000  12.0000000  12.0000000  18.9984033  12.0000000  12.0000000  31.9720718  12.0000000  12.0000000
 NucSpn=           2           0           0           0           1           0           0           0           0           0
 AtZEff=  -0.0000000  -0.0000000  -0.0000000  -0.0000000  -0.0000000  -0.0000000  -0.0000000  -0.0000000  -0.0000000  -0.0000000
 NQMom=    2.0440000   0.0000000   0.0000000   0.0000000   0.0000000   0.0000000   0.0000000   0.0000000   0.0000000   0.0000000
 NMagM=    0.4037610   0.0000000   0.0000000   0.0000000   2.6288670   0.0000000   0.0000000   0.0000000   0.0000000   0.0000000
 AtZNuc=   7.0000000   6.0000000   6.0000000   6.0000000   9.0000000   6.0000000   6.0000000  16.0000000   6.0000000   6.0000000

  Atom        51          52          53          54          55          56          57          58          59          60
 IAtWgt=          14          12          14          12          12          12          19          12          12          32
 AtmWgt=  14.0030740  12.0000000  14.0030740  12.0000000  12.0000000  12.0000000  18.9984033  12.0000000  12.0000000  31.9720718
 NucSpn=           2           0           2           0           0           0           1           0           0           0
 AtZEff=  -0.0000000  -0.0000000  -0.0000000  -0.0000000  -0.0000000  -0.0000000  -0.0000000  -0.0000000  -0.0000000  -0.0000000
 NQMom=    2.0440000   0.0000000   2.0440000   0.0000000   0.0000000   0.0000000   0.0000000   0.0000000   0.0000000   0.0000000
 NMagM=    0.4037610   0.0000000   0.4037610   0.0000000   0.0000000   0.0000000   2.6288670   0.0000000   0.0000000   0.0000000
 AtZNuc=   7.0000000   6.0000000   7.0000000   6.0000000   6.0000000   6.0000000   9.0000000   6.0000000   6.0000000  16.0000000

  Atom        61          62          63          64          65          66          67          68          69          70
 IAtWgt=          12          12          14          12          14          12          12          12          19          12
 AtmWgt=  12.0000000  12.0000000  14.0030740  12.0000000  14.0030740  12.0000000  12.0000000  12.0000000  18.9984033  12.0000000
 NucSpn=           0           0           2           0           2           0           0           0           1           0
 AtZEff=  -0.0000000  -0.0000000  -0.0000000  -0.0000000  -0.0000000  -0.0000000  -0.0000000  -0.0000000  -0.0000000  -0.0000000
 NQMom=    0.0000000   0.0000000   2.0440000   0.0000000   2.0440000   0.0000000   0.0000000   0.0000000   0.0000000   0.0000000
 NMagM=    0.0000000   0.0000000   0.4037610   0.0000000   0.4037610   0.0000000   0.0000000   0.0000000   2.6288670   0.0000000
 AtZNuc=   6.0000000   6.0000000   7.0000000   6.0000000   7.0000000   6.0000000   6.0000000   6.0000000   9.0000000   6.0000000

  Atom        71          72          73          74          75          76          77          78          79          80
 IAtWgt=          12          32          12          12          14          12          14          12          12          12
 AtmWgt=  12.0000000  31.9720718  12.0000000  12.0000000  14.0030740  12.0000000  14.0030740  12.0000000  12.0000000  12.0000000
 NucSpn=           0           0           0           0           2           0           2           0           0           0
 AtZEff=  -0.0000000  -0.0000000  -0.0000000  -0.0000000  -0.0000000  -0.0000000  -0.0000000  -0.0000000  -0.0000000  -0.0000000
 NQMom=    0.0000000   0.0000000   0.0000000   0.0000000   2.0440000   0.0000000   2.0440000   0.0000000   0.0000000   0.0000000
 NMagM=    0.0000000   0.0000000   0.0000000   0.0000000   0.4037610   0.0000000   0.4037610   0.0000000   0.0000000   0.0000000
 AtZNuc=   6.0000000  16.0000000   6.0000000   6.0000000   7.0000000   6.0000000   7.0000000   6.0000000   6.0000000   6.0000000

  Atom        81          82          83          84          85          86          87          88          89          90
 IAtWgt=          19          12          12          32           1           1           1           1           1           1
 AtmWgt=  18.9984033  12.0000000  12.0000000  31.9720718   1.0078250   1.0078250   1.0078250   1.0078250   1.0078250   1.0078250
 NucSpn=           1           0           0           0           1           1           1           1           1           1
 AtZEff=  -0.0000000  -0.0000000  -0.0000000  -0.0000000  -0.0000000  -0.0000000  -0.0000000  -0.0000000  -0.0000000  -0.0000000
 NQMom=    0.0000000   0.0000000   0.0000000   0.0000000   0.0000000   0.0000000   0.0000000   0.0000000   0.0000000   0.0000000
 NMagM=    2.6288670   0.0000000   0.0000000   0.0000000   2.7928460   2.7928460   2.7928460   2.7928460   2.7928460   2.7928460
 AtZNuc=   9.0000000   6.0000000   6.0000000  16.0000000   1.0000000   1.0000000   1.0000000   1.0000000   1.0000000   1.0000000

  Atom        91          92          93          94          95          96          97          98          99         100
 IAtWgt=           1           1           1           1           1           1           1           1           1           1
 AtmWgt=   1.0078250   1.0078250   1.0078250   1.0078250   1.0078250   1.0078250   1.0078250   1.0078250   1.0078250   1.0078250
 NucSpn=           1           1           1           1           1           1           1           1           1           1
 AtZEff=  -0.0000000  -0.0000000  -0.0000000  -0.0000000  -0.0000000  -0.0000000  -0.0000000  -0.0000000  -0.0000000  -0.0000000
 NQMom=    0.0000000   0.0000000   0.0000000   0.0000000   0.0000000   0.0000000   0.0000000   0.0000000   0.0000000   0.0000000
 NMagM=    2.7928460   2.7928460   2.7928460   2.7928460   2.7928460   2.7928460   2.7928460   2.7928460   2.7928460   2.7928460
 AtZNuc=   1.0000000   1.0000000   1.0000000   1.0000000   1.0000000   1.0000000   1.0000000   1.0000000   1.0000000   1.0000000

  Atom       101         102         103         104         105         106         107
 IAtWgt=           1           1           1           1           1           1           1
 AtmWgt=   1.0078250   1.0078250   1.0078250   1.0078250   1.0078250   1.0078250   1.0078250
 NucSpn=           1           1           1           1           1           1           1
 AtZEff=  -0.0000000  -0.0000000  -0.0000000  -0.0000000  -0.0000000  -0.0000000  -0.0000000
 NQMom=    0.0000000   0.0000000   0.0000000   0.0000000   0.0000000   0.0000000   0.0000000
 NMagM=    2.7928460   2.7928460   2.7928460   2.7928460   2.7928460   2.7928460   2.7928460
 AtZNuc=   1.0000000   1.0000000   1.0000000   1.0000000   1.0000000   1.0000000   1.0000000
 Leave Link  101 at Sun Jul 26 12:21:40 2020, MaxMem=  4026531840 cpu:               3.8 elap:               0.5
 (Enter /opt/ohpc/pub/libs/gaussian/g16-A.03/sandybridge/g16/l103.exe)

 GradGradGradGradGradGradGradGradGradGradGradGradGradGradGradGradGradGrad
 Berny optimization.
 Initialization pass.
                           ----------------------------
                           !    Initial Parameters    !
                           ! (Angstroms and Degrees)  !
 --------------------------                            --------------------------
 ! Name  Definition              Value          Derivative Info.                !
 --------------------------------------------------------------------------------
 ! R1    R(1,2)                  1.3453         estimate D2E/DX2                !
 ! R2    R(1,6)                  1.3592         estimate D2E/DX2                !
 ! R3    R(1,85)                 1.0408         estimate D2E/DX2                !
 ! R4    R(2,3)                  1.4175         estimate D2E/DX2                !
 ! R5    R(2,86)                 1.0993         estimate D2E/DX2                !
 ! R6    R(3,4)                  1.3683         estimate D2E/DX2                !
 ! R7    R(4,5)                  1.3631         estimate D2E/DX2                !
 ! R8    R(4,7)                  1.3675         estimate D2E/DX2                !
 ! R9    R(5,6)                  1.4352         estimate D2E/DX2                !
 ! R10   R(6,87)                 1.0703         estimate D2E/DX2                !
 ! R11   R(7,8)                  1.4293         estimate D2E/DX2                !
 ! R12   R(7,12)                 1.7889         estimate D2E/DX2                !
 ! R13   R(8,9)                  1.2978         estimate D2E/DX2                !
 ! R14   R(8,10)                 1.3911         estimate D2E/DX2                !
 ! R15   R(10,11)                1.3632         estimate D2E/DX2                !
 ! R16   R(10,88)                1.1256         estimate D2E/DX2                !
 ! R17   R(11,12)                1.7405         estimate D2E/DX2                !
 ! R18   R(11,13)                1.4977         estimate D2E/DX2                !
 ! R19   R(13,14)                1.3893         estimate D2E/DX2                !
 ! R20   R(13,18)                1.3231         estimate D2E/DX2                !
 ! R21   R(14,15)                1.3783         estimate D2E/DX2                !
 ! R22   R(14,89)                1.0528         estimate D2E/DX2                !
 ! R23   R(15,16)                1.3259         estimate D2E/DX2                !
 ! R24   R(16,17)                1.3398         estimate D2E/DX2                !
 ! R25   R(16,19)                1.4111         estimate D2E/DX2                !
 ! R26   R(17,18)                1.311          estimate D2E/DX2                !
 ! R27   R(18,90)                1.177          estimate D2E/DX2                !
 ! R28   R(19,20)                1.3338         estimate D2E/DX2                !
 ! R29   R(19,24)                1.7272         estimate D2E/DX2                !
 ! R30   R(20,21)                1.4304         estimate D2E/DX2                !
 ! R31   R(20,22)                1.3771         estimate D2E/DX2                !
 ! R32   R(22,23)                1.4425         estimate D2E/DX2                !
 ! R33   R(22,91)                1.1148         estimate D2E/DX2                !
 ! R34   R(23,24)                1.739          estimate D2E/DX2                !
 ! R35   R(23,25)                1.3782         estimate D2E/DX2                !
 ! R36   R(25,26)                1.4288         estimate D2E/DX2                !
 ! R37   R(25,30)                1.3734         estimate D2E/DX2                !
 ! R38   R(26,27)                1.2738         estimate D2E/DX2                !
 ! R39   R(26,92)                1.1465         estimate D2E/DX2                !
 ! R40   R(27,28)                1.3809         estimate D2E/DX2                !
 ! R41   R(28,29)                1.2987         estimate D2E/DX2                !
 ! R42   R(28,31)                1.4825         estimate D2E/DX2                !
 ! R43   R(29,30)                1.3663         estimate D2E/DX2                !
 ! R44   R(30,93)                1.1156         estimate D2E/DX2                !
 ! R45   R(31,32)                1.3955         estimate D2E/DX2                !
 ! R46   R(31,36)                1.6996         estimate D2E/DX2                !
 ! R47   R(32,33)                1.3018         estimate D2E/DX2                !
 ! R48   R(32,34)                1.3762         estimate D2E/DX2                !
 ! R49   R(34,35)                1.4497         estimate D2E/DX2                !
 ! R50   R(34,94)                1.07           estimate D2E/DX2                !
 ! R51   R(35,36)                1.7094         estimate D2E/DX2                !
 ! R52   R(35,37)                1.4932         estimate D2E/DX2                !
 ! R53   R(37,38)                1.3987         estimate D2E/DX2                !
 ! R54   R(37,42)                1.3699         estimate D2E/DX2                !
 ! R55   R(38,39)                1.3173         estimate D2E/DX2                !
 ! R56   R(38,95)                1.0951         estimate D2E/DX2                !
 ! R57   R(39,40)                1.4157         estimate D2E/DX2                !
 ! R58   R(40,41)                1.3235         estimate D2E/DX2                !
 ! R59   R(40,43)                1.3705         estimate D2E/DX2                !
 ! R60   R(41,42)                1.355          estimate D2E/DX2                !
 ! R61   R(42,96)                1.0996         estimate D2E/DX2                !
 ! R62   R(43,44)                1.3656         estimate D2E/DX2                !
 ! R63   R(43,48)                1.7373         estimate D2E/DX2                !
 ! R64   R(44,45)                1.4264         estimate D2E/DX2                !
 ! R65   R(44,46)                1.4369         estimate D2E/DX2                !
 ! R66   R(46,47)                1.3728         estimate D2E/DX2                !
 ! R67   R(46,97)                1.1182         estimate D2E/DX2                !
 ! R68   R(47,48)                1.6833         estimate D2E/DX2                !
 ! R69   R(47,49)                1.4982         estimate D2E/DX2                !
 ! R70   R(49,50)                1.3831         estimate D2E/DX2                !
 ! R71   R(49,54)                1.3207         estimate D2E/DX2                !
 ! R72   R(50,51)                1.4012         estimate D2E/DX2                !
 ! R73   R(50,98)                1.0657         estimate D2E/DX2                !
 ! R74   R(51,52)                1.3554         estimate D2E/DX2                !
 ! R75   R(52,53)                1.2926         estimate D2E/DX2                !
 ! R76   R(52,55)                1.4562         estimate D2E/DX2                !
 ! R77   R(53,54)                1.3864         estimate D2E/DX2                !
 ! R78   R(54,99)                1.1082         estimate D2E/DX2                !
 ! R79   R(55,56)                1.3275         estimate D2E/DX2                !
 ! R80   R(55,60)                1.7668         estimate D2E/DX2                !
 ! R81   R(56,57)                1.3853         estimate D2E/DX2                !
 ! R82   R(56,58)                1.4051         estimate D2E/DX2                !
 ! R83   R(58,59)                1.3903         estimate D2E/DX2                !
 ! R84   R(58,100)               1.0672         estimate D2E/DX2                !
 ! R85   R(59,60)                1.68           estimate D2E/DX2                !
 ! R86   R(59,61)                1.4809         estimate D2E/DX2                !
 ! R87   R(61,62)                1.3705         estimate D2E/DX2                !
 ! R88   R(61,66)                1.4068         estimate D2E/DX2                !
 ! R89   R(62,63)                1.3646         estimate D2E/DX2                !
 ! R90   R(62,101)               1.0579         estimate D2E/DX2                !
 ! R91   R(63,64)                1.4107         estimate D2E/DX2                !
 ! R92   R(64,65)                1.3743         estimate D2E/DX2                !
 ! R93   R(64,67)                1.3996         estimate D2E/DX2                !
 ! R94   R(65,66)                1.2828         estimate D2E/DX2                !
 ! R95   R(66,102)               1.1134         estimate D2E/DX2                !
 ! R96   R(67,68)                1.38           estimate D2E/DX2                !
 ! R97   R(67,72)                1.7356         estimate D2E/DX2                !
 ! R98   R(68,69)                1.4306         estimate D2E/DX2                !
 ! R99   R(68,70)                1.4283         estimate D2E/DX2                !
 ! R100  R(70,71)                1.3915         estimate D2E/DX2                !
 ! R101  R(70,103)               1.0405         estimate D2E/DX2                !
 ! R102  R(71,72)                1.6933         estimate D2E/DX2                !
 ! R103  R(71,73)                1.4555         estimate D2E/DX2                !
 ! R104  R(73,74)                1.4038         estimate D2E/DX2                !
 ! R105  R(73,78)                1.3985         estimate D2E/DX2                !
 ! R106  R(74,75)                1.3691         estimate D2E/DX2                !
 ! R107  R(74,104)               1.063          estimate D2E/DX2                !
 ! R108  R(75,76)                1.2495         estimate D2E/DX2                !
 ! R109  R(76,77)                1.3663         estimate D2E/DX2                !
 ! R110  R(76,79)                1.5151         estimate D2E/DX2                !
 ! R111  R(77,78)                1.3542         estimate D2E/DX2                !
 ! R112  R(78,105)               1.0613         estimate D2E/DX2                !
 ! R113  R(79,80)                1.3932         estimate D2E/DX2                !
 ! R114  R(79,84)                1.7792         estimate D2E/DX2                !
 ! R115  R(80,81)                1.2913         estimate D2E/DX2                !
 ! R116  R(80,82)                1.4233         estimate D2E/DX2                !
 ! R117  R(82,83)                1.3851         estimate D2E/DX2                !
 ! R118  R(82,106)               1.0039         estimate D2E/DX2                !
 ! R119  R(83,84)                1.6752         estimate D2E/DX2                !
 ! R120  R(83,107)               1.0908         estimate D2E/DX2                !
 ! A1    A(2,1,6)              115.6325         estimate D2E/DX2                !
 ! A2    A(2,1,85)             123.3204         estimate D2E/DX2                !
 ! A3    A(6,1,85)             120.9687         estimate D2E/DX2                !
 ! A4    A(1,2,3)              124.8006         estimate D2E/DX2                !
 ! A5    A(1,2,86)             121.4415         estimate D2E/DX2                !
 ! A6    A(3,2,86)             113.6329         estimate D2E/DX2                !
 ! A7    A(2,3,4)              115.5002         estimate D2E/DX2                !
 ! A8    A(3,4,5)              124.7545         estimate D2E/DX2                !
 ! A9    A(3,4,7)              119.7634         estimate D2E/DX2                !
 ! A10   A(5,4,7)              115.4761         estimate D2E/DX2                !
 ! A11   A(4,5,6)              114.4669         estimate D2E/DX2                !
 ! A12   A(1,6,5)              124.7608         estimate D2E/DX2                !
 ! A13   A(1,6,87)             122.2            estimate D2E/DX2                !
 ! A14   A(5,6,87)             113.0156         estimate D2E/DX2                !
 ! A15   A(4,7,8)              132.1866         estimate D2E/DX2                !
 ! A16   A(4,7,12)             120.5468         estimate D2E/DX2                !
 ! A17   A(8,7,12)             107.2583         estimate D2E/DX2                !
 ! A18   A(7,8,9)              122.4244         estimate D2E/DX2                !
 ! A19   A(7,8,10)             113.6637         estimate D2E/DX2                !
 ! A20   A(9,8,10)             123.6734         estimate D2E/DX2                !
 ! A21   A(8,10,11)            115.7468         estimate D2E/DX2                !
 ! A22   A(8,10,88)            120.5889         estimate D2E/DX2                !
 ! A23   A(11,10,88)           123.3632         estimate D2E/DX2                !
 ! A24   A(10,11,12)           110.2908         estimate D2E/DX2                !
 ! A25   A(10,11,13)           128.9454         estimate D2E/DX2                !
 ! A26   A(12,11,13)           120.569          estimate D2E/DX2                !
 ! A27   A(7,12,11)             92.8998         estimate D2E/DX2                !
 ! A28   A(11,13,14)           120.5269         estimate D2E/DX2                !
 ! A29   A(11,13,18)           123.2909         estimate D2E/DX2                !
 ! A30   A(14,13,18)           116.182          estimate D2E/DX2                !
 ! A31   A(13,14,15)           118.8374         estimate D2E/DX2                !
 ! A32   A(13,14,89)           123.4506         estimate D2E/DX2                !
 ! A33   A(15,14,89)           117.4685         estimate D2E/DX2                !
 ! A34   A(14,15,16)           120.3302         estimate D2E/DX2                !
 ! A35   A(15,16,17)           120.5223         estimate D2E/DX2                !
 ! A36   A(15,16,19)           117.7937         estimate D2E/DX2                !
 ! A37   A(17,16,19)           121.5234         estimate D2E/DX2                !
 ! A38   A(16,17,18)           118.4664         estimate D2E/DX2                !
 ! A39   A(13,18,17)           125.4584         estimate D2E/DX2                !
 ! A40   A(13,18,90)           121.7179         estimate D2E/DX2                !
 ! A41   A(17,18,90)           112.8139         estimate D2E/DX2                !
 ! A42   A(16,19,20)           134.1052         estimate D2E/DX2                !
 ! A43   A(16,19,24)           119.9604         estimate D2E/DX2                !
 ! A44   A(20,19,24)           105.8509         estimate D2E/DX2                !
 ! A45   A(19,20,21)           119.7239         estimate D2E/DX2                !
 ! A46   A(19,20,22)           120.367          estimate D2E/DX2                !
 ! A47   A(21,20,22)           119.8638         estimate D2E/DX2                !
 ! A48   A(20,22,23)           111.2828         estimate D2E/DX2                !
 ! A49   A(20,22,91)           124.7015         estimate D2E/DX2                !
 ! A50   A(23,22,91)           123.7868         estimate D2E/DX2                !
 ! A51   A(22,23,24)           105.9692         estimate D2E/DX2                !
 ! A52   A(22,23,25)           130.0829         estimate D2E/DX2                !
 ! A53   A(24,23,25)           123.9472         estimate D2E/DX2                !
 ! A54   A(19,24,23)            96.3827         estimate D2E/DX2                !
 ! A55   A(23,25,26)           125.5036         estimate D2E/DX2                !
 ! A56   A(23,25,30)           125.5151         estimate D2E/DX2                !
 ! A57   A(26,25,30)           108.922          estimate D2E/DX2                !
 ! A58   A(25,26,27)           127.4599         estimate D2E/DX2                !
 ! A59   A(25,26,92)           116.1507         estimate D2E/DX2                !
 ! A60   A(27,26,92)           116.0949         estimate D2E/DX2                !
 ! A61   A(26,27,28)           116.1993         estimate D2E/DX2                !
 ! A62   A(27,28,29)           124.2112         estimate D2E/DX2                !
 ! A63   A(27,28,31)           117.542          estimate D2E/DX2                !
 ! A64   A(29,28,31)           118.1495         estimate D2E/DX2                !
 ! A65   A(28,29,30)           115.5114         estimate D2E/DX2                !
 ! A66   A(25,30,29)           127.1189         estimate D2E/DX2                !
 ! A67   A(25,30,93)           122.925          estimate D2E/DX2                !
 ! A68   A(29,30,93)           109.2136         estimate D2E/DX2                !
 ! A69   A(28,31,32)           128.4479         estimate D2E/DX2                !
 ! A70   A(28,31,36)           120.7436         estimate D2E/DX2                !
 ! A71   A(32,31,36)           110.3066         estimate D2E/DX2                !
 ! A72   A(31,32,33)           122.0195         estimate D2E/DX2                !
 ! A73   A(31,32,34)           112.7745         estimate D2E/DX2                !
 ! A74   A(33,32,34)           125.1705         estimate D2E/DX2                !
 ! A75   A(32,34,35)           114.5439         estimate D2E/DX2                !
 ! A76   A(32,34,94)           124.3913         estimate D2E/DX2                !
 ! A77   A(35,34,94)           121.0563         estimate D2E/DX2                !
 ! A78   A(34,35,36)           106.8485         estimate D2E/DX2                !
 ! A79   A(34,35,37)           127.4239         estimate D2E/DX2                !
 ! A80   A(36,35,37)           125.6366         estimate D2E/DX2                !
 ! A81   A(31,36,35)            95.3222         estimate D2E/DX2                !
 ! A82   A(35,37,38)           120.8688         estimate D2E/DX2                !
 ! A83   A(35,37,42)           122.8407         estimate D2E/DX2                !
 ! A84   A(38,37,42)           116.1092         estimate D2E/DX2                !
 ! A85   A(37,38,39)           121.2605         estimate D2E/DX2                !
 ! A86   A(37,38,95)           123.8914         estimate D2E/DX2                !
 ! A87   A(39,38,95)           114.2768         estimate D2E/DX2                !
 ! A88   A(38,39,40)           119.5997         estimate D2E/DX2                !
 ! A89   A(39,40,41)           120.3034         estimate D2E/DX2                !
 ! A90   A(39,40,43)           120.404          estimate D2E/DX2                !
 ! A91   A(41,40,43)           119.0602         estimate D2E/DX2                !
 ! A92   A(40,41,42)           118.7227         estimate D2E/DX2                !
 ! A93   A(37,42,41)           123.5366         estimate D2E/DX2                !
 ! A94   A(37,42,96)           123.1101         estimate D2E/DX2                !
 ! A95   A(41,42,96)           113.1447         estimate D2E/DX2                !
 ! A96   A(40,43,44)           132.7567         estimate D2E/DX2                !
 ! A97   A(40,43,48)           123.6844         estimate D2E/DX2                !
 ! A98   A(44,43,48)           103.5585         estimate D2E/DX2                !
 ! A99   A(43,44,45)           120.7132         estimate D2E/DX2                !
 ! A100  A(43,44,46)           118.982          estimate D2E/DX2                !
 ! A101  A(45,44,46)           120.2553         estimate D2E/DX2                !
 ! A102  A(44,46,47)           110.0951         estimate D2E/DX2                !
 ! A103  A(44,46,97)           123.3859         estimate D2E/DX2                !
 ! A104  A(47,46,97)           126.4016         estimate D2E/DX2                !
 ! A105  A(46,47,48)           109.8199         estimate D2E/DX2                !
 ! A106  A(46,47,49)           128.1825         estimate D2E/DX2                !
 ! A107  A(48,47,49)           121.8939         estimate D2E/DX2                !
 ! A108  A(43,48,47)            97.5152         estimate D2E/DX2                !
 ! A109  A(47,49,50)           117.2462         estimate D2E/DX2                !
 ! A110  A(47,49,54)           125.6927         estimate D2E/DX2                !
 ! A111  A(50,49,54)           117.056          estimate D2E/DX2                !
 ! A112  A(49,50,51)           120.0696         estimate D2E/DX2                !
 ! A113  A(49,50,98)           128.3525         estimate D2E/DX2                !
 ! A114  A(51,50,98)           111.3744         estimate D2E/DX2                !
 ! A115  A(50,51,52)           115.8924         estimate D2E/DX2                !
 ! A116  A(51,52,53)           126.969          estimate D2E/DX2                !
 ! A117  A(51,52,55)           118.5124         estimate D2E/DX2                !
 ! A118  A(53,52,55)           114.3505         estimate D2E/DX2                !
 ! A119  A(52,53,54)           114.3988         estimate D2E/DX2                !
 ! A120  A(49,54,53)           125.3548         estimate D2E/DX2                !
 ! A121  A(49,54,99)           124.0343         estimate D2E/DX2                !
 ! A122  A(53,54,99)           110.4301         estimate D2E/DX2                !
 ! A123  A(52,55,56)           132.0485         estimate D2E/DX2                !
 ! A124  A(52,55,60)           118.9983         estimate D2E/DX2                !
 ! A125  A(56,55,60)           108.8642         estimate D2E/DX2                !
 ! A126  A(55,56,57)           124.2437         estimate D2E/DX2                !
 ! A127  A(55,56,58)           115.7308         estimate D2E/DX2                !
 ! A128  A(57,56,58)           119.2584         estimate D2E/DX2                !
 ! A129  A(56,58,59)           110.9845         estimate D2E/DX2                !
 ! A130  A(56,58,100)          124.3992         estimate D2E/DX2                !
 ! A131  A(59,58,100)          124.1708         estimate D2E/DX2                !
 ! A132  A(58,59,60)           111.5493         estimate D2E/DX2                !
 ! A133  A(58,59,61)           125.2897         estimate D2E/DX2                !
 ! A134  A(60,59,61)           123.0839         estimate D2E/DX2                !
 ! A135  A(55,60,59)            92.3371         estimate D2E/DX2                !
 ! A136  A(59,61,62)           122.0597         estimate D2E/DX2                !
 ! A137  A(59,61,66)           124.2551         estimate D2E/DX2                !
 ! A138  A(62,61,66)           113.2474         estimate D2E/DX2                !
 ! A139  A(61,62,63)           125.3757         estimate D2E/DX2                !
 ! A140  A(61,62,101)          124.9161         estimate D2E/DX2                !
 ! A141  A(63,62,101)          109.691          estimate D2E/DX2                !
 ! A142  A(62,63,64)           115.4956         estimate D2E/DX2                !
 ! A143  A(63,64,65)           120.9135         estimate D2E/DX2                !
 ! A144  A(63,64,67)           118.3716         estimate D2E/DX2                !
 ! A145  A(65,64,67)           120.5858         estimate D2E/DX2                !
 ! A146  A(64,65,66)           119.026          estimate D2E/DX2                !
 ! A147  A(61,66,65)           125.5739         estimate D2E/DX2                !
 ! A148  A(61,66,102)          120.4596         estimate D2E/DX2                !
 ! A149  A(65,66,102)          113.6812         estimate D2E/DX2                !
 ! A150  A(64,67,68)           131.239          estimate D2E/DX2                !
 ! A151  A(64,67,72)           124.0867         estimate D2E/DX2                !
 ! A152  A(68,67,72)           104.6685         estimate D2E/DX2                !
 ! A153  A(67,68,69)           121.0039         estimate D2E/DX2                !
 ! A154  A(67,68,70)           117.7322         estimate D2E/DX2                !
 ! A155  A(69,68,70)           121.2527         estimate D2E/DX2                !
 ! A156  A(68,70,71)           111.0948         estimate D2E/DX2                !
 ! A157  A(68,70,103)          123.2743         estimate D2E/DX2                !
 ! A158  A(71,70,103)          125.4518         estimate D2E/DX2                !
 ! A159  A(70,71,72)           109.0955         estimate D2E/DX2                !
 ! A160  A(70,71,73)           128.7955         estimate D2E/DX2                !
 ! A161  A(72,71,73)           122.1035         estimate D2E/DX2                !
 ! A162  A(67,72,71)            97.2761         estimate D2E/DX2                !
 ! A163  A(71,73,74)           120.8071         estimate D2E/DX2                !
 ! A164  A(71,73,78)           122.7786         estimate D2E/DX2                !
 ! A165  A(74,73,78)           116.2173         estimate D2E/DX2                !
 ! A166  A(73,74,75)           119.0208         estimate D2E/DX2                !
 ! A167  A(73,74,104)          119.5532         estimate D2E/DX2                !
 ! A168  A(75,74,104)          121.3975         estimate D2E/DX2                !
 ! A169  A(74,75,76)           119.9094         estimate D2E/DX2                !
 ! A170  A(75,76,77)           127.3235         estimate D2E/DX2                !
 ! A171  A(75,76,79)           120.5795         estimate D2E/DX2                !
 ! A172  A(77,76,79)           112.0386         estimate D2E/DX2                !
 ! A173  A(76,77,78)           114.0136         estimate D2E/DX2                !
 ! A174  A(73,78,77)           123.1955         estimate D2E/DX2                !
 ! A175  A(73,78,105)          121.1789         estimate D2E/DX2                !
 ! A176  A(77,78,105)          115.5802         estimate D2E/DX2                !
 ! A177  A(76,79,80)           131.627          estimate D2E/DX2                !
 ! A178  A(76,79,84)           117.6964         estimate D2E/DX2                !
 ! A179  A(80,79,84)           110.6291         estimate D2E/DX2                !
 ! A180  A(79,80,81)           120.2076         estimate D2E/DX2                !
 ! A181  A(79,80,82)           114.1276         estimate D2E/DX2                !
 ! A182  A(81,80,82)           125.6272         estimate D2E/DX2                !
 ! A183  A(80,82,83)           108.0199         estimate D2E/DX2                !
 ! A184  A(80,82,106)          125.0249         estimate D2E/DX2                !
 ! A185  A(83,82,106)          126.7097         estimate D2E/DX2                !
 ! A186  A(82,83,84)           118.0713         estimate D2E/DX2                !
 ! A187  A(82,83,107)          125.0395         estimate D2E/DX2                !
 ! A188  A(84,83,107)          116.8045         estimate D2E/DX2                !
 ! A189  A(79,84,83)            89.0341         estimate D2E/DX2                !
 ! D1    D(6,1,2,3)              2.9763         estimate D2E/DX2                !
 ! D2    D(6,1,2,86)           178.6486         estimate D2E/DX2                !
 ! D3    D(85,1,2,3)           179.7791         estimate D2E/DX2                !
 ! D4    D(85,1,2,86)           -4.5486         estimate D2E/DX2                !
 ! D5    D(2,1,6,5)             -2.9898         estimate D2E/DX2                !
 ! D6    D(2,1,6,87)           178.9027         estimate D2E/DX2                !
 ! D7    D(85,1,6,5)          -179.8741         estimate D2E/DX2                !
 ! D8    D(85,1,6,87)            2.0184         estimate D2E/DX2                !
 ! D9    D(1,2,3,4)             -0.8858         estimate D2E/DX2                !
 ! D10   D(86,2,3,4)          -176.8561         estimate D2E/DX2                !
 ! D11   D(2,3,4,5)             -1.5138         estimate D2E/DX2                !
 ! D12   D(2,3,4,7)            179.4247         estimate D2E/DX2                !
 ! D13   D(3,4,5,6)              1.4863         estimate D2E/DX2                !
 ! D14   D(7,4,5,6)           -179.4161         estimate D2E/DX2                !
 ! D15   D(3,4,7,8)            173.3083         estimate D2E/DX2                !
 ! D16   D(3,4,7,12)            -5.5028         estimate D2E/DX2                !
 ! D17   D(5,4,7,8)             -5.8376         estimate D2E/DX2                !
 ! D18   D(5,4,7,12)           175.3513         estimate D2E/DX2                !
 ! D19   D(4,5,6,1)              0.9018         estimate D2E/DX2                !
 ! D20   D(4,5,6,87)           179.1619         estimate D2E/DX2                !
 ! D21   D(4,7,8,9)              4.6622         estimate D2E/DX2                !
 ! D22   D(4,7,8,10)           179.2401         estimate D2E/DX2                !
 ! D23   D(12,7,8,9)          -176.41           estimate D2E/DX2                !
 ! D24   D(12,7,8,10)           -1.8321         estimate D2E/DX2                !
 ! D25   D(4,7,12,11)         -177.9035         estimate D2E/DX2                !
 ! D26   D(8,7,12,11)            3.0189         estimate D2E/DX2                !
 ! D27   D(7,8,10,11)           -0.8273         estimate D2E/DX2                !
 ! D28   D(7,8,10,88)         -174.734          estimate D2E/DX2                !
 ! D29   D(9,8,10,11)          173.6729         estimate D2E/DX2                !
 ! D30   D(9,8,10,88)           -0.2338         estimate D2E/DX2                !
 ! D31   D(8,10,11,12)           3.1755         estimate D2E/DX2                !
 ! D32   D(8,10,11,13)         178.0438         estimate D2E/DX2                !
 ! D33   D(88,10,11,12)        176.8943         estimate D2E/DX2                !
 ! D34   D(88,10,11,13)         -8.2373         estimate D2E/DX2                !
 ! D35   D(10,11,12,7)          -3.5508         estimate D2E/DX2                !
 ! D36   D(13,11,12,7)        -178.9166         estimate D2E/DX2                !
 ! D37   D(10,11,13,14)       -142.6564         estimate D2E/DX2                !
 ! D38   D(10,11,13,18)         37.1802         estimate D2E/DX2                !
 ! D39   D(12,11,13,14)         31.752          estimate D2E/DX2                !
 ! D40   D(12,11,13,18)       -148.4113         estimate D2E/DX2                !
 ! D41   D(11,13,14,15)        176.9936         estimate D2E/DX2                !
 ! D42   D(11,13,14,89)          2.8128         estimate D2E/DX2                !
 ! D43   D(18,13,14,15)         -2.8542         estimate D2E/DX2                !
 ! D44   D(18,13,14,89)       -177.0351         estimate D2E/DX2                !
 ! D45   D(11,13,18,17)        178.8513         estimate D2E/DX2                !
 ! D46   D(11,13,18,90)          0.077          estimate D2E/DX2                !
 ! D47   D(14,13,18,17)         -1.3055         estimate D2E/DX2                !
 ! D48   D(14,13,18,90)        179.9202         estimate D2E/DX2                !
 ! D49   D(13,14,15,16)          4.0828         estimate D2E/DX2                !
 ! D50   D(89,14,15,16)        178.6117         estimate D2E/DX2                !
 ! D51   D(14,15,16,17)         -1.1904         estimate D2E/DX2                !
 ! D52   D(14,15,16,19)        174.2724         estimate D2E/DX2                !
 ! D53   D(15,16,17,18)         -2.8607         estimate D2E/DX2                !
 ! D54   D(19,16,17,18)       -178.1516         estimate D2E/DX2                !
 ! D55   D(15,16,19,20)          8.084          estimate D2E/DX2                !
 ! D56   D(15,16,19,24)       -175.7636         estimate D2E/DX2                !
 ! D57   D(17,16,19,20)       -176.5013         estimate D2E/DX2                !
 ! D58   D(17,16,19,24)         -0.3489         estimate D2E/DX2                !
 ! D59   D(16,17,18,13)          4.2407         estimate D2E/DX2                !
 ! D60   D(16,17,18,90)       -176.8904         estimate D2E/DX2                !
 ! D61   D(16,19,20,21)         -2.8372         estimate D2E/DX2                !
 ! D62   D(16,19,20,22)        174.7124         estimate D2E/DX2                !
 ! D63   D(24,19,20,21)       -179.3725         estimate D2E/DX2                !
 ! D64   D(24,19,20,22)         -1.8229         estimate D2E/DX2                !
 ! D65   D(16,19,24,23)       -177.7803         estimate D2E/DX2                !
 ! D66   D(20,19,24,23)         -0.6514         estimate D2E/DX2                !
 ! D67   D(19,20,22,23)          3.9856         estimate D2E/DX2                !
 ! D68   D(19,20,22,91)        178.6527         estimate D2E/DX2                !
 ! D69   D(21,20,22,23)       -178.4683         estimate D2E/DX2                !
 ! D70   D(21,20,22,91)         -3.8012         estimate D2E/DX2                !
 ! D71   D(20,22,23,24)         -3.9068         estimate D2E/DX2                !
 ! D72   D(20,22,23,25)        175.7727         estimate D2E/DX2                !
 ! D73   D(91,22,23,24)       -178.6317         estimate D2E/DX2                !
 ! D74   D(91,22,23,25)          1.0478         estimate D2E/DX2                !
 ! D75   D(22,23,24,19)          2.6319         estimate D2E/DX2                !
 ! D76   D(25,23,24,19)       -177.0724         estimate D2E/DX2                !
 ! D77   D(22,23,25,26)        -27.2004         estimate D2E/DX2                !
 ! D78   D(22,23,25,30)        149.6836         estimate D2E/DX2                !
 ! D79   D(24,23,25,26)        152.4281         estimate D2E/DX2                !
 ! D80   D(24,23,25,30)        -30.6879         estimate D2E/DX2                !
 ! D81   D(23,25,26,27)       -177.9594         estimate D2E/DX2                !
 ! D82   D(23,25,26,92)         -4.4814         estimate D2E/DX2                !
 ! D83   D(30,25,26,27)          4.7216         estimate D2E/DX2                !
 ! D84   D(30,25,26,92)        178.1995         estimate D2E/DX2                !
 ! D85   D(23,25,30,29)       -174.2407         estimate D2E/DX2                !
 ! D86   D(23,25,30,93)         -5.2018         estimate D2E/DX2                !
 ! D87   D(26,25,30,29)          3.078          estimate D2E/DX2                !
 ! D88   D(26,25,30,93)        172.1169         estimate D2E/DX2                !
 ! D89   D(25,26,27,28)         -7.5739         estimate D2E/DX2                !
 ! D90   D(92,26,27,28)        178.945          estimate D2E/DX2                !
 ! D91   D(26,27,28,29)          2.8859         estimate D2E/DX2                !
 ! D92   D(26,27,28,31)        179.2247         estimate D2E/DX2                !
 ! D93   D(27,28,29,30)          3.7465         estimate D2E/DX2                !
 ! D94   D(31,28,29,30)       -172.5717         estimate D2E/DX2                !
 ! D95   D(27,28,31,32)       -172.5822         estimate D2E/DX2                !
 ! D96   D(27,28,31,36)         16.3705         estimate D2E/DX2                !
 ! D97   D(29,28,31,32)          3.9842         estimate D2E/DX2                !
 ! D98   D(29,28,31,36)       -167.063          estimate D2E/DX2                !
 ! D99   D(28,29,30,25)         -6.966          estimate D2E/DX2                !
 ! D100  D(28,29,30,93)       -177.2354         estimate D2E/DX2                !
 ! D101  D(28,31,32,33)          5.4799         estimate D2E/DX2                !
 ! D102  D(28,31,32,34)       -176.5823         estimate D2E/DX2                !
 ! D103  D(36,31,32,33)        177.2809         estimate D2E/DX2                !
 ! D104  D(36,31,32,34)         -4.7813         estimate D2E/DX2                !
 ! D105  D(28,31,36,35)        176.6671         estimate D2E/DX2                !
 ! D106  D(32,31,36,35)          4.1341         estimate D2E/DX2                !
 ! D107  D(31,32,34,35)          3.1337         estimate D2E/DX2                !
 ! D108  D(31,32,34,94)       -177.9243         estimate D2E/DX2                !
 ! D109  D(33,32,34,35)       -179.0053         estimate D2E/DX2                !
 ! D110  D(33,32,34,94)         -0.0633         estimate D2E/DX2                !
 ! D111  D(32,34,35,36)         -0.0356         estimate D2E/DX2                !
 ! D112  D(32,34,35,37)       -176.6981         estimate D2E/DX2                !
 ! D113  D(94,34,35,36)       -179.0165         estimate D2E/DX2                !
 ! D114  D(94,34,35,37)          4.321          estimate D2E/DX2                !
 ! D115  D(34,35,36,31)         -2.3341         estimate D2E/DX2                !
 ! D116  D(37,35,36,31)        174.4047         estimate D2E/DX2                !
 ! D117  D(34,35,37,38)        -31.2574         estimate D2E/DX2                !
 ! D118  D(34,35,37,42)        153.8279         estimate D2E/DX2                !
 ! D119  D(36,35,37,38)        152.6737         estimate D2E/DX2                !
 ! D120  D(36,35,37,42)        -22.241          estimate D2E/DX2                !
 ! D121  D(35,37,38,39)        178.6648         estimate D2E/DX2                !
 ! D122  D(35,37,38,95)          7.8343         estimate D2E/DX2                !
 ! D123  D(42,37,38,39)         -6.0926         estimate D2E/DX2                !
 ! D124  D(42,37,38,95)       -176.923          estimate D2E/DX2                !
 ! D125  D(35,37,42,41)        177.7715         estimate D2E/DX2                !
 ! D126  D(35,37,42,96)          3.3837         estimate D2E/DX2                !
 ! D127  D(38,37,42,41)          2.6319         estimate D2E/DX2                !
 ! D128  D(38,37,42,96)       -171.7558         estimate D2E/DX2                !
 ! D129  D(37,38,39,40)          8.1355         estimate D2E/DX2                !
 ! D130  D(95,38,39,40)        179.7916         estimate D2E/DX2                !
 ! D131  D(38,39,40,41)         -6.7353         estimate D2E/DX2                !
 ! D132  D(38,39,40,43)        178.855          estimate D2E/DX2                !
 ! D133  D(39,40,41,42)          3.2762         estimate D2E/DX2                !
 ! D134  D(43,40,41,42)        177.7606         estimate D2E/DX2                !
 ! D135  D(39,40,43,44)        174.3317         estimate D2E/DX2                !
 ! D136  D(39,40,43,48)         -5.3818         estimate D2E/DX2                !
 ! D137  D(41,40,43,44)         -0.147          estimate D2E/DX2                !
 ! D138  D(41,40,43,48)       -179.8605         estimate D2E/DX2                !
 ! D139  D(40,41,42,37)         -1.4228         estimate D2E/DX2                !
 ! D140  D(40,41,42,96)        173.4662         estimate D2E/DX2                !
 ! D141  D(40,43,44,45)          1.0244         estimate D2E/DX2                !
 ! D142  D(40,43,44,46)        178.4697         estimate D2E/DX2                !
 ! D143  D(48,43,44,45)       -179.2209         estimate D2E/DX2                !
 ! D144  D(48,43,44,46)         -1.7756         estimate D2E/DX2                !
 ! D145  D(40,43,48,47)       -179.2378         estimate D2E/DX2                !
 ! D146  D(44,43,48,47)          0.9786         estimate D2E/DX2                !
 ! D147  D(43,44,46,47)          1.8933         estimate D2E/DX2                !
 ! D148  D(43,44,46,97)        178.1782         estimate D2E/DX2                !
 ! D149  D(45,44,46,47)        179.3506         estimate D2E/DX2                !
 ! D150  D(45,44,46,97)         -4.3645         estimate D2E/DX2                !
 ! D151  D(44,46,47,48)         -0.9393         estimate D2E/DX2                !
 ! D152  D(44,46,47,49)        175.3659         estimate D2E/DX2                !
 ! D153  D(97,46,47,48)       -177.0851         estimate D2E/DX2                !
 ! D154  D(97,46,47,49)         -0.7799         estimate D2E/DX2                !
 ! D155  D(46,47,48,43)         -0.0143         estimate D2E/DX2                !
 ! D156  D(49,47,48,43)       -176.5939         estimate D2E/DX2                !
 ! D157  D(46,47,49,50)         34.9613         estimate D2E/DX2                !
 ! D158  D(46,47,49,54)       -145.881          estimate D2E/DX2                !
 ! D159  D(48,47,49,50)       -149.1334         estimate D2E/DX2                !
 ! D160  D(48,47,49,54)         30.0243         estimate D2E/DX2                !
 ! D161  D(47,49,50,51)       -177.6932         estimate D2E/DX2                !
 ! D162  D(47,49,50,98)         -3.3491         estimate D2E/DX2                !
 ! D163  D(54,49,50,51)          3.0748         estimate D2E/DX2                !
 ! D164  D(54,49,50,98)        177.419          estimate D2E/DX2                !
 ! D165  D(47,49,54,53)       -177.3479         estimate D2E/DX2                !
 ! D166  D(47,49,54,99)         -2.7078         estimate D2E/DX2                !
 ! D167  D(50,49,54,53)          1.8112         estimate D2E/DX2                !
 ! D168  D(50,49,54,99)        176.4514         estimate D2E/DX2                !
 ! D169  D(49,50,51,52)         -4.73           estimate D2E/DX2                !
 ! D170  D(98,50,51,52)       -179.9693         estimate D2E/DX2                !
 ! D171  D(50,51,52,53)          1.7093         estimate D2E/DX2                !
 ! D172  D(50,51,52,55)       -173.2899         estimate D2E/DX2                !
 ! D173  D(51,52,53,54)          2.7316         estimate D2E/DX2                !
 ! D174  D(55,52,53,54)        177.9088         estimate D2E/DX2                !
 ! D175  D(51,52,55,56)       -177.7879         estimate D2E/DX2                !
 ! D176  D(51,52,55,60)         -1.6432         estimate D2E/DX2                !
 ! D177  D(53,52,55,56)          6.5963         estimate D2E/DX2                !
 ! D178  D(53,52,55,60)       -177.259          estimate D2E/DX2                !
 ! D179  D(52,53,54,49)         -4.6676         estimate D2E/DX2                !
 ! D180  D(52,53,54,99)       -179.9293         estimate D2E/DX2                !
 ! D181  D(52,55,56,57)         -9.3633         estimate D2E/DX2                !
 ! D182  D(52,55,56,58)       -179.2212         estimate D2E/DX2                !
 ! D183  D(60,55,56,57)        174.1997         estimate D2E/DX2                !
 ! D184  D(60,55,56,58)          4.3418         estimate D2E/DX2                !
 ! D185  D(52,55,60,59)       -176.8824         estimate D2E/DX2                !
 ! D186  D(56,55,60,59)          0.0931         estimate D2E/DX2                !
 ! D187  D(55,56,58,59)         -7.7605         estimate D2E/DX2                !
 ! D188  D(55,56,58,100)       179.6387         estimate D2E/DX2                !
 ! D189  D(57,56,58,59)       -178.1557         estimate D2E/DX2                !
 ! D190  D(57,56,58,100)         9.2435         estimate D2E/DX2                !
 ! D191  D(56,58,59,60)          7.4755         estimate D2E/DX2                !
 ! D192  D(56,58,59,61)       -175.6472         estimate D2E/DX2                !
 ! D193  D(100,58,59,60)      -179.9035         estimate D2E/DX2                !
 ! D194  D(100,58,59,61)        -3.0262         estimate D2E/DX2                !
 ! D195  D(58,59,60,55)         -4.4115         estimate D2E/DX2                !
 ! D196  D(61,59,60,55)        178.6305         estimate D2E/DX2                !
 ! D197  D(58,59,61,62)        145.6481         estimate D2E/DX2                !
 ! D198  D(58,59,61,66)        -42.4639         estimate D2E/DX2                !
 ! D199  D(60,59,61,62)        -37.8188         estimate D2E/DX2                !
 ! D200  D(60,59,61,66)        134.0692         estimate D2E/DX2                !
 ! D201  D(59,61,62,63)        176.9081         estimate D2E/DX2                !
 ! D202  D(59,61,62,101)        -4.7621         estimate D2E/DX2                !
 ! D203  D(66,61,62,63)          4.2008         estimate D2E/DX2                !
 ! D204  D(66,61,62,101)      -177.4694         estimate D2E/DX2                !
 ! D205  D(59,61,66,65)       -179.2927         estimate D2E/DX2                !
 ! D206  D(59,61,66,102)         7.242          estimate D2E/DX2                !
 ! D207  D(62,61,66,65)         -6.7713         estimate D2E/DX2                !
 ! D208  D(62,61,66,102)       179.7634         estimate D2E/DX2                !
 ! D209  D(61,62,63,64)          0.7786         estimate D2E/DX2                !
 ! D210  D(101,62,63,64)      -177.7669         estimate D2E/DX2                !
 ! D211  D(62,63,64,65)         -4.1353         estimate D2E/DX2                !
 ! D212  D(62,63,64,67)        179.9725         estimate D2E/DX2                !
 ! D213  D(63,64,65,66)          1.993          estimate D2E/DX2                !
 ! D214  D(67,64,65,66)        177.7944         estimate D2E/DX2                !
 ! D215  D(63,64,67,68)        -13.1884         estimate D2E/DX2                !
 ! D216  D(63,64,67,72)        165.7996         estimate D2E/DX2                !
 ! D217  D(65,64,67,68)        170.9054         estimate D2E/DX2                !
 ! D218  D(65,64,67,72)        -10.1066         estimate D2E/DX2                !
 ! D219  D(64,65,66,61)          3.853          estimate D2E/DX2                !
 ! D220  D(64,65,66,102)       177.7038         estimate D2E/DX2                !
 ! D221  D(64,67,68,69)         -0.3902         estimate D2E/DX2                !
 ! D222  D(64,67,68,70)       -179.1856         estimate D2E/DX2                !
 ! D223  D(72,67,68,69)       -179.5239         estimate D2E/DX2                !
 ! D224  D(72,67,68,70)          1.6806         estimate D2E/DX2                !
 ! D225  D(64,67,72,71)       -178.6611         estimate D2E/DX2                !
 ! D226  D(68,67,72,71)          0.5523         estimate D2E/DX2                !
 ! D227  D(67,68,70,71)         -3.7093         estimate D2E/DX2                !
 ! D228  D(67,68,70,103)      -179.0798         estimate D2E/DX2                !
 ! D229  D(69,68,70,71)        177.4984         estimate D2E/DX2                !
 ! D230  D(69,68,70,103)         2.1279         estimate D2E/DX2                !
 ! D231  D(68,70,71,72)          3.7831         estimate D2E/DX2                !
 ! D232  D(68,70,71,73)       -177.0687         estimate D2E/DX2                !
 ! D233  D(103,70,71,72)       179.0315         estimate D2E/DX2                !
 ! D234  D(103,70,71,73)        -1.8204         estimate D2E/DX2                !
 ! D235  D(70,71,72,67)         -2.5817         estimate D2E/DX2                !
 ! D236  D(73,71,72,67)        178.202          estimate D2E/DX2                !
 ! D237  D(70,71,73,74)         32.4293         estimate D2E/DX2                !
 ! D238  D(70,71,73,78)       -142.2745         estimate D2E/DX2                !
 ! D239  D(72,71,73,74)       -148.521          estimate D2E/DX2                !
 ! D240  D(72,71,73,78)         36.7752         estimate D2E/DX2                !
 ! D241  D(71,73,74,75)       -178.5993         estimate D2E/DX2                !
 ! D242  D(71,73,74,104)        -0.513          estimate D2E/DX2                !
 ! D243  D(78,73,74,75)         -3.562          estimate D2E/DX2                !
 ! D244  D(78,73,74,104)       174.5244         estimate D2E/DX2                !
 ! D245  D(71,73,78,77)        179.4738         estimate D2E/DX2                !
 ! D246  D(71,73,78,105)        -3.0857         estimate D2E/DX2                !
 ! D247  D(74,73,78,77)          4.5437         estimate D2E/DX2                !
 ! D248  D(74,73,78,105)      -178.0157         estimate D2E/DX2                !
 ! D249  D(73,74,75,76)         -1.1379         estimate D2E/DX2                !
 ! D250  D(104,74,75,76)      -179.1877         estimate D2E/DX2                !
 ! D251  D(74,75,76,77)          5.6608         estimate D2E/DX2                !
 ! D252  D(74,75,76,79)       -177.3497         estimate D2E/DX2                !
 ! D253  D(75,76,77,78)         -4.6148         estimate D2E/DX2                !
 ! D254  D(79,76,77,78)        178.1811         estimate D2E/DX2                !
 ! D255  D(75,76,79,80)        176.9042         estimate D2E/DX2                !
 ! D256  D(75,76,79,84)         -5.869          estimate D2E/DX2                !
 ! D257  D(77,76,79,80)         -5.6782         estimate D2E/DX2                !
 ! D258  D(77,76,79,84)        171.5485         estimate D2E/DX2                !
 ! D259  D(76,77,78,73)         -0.8489         estimate D2E/DX2                !
 ! D260  D(76,77,78,105)      -178.4212         estimate D2E/DX2                !
 ! D261  D(76,79,80,81)         -2.1            estimate D2E/DX2                !
 ! D262  D(76,79,80,82)       -179.9936         estimate D2E/DX2                !
 ! D263  D(84,79,80,81)       -179.4764         estimate D2E/DX2                !
 ! D264  D(84,79,80,82)          2.63           estimate D2E/DX2                !
 ! D265  D(76,79,84,83)       -178.3992         estimate D2E/DX2                !
 ! D266  D(80,79,84,83)         -0.6138         estimate D2E/DX2                !
 ! D267  D(79,80,82,83)         -3.6716         estimate D2E/DX2                !
 ! D268  D(79,80,82,106)      -178.2922         estimate D2E/DX2                !
 ! D269  D(81,80,82,83)        178.568          estimate D2E/DX2                !
 ! D270  D(81,80,82,106)         3.9474         estimate D2E/DX2                !
 ! D271  D(80,82,83,84)          3.3103         estimate D2E/DX2                !
 ! D272  D(80,82,83,107)       179.846          estimate D2E/DX2                !
 ! D273  D(106,82,83,84)       177.8149         estimate D2E/DX2                !
 ! D274  D(106,82,83,107)       -5.6494         estimate D2E/DX2                !
 ! D275  D(82,83,84,79)         -1.6365         estimate D2E/DX2                !
 ! D276  D(107,83,84,79)      -178.4589         estimate D2E/DX2                !
 --------------------------------------------------------------------------------
 Trust Radius=3.00D-01 FncErr=1.00D-07 GrdErr=1.00D-06 EigMax=2.50D+02 EigMin=1.00D-04
 Number of steps in this run=    595 maximum allowed number of steps=    642.
 GradGradGradGradGradGradGradGradGradGradGradGradGradGradGradGradGradGrad

 Leave Link  103 at Sun Jul 26 12:21:40 2020, MaxMem=  4026531840 cpu:               0.3 elap:               0.1
 (Enter /opt/ohpc/pub/libs/gaussian/g16-A.03/sandybridge/g16/l202.exe)
 Stoichiometry    C56H23F7N14S7
 Framework group  C1[X(C56H23F7N14S7)]
 Deg. of freedom   315
 Full point group                 C1      NOp   1
 Largest Abelian subgroup         C1      NOp   1
 Largest concise Abelian subgroup C1      NOp   1
                         Standard orientation:                         
 ---------------------------------------------------------------------
 Center     Atomic      Atomic             Coordinates (Angstroms)
 Number     Number       Type             X           Y           Z
 ---------------------------------------------------------------------
      1          6           0      -26.989863   -0.711809   -0.867143
      2          6           0      -25.962798   -0.817797   -1.729612
      3          7           0      -24.623899   -0.451540   -1.442174
      4          6           0      -24.408383    0.058574   -0.190923
      5          7           0      -25.378686    0.254118    0.746211
      6          6           0      -26.692021   -0.154492    0.336245
      7          6           0      -23.146279    0.429405    0.182898
      8          6           0      -22.645471    1.092169    1.346060
      9          9           0      -23.403600    1.395360    2.354828
     10          6           0      -21.265443    1.266960    1.338383
     11          6           0      -20.611885    0.771768    0.249399
     12         16           0      -21.751184    0.118855   -0.893019
     13          6           0      -19.152010    0.831003   -0.079858
     14          6           0      -18.731188    1.012544   -1.391426
     15          7           0      -17.381411    1.124621   -1.647058
     16          6           0      -16.500062    0.979136   -0.667266
     17          7           0      -16.909260    0.745221    0.586865
     18          6           0      -18.197368    0.720875    0.829595
     19          6           0      -15.130769    0.981441   -1.008241
     20          6           0      -14.453642    1.235023   -2.129074
     21          9           0      -15.163564    1.536344   -3.333798
     22          6           0      -13.076783    1.257693   -2.120594
     23          6           0      -12.555086    0.892481   -0.826314
     24         16           0      -13.938828    0.686779    0.206596
     25          6           0      -11.252567    0.715449   -0.412301
     26          6           0      -10.161757    0.325566   -1.248684
     27          7           0       -8.954414    0.116801   -0.900255
     28          6           0       -8.630835    0.441990    0.402193
     29          7           0       -9.482275    0.884131    1.277475
     30          6           0      -10.781001    0.943256    0.857342
     31          6           0       -7.237674    0.194595    0.844640
     32          6           0       -6.703199    0.302028    2.129201
     33          9           0       -7.446849    0.555398    3.167255
     34          6           0       -5.347386    0.068234    2.163378
     35          6           0       -4.744124   -0.167761    0.866460
     36         16           0       -5.999067   -0.065501   -0.289708
     37          6           0       -3.321067   -0.515512    0.577362
     38          6           0       -2.287712   -0.049566    1.396819
     39          7           0       -1.032117   -0.372890    1.164114
     40          6           0       -0.696314   -1.060585   -0.026931
     41          7           0       -1.647575   -1.494905   -0.838127
     42          6           0       -2.938160   -1.209668   -0.539796
     43          6           0        0.607765   -1.384358   -0.296758
     44          6           0        1.195369   -2.113568   -1.290640
     45          9           0        0.409660   -2.695314   -2.329330
     46          6           0        2.626509   -2.241469   -1.307317
     47          6           0        3.170426   -1.595477   -0.225008
     48         16           0        1.948641   -0.882393    0.687330
     49          6           0        4.605562   -1.553014    0.203155
     50          6           0        5.563808   -1.540436   -0.794183
     51          7           0        6.924642   -1.549887   -0.460459
     52          6           0        7.210268   -1.470861    0.862118
     53          7           0        6.364590   -1.419317    1.838267
     54          6           0        5.036508   -1.510731    1.450879
     55          6           0        8.602113   -1.326663    1.265277
     56          6           0        9.180185   -1.264108    2.458673
     57          9           0        8.489993   -1.144688    3.653896
     58          6           0       10.576040   -1.103265    2.452669
     59          6           0       11.084772   -1.216731    1.163726
     60         16           0        9.856426   -1.305343    0.021119
     61          6           0       12.521571   -1.191392    0.805720
     62          6           0       13.027338   -1.937617   -0.226594
     63          7           0       14.323729   -1.921017   -0.652277
     64          6           0       15.186973   -1.065174    0.063526
     65          7           0       14.706037   -0.249067    1.059170
     66          6           0       13.460064   -0.301753    1.359599
     67          6           0       16.530884   -1.001815   -0.322234
     68          6           0       17.276814   -1.809054   -1.156706
     69          9           0       16.692496   -2.947527   -1.796367
     70          6           0       18.655731   -1.483831   -1.337839
     71          6           0       18.985529   -0.309675   -0.667953
     72         16           0       17.635188    0.231821    0.198341
     73          6           0       20.256935    0.398322   -0.640618
     74          6           0       21.108999    0.389337   -1.756257
     75          7           0       22.309331    1.043421   -1.680522
     76          6           0       22.621328    1.653971   -0.635993
     77          7           0       21.935917    1.677854    0.545724
     78          6           0       20.749609    1.025772    0.508029
     79          6           0       23.918659    2.432560   -0.556587
     80          6           0       24.460183    3.228526    0.450542
     81          9           0       23.801748    3.431967    1.542563
     82          6           0       25.725576    3.794552    0.127671
     83          6           0       26.108656    3.308705   -1.111528
     84         16           0       25.040748    2.312426   -1.932163
     85          1           0      -27.965868   -0.984939   -1.104005
     86          1           0      -26.091640   -1.273971   -2.721438
     87          1           0      -27.432736   -0.003953    1.094064
     88          1           0      -20.737403    1.695684    2.235183
     89          1           0      -19.391911    1.158402   -2.197940
     90          1           0      -18.444027    0.565941    1.969988
     91          1           0      -12.439511    1.440135   -3.016907
     92          1           0      -10.423856    0.072545   -2.335758
     93          1           0      -11.409508    1.381764    1.668019
     94          1           0       -4.755873    0.071048    3.055038
     95          1           0       -2.449176    0.476286    2.343778
     96          1           0       -3.641350   -1.513108   -1.328761
     97          1           0        3.181555   -2.844289   -2.068103
     98          1           0        5.421945   -1.605919   -1.848415
     99          1           0        4.371068   -1.458431    2.335453
    100          1           0       11.178438   -1.031248    3.330654
    101          1           0       12.473247   -2.634093   -0.798512
    102          1           0       13.174965    0.365968    2.203680
    103          1           0       19.293191   -2.024637   -1.957293
    104          1           0       20.825195   -0.148036   -2.628442
[...]
  Beta virt. eigenvalues --    1.63608   1.63674   1.63883   1.64343   1.64598
  Beta virt. eigenvalues --    1.64811   1.65019   1.65277   1.65703   1.66423
  Beta virt. eigenvalues --    1.66554   1.66597   1.66716   1.66794   1.66853
  Beta virt. eigenvalues --    1.67463   1.67750   1.67879   1.68074   1.68359
  Beta virt. eigenvalues --    1.68595   1.69536   1.69855   1.70225   1.70372
  Beta virt. eigenvalues --    1.70487   1.70609   1.70877   1.71398   1.71564
  Beta virt. eigenvalues --    1.71663   1.71858   1.71923   1.71928   1.72039
  Beta virt. eigenvalues --    1.72619   1.73160   1.73236   1.73301   1.73514
  Beta virt. eigenvalues --    1.73708   1.73837   1.73918   1.74126   1.74483
  Beta virt. eigenvalues --    1.75266   1.75413   1.75499   1.75516   1.75597
  Beta virt. eigenvalues --    1.75675   1.75758   1.76147   1.76412   1.77133
  Beta virt. eigenvalues --    1.77683   1.77908   1.78036   1.78607   1.78910
  Beta virt. eigenvalues --    1.79874   1.80140   1.80206   1.80400   1.80443
  Beta virt. eigenvalues --    1.80671   1.80794   1.81008   1.81114   1.81254
  Beta virt. eigenvalues --    1.81438   1.81668   1.81794   1.81814   1.82069
  Beta virt. eigenvalues --    1.82265   1.82352   1.82392   1.83104   1.83267
  Beta virt. eigenvalues --    1.83683   1.84370   1.84433   1.84966   1.85431
  Beta virt. eigenvalues --    1.85718   1.86112   1.86658   1.87104   1.87535
  Beta virt. eigenvalues --    1.87878   1.88521   1.88571   1.88879   1.89238
  Beta virt. eigenvalues --    1.89443   1.89668   1.89796   1.89931   1.90073
  Beta virt. eigenvalues --    1.90366   1.90483   1.91026   1.91187   1.91854
  Beta virt. eigenvalues --    1.92250   1.92557   1.92600   1.94106   1.94219
  Beta virt. eigenvalues --    1.94254   1.94550   1.94704   1.94912   1.95101
  Beta virt. eigenvalues --    1.96231   1.96873   1.96913   1.97105   1.97175
  Beta virt. eigenvalues --    1.97336   1.97396   1.97649   1.98158   1.98687
  Beta virt. eigenvalues --    1.99178   1.99549   2.00094   2.00402   2.00560
  Beta virt. eigenvalues --    2.00952   2.01324   2.01332   2.01598   2.01714
  Beta virt. eigenvalues --    2.02054   2.02428   2.02502   2.02762   2.02894
  Beta virt. eigenvalues --    2.03419   2.03450   2.03958   2.04133   2.04502
  Beta virt. eigenvalues --    2.04815   2.05100   2.05483   2.05861   2.05912
  Beta virt. eigenvalues --    2.06059   2.06648   2.06853   2.07084   2.07622
  Beta virt. eigenvalues --    2.07705   2.08235   2.08274   2.10084   2.10546
  Beta virt. eigenvalues --    2.11266   2.11761   2.11864   2.12089   2.12200
  Beta virt. eigenvalues --    2.12467   2.12624   2.12707   2.12880   2.13406
  Beta virt. eigenvalues --    2.13855   2.14079   2.15683   2.15774   2.15980
  Beta virt. eigenvalues --    2.16183   2.16320   2.16406   2.16562   2.19203
  Beta virt. eigenvalues --    2.19717   2.20022   2.20330   2.20502   2.20629
  Beta virt. eigenvalues --    2.20730   2.20984   2.22133   2.22528   2.22902
  Beta virt. eigenvalues --    2.23486   2.23697   2.24008   2.26402   2.26507
  Beta virt. eigenvalues --    2.26582   2.26640   2.26675   2.26731   2.26939
  Beta virt. eigenvalues --    2.27079   2.27106   2.27166   2.27396   2.27560
  Beta virt. eigenvalues --    2.27634   2.27782   2.27904   2.27912   2.27945
  Beta virt. eigenvalues --    2.27949   2.28016   2.28070   2.28517   2.28595
  Beta virt. eigenvalues --    2.30902   2.31194   2.31473   2.31745   2.31866
  Beta virt. eigenvalues --    2.32155   2.33381   2.33459   2.33629   2.33911
  Beta virt. eigenvalues --    2.34237   2.34468   2.40059   2.40348   2.40862
  Beta virt. eigenvalues --    2.41322   2.41731   2.42039   2.42307   2.42537
  Beta virt. eigenvalues --    2.43710   2.43768   2.43822   2.43858   2.44004
  Beta virt. eigenvalues --    2.45135   2.46407   2.46715   2.46935   2.47143
  Beta virt. eigenvalues --    2.47293   2.47581   2.47665   2.47892   2.51387
  Beta virt. eigenvalues --    2.51509   2.51634   2.51683   2.51709   2.51722
  Beta virt. eigenvalues --    2.52207   2.52711   2.52855   2.53084   2.53389
  Beta virt. eigenvalues --    2.53646   2.55061   2.55124   2.56474   2.56587
  Beta virt. eigenvalues --    2.56747   2.56989   2.57220   2.57407   2.57510
  Beta virt. eigenvalues --    2.59333   2.62936   2.63118   2.63366   2.63662
  Beta virt. eigenvalues --    2.63981   2.64206   2.65452   2.67331   2.67747
  Beta virt. eigenvalues --    2.67914   2.68038   2.68303   2.68339   2.68384
  Beta virt. eigenvalues --    2.68672   2.68802   2.68944   2.69115   2.69299
  Beta virt. eigenvalues --    2.69426   2.69490   2.71199   2.73698   2.73755
  Beta virt. eigenvalues --    2.73844   2.73992   2.74153   2.74347   2.83512
  Beta virt. eigenvalues --    2.86053   2.86279   2.86554   2.86829   2.87036
  Beta virt. eigenvalues --    2.87240   2.88808   2.88954   2.89213   2.89535
  Beta virt. eigenvalues --    2.89881   2.90204   2.90459   2.95084   2.95259
  Beta virt. eigenvalues --    2.95446   2.95620   2.95722   2.95908   2.97038
  Beta virt. eigenvalues --    2.97089   2.97183   2.97315   2.97464   2.97573
  Beta virt. eigenvalues --    2.97803   3.01628   3.05145   3.05441   3.05789
  Beta virt. eigenvalues --    3.06189   3.06588   3.06850   3.07796   3.15876
  Beta virt. eigenvalues --    3.16303   3.16937   3.17682   3.18404   3.18906
  Beta virt. eigenvalues --    3.20235   3.42227   3.42576   3.42992   3.43411
  Beta virt. eigenvalues --    3.43758   3.44002   3.51739   3.66323   3.66339
  Beta virt. eigenvalues --    3.66358   3.66401   3.66558   3.66566   3.67202
  Beta virt. eigenvalues --    3.68729   3.68779   3.68816   3.68855   3.68954
  Beta virt. eigenvalues --    3.69007   3.69463   3.88067   3.88083   3.88097
  Beta virt. eigenvalues --    3.88143   3.88265   3.88288   3.88842   4.08843
  Beta virt. eigenvalues --    4.08921   4.09000   4.09071   4.09136   4.09188
  Beta virt. eigenvalues --    4.09360   4.28886   4.28970   4.29002   4.29016
  Beta virt. eigenvalues --    4.29060   4.29176   4.29207
          Condensed to atoms (all electrons):
          Atomic-Atomic Spin Densities.
 Mulliken charges and spin densities:
               1          2
     1  C   -0.099265  -0.000000
     2  C    0.120309   0.000000
     3  N   -0.218946   0.000000
     4  C    0.219943   0.000000
     5  N   -0.193972   0.000000
     6  C    0.114158   0.000000
     7  C   -0.224436   0.000000
     8  C    0.147806  -0.000000
     9  F   -0.097058  -0.000000
    10  C    0.015393   0.000000
    11  C   -0.167140  -0.000000
    12  S    0.227507  -0.000000
    13  C   -0.097133   0.000000
    14  C    0.134930  -0.000000
    15  N   -0.187755  -0.000000
    16  C    0.223197   0.000000
    17  N   -0.213039  -0.000000
    18  C    0.143087   0.000000
    19  C   -0.226880   0.000000
    20  C    0.148906  -0.000000
    21  F   -0.095697   0.000000
    22  C    0.016527   0.000000
    23  C   -0.166546  -0.000000
    24  S    0.229173   0.000000
    25  C   -0.097748   0.000000
    26  C    0.143474   0.000000
    27  N   -0.212879   0.000000
    28  C    0.223756  -0.000000
    29  N   -0.187613   0.000000
    30  C    0.135164  -0.000000
    31  C   -0.227205  -0.000000
    32  C    0.149087   0.000000
    33  F   -0.095504   0.000000
    34  C    0.016828  -0.000000
    35  C   -0.166473   0.000000
    36  S    0.229525  -0.000000
    37  C   -0.098245  -0.000000
    38  C    0.143650   0.000000
    39  N   -0.212817  -0.000000
    40  C    0.223843  -0.000000
    41  N   -0.187575   0.000000
    42  C    0.135289   0.000000
    43  C   -0.227329   0.000000
    44  C    0.149156  -0.000000
    45  F   -0.095506   0.000000
    46  C    0.016714   0.000000
    47  C   -0.166293  -0.000000
    48  S    0.229543  -0.000000
    49  C   -0.098211   0.000000
    50  C    0.143589  -0.000000
    51  N   -0.212704   0.000000
    52  C    0.223824   0.000000
    53  N   -0.187599   0.000000
    54  C    0.135224   0.000000
    55  C   -0.227539  -0.000000
    56  C    0.149216   0.000000
    57  F   -0.095621  -0.000000
    58  C    0.016679  -0.000000
    59  C   -0.166078  -0.000000
    60  S    0.229321   0.000000
    61  C   -0.098491   0.000000
    62  C    0.135007  -0.000000
    63  N   -0.187707   0.000000
    64  C    0.223769   0.000000
    65  N   -0.212475  -0.000000
    66  C    0.143416   0.000000
    67  C   -0.228083  -0.000000
    68  C    0.149004   0.000000
    69  F   -0.096180  -0.000000
    70  C    0.016348  -0.000000
    71  C   -0.164949   0.000000
    72  S    0.228780  -0.000000
    73  C   -0.099281  -0.000000
    74  C    0.141127   0.000000
    75  N   -0.211443   0.000000
    76  C    0.229508  -0.000000
    77  N   -0.187849   0.000000
    78  C    0.133127   0.000000
    79  C   -0.232395   0.000000
    80  C    0.129738  -0.000000
    81  F   -0.100857   0.000000
    82  C    0.034308   0.000000
    83  C   -0.134402  -0.000000
    84  S    0.215788   0.000000
    85  H    0.023418  -0.000000
    86  H    0.033965   0.000000
    87  H    0.032931  -0.000000
    88  H    0.020530  -0.000000
    89  H    0.036160  -0.000000
    90  H    0.030522   0.000000
    91  H    0.021593   0.000000
    92  H    0.030781   0.000000
    93  H    0.036313   0.000000
    94  H    0.021726  -0.000000
    95  H    0.030788   0.000000
    96  H    0.036412   0.000000
    97  H    0.021737  -0.000000
    98  H    0.030728  -0.000000
    99  H    0.036178   0.000000
   100  H    0.021740   0.000000
   101  H    0.035803  -0.000000
   102  H    0.030521  -0.000000
   103  H    0.021223   0.000000
   104  H    0.029235   0.000000
   105  H    0.034992  -0.000000
   106  H    0.023268  -0.000000
   107  H    0.049612   0.000000
 Sum of Mulliken charges =  -0.00000  -0.00000
 Mulliken charges and spin densities with hydrogens summed into heavy atoms:
               1          2
     1  C   -0.075848  -0.000000
     2  C    0.154274   0.000000
     3  N   -0.218946   0.000000
     4  C    0.219943   0.000000
     5  N   -0.193972   0.000000
     6  C    0.147089   0.000000
     7  C   -0.224436   0.000000
     8  C    0.147806  -0.000000
     9  F   -0.097058  -0.000000
    10  C    0.035924   0.000000
    11  C   -0.167140  -0.000000
    12  S    0.227507  -0.000000
    13  C   -0.097133   0.000000
    14  C    0.171090  -0.000000
    15  N   -0.187755  -0.000000
    16  C    0.223197   0.000000
    17  N   -0.213039  -0.000000
    18  C    0.173610   0.000000
    19  C   -0.226880   0.000000
    20  C    0.148906  -0.000000
    21  F   -0.095697   0.000000
    22  C    0.038120   0.000000
    23  C   -0.166546  -0.000000
    24  S    0.229173   0.000000
    25  C   -0.097748   0.000000
    26  C    0.174254   0.000000
    27  N   -0.212879   0.000000
    28  C    0.223756  -0.000000
    29  N   -0.187613   0.000000
    30  C    0.171477   0.000000
    31  C   -0.227205  -0.000000
    32  C    0.149087   0.000000
    33  F   -0.095504   0.000000
    34  C    0.038554  -0.000000
    35  C   -0.166473   0.000000
    36  S    0.229525  -0.000000
    37  C   -0.098245  -0.000000
    38  C    0.174439   0.000000
    39  N   -0.212817  -0.000000
    40  C    0.223843  -0.000000
    41  N   -0.187575   0.000000
    42  C    0.171702   0.000000
    43  C   -0.227329   0.000000
    44  C    0.149156  -0.000000
    45  F   -0.095506   0.000000
    46  C    0.038451   0.000000
    47  C   -0.166293  -0.000000
    48  S    0.229543  -0.000000
    49  C   -0.098211   0.000000
    50  C    0.174317  -0.000000
    51  N   -0.212704   0.000000
    52  C    0.223824   0.000000
    53  N   -0.187599   0.000000
    54  C    0.171402   0.000000
    55  C   -0.227539  -0.000000
    56  C    0.149216   0.000000
    57  F   -0.095621  -0.000000
    58  C    0.038419  -0.000000
    59  C   -0.166078  -0.000000
    60  S    0.229321   0.000000
    61  C   -0.098491   0.000000
    62  C    0.170810  -0.000000
    63  N   -0.187707   0.000000
    64  C    0.223769   0.000000
    65  N   -0.212475  -0.000000
    66  C    0.173938   0.000000
    67  C   -0.228083  -0.000000
    68  C    0.149004   0.000000
    69  F   -0.096180  -0.000000
    70  C    0.037570  -0.000000
    71  C   -0.164949   0.000000
    72  S    0.228780  -0.000000
    73  C   -0.099281  -0.000000
    74  C    0.170363   0.000000
    75  N   -0.211443   0.000000
    76  C    0.229508  -0.000000
    77  N   -0.187849   0.000000
    78  C    0.168120   0.000000
    79  C   -0.232395   0.000000
    80  C    0.129738  -0.000000
    81  F   -0.100857   0.000000
    82  C    0.057576   0.000000
    83  C   -0.084790  -0.000000
    84  S    0.215788   0.000000
 Electronic spatial extent (au):  <R**2>=         569552.9344
 Charge=              0.0000 electrons
 Dipole moment (field-independent basis, Debye):
    X=             -6.2667    Y=              1.2689    Z=             -0.5680  Tot=              6.4190
 Quadrupole moment (field-independent basis, Debye-Ang):
   XX=           -323.4522   YY=           -509.6163   ZZ=           -514.1668
   XY=             -6.5290   XZ=             21.0480   YZ=             -2.8879
 Traceless Quadrupole moment (field-independent basis, Debye-Ang):
   XX=            125.6262   YY=            -60.5379   ZZ=            -65.0883
   XY=             -6.5290   XZ=             21.0480   YZ=             -2.8879
 Octapole moment (field-independent basis, Debye-Ang**2):
  XXX=          -4687.7733  YYY=             -7.4280  ZZZ=             15.0206  XYY=             10.9053
  XXY=           1183.2020  XXZ=           -360.9988  XZZ=             33.2192  YZZ=             -0.7828
  YYZ=             -6.8619  XYZ=             75.6407
 Hexadecapole moment (field-independent basis, Debye-Ang**3):
 XXXX=        -510332.0368 YYYY=          -6826.2345 ZZZZ=          -5335.1721 XXXY=          -6161.8812
 XXXZ=          24097.4109 YYYX=            -15.3913 YYYZ=           -204.1691 ZZZX=              0.9556
 ZZZY=           -163.9399 XXYY=        -125448.2466 XXZZ=        -126882.0383 YYZZ=          -2013.2551
 XXYZ=           -631.4832 YYXZ=            176.1646 ZZXY=             13.6964
 N-N= 1.157796961259D+04 E-N=-3.821266917268D+04  KE= 6.369489554062D+03
 Leave Link  601 at Sun Jul 26 21:24:18 2020, MaxMem=  4026531840 cpu:              17.5 elap:               2.4
 (Enter /opt/ohpc/pub/libs/gaussian/g16-A.03/sandybridge/g16/l9999.exe)

 Test job not archived.
 1\1\GINC-SKYLAKE049\FOpt\ULC-wPBE\CC-pVDZ\C56H23F7N14S7\RDU230\26-Jul-
 2020\0\\#P uLC-wPBE/cc-pVDZ iop(3/107=0394500000, 3/108=0394500000) op
 t\\H23 C56 S7 N14 F7\\0,1\C,-26.6698245465,-0.2134526085,-1.583840606\
 C,-25.5435024596,-0.2958038616,-2.3887905225\N,-24.3197337514,-0.08227
 01904,-1.922811102\C,-24.2226844548,0.2189440787,-0.6246226709\N,-25.2
 315996331,0.3244701649,0.2395592978\C,-26.4454361338,0.1064810274,-0.2
 532842821\C,-22.8636857937,0.4499902735,-0.1280091297\C,-22.4202856831
 ,0.77446041,1.1250599216\F,-23.20696968,0.9547724302,2.1786161375\C,-2
 1.0162572758,0.9217382238,1.2312558198\C,-20.3967415198,0.701781039,0.
 0322536292\S,-21.5251844089,0.3102624553,-1.2079515915\C,-18.957443691
 5,0.7639469778,-0.2462886992\C,-18.436219157,1.1892537537,-1.467666873
 4\N,-17.1376206242,1.2522948813,-1.7211951248\C,-16.3238406231,0.89227
 61046,-0.7292954439\N,-16.7027529776,0.4687985839,0.480561857\C,-18.00
 46203245,0.402335062,0.7058032581\C,-14.8806990069,0.9541013778,-0.960
 2185181\C,-14.1767119064,1.3454919032,-2.0670036046\F,-14.7277136073,1
 .7715641456,-3.1961279003\C,-12.7705500452,1.2751005422,-1.9232732069\
 C,-12.4150366312,0.820443095,-0.6834000583\S,-13.7922099226,0.47548264
 68,0.2905837387\C,-11.0555528377,0.6163800113,-0.1706186368\C,-10.0054
 81632,0.2213139235,-0.9991585987\N,-8.7696542432,0.0494640557,-0.55996
 17934\C,-8.5608170864,0.2608570517,0.7433600057\N,-9.4829673675,0.6280
 553096,1.6326390644\C,-10.7103256236,0.8047801197,1.1671804781\C,-7.18
 84554349,0.0643293299,1.2093891057\C,-6.6508470163,0.1961772276,2.4614
 050583\F,-7.3388090083,0.5418317821,3.5417284249\C,-5.2646641977,-0.07
 88438862,2.5367282654\C,-4.7543766388,-0.4228362181,1.3153585637\S,-5.
 9615005356,-0.4000567736,0.0880537904\C,-3.3643200832,-0.7727459911,1.
 0020786703\C,-2.2879868446,-0.1946600952,1.6747472717\N,-1.0288284042,
 -0.508768328,1.4188920828\C,-0.8191330565,-1.4133948301,0.4572493481\N
 ,-1.7621502384,-2.0239283318,-0.2597410617\C,-3.0154944255,-1.70227794
 96,0.0229617925\C,0.5797526055,-1.7421101941,0.1851426414\C,1.12490623
 95,-2.6179032678,-0.7147381761\F,0.4215423396,-3.3755610732,-1.5460605
 704\C,2.5388127925,-2.6749995403,-0.6952902602\C,3.0625077777,-1.82330
 193,0.2379207403\S,1.8327209837,-0.956697879,1.0749091216\C,4.48105111
 07,-1.607868735,0.5447294452\C,5.4701574694,-1.6963424991,-0.434582961
 8\N,6.7554007823,-1.5220906662,-0.1750563633\C,7.0792318741,-1.2365430
 825,1.09016635\N,6.2254868322,-1.1152953089,2.1063937868\C,4.945602788
 6,-1.3062403492,1.8244010064\C,8.5040166892,-1.0410210472,1.3555357751
 \C,9.1552207473,-0.7501450137,2.5240347933\F,8.557573609,-0.5931691739
 ,3.6979664867\C,10.5600248412,-0.6332645432,2.3995863505\C,10.96848740
 2,-0.8398388361,1.1107688998\S,9.6414094307,-1.1650834228,0.0633530829
 \C,12.3430444479,-0.7987594917,0.5992339851\C,12.7918578828,-1.6083730
 431,-0.4435536849\N,14.0330055329,-1.5778929577,-0.9045956202\C,14.864
 7868863,-0.7242117927,-0.3078267817\N,14.5523347765,0.0997705831,0.697
 6700299\C,13.3039427164,0.0599374523,1.132662947\C,16.247827798,-0.661
 2452249,-0.7780280455\C,16.8796204789,-1.3655845335,-1.7674320731\F,16
 .2995399828,-2.2960206861,-2.5145538799\C,18.2442914421,-1.0352100417,
 -1.9435372929\C,18.6421766874,-0.0622719649,-1.0684265203\S,17.3522552
 839,0.4463214455,-0.0479581969\C,19.9775013831,0.5347464411,-0.9531722
 353\C,20.8074712773,0.7078664613,-2.0605472567\N,22.0203823628,1.22770
 26938,-1.9756307983\C,22.4298290997,1.6045245111,-0.7593895714\N,21.72
 39324566,1.4996654431,0.3669840658\C,20.5171523648,0.9655777646,0.2580
 116689\C,23.7718179962,2.1806058543,-0.6853679796\C,24.4709324128,2.65
 198349,0.3938868974\F,24.011790996,2.6644255888,1.6397189771\C,25.7644
 728011,3.1436727015,0.0846676606\C,26.0204170318,3.0313875136,-1.24769
 04162\S,24.7219277068,2.3430584734,-2.1182827457\H,-27.6716257646,-0.3
 897767016,-1.973881237\H,-25.6215417998,-0.5428915001,-3.4522415648\H,
 -27.2756892229,0.1930190658,0.4549773252\H,-20.5161967396,1.2060182362
 ,2.1553314035\H,-19.1034747423,1.5029628247,-2.2778735975\H,-18.311700
 3159,0.0317079316,1.6889863046\H,-12.0767409357,1.5798641799,-2.704591
 0714\H,-10.1776149113,0.0241569721,-2.0620907496\H,-11.463170015,1.123
 91456,1.8962263997\H,-4.7010784221,-0.0451373916,3.467282066\H,-2.4548
 355612,0.5645789293,2.4455157303\H,-3.7898850692,-2.218597895,-0.55485
 0226\H,3.1160493251,-3.343768786,-1.3310880511\H,5.206454365,-1.905446
 6313,-1.4762717788\H,4.2473564747,-1.2240691174,2.6645508988\H,11.2176
 226591,-0.434008396,3.2437043236\H,12.114768868,-2.3236960925,-0.92321
 73535\H,13.0457381757,0.753568626,1.9392845343\H,18.8872329661,-1.5285
 864812,-2.6700508078\H,20.467454672,0.4233909691,-3.0616278084\H,19.94
 69963376,0.8642527871,1.18811487\H,26.4456574399,3.5521896754,0.828295
 5859\H,26.9287996291,3.326799193,-1.7691356339\\Version=EM64L-G16RevA.
 03\State=1-A\HF=-6397.3589549\S2=0.\S2-1=0.\S2A=0.\RMSD=8.134e-09\RMSF
 =2.188e-06\Dipole=-2.4659485,-0.0477783,-0.5427945\Quadrupole=93.36208
 08,-49.3115385,-44.0505424,13.4135253,9.6968682,0.5963729\PG=C01 [X(C5
 6H23F7N14S7)]\\@


      SCIENCE SANS CONSCIENCE N'EST QUE RUINE DE L'AME.

                                                  -- RABELAIS
 Job cpu time:       2 days 23 hours  6 minutes 50.3 seconds.
 Elapsed time:       0 days  9 hours  2 minutes 34.1 seconds.
 File lengths (MBytes):  RWF=   1948 Int=      0 D2E=      0 Chk=    176 Scr=      8
 Normal termination of Gaussian 16 at Sun Jul 26 21:24:19 2020.
