 Entering Gaussian System, Link 0=g16
 Input=mols_65_7_30_cF-cF-CF_opt_0.gjf
 Output=mols_65_7_30_cF-cF-CF_opt_0.log
 Initial command:
 /opt/ohpc/pub/libs/gaussian/g16-A.03/sandybridge/g16/l1.exe "/mnt/gpfs2_4m/scratch/rdu230/ondemand/projects/dihedral_energies/7trial/wtuning/mols_65_7_30_cF-cF-CF/Gau-349244.inp" -scrdir="/mnt/gpfs2_4m/scratch/rdu230/ondemand/projects/dihedral_energies/7trial/wtuning/mols_65_7_30_cF-cF-CF/"
 Entering Link 1 = /opt/ohpc/pub/libs/gaussian/g16-A.03/sandybridge/g16/l1.exe PID=    349245.
  
 Copyright (c) 1988,1990,1992,1993,1995,1998,2003,2009,2016,
            Gaussian, Inc.  All Rights Reserved.
  
 This is part of the Gaussian(R) 16 program.  It is based on
 the Gaussian(R) 09 system (copyright 2009, Gaussian, Inc.),
 the Gaussian(R) 03 system (copyright 2003, Gaussian, Inc.),
 the Gaussian(R) 98 system (copyright 1998, Gaussian, Inc.),
 the Gaussian(R) 94 system (copyright 1995, Gaussian, Inc.),
 the Gaussian 92(TM) system (copyright 1992, Gaussian, Inc.),
 the Gaussian 90(TM) system (copyright 1990, Gaussian, Inc.),
 the Gaussian 88(TM) system (copyright 1988, Gaussian, Inc.),
 the Gaussian 86(TM) system (copyright 1986, Carnegie Mellon
 University), and the Gaussian 82(TM) system (copyright 1983,
 Carnegie Mellon University). Gaussian is a federally registered
 trademark of Gaussian, Inc.
  
 This software contains proprietary and confidential information,
 including trade secrets, belonging to Gaussian, Inc.
  
 This software is provided under written license and may be
 used, copied, transmitted, or stored only in accord with that
 written license.
  
 The following legend is applicable only to US Government
 contracts under FAR:
  
                    RESTRICTED RIGHTS LEGEND
  
 Use, reproduction and disclosure by the US Government is
 subject to restrictions as set forth in subparagraphs (a)
 and (c) of the Commercial Computer Software - Restricted
 Rights clause in FAR 52.227-19.
  
 Gaussian, Inc.
 340 Quinnipiac St., Bldg. 40, Wallingford CT 06492
  
  
 ---------------------------------------------------------------
 Warning -- This program may not be used in any manner that
 competes with the business of Gaussian, Inc. or will provide
 assistance to any competitor of Gaussian, Inc.  The licensee
 of this program is prohibited from giving any competitor of
 Gaussian, Inc. access to this program.  By using this program,
 the user acknowledges that Gaussian, Inc. is engaged in the
 business of creating and licensing software in the field of
 computational chemistry and represents and warrants to the
 licensee that it is not a competitor of Gaussian, Inc. and that
 it will not use this program in any manner prohibited above.
 ---------------------------------------------------------------
  

 Cite this work as:
 Gaussian 16, Revision A.03,
 M. J. Frisch, G. W. Trucks, H. B. Schlegel, G. E. Scuseria, 
 M. A. Robb, J. R. Cheeseman, G. Scalmani, V. Barone, 
 G. A. Petersson, H. Nakatsuji, X. Li, M. Caricato, A. V. Marenich, 
 J. Bloino, B. G. Janesko, R. Gomperts, B. Mennucci, H. P. Hratchian, 
 J. V. Ortiz, A. F. Izmaylov, J. L. Sonnenberg, D. Williams-Young, 
 F. Ding, F. Lipparini, F. Egidi, J. Goings, B. Peng, A. Petrone, 
 T. Henderson, D. Ranasinghe, V. G. Zakrzewski, J. Gao, N. Rega, 
 G. Zheng, W. Liang, M. Hada, M. Ehara, K. Toyota, R. Fukuda, 
 J. Hasegawa, M. Ishida, T. Nakajima, Y. Honda, O. Kitao, H. Nakai, 
 T. Vreven, K. Throssell, J. A. Montgomery, Jr., J. E. Peralta, 
 F. Ogliaro, M. J. Bearpark, J. J. Heyd, E. N. Brothers, K. N. Kudin, 
 V. N. Staroverov, T. A. Keith, R. Kobayashi, J. Normand, 
 K. Raghavachari, A. P. Rendell, J. C. Burant, S. S. Iyengar, 
 J. Tomasi, M. Cossi, J. M. Millam, M. Klene, C. Adamo, R. Cammi, 
 J. W. Ochterski, R. L. Martin, K. Morokuma, O. Farkas, 
 J. B. Foresman, and D. J. Fox, Gaussian, Inc., Wallingford CT, 2016.
 
 ******************************************
 Gaussian 16:  EM64L-G16RevA.03 25-Dec-2016
                23-Jul-2020 
 ******************************************
 %mem=30GB
 %nproc=8
 Will use up to    8 processors via shared memory.
 ---------------------------------------------------------------
 #P uLC-wPBE/cc-pVDZ iop(3/107=0298000000, 3/108=0298000000) opt
 ---------------------------------------------------------------
 1/18=20,19=15,26=3,38=1/1,3;
 2/9=110,12=2,17=6,18=5,40=1/2;
 3/5=16,11=2,25=1,30=1,71=1,74=-41,107=298000000,108=298000000,116=2/1,2,3;
 4//1;
 5/5=2,38=5/2;
 6/7=2,8=2,9=2,10=2,28=1/1;
 7//1,2,3,16;
 1/18=20,19=15,26=3/3(2);
 2/9=110/2;
 99//99;
 2/9=110/2;
 3/5=16,11=2,25=1,30=1,71=1,74=-41,107=298000000,108=298000000,116=2/1,2,3;
 4/5=5,16=3,69=1/1;
 5/5=2,38=5/2;
 7//1,2,3,16;
 1/18=20,19=15,26=3/3(-5);
 2/9=110/2;
 6/7=2,8=2,9=2,10=2,19=2,28=1/1;
 99/9=1/99;
 Leave Link    1 at Thu Jul 23 18:44:41 2020, MaxMem=  4026531840 cpu:               2.2 elap:               0.3
 (Enter /opt/ohpc/pub/libs/gaussian/g16-A.03/sandybridge/g16/l101.exe)
 --------------
 H23 C70 S7 F21
 --------------
 Symbolic Z-matrix:
 Charge =  0 Multiplicity = 1
 C                    -24.81084   6.04459   0.45236 
 C                    -23.95309   5.5859    1.48866 
 C                    -23.27688   4.39723   1.29165 
 F                    -22.5257   3.99927   2.26895 
 C                    -23.20566   3.74867   0.02008 
 C                    -24.01631   4.32198  -0.98238 
 F                    -24.06555   3.68278  -2.19937 
 C                    -24.82769   5.40349  -0.74375 
 C                    -22.45456   2.51243  -0.22158 
 C                    -22.82451   1.31908  -0.6652 
 F                    -24.17661   1.03742  -0.94206 
 C                    -21.83662   0.36903  -0.84147 
 C                    -20.63877   0.94144  -0.39406 
 S                    -20.73396   2.51437   0.10863 
 C                    -19.2933   0.29085  -0.35767 
 C                    -18.48307   0.27017   0.71144 
 C                    -17.19563  -0.3295    0.77116 
 F                    -16.50249  -0.22711   1.80722 
 C                    -16.70857  -1.02421  -0.38684 
 C                    -17.6132  -1.03532  -1.5375 
 F                    -17.1606  -1.68526  -2.63657 
 C                    -18.81161  -0.43488  -1.48717 
 C                    -15.3894  -1.6191   -0.37967 
 C                    -15.04943  -2.88558  -0.67846 
 F                    -15.93018  -3.9034   -1.01183 
 C                    -13.7126  -3.19273  -0.64357 
 C                    -12.99786  -1.99265  -0.29321 
 S                    -14.04749  -0.69013  -0.02303 
 C                    -11.56406  -1.89297  -0.07806 
 C                    -11.08184  -1.32386   1.10064 
 C                    -9.64145  -1.14792   1.30384 
 F                    -9.25659  -0.58816   2.40833 
 C                    -8.76829  -1.39354   0.32049 
 C                    -9.21245  -1.98889  -0.86364 
 F                    -8.43496  -2.35039  -1.87072 
 C                    -10.66138  -2.20999  -1.02713 
 C                    -7.32532  -1.10953   0.5141 
 C                    -6.7671    0.12609   0.82433 
 F                    -7.49323   1.22997   1.04111 
 C                    -5.37463   0.08149   0.87102 
 C                    -4.89938  -1.23149   0.63708 
 S                    -6.11947  -2.27509   0.27551 
 C                    -3.43963  -1.63208   0.65908 
 C                    -2.53062  -1.19488   1.61791 
 C                    -1.21288  -1.46613   1.55699 
 F                    -0.45868  -1.07041   2.59818 
 C                    -0.65482  -2.24713   0.50297 
 C                    -1.60738  -2.74004  -0.42096 
 F                    -1.10732  -3.51669  -1.43298 
 C                    -2.92897  -2.41736  -0.46193 
 C                     0.78988  -2.54297   0.42637 
 C                     1.4515   -3.71255   0.45862 
 F                     0.78957  -4.93151   0.66768 
 C                     2.81777  -3.60028   0.31346 
 C                     3.16812  -2.28724   0.21716 
 S                     1.82546  -1.22592   0.2011 
 C                     4.53199  -1.75673   0.0412 
 C                     5.48718  -2.33299  -0.73867 
 C                     6.75098  -1.83181  -0.95814 
 F                     7.66425  -2.47332  -1.77396 
 C                     7.20127  -0.71423  -0.29164 
 C                     6.24     -0.06995   0.50776 
 F                     6.60764   1.09428   1.23206 
 C                     4.99577  -0.59441   0.75599 
 C                     8.46026  -0.1193   -0.48391 
 C                     8.82933   1.16045  -1.03328 
 F                     7.99214   1.99915  -1.48781 
 C                     10.22395   1.41906  -1.03349 
 C                     10.93382   0.32797  -0.47334 
 S                     9.85416  -0.94091   0.0539 
 C                     12.35764   0.2353   -0.1767 
 C                     13.0864   1.38731   0.17881 
 C                     14.46698   1.30711   0.42652 
 F                     15.11142   2.44631   0.93451 
 C                     15.20363   0.18077   0.25176 
 C                     14.4649  -0.9602   -0.08215 
 F                     15.15983  -2.11069  -0.29019 
 C                     13.08743  -0.92108  -0.32636 
 C                     16.64932   0.06751   0.52674 
 C                     17.29996  -0.68081   1.43372 
 F                     16.64918  -1.62459   2.29006 
 C                     18.74608  -0.51099   1.46462 
 C                     19.10958   0.38594   0.54174 
 S                     17.77567   1.06387  -0.32895 
 C                     20.4128   0.8862    0.26038 
 C                     20.74608   2.19054  -0.08135 
 C                     22.02747   2.69822  -0.3865 
 F                     22.27721   3.92571  -0.68064 
 C                     23.11415   1.75179  -0.28428 
 C                     22.80021   0.46108  -0.00765 
 F                     23.80774  -0.4321    0.04093 
 C                     21.50286   0.02186   0.2733 
 C                     24.48566   2.14515  -0.64599 
 C                     25.53188   2.23703   0.22479 
 F                     25.4888   1.86059   1.47865 
 C                     26.73734   2.71951  -0.41423 
 C                     26.52283   2.92932  -1.78532 
 S                     24.88549   2.70627  -2.16535 
 H                    -25.37005   7.0238    0.65161 
 H                    -24.01196   6.05541   2.48322 
 H                    -25.42732   5.82559  -1.6314 
 H                    -21.9709  -0.64722  -1.1889 
 H                    -18.83294   0.80703   1.65968 
 H                    -19.42884  -0.50116  -2.37983 
 H                    -13.20984  -4.09529  -0.87841 
 H                    -11.68891  -1.05516   1.98613 
 H                    -10.97717  -2.6287   -1.95937 
 H                    -4.73443   0.95315   1.13786 
 H                    -2.98559  -0.61103   2.44304 
 H                    -3.55247  -2.78243  -1.17938 
 H                     3.49942  -4.40606   0.37191 
 H                     5.21869  -3.26772  -1.33642 
 H                     4.30661  -0.03387   1.44628 
 H                     10.72071   2.30288  -1.39987 
 H                     12.57238   2.36179   0.34806 
 H                     12.57883  -1.8301   -0.68537 
 H                     19.34773  -1.03898   2.15131 
 H                     19.95716   2.93754  -0.108 
 H                     21.42843  -1.02878   0.58674 
 H                     27.72129   2.79586  -0.00581 
 H                     27.27338   3.32321  -2.50366 
 
 ITRead=  0  0  0  0  0  0  0  0  0  0  0  0  0  0  0  0  0  0  0  0
 ITRead=  0  0  0  0  0  0  0  0  0  0  0  0  0  0  0  0  0  0  0  0
 ITRead=  0  0  0  0  0  0  0  0  0  0  0  0  0  0  0  0  0  0  0  0
 ITRead=  0  0  0  0  0  0  0  0  0  0  0  0  0  0  0  0  0  0  0  0
 ITRead=  0  0  0  0  0  0  0  0  0  0  0  0  0  0  0  0  0  0  0  0
 ITRead=  0  0  0  0  0  0  0  0  0  0  0  0  0  0  0  0  0  0  0  0
 ITRead=  0
 MicOpt= -1 -1 -1 -1 -1 -1 -1 -1 -1 -1 -1 -1 -1 -1 -1 -1 -1 -1 -1 -1
 MicOpt= -1 -1 -1 -1 -1 -1 -1 -1 -1 -1 -1 -1 -1 -1 -1 -1 -1 -1 -1 -1
 MicOpt= -1 -1 -1 -1 -1 -1 -1 -1 -1 -1 -1 -1 -1 -1 -1 -1 -1 -1 -1 -1
 MicOpt= -1 -1 -1 -1 -1 -1 -1 -1 -1 -1 -1 -1 -1 -1 -1 -1 -1 -1 -1 -1
 MicOpt= -1 -1 -1 -1 -1 -1 -1 -1 -1 -1 -1 -1 -1 -1 -1 -1 -1 -1 -1 -1
 MicOpt= -1 -1 -1 -1 -1 -1 -1 -1 -1 -1 -1 -1 -1 -1 -1 -1 -1 -1 -1 -1
 MicOpt= -1
 NAtoms=    121 NQM=      121 NQMF=       0 NMMI=      0 NMMIF=      0
                NMic=       0 NMicF=      0.
                    Isotopes and Nuclear Properties:
 (Nuclear quadrupole moments (NQMom) in fm**2, nuclear magnetic moments (NMagM)
  in nuclear magnetons)

  Atom         1           2           3           4           5           6           7           8           9          10
 IAtWgt=          12          12          12          19          12          12          19          12          12          12
 AtmWgt=  12.0000000  12.0000000  12.0000000  18.9984033  12.0000000  12.0000000  18.9984033  12.0000000  12.0000000  12.0000000
 NucSpn=           0           0           0           1           0           0           1           0           0           0
 AtZEff=  -0.0000000  -0.0000000  -0.0000000  -0.0000000  -0.0000000  -0.0000000  -0.0000000  -0.0000000  -0.0000000  -0.0000000
 NQMom=    0.0000000   0.0000000   0.0000000   0.0000000   0.0000000   0.0000000   0.0000000   0.0000000   0.0000000   0.0000000
 NMagM=    0.0000000   0.0000000   0.0000000   2.6288670   0.0000000   0.0000000   2.6288670   0.0000000   0.0000000   0.0000000
 AtZNuc=   6.0000000   6.0000000   6.0000000   9.0000000   6.0000000   6.0000000   9.0000000   6.0000000   6.0000000   6.0000000

  Atom        11          12          13          14          15          16          17          18          19          20
 IAtWgt=          19          12          12          32          12          12          12          19          12          12
 AtmWgt=  18.9984033  12.0000000  12.0000000  31.9720718  12.0000000  12.0000000  12.0000000  18.9984033  12.0000000  12.0000000
 NucSpn=           1           0           0           0           0           0           0           1           0           0
 AtZEff=  -0.0000000  -0.0000000  -0.0000000  -0.0000000  -0.0000000  -0.0000000  -0.0000000  -0.0000000  -0.0000000  -0.0000000
 NQMom=    0.0000000   0.0000000   0.0000000   0.0000000   0.0000000   0.0000000   0.0000000   0.0000000   0.0000000   0.0000000
 NMagM=    2.6288670   0.0000000   0.0000000   0.0000000   0.0000000   0.0000000   0.0000000   2.6288670   0.0000000   0.0000000
 AtZNuc=   9.0000000   6.0000000   6.0000000  16.0000000   6.0000000   6.0000000   6.0000000   9.0000000   6.0000000   6.0000000

  Atom        21          22          23          24          25          26          27          28          29          30
 IAtWgt=          19          12          12          12          19          12          12          32          12          12
 AtmWgt=  18.9984033  12.0000000  12.0000000  12.0000000  18.9984033  12.0000000  12.0000000  31.9720718  12.0000000  12.0000000
 NucSpn=           1           0           0           0           1           0           0           0           0           0
 AtZEff=  -0.0000000  -0.0000000  -0.0000000  -0.0000000  -0.0000000  -0.0000000  -0.0000000  -0.0000000  -0.0000000  -0.0000000
 NQMom=    0.0000000   0.0000000   0.0000000   0.0000000   0.0000000   0.0000000   0.0000000   0.0000000   0.0000000   0.0000000
 NMagM=    2.6288670   0.0000000   0.0000000   0.0000000   2.6288670   0.0000000   0.0000000   0.0000000   0.0000000   0.0000000
 AtZNuc=   9.0000000   6.0000000   6.0000000   6.0000000   9.0000000   6.0000000   6.0000000  16.0000000   6.0000000   6.0000000

  Atom        31          32          33          34          35          36          37          38          39          40
 IAtWgt=          12          19          12          12          19          12          12          12          19          12
 AtmWgt=  12.0000000  18.9984033  12.0000000  12.0000000  18.9984033  12.0000000  12.0000000  12.0000000  18.9984033  12.0000000
 NucSpn=           0           1           0           0           1           0           0           0           1           0
 AtZEff=  -0.0000000  -0.0000000  -0.0000000  -0.0000000  -0.0000000  -0.0000000  -0.0000000  -0.0000000  -0.0000000  -0.0000000
 NQMom=    0.0000000   0.0000000   0.0000000   0.0000000   0.0000000   0.0000000   0.0000000   0.0000000   0.0000000   0.0000000
 NMagM=    0.0000000   2.6288670   0.0000000   0.0000000   2.6288670   0.0000000   0.0000000   0.0000000   2.6288670   0.0000000
 AtZNuc=   6.0000000   9.0000000   6.0000000   6.0000000   9.0000000   6.0000000   6.0000000   6.0000000   9.0000000   6.0000000

  Atom        41          42          43          44          45          46          47          48          49          50
 IAtWgt=          12          32          12          12          12          19          12          12          19          12
 AtmWgt=  12.0000000  31.9720718  12.0000000  12.0000000  12.0000000  18.9984033  12.0000000  12.0000000  18.9984033  12.0000000
 NucSpn=           0           0           0           0           0           1           0           0           1           0
 AtZEff=  -0.0000000  -0.0000000  -0.0000000  -0.0000000  -0.0000000  -0.0000000  -0.0000000  -0.0000000  -0.0000000  -0.0000000
 NQMom=    0.0000000   0.0000000   0.0000000   0.0000000   0.0000000   0.0000000   0.0000000   0.0000000   0.0000000   0.0000000
 NMagM=    0.0000000   0.0000000   0.0000000   0.0000000   0.0000000   2.6288670   0.0000000   0.0000000   2.6288670   0.0000000
 AtZNuc=   6.0000000  16.0000000   6.0000000   6.0000000   6.0000000   9.0000000   6.0000000   6.0000000   9.0000000   6.0000000

  Atom        51          52          53          54          55          56          57          58          59          60
 IAtWgt=          12          12          19          12          12          32          12          12          12          19
 AtmWgt=  12.0000000  12.0000000  18.9984033  12.0000000  12.0000000  31.9720718  12.0000000  12.0000000  12.0000000  18.9984033
 NucSpn=           0           0           1           0           0           0           0           0           0           1
 AtZEff=  -0.0000000  -0.0000000  -0.0000000  -0.0000000  -0.0000000  -0.0000000  -0.0000000  -0.0000000  -0.0000000  -0.0000000
 NQMom=    0.0000000   0.0000000   0.0000000   0.0000000   0.0000000   0.0000000   0.0000000   0.0000000   0.0000000   0.0000000
 NMagM=    0.0000000   0.0000000   2.6288670   0.0000000   0.0000000   0.0000000   0.0000000   0.0000000   0.0000000   2.6288670
 AtZNuc=   6.0000000   6.0000000   9.0000000   6.0000000   6.0000000  16.0000000   6.0000000   6.0000000   6.0000000   9.0000000

  Atom        61          62          63          64          65          66          67          68          69          70
 IAtWgt=          12          12          19          12          12          12          19          12          12          32
 AtmWgt=  12.0000000  12.0000000  18.9984033  12.0000000  12.0000000  12.0000000  18.9984033  12.0000000  12.0000000  31.9720718
 NucSpn=           0           0           1           0           0           0           1           0           0           0
 AtZEff=  -0.0000000  -0.0000000  -0.0000000  -0.0000000  -0.0000000  -0.0000000  -0.0000000  -0.0000000  -0.0000000  -0.0000000
 NQMom=    0.0000000   0.0000000   0.0000000   0.0000000   0.0000000   0.0000000   0.0000000   0.0000000   0.0000000   0.0000000
 NMagM=    0.0000000   0.0000000   2.6288670   0.0000000   0.0000000   0.0000000   2.6288670   0.0000000   0.0000000   0.0000000
 AtZNuc=   6.0000000   6.0000000   9.0000000   6.0000000   6.0000000   6.0000000   9.0000000   6.0000000   6.0000000  16.0000000

  Atom        71          72          73          74          75          76          77          78          79          80
 IAtWgt=          12          12          12          19          12          12          19          12          12          12
 AtmWgt=  12.0000000  12.0000000  12.0000000  18.9984033  12.0000000  12.0000000  18.9984033  12.0000000  12.0000000  12.0000000
 NucSpn=           0           0           0           1           0           0           1           0           0           0
 AtZEff=  -0.0000000  -0.0000000  -0.0000000  -0.0000000  -0.0000000  -0.0000000  -0.0000000  -0.0000000  -0.0000000  -0.0000000
 NQMom=    0.0000000   0.0000000   0.0000000   0.0000000   0.0000000   0.0000000   0.0000000   0.0000000   0.0000000   0.0000000
 NMagM=    0.0000000   0.0000000   0.0000000   2.6288670   0.0000000   0.0000000   2.6288670   0.0000000   0.0000000   0.0000000
 AtZNuc=   6.0000000   6.0000000   6.0000000   9.0000000   6.0000000   6.0000000   9.0000000   6.0000000   6.0000000   6.0000000

  Atom        81          82          83          84          85          86          87          88          89          90
 IAtWgt=          19          12          12          32          12          12          12          19          12          12
 AtmWgt=  18.9984033  12.0000000  12.0000000  31.9720718  12.0000000  12.0000000  12.0000000  18.9984033  12.0000000  12.0000000
 NucSpn=           1           0           0           0           0           0           0           1           0           0
 AtZEff=  -0.0000000  -0.0000000  -0.0000000  -0.0000000  -0.0000000  -0.0000000  -0.0000000  -0.0000000  -0.0000000  -0.0000000
 NQMom=    0.0000000   0.0000000   0.0000000   0.0000000   0.0000000   0.0000000   0.0000000   0.0000000   0.0000000   0.0000000
 NMagM=    2.6288670   0.0000000   0.0000000   0.0000000   0.0000000   0.0000000   0.0000000   2.6288670   0.0000000   0.0000000
 AtZNuc=   9.0000000   6.0000000   6.0000000  16.0000000   6.0000000   6.0000000   6.0000000   9.0000000   6.0000000   6.0000000

  Atom        91          92          93          94          95          96          97          98          99         100
 IAtWgt=          19          12          12          12          19          12          12          32           1           1
 AtmWgt=  18.9984033  12.0000000  12.0000000  12.0000000  18.9984033  12.0000000  12.0000000  31.9720718   1.0078250   1.0078250
 NucSpn=           1           0           0           0           1           0           0           0           1           1
 AtZEff=  -0.0000000  -0.0000000  -0.0000000  -0.0000000  -0.0000000  -0.0000000  -0.0000000  -0.0000000  -0.0000000  -0.0000000
 NQMom=    0.0000000   0.0000000   0.0000000   0.0000000   0.0000000   0.0000000   0.0000000   0.0000000   0.0000000   0.0000000
 NMagM=    2.6288670   0.0000000   0.0000000   0.0000000   2.6288670   0.0000000   0.0000000   0.0000000   2.7928460   2.7928460
 AtZNuc=   9.0000000   6.0000000   6.0000000   6.0000000   9.0000000   6.0000000   6.0000000  16.0000000   1.0000000   1.0000000

  Atom       101         102         103         104         105         106         107         108         109         110
 IAtWgt=           1           1           1           1           1           1           1           1           1           1
 AtmWgt=   1.0078250   1.0078250   1.0078250   1.0078250   1.0078250   1.0078250   1.0078250   1.0078250   1.0078250   1.0078250
 NucSpn=           1           1           1           1           1           1           1           1           1           1
 AtZEff=  -0.0000000  -0.0000000  -0.0000000  -0.0000000  -0.0000000  -0.0000000  -0.0000000  -0.0000000  -0.0000000  -0.0000000
 NQMom=    0.0000000   0.0000000   0.0000000   0.0000000   0.0000000   0.0000000   0.0000000   0.0000000   0.0000000   0.0000000
 NMagM=    2.7928460   2.7928460   2.7928460   2.7928460   2.7928460   2.7928460   2.7928460   2.7928460   2.7928460   2.7928460
 AtZNuc=   1.0000000   1.0000000   1.0000000   1.0000000   1.0000000   1.0000000   1.0000000   1.0000000   1.0000000   1.0000000

  Atom       111         112         113         114         115         116         117         118         119         120
 IAtWgt=           1           1           1           1           1           1           1           1           1           1
 AtmWgt=   1.0078250   1.0078250   1.0078250   1.0078250   1.0078250   1.0078250   1.0078250   1.0078250   1.0078250   1.0078250
 NucSpn=           1           1           1           1           1           1           1           1           1           1
 AtZEff=  -0.0000000  -0.0000000  -0.0000000  -0.0000000  -0.0000000  -0.0000000  -0.0000000  -0.0000000  -0.0000000  -0.0000000
 NQMom=    0.0000000   0.0000000   0.0000000   0.0000000   0.0000000   0.0000000   0.0000000   0.0000000   0.0000000   0.0000000
 NMagM=    2.7928460   2.7928460   2.7928460   2.7928460   2.7928460   2.7928460   2.7928460   2.7928460   2.7928460   2.7928460
 AtZNuc=   1.0000000   1.0000000   1.0000000   1.0000000   1.0000000   1.0000000   1.0000000   1.0000000   1.0000000   1.0000000

  Atom       121
 IAtWgt=           1
 AtmWgt=   1.0078250
 NucSpn=           1
 AtZEff=  -0.0000000
 NQMom=    0.0000000
 NMagM=    2.7928460
 AtZNuc=   1.0000000
 Leave Link  101 at Thu Jul 23 18:44:41 2020, MaxMem=  4026531840 cpu:               3.4 elap:               0.5
 (Enter /opt/ohpc/pub/libs/gaussian/g16-A.03/sandybridge/g16/l103.exe)

 GradGradGradGradGradGradGradGradGradGradGradGradGradGradGradGradGradGrad
 Berny optimization.
 Initialization pass.
                           ----------------------------
                           !    Initial Parameters    !
                           ! (Angstroms and Degrees)  !
 --------------------------                            --------------------------
 ! Name  Definition              Value          Derivative Info.                !
 --------------------------------------------------------------------------------
 ! R1    R(1,2)                  1.4213         estimate D2E/DX2                !
 ! R2    R(1,8)                  1.3572         estimate D2E/DX2                !
 ! R3    R(1,99)                 1.1451         estimate D2E/DX2                !
 ! R4    R(2,3)                  1.3817         estimate D2E/DX2                !
 ! R5    R(2,100)                1.1014         estimate D2E/DX2                !
 ! R6    R(3,4)                  1.2953         estimate D2E/DX2                !
 ! R7    R(3,5)                  1.4292         estimate D2E/DX2                !
 ! R8    R(5,6)                  1.4109         estimate D2E/DX2                !
 ! R9    R(5,9)                  1.4666         estimate D2E/DX2                !
 ! R10   R(6,7)                  1.3755         estimate D2E/DX2                !
 ! R11   R(6,8)                  1.3729         estimate D2E/DX2                !
 ! R12   R(8,101)                1.1514         estimate D2E/DX2                !
 ! R13   R(9,10)                 1.3258         estimate D2E/DX2                !
 ! R14   R(9,14)                 1.752          estimate D2E/DX2                !
 ! R15   R(10,11)                1.4086         estimate D2E/DX2                !
 ! R16   R(10,12)                1.3819         estimate D2E/DX2                !
 ! R17   R(12,13)                1.401          estimate D2E/DX2                !
 ! R18   R(12,102)               1.0824         estimate D2E/DX2                !
 ! R19   R(13,14)                1.654          estimate D2E/DX2                !
 ! R20   R(13,15)                1.495          estimate D2E/DX2                !
 ! R21   R(15,16)                1.3416         estimate D2E/DX2                !
 ! R22   R(15,22)                1.4264         estimate D2E/DX2                !
 ! R23   R(16,17)                1.4215         estimate D2E/DX2                !
 ! R24   R(16,103)               1.1445         estimate D2E/DX2                !
 ! R25   R(17,18)                1.2507         estimate D2E/DX2                !
 ! R26   R(17,19)                1.4356         estimate D2E/DX2                !
 ! R27   R(19,20)                1.4637         estimate D2E/DX2                !
 ! R28   R(19,23)                1.4471         estimate D2E/DX2                !
 ! R29   R(20,21)                1.3547         estimate D2E/DX2                !
 ! R30   R(20,22)                1.3414         estimate D2E/DX2                !
 ! R31   R(22,104)               1.0873         estimate D2E/DX2                !
 ! R32   R(23,24)                1.3449         estimate D2E/DX2                !
 ! R33   R(23,28)                1.6706         estimate D2E/DX2                !
 ! R34   R(24,25)                1.3867         estimate D2E/DX2                !
 ! R35   R(24,26)                1.3721         estimate D2E/DX2                !
 ! R36   R(26,27)                1.4401         estimate D2E/DX2                !
 ! R37   R(26,105)               1.0595         estimate D2E/DX2                !
 ! R38   R(27,28)                1.6945         estimate D2E/DX2                !
 ! R39   R(27,29)                1.4533         estimate D2E/DX2                !
 ! R40   R(29,30)                1.3949         estimate D2E/DX2                !
 ! R41   R(29,36)                1.3476         estimate D2E/DX2                !
 ! R42   R(30,31)                1.4653         estimate D2E/DX2                !
 ! R43   R(30,106)               1.1067         estimate D2E/DX2                !
 ! R44   R(31,32)                1.2967         estimate D2E/DX2                !
 ! R45   R(31,33)                1.3378         estimate D2E/DX2                !
 ! R46   R(33,34)                1.3978         estimate D2E/DX2                !
 ! R47   R(33,37)                1.4833         estimate D2E/DX2                !
 ! R48   R(34,35)                1.3226         estimate D2E/DX2                !
 ! R49   R(34,36)                1.4748         estimate D2E/DX2                !
 ! R50   R(36,107)               1.0696         estimate D2E/DX2                !
 ! R51   R(37,38)                1.3909         estimate D2E/DX2                !
 ! R52   R(37,42)                1.694          estimate D2E/DX2                !
 ! R53   R(38,39)                1.339          estimate D2E/DX2                !
 ! R54   R(38,40)                1.394          estimate D2E/DX2                !
 ! R55   R(40,41)                1.4158         estimate D2E/DX2                !
 ! R56   R(40,108)               1.1139         estimate D2E/DX2                !
 ! R57   R(41,42)                1.6457         estimate D2E/DX2                !
 ! R58   R(41,43)                1.5139         estimate D2E/DX2                !
 ! R59   R(43,44)                1.3917         estimate D2E/DX2                !
 ! R60   R(43,50)                1.4609         estimate D2E/DX2                !
 ! R61   R(44,45)                1.3467         estimate D2E/DX2                !
 ! R62   R(44,109)               1.1085         estimate D2E/DX2                !
 ! R63   R(45,46)                1.3452         estimate D2E/DX2                !
 ! R64   R(45,47)                1.4256         estimate D2E/DX2                !
 ! R65   R(47,48)                1.4156         estimate D2E/DX2                !
 ! R66   R(47,51)                1.4767         estimate D2E/DX2                !
 ! R67   R(48,49)                1.3702         estimate D2E/DX2                !
 ! R68   R(48,50)                1.361          estimate D2E/DX2                !
 ! R69   R(50,110)               1.0182         estimate D2E/DX2                !
 ! R70   R(51,52)                1.3441         estimate D2E/DX2                !
 ! R71   R(51,56)                1.6905         estimate D2E/DX2                !
 ! R72   R(52,53)                1.4027         estimate D2E/DX2                !
 ! R73   R(52,54)                1.3785         estimate D2E/DX2                !
 ! R74   R(54,55)                1.3624         estimate D2E/DX2                !
 ! R75   R(54,111)               1.057          estimate D2E/DX2                !
 ! R76   R(55,56)                1.7115         estimate D2E/DX2                !
 ! R77   R(55,57)                1.474          estimate D2E/DX2                !
 ! R78   R(57,58)                1.3611         estimate D2E/DX2                !
 ! R79   R(57,64)                1.4412         estimate D2E/DX2                !
 ! R80   R(58,59)                1.3771         estimate D2E/DX2                !
 ! R81   R(58,112)               1.1415         estimate D2E/DX2                !
 ! R82   R(59,60)                1.3824         estimate D2E/DX2                !
 ! R83   R(59,61)                1.3769         estimate D2E/DX2                !
 ! R84   R(61,62)                1.4065         estimate D2E/DX2                !
 ! R85   R(61,65)                1.4057         estimate D2E/DX2                !
 ! R86   R(62,63)                1.4196         estimate D2E/DX2                !
 ! R87   R(62,64)                1.3729         estimate D2E/DX2                !
 ! R88   R(64,113)               1.125          estimate D2E/DX2                !
 ! R89   R(65,66)                1.4408         estimate D2E/DX2                !
 ! R90   R(65,70)                1.7051         estimate D2E/DX2                !
 ! R91   R(66,67)                1.2692         estimate D2E/DX2                !
 ! R92   R(66,68)                1.4184         estimate D2E/DX2                !
 ! R93   R(68,69)                1.4171         estimate D2E/DX2                !
 ! R94   R(68,114)               1.078          estimate D2E/DX2                !
 ! R95   R(69,70)                1.7475         estimate D2E/DX2                !
 ! R96   R(69,71)                1.4573         estimate D2E/DX2                !
 ! R97   R(71,72)                1.4088         estimate D2E/DX2                !
 ! R98   R(71,78)                1.3756         estimate D2E/DX2                !
 ! R99   R(72,73)                1.4049         estimate D2E/DX2                !
 ! R100  R(72,115)               1.1147         estimate D2E/DX2                !
 ! R101  R(73,74)                1.404          estimate D2E/DX2                !
 ! R102  R(73,75)                1.3571         estimate D2E/DX2                !
 ! R103  R(75,76)                1.3997         estimate D2E/DX2                !
 ! R104  R(75,79)                1.476          estimate D2E/DX2                !
 ! R105  R(76,77)                1.3601         estimate D2E/DX2                !
 ! R106  R(76,78)                1.3995         estimate D2E/DX2                !
 ! R107  R(78,116)               1.1018         estimate D2E/DX2                !
 ! R108  R(79,80)                1.3439         estimate D2E/DX2                !
 ! R109  R(79,84)                1.7302         estimate D2E/DX2                !
 ! R110  R(80,81)                1.4309         estimate D2E/DX2                !
 ! R111  R(80,82)                1.4564         estimate D2E/DX2                !
 ! R112  R(82,83)                1.3373         estimate D2E/DX2                !
 ! R113  R(82,117)               1.0547         estimate D2E/DX2                !
 ! R114  R(83,84)                1.7312         estimate D2E/DX2                !
 ! R115  R(83,85)                1.424          estimate D2E/DX2                !
 ! R116  R(85,86)                1.3889         estimate D2E/DX2                !
 ! R117  R(85,92)                1.3912         estimate D2E/DX2                !
 ! R118  R(86,87)                1.4117         estimate D2E/DX2                !
 ! R119  R(86,118)               1.0868         estimate D2E/DX2                !
 ! R120  R(87,88)                1.2867         estimate D2E/DX2                !
 ! R121  R(87,89)                1.4447         estimate D2E/DX2                !
 ! R122  R(89,90)                1.3568         estimate D2E/DX2                !
 ! R123  R(89,93)                1.4719         estimate D2E/DX2                !
 ! R124  R(90,91)                1.3473         estimate D2E/DX2                !
 ! R125  R(90,92)                1.3982         estimate D2E/DX2                !
 ! R126  R(92,119)               1.0989         estimate D2E/DX2                !
 ! R127  R(93,94)                1.3643         estimate D2E/DX2                !
 ! R128  R(93,98)                1.6683         estimate D2E/DX2                !
 ! R129  R(94,95)                1.3099         estimate D2E/DX2                !
 ! R130  R(94,96)                1.4472         estimate D2E/DX2                !
 ! R131  R(96,97)                1.4035         estimate D2E/DX2                !
 ! R132  R(96,120)               1.0681         estimate D2E/DX2                !
 ! R133  R(97,98)                1.6956         estimate D2E/DX2                !
 ! R134  R(97,121)               1.1111         estimate D2E/DX2                !
 ! A1    A(2,1,8)              119.8433         estimate D2E/DX2                !
 ! A2    A(2,1,99)             116.3484         estimate D2E/DX2                !
 ! A3    A(8,1,99)             123.4511         estimate D2E/DX2                !
 ! A4    A(1,2,3)              117.9727         estimate D2E/DX2                !
 ! A5    A(1,2,100)            119.2461         estimate D2E/DX2                !
 ! A6    A(3,2,100)            121.4444         estimate D2E/DX2                !
 ! A7    A(2,3,4)              116.1401         estimate D2E/DX2                !
 ! A8    A(2,3,5)              122.7967         estimate D2E/DX2                !
 ! A9    A(4,3,5)              120.1967         estimate D2E/DX2                !
 ! A10   A(3,5,6)              114.7783         estimate D2E/DX2                !
 ! A11   A(3,5,9)              123.6865         estimate D2E/DX2                !
 ! A12   A(6,5,9)              121.3117         estimate D2E/DX2                !
 ! A13   A(5,6,7)              117.4094         estimate D2E/DX2                !
 ! A14   A(5,6,8)              122.4208         estimate D2E/DX2                !
 ! A15   A(7,6,8)              119.9132         estimate D2E/DX2                !
 ! A16   A(1,8,6)              121.1951         estimate D2E/DX2                !
 ! A17   A(1,8,101)            120.8463         estimate D2E/DX2                !
 ! A18   A(6,8,101)            117.5531         estimate D2E/DX2                !
 ! A19   A(5,9,10)             132.1411         estimate D2E/DX2                !
 ! A20   A(5,9,14)             118.0976         estimate D2E/DX2                !
 ! A21   A(10,9,14)            109.7613         estimate D2E/DX2                !
 ! A22   A(9,10,11)            120.9035         estimate D2E/DX2                !
 ! A23   A(9,10,12)            117.518          estimate D2E/DX2                !
 ! A24   A(11,10,12)           121.5785         estimate D2E/DX2                !
 ! A25   A(10,12,13)           106.834          estimate D2E/DX2                !
 ! A26   A(10,12,102)          126.7105         estimate D2E/DX2                !
 ! A27   A(13,12,102)          126.3145         estimate D2E/DX2                !
 ! A28   A(12,13,14)           115.8744         estimate D2E/DX2                !
 ! A29   A(12,13,15)           126.8333         estimate D2E/DX2                !
 ! A30   A(14,13,15)           117.2742         estimate D2E/DX2                !
 ! A31   A(9,14,13)             89.8959         estimate D2E/DX2                !
 ! A32   A(13,15,16)           124.7258         estimate D2E/DX2                !
 ! A33   A(13,15,22)           120.4034         estimate D2E/DX2                !
 ! A34   A(16,15,22)           114.7872         estimate D2E/DX2                !
 ! A35   A(15,16,17)           125.9412         estimate D2E/DX2                !
 ! A36   A(15,16,103)          117.9309         estimate D2E/DX2                !
 ! A37   A(17,16,103)          116.1009         estimate D2E/DX2                !
 ! A38   A(16,17,18)           120.1446         estimate D2E/DX2                !
 ! A39   A(16,17,19)           118.5252         estimate D2E/DX2                !
 ! A40   A(18,17,19)           121.3184         estimate D2E/DX2                !
 ! A41   A(17,19,20)           115.3478         estimate D2E/DX2                !
 ! A42   A(17,19,23)           120.2798         estimate D2E/DX2                !
 ! A43   A(20,19,23)           124.3444         estimate D2E/DX2                !
 ! A44   A(19,20,21)           115.7812         estimate D2E/DX2                !
 ! A45   A(19,20,22)           121.2838         estimate D2E/DX2                !
 ! A46   A(21,20,22)           122.935          estimate D2E/DX2                !
 ! A47   A(15,22,20)           123.9992         estimate D2E/DX2                !
 ! A48   A(15,22,104)          119.304          estimate D2E/DX2                !
 ! A49   A(20,22,104)          116.685          estimate D2E/DX2                !
 ! A50   A(19,23,24)           128.0565         estimate D2E/DX2                !
 ! A51   A(19,23,28)           120.3113         estimate D2E/DX2                !
 ! A52   A(24,23,28)           111.5931         estimate D2E/DX2                !
 ! A53   A(23,24,25)           125.7356         estimate D2E/DX2                !
 ! A54   A(23,24,26)           116.8356         estimate D2E/DX2                !
 ! A55   A(25,24,26)           117.4283         estimate D2E/DX2                !
 ! A56   A(24,26,27)           107.6498         estimate D2E/DX2                !
 ! A57   A(24,26,105)          130.3451         estimate D2E/DX2                !
 ! A58   A(27,26,105)          121.8919         estimate D2E/DX2                !
 ! A59   A(26,27,28)           111.8349         estimate D2E/DX2                !
 ! A60   A(26,27,29)           125.651          estimate D2E/DX2                !
 ! A61   A(28,27,29)           122.3311         estimate D2E/DX2                !
 ! A62   A(23,28,27)            92.0681         estimate D2E/DX2                !
 ! A63   A(27,29,30)           119.6134         estimate D2E/DX2                !
 ! A64   A(27,29,36)           122.7154         estimate D2E/DX2                !
 ! A65   A(30,29,36)           117.3561         estimate D2E/DX2                !
 ! A66   A(29,30,31)           120.3983         estimate D2E/DX2                !
 ! A67   A(29,30,106)          125.8403         estimate D2E/DX2                !
 ! A68   A(31,30,106)          113.5222         estimate D2E/DX2                !
 ! A69   A(30,31,32)           117.4991         estimate D2E/DX2                !
 ! A70   A(30,31,33)           121.1731         estimate D2E/DX2                !
 ! A71   A(32,31,33)           120.7733         estimate D2E/DX2                !
 ! A72   A(31,33,34)           119.5697         estimate D2E/DX2                !
 ! A73   A(31,33,37)           120.2533         estimate D2E/DX2                !
 ! A74   A(34,33,37)           120.0813         estimate D2E/DX2                !
 ! A75   A(33,34,35)           125.0742         estimate D2E/DX2                !
 ! A76   A(33,34,36)           118.0307         estimate D2E/DX2                !
 ! A77   A(35,34,36)           116.8813         estimate D2E/DX2                !
 ! A78   A(29,36,34)           123.0078         estimate D2E/DX2                !
 ! A79   A(29,36,107)          120.539          estimate D2E/DX2                !
 ! A80   A(34,36,107)          116.4463         estimate D2E/DX2                !
 ! A81   A(33,37,38)           126.1299         estimate D2E/DX2                !
 ! A82   A(33,37,42)           122.8434         estimate D2E/DX2                !
 ! A83   A(38,37,42)           110.9145         estimate D2E/DX2                !
 ! A84   A(37,38,39)           123.4257         estimate D2E/DX2                !
 ! A85   A(37,38,40)           112.3306         estimate D2E/DX2                !
 ! A86   A(39,38,40)           124.2415         estimate D2E/DX2                !
 ! A87   A(38,40,41)           111.0666         estimate D2E/DX2                !
 ! A88   A(38,40,108)          123.8547         estimate D2E/DX2                !
 ! A89   A(41,40,108)          124.9134         estimate D2E/DX2                !
 ! A90   A(40,41,42)           112.056          estimate D2E/DX2                !
 ! A91   A(40,41,43)           124.5177         estimate D2E/DX2                !
 ! A92   A(42,41,43)           123.3847         estimate D2E/DX2                !
 ! A93   A(37,42,41)            93.4672         estimate D2E/DX2                !
 ! A94   A(41,43,44)           123.8283         estimate D2E/DX2                !
 ! A95   A(41,43,50)           117.9142         estimate D2E/DX2                !
 ! A96   A(44,43,50)           117.9848         estimate D2E/DX2                !
 ! A97   A(43,44,45)           123.0016         estimate D2E/DX2                !
 ! A98   A(43,44,109)          114.2194         estimate D2E/DX2                !
 ! A99   A(45,44,109)          122.7767         estimate D2E/DX2                !
 ! A100  A(44,45,46)           117.0217         estimate D2E/DX2                !
 ! A101  A(44,45,47)           121.7904         estimate D2E/DX2                !
 ! A102  A(46,45,47)           120.9276         estimate D2E/DX2                !
 ! A103  A(45,47,48)           114.1977         estimate D2E/DX2                !
 ! A104  A(45,47,51)           122.079          estimate D2E/DX2                !
 ! A105  A(48,47,51)           123.6915         estimate D2E/DX2                !
 ! A106  A(47,48,49)           115.7112         estimate D2E/DX2                !
 ! A107  A(47,48,50)           126.1922         estimate D2E/DX2                !
 ! A108  A(49,48,50)           117.8094         estimate D2E/DX2                !
 ! A109  A(43,50,48)           116.345          estimate D2E/DX2                !
 ! A110  A(43,50,110)          121.2908         estimate D2E/DX2                !
 ! A111  A(48,50,110)          122.0599         estimate D2E/DX2                !
 ! A112  A(47,51,52)           130.893          estimate D2E/DX2                !
 ! A113  A(47,51,56)           116.7539         estimate D2E/DX2                !
 ! A114  A(52,51,56)           112.3075         estimate D2E/DX2                !
 ! A115  A(51,52,53)           121.8325         estimate D2E/DX2                !
 ! A116  A(51,52,54)           114.4849         estimate D2E/DX2                !
 ! A117  A(53,52,54)           123.6514         estimate D2E/DX2                !
 ! A118  A(52,54,55)           109.9256         estimate D2E/DX2                !
 ! A119  A(52,54,111)          124.8351         estimate D2E/DX2                !
 ! A120  A(55,54,111)          124.9435         estimate D2E/DX2                !
 ! A121  A(54,55,56)           113.364          estimate D2E/DX2                !
 ! A122  A(54,55,57)           126.3895         estimate D2E/DX2                !
 ! A123  A(56,55,57)           120.1042         estimate D2E/DX2                !
 ! A124  A(51,56,55)            89.7822         estimate D2E/DX2                !
 ! A125  A(55,57,58)           124.4283         estimate D2E/DX2                !
 ! A126  A(55,57,64)           121.9269         estimate D2E/DX2                !
 ! A127  A(58,57,64)           113.5653         estimate D2E/DX2                !
 ! A128  A(57,58,59)           125.5376         estimate D2E/DX2                !
 ! A129  A(57,58,112)          118.7921         estimate D2E/DX2                !
 ! A130  A(59,58,112)          115.4924         estimate D2E/DX2                !
 ! A131  A(58,59,60)           122.1007         estimate D2E/DX2                !
 ! A132  A(58,59,61)           121.2213         estimate D2E/DX2                !
 ! A133  A(60,59,61)           116.5032         estimate D2E/DX2                !
 ! A134  A(59,61,62)           115.0499         estimate D2E/DX2                !
 ! A135  A(59,61,65)           124.7641         estimate D2E/DX2                !
 ! A136  A(62,61,65)           119.7356         estimate D2E/DX2                !
 ! A137  A(61,62,63)           119.2539         estimate D2E/DX2                !
 ! A138  A(61,62,64)           123.1743         estimate D2E/DX2                !
 ! A139  A(63,62,64)           117.1135         estimate D2E/DX2                !
 ! A140  A(57,64,62)           120.6685         estimate D2E/DX2                !
 ! A141  A(57,64,113)          120.5997         estimate D2E/DX2                !
 ! A142  A(62,64,113)          118.4101         estimate D2E/DX2                !
 ! A143  A(61,65,66)           131.111          estimate D2E/DX2                !
 ! A144  A(61,65,70)           119.0195         estimate D2E/DX2                !
 ! A145  A(66,65,70)           109.808          estimate D2E/DX2                !
 ! A146  A(65,66,67)           123.6792         estimate D2E/DX2                !
 ! A147  A(65,66,68)           114.4489         estimate D2E/DX2                !
 ! A148  A(67,66,68)           121.8716         estimate D2E/DX2                !
 ! A149  A(66,68,69)           110.6153         estimate D2E/DX2                !
 ! A150  A(66,68,114)          127.0575         estimate D2E/DX2                !
 ! A151  A(69,68,114)          122.3268         estimate D2E/DX2                !
 ! A152  A(68,69,70)           111.6445         estimate D2E/DX2                !
 ! A153  A(68,69,71)           128.2306         estimate D2E/DX2                !
 ! A154  A(70,69,71)           119.7379         estimate D2E/DX2                !
 ! A155  A(65,70,69)            93.4412         estimate D2E/DX2                !
 ! A156  A(69,71,72)           120.3166         estimate D2E/DX2                !
 ! A157  A(69,71,78)           123.3424         estimate D2E/DX2                !
 ! A158  A(72,71,78)           116.1322         estimate D2E/DX2                !
 ! A159  A(71,72,73)           120.4086         estimate D2E/DX2                !
 ! A160  A(71,72,115)          120.9748         estimate D2E/DX2                !
 ! A161  A(73,72,115)          118.4435         estimate D2E/DX2                !
 ! A162  A(72,73,74)           117.9396         estimate D2E/DX2                !
 ! A163  A(72,73,75)           123.922          estimate D2E/DX2                !
 ! A164  A(74,73,75)           118.0901         estimate D2E/DX2                !
 ! A165  A(73,75,76)           114.8837         estimate D2E/DX2                !
 ! A166  A(73,75,79)           124.845          estimate D2E/DX2                !
 ! A167  A(76,75,79)           119.925          estimate D2E/DX2                !
 ! A168  A(75,76,77)           117.153          estimate D2E/DX2                !
 ! A169  A(75,76,78)           122.5703         estimate D2E/DX2                !
 ! A170  A(77,76,78)           119.9906         estimate D2E/DX2                !
 ! A171  A(71,78,76)           121.7825         estimate D2E/DX2                !
 ! A172  A(71,78,116)          118.956          estimate D2E/DX2                !
 ! A173  A(76,78,116)          119.2193         estimate D2E/DX2                !
 ! A174  A(75,79,80)           129.9933         estimate D2E/DX2                !
 ! A175  A(75,79,84)           120.0872         estimate D2E/DX2                !
 ! A176  A(80,79,84)           109.8322         estimate D2E/DX2                !
 ! A177  A(79,80,81)           123.4345         estimate D2E/DX2                !
 ! A178  A(79,80,82)           115.4758         estimate D2E/DX2                !
 ! A179  A(81,80,82)           121.0514         estimate D2E/DX2                !
 ! A180  A(80,82,83)           109.4799         estimate D2E/DX2                !
 ! A181  A(80,82,117)          121.4589         estimate D2E/DX2                !
 ! A182  A(83,82,117)          129.0534         estimate D2E/DX2                !
 ! A183  A(82,83,84)           113.5966         estimate D2E/DX2                !
 ! A184  A(82,83,85)           128.3703         estimate D2E/DX2                !
 ! A185  A(84,83,85)           117.9188         estimate D2E/DX2                !
 ! A186  A(79,84,83)            91.5681         estimate D2E/DX2                !
 ! A187  A(83,85,86)           126.7349         estimate D2E/DX2                !
 ! A188  A(83,85,92)           119.8002         estimate D2E/DX2                !
 ! A189  A(86,85,92)           113.4356         estimate D2E/DX2                !
 ! A190  A(85,86,87)           127.4967         estimate D2E/DX2                !
 ! A191  A(85,86,118)          118.5113         estimate D2E/DX2                !
 ! A192  A(87,86,118)          113.9806         estimate D2E/DX2                !
 ! A193  A(86,87,88)           124.6579         estimate D2E/DX2                !
 ! A194  A(86,87,89)           115.5873         estimate D2E/DX2                !
 ! A195  A(88,87,89)           119.6794         estimate D2E/DX2                !
 ! A196  A(87,89,90)           117.6184         estimate D2E/DX2                !
 ! A197  A(87,89,93)           120.5585         estimate D2E/DX2                !
 ! A198  A(90,89,93)           121.3256         estimate D2E/DX2                !
 ! A199  A(89,90,91)           117.7075         estimate D2E/DX2                !
 ! A200  A(89,90,92)           123.6743         estimate D2E/DX2                !
 ! A201  A(91,90,92)           118.5792         estimate D2E/DX2                !
 ! A202  A(85,92,90)           122.0044         estimate D2E/DX2                !
 ! A203  A(85,92,119)          122.9271         estimate D2E/DX2                !
 ! A204  A(90,92,119)          114.8651         estimate D2E/DX2                !
 ! A205  A(89,93,94)           125.148          estimate D2E/DX2                !
 ! A206  A(89,93,98)           122.4798         estimate D2E/DX2                !
 ! A207  A(94,93,98)           112.0148         estimate D2E/DX2                !
 ! A208  A(93,94,95)           124.5001         estimate D2E/DX2                !
 ! A209  A(93,94,96)           112.2967         estimate D2E/DX2                !
 ! A210  A(95,94,96)           123.0859         estimate D2E/DX2                !
 ! A211  A(94,96,97)           110.7248         estimate D2E/DX2                !
 ! A212  A(94,96,120)          128.4885         estimate D2E/DX2                !
 ! A213  A(97,96,120)          120.2426         estimate D2E/DX2                !
 ! A214  A(96,97,98)           110.2961         estimate D2E/DX2                !
 ! A215  A(96,97,121)          125.5439         estimate D2E/DX2                !
 ! A216  A(98,97,121)          123.6444         estimate D2E/DX2                !
 ! A217  A(93,98,97)            94.1035         estimate D2E/DX2                !
 ! D1    D(8,1,2,3)             -7.5612         estimate D2E/DX2                !
 ! D2    D(8,1,2,100)         -174.5573         estimate D2E/DX2                !
 ! D3    D(99,1,2,3)           179.0644         estimate D2E/DX2                !
 ! D4    D(99,1,2,100)          12.0683         estimate D2E/DX2                !
 ! D5    D(2,1,8,6)             -0.7754         estimate D2E/DX2                !
 ! D6    D(2,1,8,101)         -173.2877         estimate D2E/DX2                !
 ! D7    D(99,1,8,6)           172.1062         estimate D2E/DX2                !
 ! D8    D(99,1,8,101)          -0.4062         estimate D2E/DX2                !
 ! D9    D(1,2,3,4)           -178.6863         estimate D2E/DX2                !
 ! D10   D(1,2,3,5)             11.97           estimate D2E/DX2                !
 ! D11   D(100,2,3,4)          -11.991          estimate D2E/DX2                !
 ! D12   D(100,2,3,5)          178.6653         estimate D2E/DX2                !
 ! D13   D(2,3,5,6)             -7.6203         estimate D2E/DX2                !
 ! D14   D(2,3,5,9)            177.7596         estimate D2E/DX2                !
 ! D15   D(4,3,5,6)           -176.5469         estimate D2E/DX2                !
 ! D16   D(4,3,5,9)              8.833          estimate D2E/DX2                !
 ! D17   D(3,5,6,7)           -175.3236         estimate D2E/DX2                !
 ! D18   D(3,5,6,8)             -1.1541         estimate D2E/DX2                !
 ! D19   D(9,5,6,7)             -0.5629         estimate D2E/DX2                !
 ! D20   D(9,5,6,8)            173.6066         estimate D2E/DX2                !
 ! D21   D(3,5,9,10)           121.2541         estimate D2E/DX2                !
 ! D22   D(3,5,9,14)           -58.778          estimate D2E/DX2                !
 ! D23   D(6,5,9,10)           -53.0274         estimate D2E/DX2                !
 ! D24   D(6,5,9,14)           126.9404         estimate D2E/DX2                !
 ! D25   D(5,6,8,1)              5.2529         estimate D2E/DX2                !
 ! D26   D(5,6,8,101)          178.0034         estimate D2E/DX2                !
 ! D27   D(7,6,8,1)            179.281          estimate D2E/DX2                !
 ! D28   D(7,6,8,101)           -7.9686         estimate D2E/DX2                !
 ! D29   D(5,9,10,11)           -3.1531         estimate D2E/DX2                !
 ! D30   D(5,9,10,12)          176.9499         estimate D2E/DX2                !
 ! D31   D(14,9,10,11)         176.8771         estimate D2E/DX2                !
 ! D32   D(14,9,10,12)          -3.02           estimate D2E/DX2                !
 ! D33   D(5,9,14,13)         -179.0115         estimate D2E/DX2                !
 ! D34   D(10,9,14,13)           0.9632         estimate D2E/DX2                !
 ! D35   D(9,10,12,13)           3.7805         estimate D2E/DX2                !
 ! D36   D(9,10,12,102)        179.6625         estimate D2E/DX2                !
 ! D37   D(11,10,12,13)       -176.1158         estimate D2E/DX2                !
 ! D38   D(11,10,12,102)        -0.2338         estimate D2E/DX2                !
 ! D39   D(10,12,13,14)         -2.9135         estimate D2E/DX2                !
 ! D40   D(10,12,13,15)        178.6876         estimate D2E/DX2                !
 ! D41   D(102,12,13,14)      -178.8165         estimate D2E/DX2                !
 ! D42   D(102,12,13,15)         2.7845         estimate D2E/DX2                !
 ! D43   D(12,13,14,9)           1.206          estimate D2E/DX2                !
 ! D44   D(15,13,14,9)         179.7643         estimate D2E/DX2                !
 ! D45   D(12,13,15,16)       -130.0261         estimate D2E/DX2                !
 ! D46   D(12,13,15,22)         46.4714         estimate D2E/DX2                !
 ! D47   D(14,13,15,16)         51.5946         estimate D2E/DX2                !
 ! D48   D(14,13,15,22)       -131.9078         estimate D2E/DX2                !
 ! D49   D(13,15,16,17)       -179.402          estimate D2E/DX2                !
 ! D50   D(13,15,16,103)        -1.3707         estimate D2E/DX2                !
 ! D51   D(22,15,16,17)          3.9251         estimate D2E/DX2                !
 ! D52   D(22,15,16,103)      -178.0436         estimate D2E/DX2                !
 ! D53   D(13,15,22,20)        179.3652         estimate D2E/DX2                !
 ! D54   D(13,15,22,104)         0.6614         estimate D2E/DX2                !
 ! D55   D(16,15,22,20)         -3.8052         estimate D2E/DX2                !
 ! D56   D(16,15,22,104)       177.4911         estimate D2E/DX2                !
 ! D57   D(15,16,17,18)        176.4396         estimate D2E/DX2                !
 ! D58   D(15,16,17,19)         -2.3294         estimate D2E/DX2                !
 ! D59   D(103,16,17,18)        -1.6236         estimate D2E/DX2                !
 ! D60   D(103,16,17,19)       179.6075         estimate D2E/DX2                !
 ! D61   D(16,17,19,20)          0.2532         estimate D2E/DX2                !
 ! D62   D(16,17,19,23)        178.4079         estimate D2E/DX2                !
 ! D63   D(18,17,19,20)       -178.5006         estimate D2E/DX2                !
 ! D64   D(18,17,19,23)         -0.346          estimate D2E/DX2                !
 ! D65   D(17,19,20,21)        179.8136         estimate D2E/DX2                !
 ! D66   D(17,19,20,22)         -0.2361         estimate D2E/DX2                !
 ! D67   D(23,19,20,21)          1.7437         estimate D2E/DX2                !
 ! D68   D(23,19,20,22)       -178.306          estimate D2E/DX2                !
 ! D69   D(17,19,23,24)        127.0669         estimate D2E/DX2                !
 ! D70   D(17,19,23,28)        -55.4078         estimate D2E/DX2                !
 ! D71   D(20,19,23,24)        -54.953          estimate D2E/DX2                !
 ! D72   D(20,19,23,28)        122.5723         estimate D2E/DX2                !
 ! D73   D(19,20,22,15)          2.1003         estimate D2E/DX2                !
 ! D74   D(19,20,22,104)      -179.1648         estimate D2E/DX2                !
 ! D75   D(21,20,22,15)       -177.953          estimate D2E/DX2                !
 ! D76   D(21,20,22,104)         0.7819         estimate D2E/DX2                !
 ! D77   D(19,23,24,25)         -2.6141         estimate D2E/DX2                !
 ! D78   D(19,23,24,26)        177.6563         estimate D2E/DX2                !
 ! D79   D(28,23,24,25)        179.6834         estimate D2E/DX2                !
 ! D80   D(28,23,24,26)         -0.0461         estimate D2E/DX2                !
 ! D81   D(19,23,28,27)       -177.1421         estimate D2E/DX2                !
 ! D82   D(24,23,28,27)          0.7624         estimate D2E/DX2                !
 ! D83   D(23,24,26,27)         -0.8658         estimate D2E/DX2                !
 ! D84   D(23,24,26,105)      -176.9736         estimate D2E/DX2                !
 ! D85   D(25,24,26,27)        179.3815         estimate D2E/DX2                !
 ! D86   D(25,24,26,105)         3.2737         estimate D2E/DX2                !
 ! D87   D(24,26,27,28)          1.3941         estimate D2E/DX2                !
 ! D88   D(24,26,27,29)        176.5485         estimate D2E/DX2                !
 ! D89   D(105,26,27,28)       177.9008         estimate D2E/DX2                !
 ! D90   D(105,26,27,29)        -6.9449         estimate D2E/DX2                !
 ! D91   D(26,27,28,23)         -1.2566         estimate D2E/DX2                !
 ! D92   D(29,27,28,23)       -176.5971         estimate D2E/DX2                !
 ! D93   D(26,27,29,30)       -127.4081         estimate D2E/DX2                !
 ! D94   D(26,27,29,36)         59.2126         estimate D2E/DX2                !
 ! D95   D(28,27,29,30)         47.2673         estimate D2E/DX2                !
 ! D96   D(28,27,29,36)       -126.112          estimate D2E/DX2                !
 ! D97   D(27,29,30,31)       -176.6494         estimate D2E/DX2                !
 ! D98   D(27,29,30,106)         9.3457         estimate D2E/DX2                !
 ! D99   D(36,29,30,31)         -2.9198         estimate D2E/DX2                !
 ! D100  D(36,29,30,106)      -176.9247         estimate D2E/DX2                !
 ! D101  D(27,29,36,34)        173.9005         estimate D2E/DX2                !
 ! D102  D(27,29,36,107)        -5.1063         estimate D2E/DX2                !
 ! D103  D(30,29,36,34)          0.3805         estimate D2E/DX2                !
 ! D104  D(30,29,36,107)      -178.6262         estimate D2E/DX2                !
 ! D105  D(29,30,31,32)        178.6289         estimate D2E/DX2                !
 ! D106  D(29,30,31,33)          7.1056         estimate D2E/DX2                !
 ! D107  D(106,30,31,32)        -6.6694         estimate D2E/DX2                !
 ! D108  D(106,30,31,33)      -178.1927         estimate D2E/DX2                !
 ! D109  D(30,31,33,34)         -8.272          estimate D2E/DX2                !
 ! D110  D(30,31,33,37)        175.281          estimate D2E/DX2                !
 ! D111  D(32,31,33,34)       -179.5187         estimate D2E/DX2                !
 ! D112  D(32,31,33,37)          4.0343         estimate D2E/DX2                !
 ! D113  D(31,33,34,35)       -175.853          estimate D2E/DX2                !
 ! D114  D(31,33,34,36)          5.5422         estimate D2E/DX2                !
 ! D115  D(37,33,34,35)          0.6001         estimate D2E/DX2                !
 ! D116  D(37,33,34,36)       -178.0046         estimate D2E/DX2                !
 ! D117  D(31,33,37,38)        -58.7281         estimate D2E/DX2                !
 ! D118  D(31,33,37,42)        125.4797         estimate D2E/DX2                !
 ! D119  D(34,33,37,38)        124.8431         estimate D2E/DX2                !
 ! D120  D(34,33,37,42)        -50.9491         estimate D2E/DX2                !
 ! D121  D(33,34,36,29)         -1.5634         estimate D2E/DX2                !
 ! D122  D(33,34,36,107)       177.4811         estimate D2E/DX2                !
 ! D123  D(35,34,36,29)        179.7168         estimate D2E/DX2                !
 ! D124  D(35,34,36,107)        -1.2387         estimate D2E/DX2                !
 ! D125  D(33,37,38,39)          2.6792         estimate D2E/DX2                !
 ! D126  D(33,37,38,40)       -176.8137         estimate D2E/DX2                !
 ! D127  D(42,37,38,39)        178.8953         estimate D2E/DX2                !
 ! D128  D(42,37,38,40)         -0.5976         estimate D2E/DX2                !
 ! D129  D(33,37,42,41)        178.9485         estimate D2E/DX2                !
 ! D130  D(38,37,42,41)          2.5859         estimate D2E/DX2                !
 ! D131  D(37,38,40,41)         -2.1917         estimate D2E/DX2                !
 ! D132  D(37,38,40,108)      -177.7155         estimate D2E/DX2                !
 ! D133  D(39,38,40,41)        178.3202         estimate D2E/DX2                !
 ! D134  D(39,38,40,108)         2.7965         estimate D2E/DX2                !
 ! D135  D(38,40,41,42)          4.1386         estimate D2E/DX2                !
 ! D136  D(38,40,41,43)       -178.1438         estimate D2E/DX2                !
 ! D137  D(108,40,41,42)       179.6053         estimate D2E/DX2                !
 ! D138  D(108,40,41,43)        -2.6772         estimate D2E/DX2                !
 ! D139  D(40,41,42,37)         -3.8572         estimate D2E/DX2                !
 ! D140  D(43,41,42,37)        178.395          estimate D2E/DX2                !
 ! D141  D(40,41,43,44)         42.9013         estimate D2E/DX2                !
 ! D142  D(40,41,43,50)       -130.9682         estimate D2E/DX2                !
 ! D143  D(42,41,43,44)       -139.6322         estimate D2E/DX2                !
 ! D144  D(42,41,43,50)         46.4982         estimate D2E/DX2                !
 ! D145  D(41,43,44,45)       -174.0291         estimate D2E/DX2                !
 ! D146  D(41,43,44,109)         6.5133         estimate D2E/DX2                !
 ! D147  D(50,43,44,45)         -0.1636         estimate D2E/DX2                !
 ! D148  D(50,43,44,109)      -179.6212         estimate D2E/DX2                !
 ! D149  D(41,43,50,48)        178.8927         estimate D2E/DX2                !
 ! D150  D(41,43,50,110)        -7.3181         estimate D2E/DX2                !
 ! D151  D(44,43,50,48)          4.6583         estimate D2E/DX2                !
 ! D152  D(44,43,50,110)       178.4475         estimate D2E/DX2                !
 ! D153  D(43,44,45,46)       -175.1695         estimate D2E/DX2                !
 ! D154  D(43,44,45,47)         -0.9811         estimate D2E/DX2                !
 ! D155  D(109,44,45,46)         4.2422         estimate D2E/DX2                !
 ! D156  D(109,44,45,47)       178.4306         estimate D2E/DX2                !
 ! D157  D(44,45,47,48)         -2.2813         estimate D2E/DX2                !
 ! D158  D(44,45,47,51)        179.6992         estimate D2E/DX2                !
 ! D159  D(46,45,47,48)        171.6827         estimate D2E/DX2                !
 ! D160  D(46,45,47,51)         -6.3368         estimate D2E/DX2                !
 ! D161  D(45,47,48,49)       -178.7921         estimate D2E/DX2                !
 ! D162  D(45,47,48,50)          7.533          estimate D2E/DX2                !
 ! D163  D(51,47,48,49)         -0.8089         estimate D2E/DX2                !
 ! D164  D(51,47,48,50)       -174.4839         estimate D2E/DX2                !
 ! D165  D(45,47,51,52)        118.3309         estimate D2E/DX2                !
 ! D166  D(45,47,51,56)        -64.3466         estimate D2E/DX2                !
 ! D167  D(48,47,51,52)        -59.4979         estimate D2E/DX2                !
 ! D168  D(48,47,51,56)        117.8247         estimate D2E/DX2                !
 ! D169  D(47,48,50,43)         -8.7355         estimate D2E/DX2                !
 ! D170  D(47,48,50,110)       177.5272         estimate D2E/DX2                !
 ! D171  D(49,48,50,43)        177.708          estimate D2E/DX2                !
 ! D172  D(49,48,50,110)         3.9707         estimate D2E/DX2                !
 ! D173  D(47,51,52,53)         -4.1094         estimate D2E/DX2                !
 ! D174  D(47,51,52,54)        177.8529         estimate D2E/DX2                !
 ! D175  D(56,51,52,53)        178.4747         estimate D2E/DX2                !
 ! D176  D(56,51,52,54)          0.4371         estimate D2E/DX2                !
 ! D177  D(47,51,56,55)       -179.9877         estimate D2E/DX2                !
 ! D178  D(52,51,56,55)         -2.1752         estimate D2E/DX2                !
 ! D179  D(51,52,54,55)          2.1531         estimate D2E/DX2                !
 ! D180  D(51,52,54,111)       176.1548         estimate D2E/DX2                !
 ! D181  D(53,52,54,55)       -175.844          estimate D2E/DX2                !
 ! D182  D(53,52,54,111)        -1.8423         estimate D2E/DX2                !
 ! D183  D(52,54,55,56)         -3.8016         estimate D2E/DX2                !
 ! D184  D(52,54,55,57)       -179.4335         estimate D2E/DX2                !
 ! D185  D(111,54,55,56)      -177.7953         estimate D2E/DX2                !
 ! D186  D(111,54,55,57)         6.5727         estimate D2E/DX2                !
 ! D187  D(54,55,56,51)          3.4733         estimate D2E/DX2                !
 ! D188  D(57,55,56,51)        179.4093         estimate D2E/DX2                !
 ! D189  D(54,55,57,58)         38.1033         estimate D2E/DX2                !
 ! D190  D(54,55,57,64)       -138.4419         estimate D2E/DX2                !
 ! D191  D(56,55,57,58)       -137.2611         estimate D2E/DX2                !
 ! D192  D(56,55,57,64)         46.1937         estimate D2E/DX2                !
 ! D193  D(55,57,58,59)        177.4805         estimate D2E/DX2                !
 ! D194  D(55,57,58,112)         2.5582         estimate D2E/DX2                !
 ! D195  D(64,57,58,59)         -5.7182         estimate D2E/DX2                !
 ! D196  D(64,57,58,112)       179.3595         estimate D2E/DX2                !
 ! D197  D(55,57,64,62)       -175.6833         estimate D2E/DX2                !
 ! D198  D(55,57,64,113)        -2.2998         estimate D2E/DX2                !
 ! D199  D(58,57,64,62)          7.4252         estimate D2E/DX2                !
 ! D200  D(58,57,64,113)      -179.1913         estimate D2E/DX2                !
 ! D201  D(57,58,59,60)       -179.5365         estimate D2E/DX2                !
 ! D202  D(57,58,59,61)          5.4375         estimate D2E/DX2                !
 ! D203  D(112,58,59,60)        -4.4661         estimate D2E/DX2                !
 ! D204  D(112,58,59,61)      -179.492          estimate D2E/DX2                !
 ! D205  D(58,59,61,62)         -5.9605         estimate D2E/DX2                !
 ! D206  D(58,59,61,65)       -178.2023         estimate D2E/DX2                !
 ! D207  D(60,59,61,62)        178.7473         estimate D2E/DX2                !
 ! D208  D(60,59,61,65)          6.5055         estimate D2E/DX2                !
 ! D209  D(59,61,62,63)       -179.8378         estimate D2E/DX2                !
 ! D210  D(59,61,62,64)          8.1612         estimate D2E/DX2                !
 ! D211  D(65,61,62,63)         -7.1753         estimate D2E/DX2                !
 ! D212  D(65,61,62,64)       -179.1763         estimate D2E/DX2                !
 ! D213  D(59,61,65,66)        113.3405         estimate D2E/DX2                !
 ! D214  D(59,61,65,70)        -69.8307         estimate D2E/DX2                !
 ! D215  D(62,61,65,66)        -58.563          estimate D2E/DX2                !
 ! D216  D(62,61,65,70)        118.2658         estimate D2E/DX2                !
 ! D217  D(61,62,64,57)         -9.2853         estimate D2E/DX2                !
 ! D218  D(61,62,64,113)       177.189          estimate D2E/DX2                !
 ! D219  D(63,62,64,57)        178.5541         estimate D2E/DX2                !
 ! D220  D(63,62,64,113)         5.0284         estimate D2E/DX2                !
 ! D221  D(61,65,66,67)         -1.5768         estimate D2E/DX2                !
 ! D222  D(61,65,66,68)        178.6168         estimate D2E/DX2                !
 ! D223  D(70,65,66,67)       -178.6296         estimate D2E/DX2                !
 ! D224  D(70,65,66,68)          1.564          estimate D2E/DX2                !
 ! D225  D(61,65,70,69)       -179.3462         estimate D2E/DX2                !
 ! D226  D(66,65,70,69)         -1.8853         estimate D2E/DX2                !
 ! D227  D(65,66,68,69)         -0.2262         estimate D2E/DX2                !
 ! D228  D(65,66,68,114)       179.5594         estimate D2E/DX2                !
 ! D229  D(67,66,68,69)        179.9634         estimate D2E/DX2                !
 ! D230  D(67,66,68,114)        -0.251          estimate D2E/DX2                !
 ! D231  D(66,68,69,70)         -1.1962         estimate D2E/DX2                !
 ! D232  D(66,68,69,71)       -173.9361         estimate D2E/DX2                !
 ! D233  D(114,68,69,70)       179.0063         estimate D2E/DX2                !
 ! D234  D(114,68,69,71)         6.2664         estimate D2E/DX2                !
 ! D235  D(68,69,70,65)          1.8243         estimate D2E/DX2                !
 ! D236  D(71,69,70,65)        175.2595         estimate D2E/DX2                !
 ! D237  D(68,69,71,72)         30.6941         estimate D2E/DX2                !
 ! D238  D(68,69,71,78)       -143.849          estimate D2E/DX2                !
 ! D239  D(70,69,71,72)       -141.5312         estimate D2E/DX2                !
 ! D240  D(70,69,71,78)         43.9257         estimate D2E/DX2                !
 ! D241  D(69,71,72,73)       -178.1061         estimate D2E/DX2                !
 ! D242  D(69,71,72,115)         6.7487         estimate D2E/DX2                !
 ! D243  D(78,71,72,73)         -3.1828         estimate D2E/DX2                !
 ! D244  D(78,71,72,115)      -178.328          estimate D2E/DX2                !
 ! D245  D(69,71,78,76)        177.4327         estimate D2E/DX2                !
 ! D246  D(69,71,78,116)        -0.1841         estimate D2E/DX2                !
 ! D247  D(72,71,78,76)          2.6791         estimate D2E/DX2                !
 ! D248  D(72,71,78,116)      -174.9377         estimate D2E/DX2                !
 ! D249  D(71,72,73,74)       -172.349          estimate D2E/DX2                !
 ! D250  D(71,72,73,75)          5.071          estimate D2E/DX2                !
 ! D251  D(115,72,73,74)         2.9173         estimate D2E/DX2                !
 ! D252  D(115,72,73,75)      -179.6626         estimate D2E/DX2                !
 ! D253  D(72,73,75,76)         -5.7271         estimate D2E/DX2                !
 ! D254  D(72,73,75,79)       -178.9322         estimate D2E/DX2                !
 ! D255  D(74,73,75,76)        171.6894         estimate D2E/DX2                !
 ! D256  D(74,73,75,79)         -1.5158         estimate D2E/DX2                !
 ! D257  D(73,75,76,77)        178.9224         estimate D2E/DX2                !
 ! D258  D(73,75,76,78)          5.074          estimate D2E/DX2                !
 ! D259  D(79,75,76,77)         -7.5103         estimate D2E/DX2                !
 ! D260  D(79,75,76,78)        178.6412         estimate D2E/DX2                !
 ! D261  D(73,75,79,80)        115.5141         estimate D2E/DX2                !
 ! D262  D(73,75,79,84)        -60.7193         estimate D2E/DX2                !
 ! D263  D(76,75,79,80)        -57.3721         estimate D2E/DX2                !
 ! D264  D(76,75,79,84)        126.3946         estimate D2E/DX2                !
 ! D265  D(75,76,78,71)         -3.8368         estimate D2E/DX2                !
 ! D266  D(75,76,78,116)       173.7739         estimate D2E/DX2                !
 ! D267  D(77,76,78,71)       -177.5163         estimate D2E/DX2                !
 ! D268  D(77,76,78,116)         0.0943         estimate D2E/DX2                !
 ! D269  D(75,79,80,81)          4.3699         estimate D2E/DX2                !
 ! D270  D(75,79,80,82)       -177.8653         estimate D2E/DX2                !
 ! D271  D(84,79,80,81)       -179.0944         estimate D2E/DX2                !
 ! D272  D(84,79,80,82)         -1.3296         estimate D2E/DX2                !
 ! D273  D(75,79,84,83)        178.7945         estimate D2E/DX2                !
 ! D274  D(80,79,84,83)          1.8614         estimate D2E/DX2                !
 ! D275  D(79,80,82,83)         -0.1718         estimate D2E/DX2                !
 ! D276  D(79,80,82,117)       178.9004         estimate D2E/DX2                !
 ! D277  D(81,80,82,83)        177.6509         estimate D2E/DX2                !
 ! D278  D(81,80,82,117)        -3.2768         estimate D2E/DX2                !
 ! D279  D(80,82,83,84)          1.6287         estimate D2E/DX2                !
 ! D280  D(80,82,83,85)        177.6149         estimate D2E/DX2                !
 ! D281  D(117,82,83,84)      -177.3522         estimate D2E/DX2                !
 ! D282  D(117,82,83,85)        -1.366          estimate D2E/DX2                !
 ! D283  D(82,83,84,79)         -2.0668         estimate D2E/DX2                !
 ! D284  D(85,83,84,79)       -178.506          estimate D2E/DX2                !
 ! D285  D(82,83,85,86)       -141.7754         estimate D2E/DX2                !
 ! D286  D(82,83,85,92)         40.3323         estimate D2E/DX2                !
 ! D287  D(84,83,85,86)         34.0616         estimate D2E/DX2                !
 ! D288  D(84,83,85,92)       -143.8307         estimate D2E/DX2                !
 ! D289  D(83,85,86,87)       -178.7686         estimate D2E/DX2                !
 ! D290  D(83,85,86,118)         2.5406         estimate D2E/DX2                !
 ! D291  D(92,85,86,87)         -0.7621         estimate D2E/DX2                !
 ! D292  D(92,85,86,118)      -179.4529         estimate D2E/DX2                !
 ! D293  D(83,85,92,90)        179.4254         estimate D2E/DX2                !
 ! D294  D(83,85,92,119)        -6.0253         estimate D2E/DX2                !
 ! D295  D(86,85,92,90)          1.2664         estimate D2E/DX2                !
 ! D296  D(86,85,92,119)       175.8156         estimate D2E/DX2                !
 ! D297  D(85,86,87,88)       -179.0638         estimate D2E/DX2                !
 ! D298  D(85,86,87,89)         -2.2447         estimate D2E/DX2                !
 ! D299  D(118,86,87,88)        -0.323          estimate D2E/DX2                !
 ! D300  D(118,86,87,89)       176.4961         estimate D2E/DX2                !
 ! D301  D(86,87,89,90)          4.7564         estimate D2E/DX2                !
 ! D302  D(86,87,89,93)        176.771          estimate D2E/DX2                !
 ! D303  D(88,87,89,90)       -178.255          estimate D2E/DX2                !
 ! D304  D(88,87,89,93)         -6.2404         estimate D2E/DX2                !
 ! D305  D(87,89,90,91)        177.6834         estimate D2E/DX2                !
 ! D306  D(87,89,90,92)         -4.6239         estimate D2E/DX2                !
 ! D307  D(93,89,90,91)          5.7336         estimate D2E/DX2                !
 ! D308  D(93,89,90,92)       -176.5737         estimate D2E/DX2                !
 ! D309  D(87,89,93,94)        113.8936         estimate D2E/DX2                !
 ! D310  D(87,89,93,98)        -58.6867         estimate D2E/DX2                !
[...]
  Beta virt. eigenvalues --    2.00680   2.00962   2.01404   2.01746   2.01990
  Beta virt. eigenvalues --    2.02153   2.02337   2.02641   2.03112   2.03205
  Beta virt. eigenvalues --    2.03498   2.04018   2.04468   2.04561   2.04689
  Beta virt. eigenvalues --    2.05159   2.05580   2.05975   2.07024   2.08768
  Beta virt. eigenvalues --    2.09166   2.09511   2.10265   2.11022   2.11151
  Beta virt. eigenvalues --    2.11239   2.11353   2.11589   2.11671   2.11747
  Beta virt. eigenvalues --    2.12185   2.12369   2.13167   2.13475   2.13648
  Beta virt. eigenvalues --    2.13987   2.14016   2.14391   2.14726   2.15002
  Beta virt. eigenvalues --    2.15496   2.15836   2.16441   2.16788   2.17140
  Beta virt. eigenvalues --    2.17207   2.17262   2.18034   2.20390   2.20526
  Beta virt. eigenvalues --    2.20738   2.20883   2.20954   2.21315   2.23579
  Beta virt. eigenvalues --    2.24363   2.24518   2.24790   2.24821   2.25012
  Beta virt. eigenvalues --    2.25397   2.25786   2.26019   2.26103   2.26149
  Beta virt. eigenvalues --    2.26259   2.26305   2.26514   2.27957   2.28081
  Beta virt. eigenvalues --    2.28153   2.28223   2.28358   2.28648   2.28967
  Beta virt. eigenvalues --    2.30062   2.30245   2.30394   2.30893   2.31320
  Beta virt. eigenvalues --    2.31690   2.31902   2.35274   2.36143   2.36201
  Beta virt. eigenvalues --    2.36486   2.36872   2.37167   2.38731   2.38975
  Beta virt. eigenvalues --    2.39348   2.39568   2.40482   2.40763   2.40875
  Beta virt. eigenvalues --    2.41009   2.41070   2.41561   2.41771   2.42629
  Beta virt. eigenvalues --    2.43441   2.43547   2.47206   2.47348   2.47621
  Beta virt. eigenvalues --    2.48020   2.48215   2.48520   2.49019   2.49552
  Beta virt. eigenvalues --    2.50176   2.50805   2.51515   2.52201   2.52825
  Beta virt. eigenvalues --    2.53348   2.53619   2.53801   2.56733   2.56779
  Beta virt. eigenvalues --    2.56851   2.56957   2.57018   2.57157   2.57200
  Beta virt. eigenvalues --    2.57880   2.58029   2.58142   2.58174   2.58210
  Beta virt. eigenvalues --    2.58261   2.58322   2.60779   2.61245   2.61466
  Beta virt. eigenvalues --    2.61740   2.61895   2.61936   2.62181   2.62459
  Beta virt. eigenvalues --    2.62715   2.62834   2.62989   2.63158   2.63305
  Beta virt. eigenvalues --    2.63352   2.65646   2.65914   2.66345   2.66863
  Beta virt. eigenvalues --    2.67299   2.67607   2.67757   2.71243   2.73470
  Beta virt. eigenvalues --    2.73556   2.73648   2.73819   2.73974   2.74057
  Beta virt. eigenvalues --    2.75666   2.75766   2.75870   2.75970   2.76091
  Beta virt. eigenvalues --    2.76220   2.81178   2.82393   2.83793   2.84195
  Beta virt. eigenvalues --    2.84692   2.85178   2.85573   2.85804   3.00883
  Beta virt. eigenvalues --    3.01452   3.02155   3.02380   3.02945   3.03443
  Beta virt. eigenvalues --    3.06400   3.28932   3.29280   3.29729   3.30203
  Beta virt. eigenvalues --    3.30603   3.30843   3.38075   3.60949   3.60967
  Beta virt. eigenvalues --    3.60987   3.61043   3.61078   3.61371   3.61432
  Beta virt. eigenvalues --    3.62075   3.62085   3.62098   3.62117   3.62255
  Beta virt. eigenvalues --    3.62259   3.62329   3.62333   3.62352   3.62376
  Beta virt. eigenvalues --    3.62433   3.62709   3.62729   3.62773   3.63758
  Beta virt. eigenvalues --    3.63795   3.63832   3.63847   3.63972   3.63976
  Beta virt. eigenvalues --    3.64202   3.64909   3.64942   3.64972   3.65003
  Beta virt. eigenvalues --    3.65058   3.65181   3.65410   3.65857   3.65895
  Beta virt. eigenvalues --    3.65926   3.65958   3.66006   3.66323   3.66412
  Beta virt. eigenvalues --    3.79456   3.79472   3.79493   3.79533   3.79585
  Beta virt. eigenvalues --    3.79797   3.79947   3.81735   3.81773   3.81810
  Beta virt. eigenvalues --    3.81830   3.81913   3.82090   3.82266   3.82755
  Beta virt. eigenvalues --    3.82777   3.82798   3.82808   3.82924   3.83008
  Beta virt. eigenvalues --    3.83284   4.00571   4.00692   4.00812   4.00878
  Beta virt. eigenvalues --    4.00983   4.01058   4.01128   4.03816   4.03840
  Beta virt. eigenvalues --    4.03863   4.03888   4.03942   4.03956   4.04115
  Beta virt. eigenvalues --    4.04173   4.04220   4.04267   4.04314   4.04380
  Beta virt. eigenvalues --    4.04420   4.04595   4.16033   4.16072   4.16108
  Beta virt. eigenvalues --    4.16137   4.16173   4.16220   4.16533   4.22496
  Beta virt. eigenvalues --    4.22558   4.22676   4.22891   4.23004   4.23100
  Beta virt. eigenvalues --    4.23232   4.29637   4.29751   4.29874   4.29984
  Beta virt. eigenvalues --    4.30049   4.30305   4.30668
          Condensed to atoms (all electrons):
          Atomic-Atomic Spin Densities.
 Mulliken charges and spin densities:
               1          2
     1  C    0.037818   0.000000
     2  C    0.003514  -0.000000
     3  C    0.116543  -0.000000
     4  F   -0.116673   0.000000
     5  C   -0.072147   0.000000
     6  C    0.116022  -0.000000
     7  F   -0.111706   0.000000
     8  C    0.002502  -0.000000
     9  C   -0.178203  -0.000000
    10  C    0.153381   0.000000
    11  F   -0.110580  -0.000000
    12  C    0.023376  -0.000000
    13  C   -0.150425  -0.000000
    14  S    0.204624   0.000000
    15  C    0.073915  -0.000000
    16  C   -0.004571   0.000000
    17  C    0.122259   0.000000
    18  F   -0.112948  -0.000000
    19  C   -0.064146  -0.000000
    20  C    0.125532  -0.000000
    21  F   -0.108872   0.000000
    22  C   -0.007220   0.000000
    23  C   -0.181434  -0.000000
    24  C    0.150951   0.000000
    25  F   -0.110002  -0.000000
    26  C    0.024573  -0.000000
    27  C   -0.149951   0.000000
    28  S    0.207284   0.000000
    29  C    0.073115   0.000000
    30  C   -0.005432   0.000000
    31  C    0.121614  -0.000000
    32  F   -0.107731   0.000000
    33  C   -0.064089  -0.000000
    34  C    0.126411   0.000000
    35  F   -0.113412   0.000000
    36  C   -0.005824  -0.000000
    37  C   -0.181527   0.000000
    38  C    0.151283   0.000000
    39  F   -0.109526  -0.000000
    40  C    0.024589  -0.000000
    41  C   -0.149686   0.000000
    42  S    0.206784  -0.000000
    43  C    0.073099  -0.000000
    44  C   -0.005812   0.000000
    45  C    0.126616   0.000000
    46  F   -0.113279   0.000000
    47  C   -0.064180  -0.000000
    48  C    0.121633   0.000000
    49  F   -0.107710  -0.000000
    50  C   -0.005536  -0.000000
    51  C   -0.181713   0.000000
    52  C    0.151538  -0.000000
    53  F   -0.109571  -0.000000
    54  C    0.024579  -0.000000
    55  C   -0.149651   0.000000
    56  S    0.206678  -0.000000
    57  C    0.073330  -0.000000
    58  C   -0.005973  -0.000000
    59  C    0.126586   0.000000
    60  F   -0.113222  -0.000000
    61  C   -0.064215  -0.000000
    62  C    0.121766  -0.000000
    63  F   -0.107707  -0.000000
    64  C   -0.005704   0.000000
    65  C   -0.181790   0.000000
    66  C    0.151327  -0.000000
    67  F   -0.109715   0.000000
    68  C    0.024547   0.000000
    69  C   -0.149512  -0.000000
    70  S    0.206753   0.000000
    71  C    0.072910  -0.000000
    72  C   -0.006055  -0.000000
    73  C    0.126509   0.000000
    74  F   -0.113282  -0.000000
    75  C   -0.063831  -0.000000
    76  C    0.121589  -0.000000
    77  F   -0.107716   0.000000
    78  C   -0.005721   0.000000
    79  C   -0.182134   0.000000
    80  C    0.151222  -0.000000
    81  F   -0.110055  -0.000000
    82  C    0.024967   0.000000
    83  C   -0.148792  -0.000000
    84  S    0.204409  -0.000000
    85  C    0.071752  -0.000000
    86  C   -0.006307   0.000000
    87  C    0.123392   0.000000
    88  F   -0.112691  -0.000000
    89  C   -0.057313   0.000000
    90  C    0.126640   0.000000
    91  F   -0.109141  -0.000000
    92  C   -0.008515  -0.000000
    93  C   -0.190764  -0.000000
    94  C    0.134238   0.000000
    95  F   -0.114903  -0.000000
    96  C    0.043587  -0.000000
    97  C   -0.125995   0.000000
    98  S    0.194662   0.000000
    99  H    0.011583   0.000000
   100  H    0.012934  -0.000000
   101  H    0.013528   0.000000
   102  H    0.011806  -0.000000
   103  H    0.014099  -0.000000
   104  H    0.006588  -0.000000
   105  H    0.011722  -0.000000
   106  H    0.014566   0.000000
   107  H    0.006376  -0.000000
   108  H    0.011905  -0.000000
   109  H    0.006444  -0.000000
   110  H    0.014407  -0.000000
   111  H    0.012005  -0.000000
   112  H    0.006405   0.000000
   113  H    0.014318  -0.000000
   114  H    0.011822  -0.000000
   115  H    0.006123   0.000000
   116  H    0.014066   0.000000
   117  H    0.012333  -0.000000
   118  H    0.012638   0.000000
   119  H    0.005473   0.000000
   120  H    0.013279  -0.000000
   121  H    0.039768  -0.000000
 Sum of Mulliken charges =  -0.00000   0.00000
 Mulliken charges and spin densities with hydrogens summed into heavy atoms:
               1          2
     1  C    0.049401   0.000000
     2  C    0.016448  -0.000000
     3  C    0.116543  -0.000000
     4  F   -0.116673   0.000000
     5  C   -0.072147   0.000000
     6  C    0.116022  -0.000000
     7  F   -0.111706   0.000000
     8  C    0.016030  -0.000000
     9  C   -0.178203  -0.000000
    10  C    0.153381   0.000000
    11  F   -0.110580  -0.000000
    12  C    0.035183  -0.000000
    13  C   -0.150425  -0.000000
    14  S    0.204624   0.000000
    15  C    0.073915  -0.000000
    16  C    0.009528  -0.000000
    17  C    0.122259   0.000000
    18  F   -0.112948  -0.000000
    19  C   -0.064146  -0.000000
    20  C    0.125532  -0.000000
    21  F   -0.108872   0.000000
    22  C   -0.000632   0.000000
    23  C   -0.181434  -0.000000
    24  C    0.150951   0.000000
    25  F   -0.110002  -0.000000
    26  C    0.036295  -0.000000
    27  C   -0.149951   0.000000
    28  S    0.207284   0.000000
    29  C    0.073115   0.000000
    30  C    0.009133   0.000000
    31  C    0.121614  -0.000000
    32  F   -0.107731   0.000000
    33  C   -0.064089  -0.000000
    34  C    0.126411   0.000000
    35  F   -0.113412   0.000000
    36  C    0.000553  -0.000000
    37  C   -0.181527   0.000000
    38  C    0.151283   0.000000
    39  F   -0.109526  -0.000000
    40  C    0.036495  -0.000000
    41  C   -0.149686   0.000000
    42  S    0.206784  -0.000000
    43  C    0.073099  -0.000000
    44  C    0.000632   0.000000
    45  C    0.126616   0.000000
    46  F   -0.113279   0.000000
    47  C   -0.064180  -0.000000
    48  C    0.121633   0.000000
    49  F   -0.107710  -0.000000
    50  C    0.008871  -0.000000
    51  C   -0.181713   0.000000
    52  C    0.151538  -0.000000
    53  F   -0.109571  -0.000000
    54  C    0.036584  -0.000000
    55  C   -0.149651   0.000000
    56  S    0.206678  -0.000000
    57  C    0.073330  -0.000000
    58  C    0.000431  -0.000000
    59  C    0.126586   0.000000
    60  F   -0.113222  -0.000000
    61  C   -0.064215  -0.000000
    62  C    0.121766  -0.000000
    63  F   -0.107707  -0.000000
    64  C    0.008614   0.000000
    65  C   -0.181790   0.000000
    66  C    0.151327  -0.000000
    67  F   -0.109715   0.000000
    68  C    0.036369   0.000000
    69  C   -0.149512  -0.000000
    70  S    0.206753   0.000000
    71  C    0.072910  -0.000000
    72  C    0.000068  -0.000000
    73  C    0.126509   0.000000
    74  F   -0.113282  -0.000000
    75  C   -0.063831  -0.000000
    76  C    0.121589  -0.000000
    77  F   -0.107716   0.000000
    78  C    0.008345   0.000000
    79  C   -0.182134   0.000000
    80  C    0.151222  -0.000000
    81  F   -0.110055  -0.000000
    82  C    0.037300  -0.000000
    83  C   -0.148792  -0.000000
    84  S    0.204409  -0.000000
    85  C    0.071752  -0.000000
    86  C    0.006331   0.000000
    87  C    0.123392   0.000000
    88  F   -0.112691  -0.000000
    89  C   -0.057313   0.000000
    90  C    0.126640   0.000000
    91  F   -0.109141  -0.000000
    92  C   -0.003042  -0.000000
    93  C   -0.190764  -0.000000
    94  C    0.134238   0.000000
    95  F   -0.114903  -0.000000
    96  C    0.056866  -0.000000
    97  C   -0.086228   0.000000
    98  S    0.194662   0.000000
 Electronic spatial extent (au):  <R**2>=         717398.3089
 Charge=             -0.0000 electrons
 Dipole moment (field-independent basis, Debye):
    X=             -3.1519    Y=              1.3819    Z=             -0.5964  Tot=              3.4929
 Quadrupole moment (field-independent basis, Debye-Ang):
   XX=           -443.6817   YY=           -573.7530   ZZ=           -587.4724
   XY=            -33.9174   XZ=            -30.5131   YZ=              0.1693
 Traceless Quadrupole moment (field-independent basis, Debye-Ang):
   XX=             91.2873   YY=            -38.7840   ZZ=            -52.5033
   XY=            -33.9174   XZ=            -30.5131   YZ=              0.1693
 Octapole moment (field-independent basis, Debye-Ang**2):
  XXX=          -1752.1122  YYY=             -1.9657  ZZZ=             12.5552  XYY=           -293.4195
  XXY=           1351.4477  XXZ=           -341.4418  XZZ=             58.6528  YZZ=              2.9615
  YYZ=             17.2000  XYZ=           -173.8342
 Hexadecapole moment (field-independent basis, Debye-Ang**3):
 XXXX=        -735350.9296 YYYY=          -7836.7739 ZZZZ=          -3439.8609 XXXY=         -29560.9484
 XXXZ=         -22680.1600 YYYX=           -613.8250 YYYZ=             53.8914 ZZZX=            295.9321
 ZZZY=            -18.9254 XXYY=        -151412.2724 XXZZ=        -154489.0871 YYZZ=          -1860.2977
 XXYZ=           1159.6723 YYXZ=           -101.5209 ZZXY=            -65.9617
 N-N= 1.534776620993D+04 E-N=-4.853116396620D+04  KE= 7.527736745323D+03
 Leave Link  601 at Fri Jul 24 00:15:42 2020, MaxMem=  4026531840 cpu:              15.4 elap:               2.3
 (Enter /opt/ohpc/pub/libs/gaussian/g16-A.03/sandybridge/g16/l9999.exe)

 Test job not archived.
 1\1\GINC-SKYLAKE025\FOpt\ULC-wPBE\CC-pVDZ\C70H23F21S7\RDU230\24-Jul-20
 20\0\\#P uLC-wPBE/cc-pVDZ iop(3/107=0298000000, 3/108=0298000000) opt\
 \H23 C70 S7 F21\\0,1\C,-26.6415282493,3.2723280448,1.8667494761\C,-25.
 6358239831,2.8964958573,2.7547589943\C,-24.573790011,2.1431034519,2.27
 67172752\F,-23.6011455145,1.7811882832,3.1336688262\C,-24.4596262046,1
 .7399239791,0.9410215393\C,-25.4907705488,2.1556020831,0.0890334331\F,
 -25.419225746,1.822990518,-1.2092738614\C,-26.5752686666,2.9044759655,
 0.5251779334\C,-23.3345582619,0.9302456481,0.4499595578\C,-23.38833788
 71,-0.1865110516,-0.3448866183\F,-24.539118971,-0.7359559697,-0.752045
 0657\C,-22.1312182059,-0.7434052403,-0.689284231\C,-21.0955980928,-0.0
 312738019,-0.137203265\S,-21.6776668794,1.31135887,0.7870896182\C,-19.
 6513302936,-0.3010828987,-0.2555149904\C,-18.7657787957,0.0395105152,0
 .77459581\C,-17.4164387819,-0.2383598592,0.6307902099\F,-16.5857899195
 ,0.0959009065,1.6341929375\C,-16.8708144041,-0.8567014716,-0.499865070
 9\C,-17.7892078137,-1.1691492181,-1.5103659996\F,-17.3301378018,-1.727
 7263276,-2.640201072\C,-19.146735322,-0.9086957889,-1.4116113513\C,-15
 .4397457577,-1.1614812138,-0.6315160222\C,-14.8675146929,-2.3322745261
 ,-1.0614942887\F,-15.5824532153,-3.417051766,-1.3835163608\C,-13.45146
 21736,-2.3271164839,-1.116129668\C,-12.9352386152,-1.1208399401,-0.712
 1650614\S,-14.1911594779,-0.0112175395,-0.2803605637\C,-11.5164156869,
 -0.7316097092,-0.6208036249\C,-11.0801524806,0.1899737552,0.3383164537
 \C,-9.7371997523,0.5281645739,0.4009242888\F,-9.3433878802,1.391751902
 3,1.3481831536\C,-8.7697964297,-0.0043108417,-0.4602089733\C,-9.248865
 3965,-0.9280731391,-1.3966311631\F,-8.3683820241,-1.4815884747,-2.2494
 895372\C,-10.5803604691,-1.2947867412,-1.4974520549\C,-7.3566140408,0.
 3881636134,-0.3766039914\C,-6.8428051991,1.6555599358,-0.2632776307\F,
 -7.6070870594,2.754224154,-0.2669361099\C,-5.4306206597,1.7276407856,-
 0.1689600518\C,-4.8573228289,0.4811276222,-0.2165157911\S,-6.055969755
 8,-0.7580168616,-0.367656257\C,-3.423572946,0.1437764119,-0.1573019682
 \C,-2.5431023011,0.961766201,0.5620649046\C,-1.1972777149,0.6384500118
 ,0.6050135138\F,-0.371081219,1.4379802579,1.3028615255\C,-0.6504077058
 ,-0.482302052,-0.031026594\C,-1.5637268543,-1.2674796479,-0.7453597935
 \F,-1.1035199859,-2.3368672688,-1.4107847118\C,-2.9184457479,-0.982374
 4211,-0.8177300381\C,0.7765934936,-0.8239428266,0.039990277\C,1.333035
 6213,-2.0525885136,0.2927624806\F,0.6029206855,-3.1393449569,0.5704496
 44\C,2.749433896,-2.0898153137,0.2679627234\C,3.2820700586,-0.85469797
 81,-0.0068979615\S,2.0409710156,0.3291002626,-0.2381213548\C,4.7063585
 053,-0.4883830218,-0.1079255155\C,5.641139578,-1.4356296055,-0.5446176
 648\C,6.9776832256,-1.0829500904,-0.6273666661\F,7.8566973592,-2.00902
 49551,-1.0498724457\C,7.4633216247,0.1895116844,-0.3037544403\C,6.4967
 458835,1.1028738307,0.1349063842\F,6.8957951346,2.3307456232,0.4971946
 681\C,5.148875413,0.7945475231,0.2352537691\C,8.8821775565,0.554204677
 5,-0.4131649118\C,9.4165359507,1.6878651736,-0.9719962826\F,8.67120591
 22,2.6286364614,-1.5642449203\C,10.8287697215,1.7852198716,-0.90520215
 64\C,11.3810709888,0.6934480599,-0.2825337997\S,10.1628705182,-0.42945
 74627,0.2176346963\C,12.8082954108,0.4236937043,-0.0308443516\C,13.695
 3274176,1.4890720639,0.1687649595\C,15.0352020228,1.2237510341,0.39701
 73017\F,15.8675780183,2.2629292272,0.5869709271\C,15.5696860163,-0.069
 0127603,0.4504770035\C,14.6501101198,-1.1034521665,0.2376496149\F,15.0
 985494248,-2.3671922591,0.2375734648\C,13.3009229982,-0.8860663266,0.0
 043771012\C,16.9903465621,-0.3357431516,0.7123531042\C,17.5252351529,-
 1.2553882365,1.5789616041\F,16.7755148684,-2.0297477676,2.3726190561\C
 ,18.9411718131,-1.3126217286,1.5998042534\C,19.4957410412,-0.408776682
 1,0.7280823371\S,18.2755830177,0.4902239824,-0.1076911443\C,20.9267227
 557,-0.1625402039,0.4727760258\C,21.3875175421,1.1082289675,0.10757935
 07\C,22.7413625464,1.3026135096,-0.1141087705\F,23.1595635881,2.532647
 5213,-0.4604437381\C,23.6985463731,0.2897438368,0.0110163592\C,23.1929
 474866,-0.9671582609,0.3660985187\F,24.0486310512,-1.9952129885,0.4669
 61779\C,21.8477982913,-1.2093767045,0.5969569966\C,25.1341389564,0.513
 7751963,-0.2103291885\C,26.1747135186,0.1070526437,0.5860930599\F,25.9
 94496217,-0.5424230564,1.7438749594\C,27.468741228,0.4415555723,0.1047
 742905\C,27.3875632621,1.1152481412,-1.0813538841\S,25.7656173671,1.34
 17518682,-1.598012842\H,-27.4888538578,3.8645442758,2.2258737088\H,-25
 .65867995,3.1710180473,3.8124500395\H,-27.3446469642,3.1915011257,-0.1
 961875072\H,-22.0193383048,-1.6498152513,-1.2871618085\H,-19.110450317
 7,0.4974388974,1.7058695125\H,-19.7909718451,-1.1581507796,-2.25824775
 79\H,-12.8588253954,-3.1964431591,-1.4068885917\H,-11.7651565048,0.634
 6539543,1.0655688698\H,-10.8743202547,-1.9974595495,-2.2809212449\H,-4
 .88044963,2.6683715877,-0.1071201287\H,-2.8917292142,1.8361666355,1.11
 69161113\H,-3.5582113087,-1.6353302361,-1.4179229078\H,3.3300734141,-2
 .9887986675,0.4827907825\H,5.342957499,-2.4414317135,-0.8502494269\H,4
 .464555614,1.5604232858,0.6107684544\H,11.3944879424,2.6132997128,-1.3
 361516813\H,13.3560058546,2.5277093991,0.1781583796\H,12.6562059885,-1
 .7507493374,-0.175999515\H,19.5063079903,-1.9710890995,2.2619999878\H,
 20.7131324013,1.9642506985,0.016658589\H,21.5329861362,-2.2266121196,0
 .8424863724\H,28.3934690481,0.1913946802,0.6276873484\H,28.2083378737,
 1.5050651001,-1.6855279273\\Version=EM64L-G16RevA.03\State=1-A\HF=-756
 1.1542446\S2=0.\S2-1=0.\S2A=0.\RMSD=8.307e-09\RMSF=1.900e-06\Dipole=-1
 .2364542,0.596939,-0.057327\Quadrupole=67.7056765,-29.6613452,-38.0443
 313,-17.6232912,-29.2329617,3.2458617\PG=C01 [X(C70H23F21S7)]\\@


 TRUST EVERYONE, BUT CUT THE CARDS.
 Job cpu time:       1 days 19 hours 23 minutes 57.4 seconds.
 Elapsed time:       0 days  5 hours 30 minutes 58.7 seconds.
 File lengths (MBytes):  RWF=   2548 Int=      0 D2E=      0 Chk=    228 Scr=      8
 Normal termination of Gaussian 16 at Fri Jul 24 00:15:42 2020.
