 Entering Gaussian System, Link 0=g16
 Input=mols_65_3_27_n-cOC-COC_opt_0.gjf
 Output=mols_65_3_27_n-cOC-COC_opt_0.log
 Initial command:
 /opt/ohpc/pub/libs/gaussian/g16-A.03/sandybridge/g16/l1.exe "/mnt/gpfs2_4m/scratch/rdu230/ondemand/projects/dihedral_energies/7trial/wtuning/mols_65_3_27_n-cOC-COC/Gau-435561.inp" -scrdir="/mnt/gpfs2_4m/scratch/rdu230/ondemand/projects/dihedral_energies/7trial/wtuning/mols_65_3_27_n-cOC-COC/"
 Entering Link 1 = /opt/ohpc/pub/libs/gaussian/g16-A.03/sandybridge/g16/l1.exe PID=    435562.
  
 Copyright (c) 1988,1990,1992,1993,1995,1998,2003,2009,2016,
            Gaussian, Inc.  All Rights Reserved.
  
 This is part of the Gaussian(R) 16 program.  It is based on
 the Gaussian(R) 09 system (copyright 2009, Gaussian, Inc.),
 the Gaussian(R) 03 system (copyright 2003, Gaussian, Inc.),
 the Gaussian(R) 98 system (copyright 1998, Gaussian, Inc.),
 the Gaussian(R) 94 system (copyright 1995, Gaussian, Inc.),
 the Gaussian 92(TM) system (copyright 1992, Gaussian, Inc.),
 the Gaussian 90(TM) system (copyright 1990, Gaussian, Inc.),
 the Gaussian 88(TM) system (copyright 1988, Gaussian, Inc.),
 the Gaussian 86(TM) system (copyright 1986, Carnegie Mellon
 University), and the Gaussian 82(TM) system (copyright 1983,
 Carnegie Mellon University). Gaussian is a federally registered
 trademark of Gaussian, Inc.
  
 This software contains proprietary and confidential information,
 including trade secrets, belonging to Gaussian, Inc.
  
 This software is provided under written license and may be
 used, copied, transmitted, or stored only in accord with that
 written license.
  
 The following legend is applicable only to US Government
 contracts under FAR:
  
                    RESTRICTED RIGHTS LEGEND
  
 Use, reproduction and disclosure by the US Government is
 subject to restrictions as set forth in subparagraphs (a)
 and (c) of the Commercial Computer Software - Restricted
 Rights clause in FAR 52.227-19.
  
 Gaussian, Inc.
 340 Quinnipiac St., Bldg. 40, Wallingford CT 06492
  
  
 ---------------------------------------------------------------
 Warning -- This program may not be used in any manner that
 competes with the business of Gaussian, Inc. or will provide
 assistance to any competitor of Gaussian, Inc.  The licensee
 of this program is prohibited from giving any competitor of
 Gaussian, Inc. access to this program.  By using this program,
 the user acknowledges that Gaussian, Inc. is engaged in the
 business of creating and licensing software in the field of
 computational chemistry and represents and warrants to the
 licensee that it is not a competitor of Gaussian, Inc. and that
 it will not use this program in any manner prohibited above.
 ---------------------------------------------------------------
  

 Cite this work as:
 Gaussian 16, Revision A.03,
 M. J. Frisch, G. W. Trucks, H. B. Schlegel, G. E. Scuseria, 
 M. A. Robb, J. R. Cheeseman, G. Scalmani, V. Barone, 
 G. A. Petersson, H. Nakatsuji, X. Li, M. Caricato, A. V. Marenich, 
 J. Bloino, B. G. Janesko, R. Gomperts, B. Mennucci, H. P. Hratchian, 
 J. V. Ortiz, A. F. Izmaylov, J. L. Sonnenberg, D. Williams-Young, 
 F. Ding, F. Lipparini, F. Egidi, J. Goings, B. Peng, A. Petrone, 
 T. Henderson, D. Ranasinghe, V. G. Zakrzewski, J. Gao, N. Rega, 
 G. Zheng, W. Liang, M. Hada, M. Ehara, K. Toyota, R. Fukuda, 
 J. Hasegawa, M. Ishida, T. Nakajima, Y. Honda, O. Kitao, H. Nakai, 
 T. Vreven, K. Throssell, J. A. Montgomery, Jr., J. E. Peralta, 
 F. Ogliaro, M. J. Bearpark, J. J. Heyd, E. N. Brothers, K. N. Kudin, 
 V. N. Staroverov, T. A. Keith, R. Kobayashi, J. Normand, 
 K. Raghavachari, A. P. Rendell, J. C. Burant, S. S. Iyengar, 
 J. Tomasi, M. Cossi, J. M. Millam, M. Klene, C. Adamo, R. Cammi, 
 J. W. Ochterski, R. L. Martin, K. Morokuma, O. Farkas, 
 J. B. Foresman, and D. J. Fox, Gaussian, Inc., Wallingford CT, 2016.
 
 ******************************************
 Gaussian 16:  EM64L-G16RevA.03 25-Dec-2016
                23-Jul-2020 
 ******************************************
 %mem=30GB
 %nproc=8
 Will use up to    8 processors via shared memory.
 ---------------------------------------------------------------
 #P uLC-wPBE/cc-pVDZ iop(3/107=0061000000, 3/108=0061000000) opt
 ---------------------------------------------------------------
 1/18=20,19=15,26=3,38=1/1,3;
 2/9=110,12=2,17=6,18=5,40=1/2;
 3/5=16,11=2,25=1,30=1,71=1,74=-41,107=61000000,108=61000000,116=2/1,2,3;
 4//1;
 5/5=2,38=5/2;
 6/7=2,8=2,9=2,10=2,28=1/1;
 7//1,2,3,16;
 1/18=20,19=15,26=3/3(2);
 2/9=110/2;
 99//99;
 2/9=110/2;
 3/5=16,11=2,25=1,30=1,71=1,74=-41,107=61000000,108=61000000,116=2/1,2,3;
 4/5=5,16=3,69=1/1;
 5/5=2,38=5/2;
 7//1,2,3,16;
 1/18=20,19=15,26=3/3(-5);
 2/9=110/2;
 6/7=2,8=2,9=2,10=2,19=2,28=1/1;
 99/9=1/99;
 Leave Link    1 at Thu Jul 23 12:58:29 2020, MaxMem=  4026531840 cpu:               2.0 elap:               0.3
 (Enter /opt/ohpc/pub/libs/gaussian/g16-A.03/sandybridge/g16/l101.exe)
 ----------------
 H29 C33 S3 N3 O6
 ----------------
 Symbolic Z-matrix:
 Charge =  0 Multiplicity = 1
 C                    -11.17436   0.80035  -0.43015 
 C                    -10.22808   1.24388  -1.29034 
 N                    -8.98352   0.85542  -1.31267 
 C                    -8.55298  -0.0209   -0.26339 
 C                    -9.5365   -0.4124    0.68735 
 O                    -9.04539  -1.18545   1.70665 
 C                    -9.90266  -2.35042   2.00128 
 C                    -10.8497  -0.04615   0.6206 
 C                    -7.2      -0.35442  -0.29003 
 C                    -6.59564  -1.67473  -0.38623 
 O                    -7.4518   -2.76404  -0.59501 
 C                    -6.76545  -4.01032  -0.82123 
 C                    -5.17078  -1.64188  -0.33083 
 C                    -4.73801  -0.33591  -0.18993 
 S                    -5.97843   0.82805  -0.16641 
 C                    -3.30555   0.02285  -0.14327 
 C                    -2.4103   -0.56692   0.72652 
 N                    -1.04848  -0.27987   0.82415 
 C                    -0.65768   0.71318   0.08883 
 C                    -1.41589   1.51468  -0.76243 
 O                    -0.91655   2.49153  -1.46942 
 C                    -1.69804   3.74759  -1.5625 
 C                    -2.79786   1.11359  -0.83595 
 C                     0.77268   1.10336   0.27306 
 C                     1.4324    2.19707   0.69796 
 O                     0.66919   3.28377   1.08808 
 C                     1.31314   4.37622   1.6033 
 C                     2.85649   2.07178   0.74511 
 C                     3.22207   0.87614   0.24293 
 S                     1.90765  -0.16631  -0.17779 
 C                     4.63318   0.41178   0.15065 
 C                     5.59661   1.12677  -0.5459 
 N                     6.83224   0.74644  -0.72655 
 C                     7.20914  -0.41427  -0.18469 
 C                     6.37666  -1.21537   0.46344 
 O                     6.84987  -2.44299   1.02755 
 C                     5.88995  -3.48132   1.21129 
 C                     5.08577  -0.80947   0.63252 
 C                     8.65669  -0.71105  -0.50259 
 C                     9.7898   -0.21177   0.09608 
 O                     9.72053   0.68679   1.12897 
 C                     10.93444   1.33839   1.44537 
 C                     10.95879  -0.8581   -0.44875 
 C                     10.66082  -1.76567  -1.42864 
 S                     9.05589  -1.86495  -1.67456 
 H                    -12.19233   1.17462  -0.54452 
 H                    -10.5242   1.88995  -2.15402 
 H                    -10.80365  -2.12623   2.50584 
 H                    -9.26906  -3.03353   2.55321 
 H                    -10.16699  -2.85342   1.0139 
 H                    -11.53232  -0.26153   1.38028 
 H                    -6.19563  -4.31101   0.04873 
 H                    -7.54742  -4.69926  -0.92266 
 H                    -6.20074  -3.96983  -1.74149 
 H                    -4.57593  -2.5186   -0.38281 
 H                    -2.75246  -1.47631   1.27822 
 H                    -2.50732   3.68009  -2.27115 
 H                    -1.06868   4.49243  -1.83549 
 H                    -2.10112   3.91156  -0.55851 
 H                    -3.49054   1.63034  -1.55564 
 H                     2.00661   4.75915   0.77922 
 H                     1.9009    4.16343   2.50419 
 H                     0.6348    5.21235   1.87336 
 H                     3.49517   2.91562   1.05053 
 H                     5.26446   2.09152  -1.07671 
 H                     5.31099  -3.29269   2.08942 
 H                     6.45948  -4.42404   1.4031 
 H                     5.25614  -3.66338   0.36716 
 H                     4.31693  -1.46058   1.23465 
 H                     11.53764   0.64715   1.92915 
 H                     11.36835   1.77869   0.62673 
 H                     10.6968   2.15371   2.1429 
 H                     11.98241  -0.57809  -0.13283 
 H                     11.35402  -2.29582  -2.00771 
 
 ITRead=  0  0  0  0  0  0  0  0  0  0  0  0  0  0  0  0  0  0  0  0
 ITRead=  0  0  0  0  0  0  0  0  0  0  0  0  0  0  0  0  0  0  0  0
 ITRead=  0  0  0  0  0  0  0  0  0  0  0  0  0  0  0  0  0  0  0  0
 ITRead=  0  0  0  0  0  0  0  0  0  0  0  0  0  0
 MicOpt= -1 -1 -1 -1 -1 -1 -1 -1 -1 -1 -1 -1 -1 -1 -1 -1 -1 -1 -1 -1
 MicOpt= -1 -1 -1 -1 -1 -1 -1 -1 -1 -1 -1 -1 -1 -1 -1 -1 -1 -1 -1 -1
 MicOpt= -1 -1 -1 -1 -1 -1 -1 -1 -1 -1 -1 -1 -1 -1 -1 -1 -1 -1 -1 -1
 MicOpt= -1 -1 -1 -1 -1 -1 -1 -1 -1 -1 -1 -1 -1 -1
 NAtoms=     74 NQM=       74 NQMF=       0 NMMI=      0 NMMIF=      0
                NMic=       0 NMicF=      0.
                    Isotopes and Nuclear Properties:
 (Nuclear quadrupole moments (NQMom) in fm**2, nuclear magnetic moments (NMagM)
  in nuclear magnetons)

  Atom         1           2           3           4           5           6           7           8           9          10
 IAtWgt=          12          12          14          12          12          16          12          12          12          12
 AtmWgt=  12.0000000  12.0000000  14.0030740  12.0000000  12.0000000  15.9949146  12.0000000  12.0000000  12.0000000  12.0000000
 NucSpn=           0           0           2           0           0           0           0           0           0           0
 AtZEff=  -0.0000000  -0.0000000  -0.0000000  -0.0000000  -0.0000000  -0.0000000  -0.0000000  -0.0000000  -0.0000000  -0.0000000
 NQMom=    0.0000000   0.0000000   2.0440000   0.0000000   0.0000000   0.0000000   0.0000000   0.0000000   0.0000000   0.0000000
 NMagM=    0.0000000   0.0000000   0.4037610   0.0000000   0.0000000   0.0000000   0.0000000   0.0000000   0.0000000   0.0000000
 AtZNuc=   6.0000000   6.0000000   7.0000000   6.0000000   6.0000000   8.0000000   6.0000000   6.0000000   6.0000000   6.0000000

  Atom        11          12          13          14          15          16          17          18          19          20
 IAtWgt=          16          12          12          12          32          12          12          14          12          12
 AtmWgt=  15.9949146  12.0000000  12.0000000  12.0000000  31.9720718  12.0000000  12.0000000  14.0030740  12.0000000  12.0000000
 NucSpn=           0           0           0           0           0           0           0           2           0           0
 AtZEff=  -0.0000000  -0.0000000  -0.0000000  -0.0000000  -0.0000000  -0.0000000  -0.0000000  -0.0000000  -0.0000000  -0.0000000
 NQMom=    0.0000000   0.0000000   0.0000000   0.0000000   0.0000000   0.0000000   0.0000000   2.0440000   0.0000000   0.0000000
 NMagM=    0.0000000   0.0000000   0.0000000   0.0000000   0.0000000   0.0000000   0.0000000   0.4037610   0.0000000   0.0000000
 AtZNuc=   8.0000000   6.0000000   6.0000000   6.0000000  16.0000000   6.0000000   6.0000000   7.0000000   6.0000000   6.0000000

  Atom        21          22          23          24          25          26          27          28          29          30
 IAtWgt=          16          12          12          12          12          16          12          12          12          32
 AtmWgt=  15.9949146  12.0000000  12.0000000  12.0000000  12.0000000  15.9949146  12.0000000  12.0000000  12.0000000  31.9720718
 NucSpn=           0           0           0           0           0           0           0           0           0           0
 AtZEff=  -0.0000000  -0.0000000  -0.0000000  -0.0000000  -0.0000000  -0.0000000  -0.0000000  -0.0000000  -0.0000000  -0.0000000
 NQMom=    0.0000000   0.0000000   0.0000000   0.0000000   0.0000000   0.0000000   0.0000000   0.0000000   0.0000000   0.0000000
 NMagM=    0.0000000   0.0000000   0.0000000   0.0000000   0.0000000   0.0000000   0.0000000   0.0000000   0.0000000   0.0000000
 AtZNuc=   8.0000000   6.0000000   6.0000000   6.0000000   6.0000000   8.0000000   6.0000000   6.0000000   6.0000000  16.0000000

  Atom        31          32          33          34          35          36          37          38          39          40
 IAtWgt=          12          12          14          12          12          16          12          12          12          12
 AtmWgt=  12.0000000  12.0000000  14.0030740  12.0000000  12.0000000  15.9949146  12.0000000  12.0000000  12.0000000  12.0000000
 NucSpn=           0           0           2           0           0           0           0           0           0           0
 AtZEff=  -0.0000000  -0.0000000  -0.0000000  -0.0000000  -0.0000000  -0.0000000  -0.0000000  -0.0000000  -0.0000000  -0.0000000
 NQMom=    0.0000000   0.0000000   2.0440000   0.0000000   0.0000000   0.0000000   0.0000000   0.0000000   0.0000000   0.0000000
 NMagM=    0.0000000   0.0000000   0.4037610   0.0000000   0.0000000   0.0000000   0.0000000   0.0000000   0.0000000   0.0000000
 AtZNuc=   6.0000000   6.0000000   7.0000000   6.0000000   6.0000000   8.0000000   6.0000000   6.0000000   6.0000000   6.0000000

  Atom        41          42          43          44          45          46          47          48          49          50
 IAtWgt=          16          12          12          12          32           1           1           1           1           1
 AtmWgt=  15.9949146  12.0000000  12.0000000  12.0000000  31.9720718   1.0078250   1.0078250   1.0078250   1.0078250   1.0078250
 NucSpn=           0           0           0           0           0           1           1           1           1           1
 AtZEff=  -0.0000000  -0.0000000  -0.0000000  -0.0000000  -0.0000000  -0.0000000  -0.0000000  -0.0000000  -0.0000000  -0.0000000
 NQMom=    0.0000000   0.0000000   0.0000000   0.0000000   0.0000000   0.0000000   0.0000000   0.0000000   0.0000000   0.0000000
 NMagM=    0.0000000   0.0000000   0.0000000   0.0000000   0.0000000   2.7928460   2.7928460   2.7928460   2.7928460   2.7928460
 AtZNuc=   8.0000000   6.0000000   6.0000000   6.0000000  16.0000000   1.0000000   1.0000000   1.0000000   1.0000000   1.0000000

  Atom        51          52          53          54          55          56          57          58          59          60
 IAtWgt=           1           1           1           1           1           1           1           1           1           1
 AtmWgt=   1.0078250   1.0078250   1.0078250   1.0078250   1.0078250   1.0078250   1.0078250   1.0078250   1.0078250   1.0078250
 NucSpn=           1           1           1           1           1           1           1           1           1           1
 AtZEff=  -0.0000000  -0.0000000  -0.0000000  -0.0000000  -0.0000000  -0.0000000  -0.0000000  -0.0000000  -0.0000000  -0.0000000
 NQMom=    0.0000000   0.0000000   0.0000000   0.0000000   0.0000000   0.0000000   0.0000000   0.0000000   0.0000000   0.0000000
 NMagM=    2.7928460   2.7928460   2.7928460   2.7928460   2.7928460   2.7928460   2.7928460   2.7928460   2.7928460   2.7928460
 AtZNuc=   1.0000000   1.0000000   1.0000000   1.0000000   1.0000000   1.0000000   1.0000000   1.0000000   1.0000000   1.0000000

  Atom        61          62          63          64          65          66          67          68          69          70
 IAtWgt=           1           1           1           1           1           1           1           1           1           1
 AtmWgt=   1.0078250   1.0078250   1.0078250   1.0078250   1.0078250   1.0078250   1.0078250   1.0078250   1.0078250   1.0078250
 NucSpn=           1           1           1           1           1           1           1           1           1           1
 AtZEff=  -0.0000000  -0.0000000  -0.0000000  -0.0000000  -0.0000000  -0.0000000  -0.0000000  -0.0000000  -0.0000000  -0.0000000
 NQMom=    0.0000000   0.0000000   0.0000000   0.0000000   0.0000000   0.0000000   0.0000000   0.0000000   0.0000000   0.0000000
 NMagM=    2.7928460   2.7928460   2.7928460   2.7928460   2.7928460   2.7928460   2.7928460   2.7928460   2.7928460   2.7928460
 AtZNuc=   1.0000000   1.0000000   1.0000000   1.0000000   1.0000000   1.0000000   1.0000000   1.0000000   1.0000000   1.0000000

  Atom        71          72          73          74
 IAtWgt=           1           1           1           1
 AtmWgt=   1.0078250   1.0078250   1.0078250   1.0078250
 NucSpn=           1           1           1           1
 AtZEff=  -0.0000000  -0.0000000  -0.0000000  -0.0000000
 NQMom=    0.0000000   0.0000000   0.0000000   0.0000000
 NMagM=    2.7928460   2.7928460   2.7928460   2.7928460
 AtZNuc=   1.0000000   1.0000000   1.0000000   1.0000000
 Leave Link  101 at Thu Jul 23 12:58:29 2020, MaxMem=  4026531840 cpu:               2.9 elap:               0.4
 (Enter /opt/ohpc/pub/libs/gaussian/g16-A.03/sandybridge/g16/l103.exe)

 GradGradGradGradGradGradGradGradGradGradGradGradGradGradGradGradGradGrad
 Berny optimization.
 Initialization pass.
                           ----------------------------
                           !    Initial Parameters    !
                           ! (Angstroms and Degrees)  !
 --------------------------                            --------------------------
 ! Name  Definition              Value          Derivative Info.                !
 --------------------------------------------------------------------------------
 ! R1    R(1,2)                  1.3536         estimate D2E/DX2                !
 ! R2    R(1,8)                  1.3878         estimate D2E/DX2                !
 ! R3    R(1,46)                 1.0906         estimate D2E/DX2                !
 ! R4    R(2,3)                  1.304          estimate D2E/DX2                !
 ! R5    R(2,47)                 1.1185         estimate D2E/DX2                !
 ! R6    R(3,4)                  1.4333         estimate D2E/DX2                !
 ! R7    R(4,5)                  1.4228         estimate D2E/DX2                !
 ! R8    R(4,9)                  1.3937         estimate D2E/DX2                !
 ! R9    R(5,6)                  1.3703         estimate D2E/DX2                !
 ! R10   R(5,8)                  1.365          estimate D2E/DX2                !
 ! R11   R(6,7)                  1.4761         estimate D2E/DX2                !
 ! R12   R(7,48)                 1.0567         estimate D2E/DX2                !
 ! R13   R(7,49)                 1.0829         estimate D2E/DX2                !
 ! R14   R(7,50)                 1.1392         estimate D2E/DX2                !
 ! R15   R(8,51)                 1.0438         estimate D2E/DX2                !
 ! R16   R(9,10)                 1.4552         estimate D2E/DX2                !
 ! R17   R(9,15)                 1.7046         estimate D2E/DX2                !
 ! R18   R(10,11)                1.4011         estimate D2E/DX2                !
 ! R19   R(10,13)                1.4263         estimate D2E/DX2                !
 ! R20   R(11,12)                1.4406         estimate D2E/DX2                !
 ! R21   R(12,52)                1.0826         estimate D2E/DX2                !
 ! R22   R(12,53)                1.0471         estimate D2E/DX2                !
 ! R23   R(12,54)                1.0805         estimate D2E/DX2                !
 ! R24   R(13,14)                1.383          estimate D2E/DX2                !
 ! R25   R(13,55)                1.0607         estimate D2E/DX2                !
 ! R26   R(14,15)                1.7012         estimate D2E/DX2                !
 ! R27   R(14,16)                1.4774         estimate D2E/DX2                !
 ! R28   R(16,17)                1.3805         estimate D2E/DX2                !
 ! R29   R(16,23)                1.3883         estimate D2E/DX2                !
 ! R30   R(17,18)                1.3952         estimate D2E/DX2                !
 ! R31   R(17,56)                1.1173         estimate D2E/DX2                !
 ! R32   R(18,19)                1.296          estimate D2E/DX2                !
 ! R33   R(19,20)                1.3935         estimate D2E/DX2                !
 ! R34   R(19,24)                1.494          estimate D2E/DX2                !
 ! R35   R(20,21)                1.3051         estimate D2E/DX2                !
 ! R36   R(20,23)                1.4409         estimate D2E/DX2                !
 ! R37   R(21,22)                1.4823         estimate D2E/DX2                !
 ! R38   R(22,57)                1.0778         estimate D2E/DX2                !
 ! R39   R(22,58)                1.0126         estimate D2E/DX2                !
 ! R40   R(22,59)                1.0942         estimate D2E/DX2                !
 ! R41   R(23,60)                1.1246         estimate D2E/DX2                !
 ! R42   R(24,25)                1.3461         estimate D2E/DX2                !
 ! R43   R(24,30)                1.7617         estimate D2E/DX2                !
 ! R44   R(25,26)                1.3841         estimate D2E/DX2                !
 ! R45   R(25,28)                1.4304         estimate D2E/DX2                !
 ! R46   R(26,27)                1.3688         estimate D2E/DX2                !
 ! R47   R(27,61)                1.1431         estimate D2E/DX2                !
 ! R48   R(27,62)                1.0965         estimate D2E/DX2                !
 ! R49   R(27,63)                1.11           estimate D2E/DX2                !
 ! R50   R(28,29)                1.3474         estimate D2E/DX2                !
 ! R51   R(28,64)                1.1015         estimate D2E/DX2                !
 ! R52   R(29,30)                1.7296         estimate D2E/DX2                !
 ! R53   R(29,31)                1.4884         estimate D2E/DX2                !
 ! R54   R(31,32)                1.3873         estimate D2E/DX2                !
 ! R55   R(31,38)                1.3887         estimate D2E/DX2                !
 ! R56   R(32,33)                1.3054         estimate D2E/DX2                !
 ! R57   R(32,65)                1.1501         estimate D2E/DX2                !
 ! R58   R(33,34)                1.3353         estimate D2E/DX2                !
 ! R59   R(34,35)                1.3247         estimate D2E/DX2                !
 ! R60   R(34,39)                1.5115         estimate D2E/DX2                !
 ! R61   R(35,36)                1.4315         estimate D2E/DX2                !
 ! R62   R(35,38)                1.3637         estimate D2E/DX2                !
 ! R63   R(36,37)                1.426          estimate D2E/DX2                !
 ! R64   R(37,66)                1.0686         estimate D2E/DX2                !
 ! R65   R(37,67)                1.118          estimate D2E/DX2                !
 ! R66   R(37,68)                1.0712         estimate D2E/DX2                !
 ! R67   R(38,69)                1.1737         estimate D2E/DX2                !
 ! R68   R(39,40)                1.3754         estimate D2E/DX2                !
 ! R69   R(39,45)                1.6924         estimate D2E/DX2                !
 ! R70   R(40,41)                1.3708         estimate D2E/DX2                !
 ! R71   R(40,43)                1.4426         estimate D2E/DX2                !
 ! R72   R(41,42)                1.4136         estimate D2E/DX2                !
 ! R73   R(42,70)                1.0372         estimate D2E/DX2                !
 ! R74   R(42,71)                1.0258         estimate D2E/DX2                !
 ! R75   R(42,72)                1.099          estimate D2E/DX2                !
 ! R76   R(43,44)                1.3685         estimate D2E/DX2                !
 ! R77   R(43,73)                1.1073         estimate D2E/DX2                !
 ! R78   R(44,45)                1.6267         estimate D2E/DX2                !
 ! R79   R(44,74)                1.0473         estimate D2E/DX2                !
 ! A1    A(2,1,8)              121.1635         estimate D2E/DX2                !
 ! A2    A(2,1,46)             118.2583         estimate D2E/DX2                !
 ! A3    A(8,1,46)             120.4692         estimate D2E/DX2                !
 ! A4    A(1,2,3)              125.4869         estimate D2E/DX2                !
 ! A5    A(1,2,47)             119.6636         estimate D2E/DX2                !
 ! A6    A(3,2,47)             114.3027         estimate D2E/DX2                !
 ! A7    A(2,3,4)              117.1494         estimate D2E/DX2                !
 ! A8    A(3,4,5)              116.729          estimate D2E/DX2                !
 ! A9    A(3,4,9)              115.0818         estimate D2E/DX2                !
 ! A10   A(5,4,9)              128.1669         estimate D2E/DX2                !
 ! A11   A(4,5,6)              113.8614         estimate D2E/DX2                !
 ! A12   A(4,5,8)              123.9536         estimate D2E/DX2                !
 ! A13   A(6,5,8)              122.1779         estimate D2E/DX2                !
 ! A14   A(5,6,7)              112.6788         estimate D2E/DX2                !
 ! A15   A(6,7,48)             115.0272         estimate D2E/DX2                !
 ! A16   A(6,7,49)             105.0567         estimate D2E/DX2                !
 ! A17   A(6,7,50)             108.073          estimate D2E/DX2                !
 ! A18   A(48,7,49)            112.9133         estimate D2E/DX2                !
 ! A19   A(48,7,50)            108.0401         estimate D2E/DX2                !
 ! A20   A(49,7,50)            107.3964         estimate D2E/DX2                !
 ! A21   A(1,8,5)              115.1984         estimate D2E/DX2                !
 ! A22   A(1,8,51)             121.5958         estimate D2E/DX2                !
 ! A23   A(5,8,51)             122.5634         estimate D2E/DX2                !
 ! A24   A(4,9,10)             128.4277         estimate D2E/DX2                !
 ! A25   A(4,9,15)             121.8895         estimate D2E/DX2                !
 ! A26   A(10,9,15)            109.6667         estimate D2E/DX2                !
 ! A27   A(9,10,11)            117.4802         estimate D2E/DX2                !
 ! A28   A(9,10,13)            113.0424         estimate D2E/DX2                !
 ! A29   A(11,10,13)           129.3545         estimate D2E/DX2                !
 ! A30   A(10,11,12)           113.8812         estimate D2E/DX2                !
 ! A31   A(11,12,52)           111.3991         estimate D2E/DX2                !
 ! A32   A(11,12,53)           103.2153         estimate D2E/DX2                !
 ! A33   A(11,12,54)           110.5075         estimate D2E/DX2                !
 ! A34   A(52,12,53)           106.7484         estimate D2E/DX2                !
 ! A35   A(52,12,54)           114.8191         estimate D2E/DX2                !
 ! A36   A(53,12,54)           109.4192         estimate D2E/DX2                !
 ! A37   A(10,13,14)           109.7736         estimate D2E/DX2                !
 ! A38   A(10,13,55)           122.6346         estimate D2E/DX2                !
 ! A39   A(14,13,55)           127.5881         estimate D2E/DX2                !
 ! A40   A(13,14,15)           114.793          estimate D2E/DX2                !
 ! A41   A(13,14,16)           122.4057         estimate D2E/DX2                !
 ! A42   A(15,14,16)           122.7092         estimate D2E/DX2                !
 ! A43   A(9,15,14)             92.688          estimate D2E/DX2                !
 ! A44   A(14,16,17)           123.0178         estimate D2E/DX2                !
 ! A45   A(14,16,23)           121.9785         estimate D2E/DX2                !
 ! A46   A(17,16,23)           114.3849         estimate D2E/DX2                !
 ! A47   A(16,17,18)           126.0984         estimate D2E/DX2                !
 ! A48   A(16,17,56)           117.4006         estimate D2E/DX2                !
 ! A49   A(18,17,56)           115.5832         estimate D2E/DX2                !
 ! A50   A(17,18,19)           114.3489         estimate D2E/DX2                !
 ! A51   A(18,19,20)           128.5536         estimate D2E/DX2                !
 ! A52   A(18,19,24)           114.7617         estimate D2E/DX2                !
 ! A53   A(20,19,24)           116.4888         estimate D2E/DX2                !
 ! A54   A(19,20,21)           123.5882         estimate D2E/DX2                !
 ! A55   A(19,20,23)           113.1358         estimate D2E/DX2                !
 ! A56   A(21,20,23)           123.2065         estimate D2E/DX2                !
 ! A57   A(20,21,22)           117.8103         estimate D2E/DX2                !
 ! A58   A(21,22,57)           112.5872         estimate D2E/DX2                !
 ! A59   A(21,22,58)           108.2131         estimate D2E/DX2                !
 ! A60   A(21,22,59)           105.2824         estimate D2E/DX2                !
 ! A61   A(57,22,58)           109.6016         estimate D2E/DX2                !
 ! A62   A(57,22,59)           109.6369         estimate D2E/DX2                !
 ! A63   A(58,22,59)           111.4747         estimate D2E/DX2                !
 ! A64   A(16,23,20)           122.9567         estimate D2E/DX2                !
 ! A65   A(16,23,60)           117.0689         estimate D2E/DX2                !
 ! A66   A(20,23,60)           119.7021         estimate D2E/DX2                !
 ! A67   A(19,24,25)           136.0815         estimate D2E/DX2                !
 ! A68   A(19,24,30)           113.3923         estimate D2E/DX2                !
 ! A69   A(25,24,30)           110.5256         estimate D2E/DX2                !
 ! A70   A(24,25,26)           117.1723         estimate D2E/DX2                !
 ! A71   A(24,25,28)           115.2888         estimate D2E/DX2                !
 ! A72   A(26,25,28)           127.4805         estimate D2E/DX2                !
 ! A73   A(25,26,27)           118.2503         estimate D2E/DX2                !
 ! A74   A(26,27,61)           106.345          estimate D2E/DX2                !
 ! A75   A(26,27,62)           113.9875         estimate D2E/DX2                !
 ! A76   A(26,27,63)           113.9074         estimate D2E/DX2                !
 ! A77   A(61,27,62)           109.3983         estimate D2E/DX2                !
 ! A78   A(61,27,63)           107.0851         estimate D2E/DX2                !
 ! A79   A(62,27,63)           105.8935         estimate D2E/DX2                !
 ! A80   A(25,28,29)           109.6077         estimate D2E/DX2                !
 ! A81   A(25,28,64)           121.2872         estimate D2E/DX2                !
 ! A82   A(29,28,64)           128.7448         estimate D2E/DX2                !
 ! A83   A(28,29,30)           114.7912         estimate D2E/DX2                !
 ! A84   A(28,29,31)           123.8616         estimate D2E/DX2                !
 ! A85   A(30,29,31)           121.1571         estimate D2E/DX2                !
 ! A86   A(24,30,29)            89.5973         estimate D2E/DX2                !
 ! A87   A(29,31,32)           121.9202         estimate D2E/DX2                !
 ! A88   A(29,31,38)           124.1823         estimate D2E/DX2                !
 ! A89   A(32,31,38)           113.6488         estimate D2E/DX2                !
 ! A90   A(31,32,33)           125.217          estimate D2E/DX2                !
 ! A91   A(31,32,65)           117.6118         estimate D2E/DX2                !
 ! A92   A(33,32,65)           116.9926         estimate D2E/DX2                !
 ! A93   A(32,33,34)           117.6645         estimate D2E/DX2                !
 ! A94   A(33,34,35)           123.1505         estimate D2E/DX2                !
 ! A95   A(33,34,39)           110.8344         estimate D2E/DX2                !
 ! A96   A(35,34,39)           125.8745         estimate D2E/DX2                !
 ! A97   A(34,35,36)           120.2432         estimate D2E/DX2                !
 ! A98   A(34,35,38)           118.3941         estimate D2E/DX2                !
 ! A99   A(36,35,38)           121.2853         estimate D2E/DX2                !
 ! A100  A(35,36,37)           116.917          estimate D2E/DX2                !
 ! A101  A(36,37,66)           110.0036         estimate D2E/DX2                !
 ! A102  A(36,37,67)           107.0487         estimate D2E/DX2                !
 ! A103  A(36,37,68)           114.8685         estimate D2E/DX2                !
 ! A104  A(66,37,67)           106.4911         estimate D2E/DX2                !
 ! A105  A(66,37,68)           110.9168         estimate D2E/DX2                !
 ! A106  A(67,37,68)           107.056          estimate D2E/DX2                !
 ! A107  A(31,38,35)           121.8183         estimate D2E/DX2                !
 ! A108  A(31,38,69)           116.8963         estimate D2E/DX2                !
 ! A109  A(35,38,69)           121.2354         estimate D2E/DX2                !
 ! A110  A(34,39,40)           128.7697         estimate D2E/DX2                !
 ! A111  A(34,39,45)           120.3589         estimate D2E/DX2                !
 ! A112  A(40,39,45)           110.7688         estimate D2E/DX2                !
 ! A113  A(39,40,41)           121.6216         estimate D2E/DX2                !
 ! A114  A(39,40,43)           109.9111         estimate D2E/DX2                !
 ! A115  A(41,40,43)           128.2587         estimate D2E/DX2                !
 ! A116  A(40,41,42)           115.3029         estimate D2E/DX2                !
 ! A117  A(41,42,70)           107.2551         estimate D2E/DX2                !
 ! A118  A(41,42,71)           112.4864         estimate D2E/DX2                !
 ! A119  A(41,42,72)           107.358          estimate D2E/DX2                !
 ! A120  A(70,42,71)           114.349          estimate D2E/DX2                !
 ! A121  A(70,42,72)           108.9141         estimate D2E/DX2                !
 ! A122  A(71,42,72)           106.2332         estimate D2E/DX2                !
 ! A123  A(40,43,44)           113.025          estimate D2E/DX2                !
 ! A124  A(40,43,73)           121.8751         estimate D2E/DX2                !
 ! A125  A(44,43,73)           124.9816         estimate D2E/DX2                !
 ! A126  A(43,44,45)           111.3187         estimate D2E/DX2                !
 ! A127  A(43,44,74)           125.9798         estimate D2E/DX2                !
 ! A128  A(45,44,74)           122.5843         estimate D2E/DX2                !
 ! A129  A(39,45,44)            94.9578         estimate D2E/DX2                !
 ! D1    D(8,1,2,3)              6.3797         estimate D2E/DX2                !
 ! D2    D(8,1,2,47)           177.3957         estimate D2E/DX2                !
 ! D3    D(46,1,2,3)          -177.3994         estimate D2E/DX2                !
 ! D4    D(46,1,2,47)           -6.3834         estimate D2E/DX2                !
 ! D5    D(2,1,8,5)             -1.7086         estimate D2E/DX2                !
 ! D6    D(2,1,8,51)           169.3264         estimate D2E/DX2                !
 ! D7    D(46,1,8,5)          -177.8464         estimate D2E/DX2                !
 ! D8    D(46,1,8,51)           -6.8113         estimate D2E/DX2                !
 ! D9    D(1,2,3,4)             -6.0575         estimate D2E/DX2                !
 ! D10   D(47,2,3,4)          -177.495          estimate D2E/DX2                !
 ! D11   D(2,3,4,5)              1.5528         estimate D2E/DX2                !
 ! D12   D(2,3,4,9)           -176.8702         estimate D2E/DX2                !
 ! D13   D(3,4,5,6)           -176.3949         estimate D2E/DX2                !
 ! D14   D(3,4,5,8)              2.6546         estimate D2E/DX2                !
 ! D15   D(9,4,5,6)              1.7884         estimate D2E/DX2                !
 ! D16   D(9,4,5,8)           -179.1621         estimate D2E/DX2                !
 ! D17   D(3,4,9,10)          -121.2046         estimate D2E/DX2                !
 ! D18   D(3,4,9,15)            60.4108         estimate D2E/DX2                !
 ! D19   D(5,4,9,10)            60.587          estimate D2E/DX2                !
 ! D20   D(5,4,9,15)          -117.7977         estimate D2E/DX2                !
 ! D21   D(4,5,6,7)           -134.9364         estimate D2E/DX2                !
 ! D22   D(8,5,6,7)             45.9951         estimate D2E/DX2                !
 ! D23   D(4,5,8,1)             -2.5253         estimate D2E/DX2                !
 ! D24   D(4,5,8,51)          -173.4641         estimate D2E/DX2                !
 ! D25   D(6,5,8,1)            176.4477         estimate D2E/DX2                !
 ! D26   D(6,5,8,51)             5.5088         estimate D2E/DX2                !
 ! D27   D(5,6,7,48)           -73.8033         estimate D2E/DX2                !
 ! D28   D(5,6,7,49)           161.4078         estimate D2E/DX2                !
 ! D29   D(5,6,7,50)            46.9851         estimate D2E/DX2                !
 ! D30   D(4,9,10,11)            6.0825         estimate D2E/DX2                !
 ! D31   D(4,9,10,13)         -177.5688         estimate D2E/DX2                !
 ! D32   D(15,9,10,11)        -175.374          estimate D2E/DX2                !
 ! D33   D(15,9,10,13)           0.9747         estimate D2E/DX2                !
 ! D34   D(4,9,15,14)          177.102          estimate D2E/DX2                !
 ! D35   D(10,9,15,14)          -1.5542         estimate D2E/DX2                !
 ! D36   D(9,10,11,12)         173.6869         estimate D2E/DX2                !
 ! D37   D(13,10,11,12)         -1.9666         estimate D2E/DX2                !
 ! D38   D(9,10,13,14)           0.3422         estimate D2E/DX2                !
 ! D39   D(9,10,13,55)         179.6953         estimate D2E/DX2                !
 ! D40   D(11,10,13,14)        176.1521         estimate D2E/DX2                !
 ! D41   D(11,10,13,55)         -4.4948         estimate D2E/DX2                !
 ! D42   D(10,11,12,52)         64.0051         estimate D2E/DX2                !
 ! D43   D(10,11,12,53)        178.2068         estimate D2E/DX2                !
 ! D44   D(10,11,12,54)        -64.8913         estimate D2E/DX2                !
 ! D45   D(10,13,14,15)         -1.5661         estimate D2E/DX2                !
 ! D46   D(10,13,14,16)       -178.1614         estimate D2E/DX2                !
 ! D47   D(55,13,14,15)        179.1213         estimate D2E/DX2                !
 ! D48   D(55,13,14,16)          2.526          estimate D2E/DX2                !
 ! D49   D(13,14,15,9)           1.8753         estimate D2E/DX2                !
 ! D50   D(16,14,15,9)         178.459          estimate D2E/DX2                !
 ! D51   D(13,14,16,17)        -52.7688         estimate D2E/DX2                !
 ! D52   D(13,14,16,23)        136.7595         estimate D2E/DX2                !
 ! D53   D(15,14,16,17)        130.9049         estimate D2E/DX2                !
 ! D54   D(15,14,16,23)        -39.5668         estimate D2E/DX2                !
 ! D55   D(14,16,17,18)        179.913          estimate D2E/DX2                !
 ! D56   D(14,16,17,56)         11.4092         estimate D2E/DX2                !
 ! D57   D(23,16,17,18)         -8.9556         estimate D2E/DX2                !
 ! D58   D(23,16,17,56)       -177.4594         estimate D2E/DX2                !
 ! D59   D(14,16,23,20)        177.4058         estimate D2E/DX2                !
 ! D60   D(14,16,23,60)         -8.6164         estimate D2E/DX2                !
 ! D61   D(17,16,23,20)          6.1716         estimate D2E/DX2                !
 ! D62   D(17,16,23,60)       -179.8505         estimate D2E/DX2                !
 ! D63   D(16,17,18,19)          5.9304         estimate D2E/DX2                !
 ! D64   D(56,17,18,19)        174.617          estimate D2E/DX2                !
 ! D65   D(17,18,19,20)          0.3519         estimate D2E/DX2                !
 ! D66   D(17,18,19,24)        175.0332         estimate D2E/DX2                !
 ! D67   D(18,19,20,21)       -179.5522         estimate D2E/DX2                !
 ! D68   D(18,19,20,23)         -2.5018         estimate D2E/DX2                !
 ! D69   D(24,19,20,21)          5.8442         estimate D2E/DX2                !
 ! D70   D(24,19,20,23)       -177.1054         estimate D2E/DX2                !
 ! D71   D(18,19,24,25)       -117.3696         estimate D2E/DX2                !
 ! D72   D(18,19,24,30)         62.9457         estimate D2E/DX2                !
 ! D73   D(20,19,24,25)         57.9847         estimate D2E/DX2                !
 ! D74   D(20,19,24,30)       -121.6999         estimate D2E/DX2                !
 ! D75   D(19,20,21,22)       -138.8138         estimate D2E/DX2                !
 ! D76   D(23,20,21,22)         44.4282         estimate D2E/DX2                !
 ! D77   D(19,20,23,16)         -1.0975         estimate D2E/DX2                !
 ! D78   D(19,20,23,60)       -174.9233         estimate D2E/DX2                !
 ! D79   D(21,20,23,16)        175.9659         estimate D2E/DX2                !
 ! D80   D(21,20,23,60)          2.1401         estimate D2E/DX2                !
 ! D81   D(20,21,22,57)        -78.9031         estimate D2E/DX2                !
 ! D82   D(20,21,22,58)        159.8055         estimate D2E/DX2                !
 ! D83   D(20,21,22,59)         40.5023         estimate D2E/DX2                !
 ! D84   D(19,24,25,26)          0.2918         estimate D2E/DX2                !
 ! D85   D(19,24,25,28)        177.7225         estimate D2E/DX2                !
 ! D86   D(30,24,25,26)        179.9828         estimate D2E/DX2                !
 ! D87   D(30,24,25,28)         -2.5865         estimate D2E/DX2                !
 ! D88   D(19,24,30,29)        179.7795         estimate D2E/DX2                !
 ! D89   D(25,24,30,29)          0.0131         estimate D2E/DX2                !
 ! D90   D(24,25,26,27)        175.9425         estimate D2E/DX2                !
 ! D91   D(28,25,26,27)         -1.1298         estimate D2E/DX2                !
 ! D92   D(24,25,28,29)          4.5601         estimate D2E/DX2                !
 ! D93   D(24,25,28,64)        178.2396         estimate D2E/DX2                !
 ! D94   D(26,25,28,29)       -178.3205         estimate D2E/DX2                !
 ! D95   D(26,25,28,64)         -4.641          estimate D2E/DX2                !
 ! D96   D(25,26,27,61)         61.1458         estimate D2E/DX2                !
 ! D97   D(25,26,27,62)        -59.4739         estimate D2E/DX2                !
 ! D98   D(25,26,27,63)        178.8499         estimate D2E/DX2                !
 ! D99   D(25,28,29,30)         -4.4902         estimate D2E/DX2                !
 ! D100  D(25,28,29,31)       -179.5182         estimate D2E/DX2                !
 ! D101  D(64,28,29,30)       -177.562          estimate D2E/DX2                !
 ! D102  D(64,28,29,31)          7.41           estimate D2E/DX2                !
 ! D103  D(28,29,30,24)          2.7104         estimate D2E/DX2                !
 ! D104  D(31,29,30,24)        177.8861         estimate D2E/DX2                !
 ! D105  D(28,29,31,32)        -57.7221         estimate D2E/DX2                !
 ! D106  D(28,29,31,38)        128.3742         estimate D2E/DX2                !
 ! D107  D(30,29,31,32)        127.5534         estimate D2E/DX2                !
 ! D108  D(30,29,31,38)        -46.3502         estimate D2E/DX2                !
 ! D109  D(29,31,32,33)       -176.2604         estimate D2E/DX2                !
 ! D110  D(29,31,32,65)         -1.2787         estimate D2E/DX2                !
 ! D111  D(38,31,32,33)         -1.7641         estimate D2E/DX2                !
 ! D112  D(38,31,32,65)        173.2177         estimate D2E/DX2                !
 ! D113  D(29,31,38,35)        176.6877         estimate D2E/DX2                !
 ! D114  D(29,31,38,69)         -5.853          estimate D2E/DX2                !
 ! D115  D(32,31,38,35)          2.335          estimate D2E/DX2                !
 ! D116  D(32,31,38,69)        179.7944         estimate D2E/DX2                !
 ! D117  D(31,32,33,34)         -0.9428         estimate D2E/DX2                !
 ! D118  D(65,32,33,34)       -175.9525         estimate D2E/DX2                !
 ! D119  D(32,33,34,35)          3.3611         estimate D2E/DX2                !
 ! D120  D(32,33,34,39)        179.279          estimate D2E/DX2                !
 ! D121  D(33,34,35,36)       -179.6137         estimate D2E/DX2                !
 ! D122  D(33,34,35,38)         -2.772          estimate D2E/DX2                !
 ! D123  D(39,34,35,36)          5.096          estimate D2E/DX2                !
 ! D124  D(39,34,35,38)       -178.0623         estimate D2E/DX2                !
 ! D125  D(33,34,39,40)         79.796          estimate D2E/DX2                !
 ! D126  D(33,34,39,45)       -104.2477         estimate D2E/DX2                !
 ! D127  D(35,34,39,40)       -104.4221         estimate D2E/DX2                !
 ! D128  D(35,34,39,45)         71.5342         estimate D2E/DX2                !
 ! D129  D(34,35,36,37)       -155.0514         estimate D2E/DX2                !
 ! D130  D(38,35,36,37)         28.1998         estimate D2E/DX2                !
 ! D131  D(34,35,38,31)         -0.2554         estimate D2E/DX2                !
 ! D132  D(34,35,38,69)       -177.6053         estimate D2E/DX2                !
 ! D133  D(36,35,38,31)        176.5519         estimate D2E/DX2                !
 ! D134  D(36,35,38,69)         -0.7981         estimate D2E/DX2                !
 ! D135  D(35,36,37,66)        -78.8866         estimate D2E/DX2                !
 ! D136  D(35,36,37,67)        165.7973         estimate D2E/DX2                !
 ! D137  D(35,36,37,68)         47.0933         estimate D2E/DX2                !
 ! D138  D(34,39,40,41)         -0.2179         estimate D2E/DX2                !
 ! D139  D(34,39,40,43)        174.9429         estimate D2E/DX2                !
 ! D140  D(45,39,40,41)       -176.4866         estimate D2E/DX2                !
 ! D141  D(45,39,40,43)         -1.3259         estimate D2E/DX2                !
 ! D142  D(34,39,45,44)       -175.8913         estimate D2E/DX2                !
 ! D143  D(40,39,45,44)          0.7377         estimate D2E/DX2                !
 ! D144  D(39,40,41,42)       -166.3687         estimate D2E/DX2                !
 ! D145  D(43,40,41,42)         19.4288         estimate D2E/DX2                !
 ! D146  D(39,40,43,44)          1.4602         estimate D2E/DX2                !
 ! D147  D(39,40,43,73)        177.6905         estimate D2E/DX2                !
 ! D148  D(41,40,43,44)        176.2113         estimate D2E/DX2                !
 ! D149  D(41,40,43,73)         -7.5584         estimate D2E/DX2                !
 ! D150  D(40,41,42,70)        -73.7512         estimate D2E/DX2                !
 ! D151  D(40,41,42,71)         52.8199         estimate D2E/DX2                !
 ! D152  D(40,41,42,72)        169.3311         estimate D2E/DX2                !
 ! D153  D(40,43,44,45)         -0.9248         estimate D2E/DX2                !
 ! D154  D(40,43,44,74)        175.2017         estimate D2E/DX2                !
 ! D155  D(73,43,44,45)       -177.0175         estimate D2E/DX2                !
 ! D156  D(73,43,44,74)         -0.891          estimate D2E/DX2                !
 ! D157  D(43,44,45,39)          0.1223         estimate D2E/DX2                !
 ! D158  D(74,44,45,39)       -176.1579         estimate D2E/DX2                !
 --------------------------------------------------------------------------------
 Trust Radius=3.00D-01 FncErr=1.00D-07 GrdErr=1.00D-06 EigMax=2.50D+02 EigMin=1.00D-04
 Number of steps in this run=    376 maximum allowed number of steps=    444.
 GradGradGradGradGradGradGradGradGradGradGradGradGradGradGradGradGradGrad

 Leave Link  103 at Thu Jul 23 12:58:29 2020, MaxMem=  4026531840 cpu:               0.2 elap:               0.0
 (Enter /opt/ohpc/pub/libs/gaussian/g16-A.03/sandybridge/g16/l202.exe)
 Stoichiometry    C33H29N3O6S3
 Framework group  C1[X(C33H29N3O6S3)]
 Deg. of freedom   216
 Full point group                 C1      NOp   1
 Largest Abelian subgroup         C1      NOp   1
 Largest concise Abelian subgroup C1      NOp   1
                         Standard orientation:                         
 ---------------------------------------------------------------------
 Center     Atomic      Atomic             Coordinates (Angstroms)
 Number     Number       Type             X           Y           Z
 ---------------------------------------------------------------------
      1          6           0      -11.176956    0.800868   -0.428809
      2          6           0      -10.230645    1.242397   -1.290005
      3          7           0       -8.986213    0.853489   -1.311721
      4          6           0       -8.555820   -0.020882   -0.260764
      5          6           0       -9.539336   -0.410185    0.690872
      6          8           0       -9.048342   -1.181370    1.711637
      7          6           0       -9.905939   -2.345478    2.008690
      8          6           0      -10.852428   -0.043642    0.623575
      9          6           0       -7.202944   -0.354883   -0.286927
     10          6           0       -6.599016   -1.675579   -0.380590
     11          8           0       -7.455551   -2.765022   -0.587093
     12          6           0       -6.769635   -4.011967   -0.810939
     13          6           0       -5.174145   -1.643076   -0.325441
     14          6           0       -4.740941   -0.336964   -0.187183
     15         16           0       -5.980986    0.827438   -0.165814
     16          6           0       -3.308354    0.021433   -0.141430
     17          6           0       -2.413178   -0.566903    0.729415
     18          7           0       -1.051253   -0.280090    0.826291
     19          6           0       -0.660237    0.711371    0.088953
     20          6           0       -1.418302    1.511427   -0.763791
     21          8           0       -0.918746    2.486709   -1.472780
     22          6           0       -1.699847    3.742838   -1.568246
     23          6           0       -2.800406    1.110632   -0.836334
     24          6           0        0.770277    1.101457    0.272216
     25          6           0        1.430397    2.195799    0.694866
     26          8           0        0.667587    3.283514    1.082935
     27          6           0        1.311955    4.376781    1.595895
     28          6           0        2.854456    2.070153    0.742070
     29          6           0        3.219585    0.873395    0.242215
     30         16           0        1.904775   -0.169464   -0.176257
     31          6           0        4.630538    0.408409    0.150673
     32          6           0        5.594101    1.121704   -0.547423
     33          7           0        6.829582    0.740627   -0.727476
     34          6           0        7.206190   -0.419128   -0.183368
     35          6           0        6.373539   -1.218676    0.466451
     36          8           0        6.846432   -2.445325    1.032938
     37          6           0        5.886200   -3.482982    1.218860
     38          6           0        5.082801   -0.812034    0.634902
     39          6           0        8.653603   -0.717001   -0.500870
     40          6           0        9.786951   -0.216892    0.096656
     41          8           0        9.718098    0.683735    1.127773
     42          6           0       10.932266    1.335569    1.442719
     43          6           0       10.955655   -0.864675   -0.447048
     44          6           0       10.657267   -1.774094   -1.425096
     45         16           0        9.052280   -1.873349   -1.670601
     46          1           0      -12.194827    1.175243   -0.543789
     47          1           0      -10.526681    1.886845   -2.154916
     48          1           0      -10.806790   -2.120000    2.512923
     49          1           0       -9.272481   -3.027693    2.561896
     50          1           0      -10.170563   -2.850352    1.022350
     51          1           0      -11.535013   -0.257306    1.383769
     52          1           0       -6.199798   -4.311119    0.059539
     53          1           0       -7.551841   -4.700860   -0.910893
     54          1           0       -6.205032   -3.973483   -1.731344
     55          1           0       -4.579577   -2.520079   -0.375763
     56          1           0       -2.755560   -1.475089    1.282961
     57          1           0       -2.509243    3.674191   -2.276659
     58          1           0       -1.070282    4.486930   -1.842803
     59          1           0       -2.102746    3.908923   -0.564531
     60          1           0       -3.493022    1.626172   -1.556958
     61          1           0        2.005435    4.757851    0.770975
     62          1           0        1.899765    4.165586    2.497135
     63          1           0        0.633918    5.213661    1.864387
     64          1           0        3.493442    2.914391    1.045737
     65          1           0        5.262188    2.085513   -1.080102
     66          1           0        5.307419   -3.292431    2.096692
     67          1           0        6.455459   -4.425507    1.412461
     68          1           0        5.252222   -3.666515    0.375174
     69          1           0        4.313833   -1.461704    1.238425
     70          1           0       11.535310    0.645098    1.927789
     71          1           0       11.366209    1.774107    0.623154
     72          1           0       10.694980    2.152345    2.138660
     73          1           0       11.979408   -0.584373   -0.131819
     74          1           0       11.350223   -2.305607   -2.003207
 ---------------------------------------------------------------------
 Rotational constants (GHZ):           0.1814940           0.0160525           0.0153031
 Leave Link  202 at Thu Jul 23 12:58:29 2020, MaxMem=  4026531840 cpu:               0.2 elap:               0.1
 (Enter /opt/ohpc/pub/libs/gaussian/g16-A.03/sandybridge/g16/l301.exe)
 Standard basis: CC-pVDZ (5D, 7F)
 Ernie: Thresh=  0.10000D-02 Tol=  0.10000D-05 Strict=F.
 Ernie:  114 primitive shells out of 1219 were deleted.
 There are   832 symmetry adapted cartesian basis functions of A   symmetry.
 There are   787 symmetry adapted basis functions of A   symmetry.
   787 basis functions,  1802 primitive gaussians,   832 cartesian basis functions
   172 alpha electrons      172 beta electrons
       nuclear repulsion energy      5462.5326980961 Hartrees.
 IExCor=32609 DFT=T Ex+Corr=LC-wPBE ExCW=0 ScaHFX=  1.000000
 ScaDFX=  1.000000  0.000000  1.000000  1.000000 ScalE2=  1.000000  1.000000
 IRadAn=      5 IRanWt=     -1 IRanGd=            0 ICorTp=0 IEmpDi=  4
 HFx  wShort=  0.000000 wLong=  0.061000 cFull=  0.000000 cShort=  0.000000 cLong=  1.000000
 DFx  wShort=  0.000000 wLong=  0.061000 cFull=  0.000000 cShort=  0.000000 cLong=  1.000000
 NAtoms=   74 NActive=   74 NUniq=   74 SFac= 1.00D+00 NAtFMM=   60 NAOKFM=T Big=T
 Integral buffers will be    131072 words long.
 Raffenetti 2 integral format.
 Two-electron integral symmetry is turned on.
 Leave Link  301 at Thu Jul 23 12:58:29 2020, MaxMem=  4026531840 cpu:               0.6 elap:               0.1
 (Enter /opt/ohpc/pub/libs/gaussian/g16-A.03/sandybridge/g16/l302.exe)
 NPDir=0 NMtPBC=     1 NCelOv=     1 NCel=       1 NClECP=     1 NCelD=      1
         NCelK=      1 NCelE2=     1 NClLst=     1 CellRange=     0.0.
 One-electron integrals computed using PRISM.
 One-electron integral symmetry used in STVInt
 NBasis=   787 RedAO= T EigKep=  4.11D-04  NBF=   787
 NBsUse=   787 1.00D-06 EigRej= -1.00D+00 NBFU=   787
 Precomputing XC quadrature grid using
 IXCGrd= 4 IRadAn=           5 IRanWt=          -1 IRanGd=           0 AccXCQ= 0.00D+00.
 Generated NRdTot=       0 NPtTot=           0 NUsed=           0 NTot=          32
 NSgBfM=   701   701   701   701   701 MxSgAt=    74 MxSgA2=    74.
 Leave Link  302 at Thu Jul 23 12:58:33 2020, MaxMem=  4026531840 cpu:              26.1 elap:               3.4
 (Enter /opt/ohpc/pub/libs/gaussian/g16-A.03/sandybridge/g16/l303.exe)
 DipDrv:  MaxL=1.
 Leave Link  303 at Thu Jul 23 12:58:33 2020, MaxMem=  4026531840 cpu:               1.7 elap:               0.3
 (Enter /opt/ohpc/pub/libs/gaussian/g16-A.03/sandybridge/g16/l401.exe)
 ExpMin= 1.22D-01 ExpMax= 1.11D+05 ExpMxC= 1.07D+03 IAcc=3 IRadAn=         5 AccDes= 0.00D+00
 Harris functional with IExCor=32609 and IRadAn=       5 diagonalized for initial guess.
 HarFok:  IExCor=32609 AccDes= 0.00D+00 IRadAn=         5 IDoV= 1 UseB2=F ITyADJ=14
 ICtDFT=  3500011 ScaDFX=  1.000000  1.000000  1.000000  1.000000
 FoFCou: FMM=F IPFlag=           0 FMFlag=      100000 FMFlg1=        2001
         NFxFlg=           0 DoJE=T BraDBF=F KetDBF=T FulRan=T
         wScrn=  0.000000 ICntrl=       500 IOpCl=  0 I1Cent=   200000004 NGrid=           0
         NMat0=    1 NMatS0=      1 NMatT0=    0 NMatD0=    1 NMtDS0=    0 NMtDT0=    0
 Petite list used in FoFCou.
 Harris En= -3082.93595474289    
 JPrj=0 DoOrth=F DoCkMO=F.
 Initial guess <Sx>= 0.0000 <Sy>= 0.0000 <Sz>= 0.0000 <S**2>=-0.0000 S=-0.0000
 Leave Link  401 at Thu Jul 23 12:58:46 2020, MaxMem=  4026531840 cpu:             104.7 elap:              13.2
 (Enter /opt/ohpc/pub/libs/gaussian/g16-A.03/sandybridge/g16/l502.exe)
 Integral symmetry usage will be decided dynamically.
 UHF open shell SCF:
 Using DIIS extrapolation, IDIIS=  1040.
 NGot=  4026531840 LenX=  4025132128 LenY=  4024439072
 Requested convergence on RMS density matrix=1.00D-08 within 128 cycles.
 Requested convergence on MAX density matrix=1.00D-06.
 Requested convergence on             energy=1.00D-06.
 No special actions if energy rises.
 Fock matrices will be formed incrementally for  20 cycles.
 Integral accuracy reduced to 1.0D-05 until final iterations.

 Cycle   1  Pass 0  IDiag  1:
 FoFJK:  IHMeth= 1 ICntrl=       0 DoSepK=T KAlg= 0 I1Cent=           0 FoldK=F
 IRaf=         1 NMat=       1 IRICut=       1 DoRegI=T DoRafI=F ISym2E= 0 IDoP0=0 IntGTp=1.
 FoFCou: FMM=T IPFlag=           0 FMFlag=      100000 FMFlg1=        2001
         NFxFlg=           0 DoJE=T BraDBF=F KetDBF=F FulRan=T
         wScrn=  0.000000 ICntrl=       500 IOpCl=  0 I1Cent=           0 NGrid=           0
         NMat0=    1 NMatS0=      1 NMatT0=    0 NMatD0=    1 NMtDS0=    0 NMtDT0=    0
 Symmetry not used in FoFCou.
 FMM levels:  10  Number of levels for PrismC:   9
 E= -3081.83223808890    
 DIIS: error= 1.80D-02 at cycle   1 NSaved=   1.
 NSaved= 1 IEnMin= 1 EnMin= -3081.83223808890     IErMin= 1 ErrMin= 1.80D-02
 ErrMax= 1.80D-02  0.00D+00 EMaxC= 1.00D-01 BMatC= 2.78D+00 BMatP= 2.78D+00
 IDIUse=3 WtCom= 8.20D-01 WtEn= 1.80D-01
 Coeff-Com:  0.100D+01
 Coeff-En:   0.100D+01
 Coeff:      0.100D+01
 Gap=     0.198 Goal=   None    Shift=    0.000
 Gap=     0.198 Goal=   None    Shift=    0.000
 GapD=    0.198 DampG=1.000 DampE=0.500 DampFc=0.5000 IDamp=-1.
 Damping current iteration by 5.00D-01
 RMSDP=3.13D-03 MaxDP=1.95D-01              OVMax= 2.56D-01

 Cycle   2  Pass 0  IDiag  1:
 RMSU=  1.56D-03    CP:  9.93D-01
 E= -3082.11352523377     Delta-E=       -0.281287144873 Rises=F Damp=T
 DIIS: error= 8.67D-03 at cycle   2 NSaved=   2.
 NSaved= 2 IEnMin= 2 EnMin= -3082.11352523377     IErMin= 2 ErrMin= 8.67D-03
 ErrMax= 8.67D-03  0.00D+00 EMaxC= 1.00D-01 BMatC= 2.63D-01 BMatP= 2.78D+00
 IDIUse=3 WtCom= 9.13D-01 WtEn= 8.67D-02
 Coeff-Com:  0.168D+00 0.832D+00
 Coeff-En:   0.276D+00 0.724D+00
 Coeff:      0.178D+00 0.822D+00
 Gap=     0.228 Goal=   None    Shift=    0.000
 Gap=     0.228 Goal=   None    Shift=    0.000
 RMSDP=8.78D-04 MaxDP=5.36D-02 DE=-2.81D-01 OVMax= 2.35D-01

 Cycle   3  Pass 0  IDiag  1:
 RMSU=  8.17D-04    CP:  9.91D-01  7.94D-01
 E= -3082.57620275370     Delta-E=       -0.462677519929 Rises=F Damp=F
 DIIS: error= 4.59D-03 at cycle   3 NSaved=   3.
 NSaved= 3 IEnMin= 3 EnMin= -3082.57620275370     IErMin= 3 ErrMin= 4.59D-03
 ErrMax= 4.59D-03  0.00D+00 EMaxC= 1.00D-01 BMatC= 2.07D-01 BMatP= 2.63D-01
 IDIUse=3 WtCom= 9.54D-01 WtEn= 4.59D-02
 Coeff-Com:  0.628D-01 0.470D+00 0.467D+00
 Coeff-En:   0.000D+00 0.000D+00 0.100D+01
 Coeff:      0.599D-01 0.449D+00 0.491D+00
 Gap=     0.157 Goal=   None    Shift=    0.000
 Gap=     0.157 Goal=   None    Shift=    0.000
 RMSDP=4.82D-04 MaxDP=3.72D-02 DE=-4.63D-01 OVMax= 7.19D-02

 Cycle   4  Pass 0  IDiag  1:
 RMSU=  2.99D-04    CP:  9.93D-01  8.78D-01  5.66D-01
 E= -3082.62304797014     Delta-E=       -0.046845216440 Rises=F Damp=F
 DIIS: error= 2.10D-03 at cycle   4 NSaved=   4.
 NSaved= 4 IEnMin= 4 EnMin= -3082.62304797014     IErMin= 4 ErrMin= 2.10D-03
 ErrMax= 2.10D-03  0.00D+00 EMaxC= 1.00D-01 BMatC= 4.46D-02 BMatP= 2.07D-01
 IDIUse=3 WtCom= 9.79D-01 WtEn= 2.10D-02
 Coeff-Com:  0.212D-01 0.154D+00 0.320D+00 0.505D+00
 Coeff-En:   0.000D+00 0.000D+00 0.193D+00 0.807D+00
 Coeff:      0.208D-01 0.150D+00 0.318D+00 0.511D+00
 Gap=     0.158 Goal=   None    Shift=    0.000
 Gap=     0.158 Goal=   None    Shift=    0.000
 RMSDP=1.71D-04 MaxDP=2.29D-02 DE=-4.68D-02 OVMax= 3.44D-02

 Cycle   5  Pass 0  IDiag  1:
 RMSU=  1.04D-04    CP:  9.93D-01  8.61D-01  6.60D-01  6.38D-01
 E= -3082.63312610380     Delta-E=       -0.010078133657 Rises=F Damp=F
 DIIS: error= 7.19D-04 at cycle   5 NSaved=   5.
 NSaved= 5 IEnMin= 5 EnMin= -3082.63312610380     IErMin= 5 ErrMin= 7.19D-04
 ErrMax= 7.19D-04  0.00D+00 EMaxC= 1.00D-01 BMatC= 6.10D-03 BMatP= 4.46D-02
 IDIUse=3 WtCom= 9.93D-01 WtEn= 7.19D-03
 Coeff-Com:  0.984D-02 0.470D-01 0.160D+00 0.339D+00 0.444D+00
 Coeff-En:   0.000D+00 0.000D+00 0.000D+00 0.844D-01 0.916D+00
 Coeff:      0.977D-02 0.467D-01 0.159D+00 0.337D+00 0.447D+00
 Gap=     0.158 Goal=   None    Shift=    0.000
 Gap=     0.158 Goal=   None    Shift=    0.000
 RMSDP=6.84D-05 MaxDP=8.40D-03 DE=-1.01D-02 OVMax= 1.25D-02

 Cycle   6  Pass 0  IDiag  1:
 RMSU=  4.34D-05    CP:  9.93D-01  8.53D-01  6.60D-01  6.84D-01  5.24D-01
 E= -3082.63450638209     Delta-E=       -0.001380278296 Rises=F Damp=F
 DIIS: error= 2.65D-04 at cycle   6 NSaved=   6.
 NSaved= 6 IEnMin= 6 EnMin= -3082.63450638209     IErMin= 6 ErrMin= 2.65D-04
 ErrMax= 2.65D-04  0.00D+00 EMaxC= 1.00D-01 BMatC= 8.95D-04 BMatP= 6.10D-03
 IDIUse=3 WtCom= 9.97D-01 WtEn= 2.65D-03
 Coeff-Com:  0.376D-02 0.491D-03 0.480D-01 0.135D+00 0.304D+00 0.508D+00
 Coeff-En:   0.000D+00 0.000D+00 0.000D+00 0.000D+00 0.133D+00 0.867D+00
 Coeff:      0.375D-02 0.489D-03 0.479D-01 0.135D+00 0.304D+00 0.509D+00
 Gap=     0.158 Goal=   None    Shift=    0.000
 Gap=     0.158 Goal=   None    Shift=    0.000
 RMSDP=2.81D-05 MaxDP=2.35D-03 DE=-1.38D-03 OVMax= 3.75D-03

 Cycle   7  Pass 0  IDiag  1:
 RMSU=  2.03D-05    CP:  9.93D-01  8.53D-01  6.68D-01  6.88D-01  6.33D-01
                    CP:  6.72D-01
 E= -3082.63472469428     Delta-E=       -0.000218312187 Rises=F Damp=F
 DIIS: error= 6.78D-05 at cycle   7 NSaved=   7.
 NSaved= 7 IEnMin= 7 EnMin= -3082.63472469428     IErMin= 7 ErrMin= 6.78D-05
 ErrMax= 6.78D-05  0.00D+00 EMaxC= 1.00D-01 BMatC= 8.81D-05 BMatP= 8.95D-04
 IDIUse=1 WtCom= 1.00D+00 WtEn= 0.00D+00
 Coeff-Com:  0.147D-02-0.497D-02 0.122D-01 0.457D-01 0.134D+00 0.309D+00
 Coeff-Com:  0.502D+00
 Coeff:      0.147D-02-0.497D-02 0.122D-01 0.457D-01 0.134D+00 0.309D+00
 Coeff:      0.502D+00
 Gap=     0.158 Goal=   None    Shift=    0.000
 Gap=     0.158 Goal=   None    Shift=    0.000
 RMSDP=1.64D-05 MaxDP=4.41D-04 DE=-2.18D-04 OVMax= 9.53D-04

 Cycle   8  Pass 0  IDiag  1:
 RMSU=  1.51D-05    CP:  9.93D-01  8.52D-01  6.68D-01  6.93D-01  6.40D-01
                    CP:  8.01D-01  1.11D+00
 E= -3082.63474784306     Delta-E=       -0.000023148779 Rises=F Damp=F
 DIIS: error= 7.22D-05 at cycle   8 NSaved=   8.
 NSaved= 8 IEnMin= 8 EnMin= -3082.63474784306     IErMin= 7 ErrMin= 6.78D-05
 ErrMax= 7.22D-05  0.00D+00 EMaxC= 1.00D-01 BMatC= 1.85D-05 BMatP= 8.81D-05
 IDIUse=1 WtCom= 1.00D+00 WtEn= 0.00D+00
 Coeff-Com:  0.957D-03-0.353D-02 0.709D-02 0.273D-01 0.830D-01 0.197D+00
 Coeff-Com:  0.359D+00 0.329D+00
 Coeff:      0.957D-03-0.353D-02 0.709D-02 0.273D-01 0.830D-01 0.197D+00
 Coeff:      0.359D+00 0.329D+00
 Gap=     0.158 Goal=   None    Shift=    0.000
 Gap=     0.158 Goal=   None    Shift=    0.000
 RMSDP=1.37D-05 MaxDP=4.42D-04 DE=-2.31D-05 OVMax= 2.03D-04

 Cycle   9  Pass 0  IDiag  1:
 RMSU=  9.00D-06    CP:  9.93D-01  8.52D-01  6.68D-01  6.94D-01  6.49D-01
                    CP:  8.50D-01  1.47D+00  1.47D+00
 E= -3082.63475277342     Delta-E=       -0.000004930356 Rises=F Damp=F
 DIIS: error= 9.71D-05 at cycle   9 NSaved=   9.
 NSaved= 9 IEnMin= 9 EnMin= -3082.63475277342     IErMin= 7 ErrMin= 6.78D-05
 ErrMax= 9.71D-05  0.00D+00 EMaxC= 1.00D-01 BMatC= 2.25D-05 BMatP= 1.85D-05
 IDIUse=1 WtCom= 1.00D+00 WtEn= 0.00D+00
 Coeff-Com:  0.102D-02-0.402D-02 0.721D-02 0.287D-01 0.891D-01 0.216D+00
 Coeff-Com:  0.411D+00 0.539D+00-0.288D+00
 Coeff:      0.102D-02-0.402D-02 0.721D-02 0.287D-01 0.891D-01 0.216D+00
 Coeff:      0.411D+00 0.539D+00-0.288D+00
 Gap=     0.158 Goal=   None    Shift=    0.000
 Gap=     0.158 Goal=   None    Shift=    0.000
 RMSDP=1.20D-05 MaxDP=3.58D-04 DE=-4.93D-06 OVMax= 6.01D-05

 Cycle  10  Pass 0  IDiag  1:
 RMSU=  7.10D-06    CP:  9.93D-01  8.52D-01  6.68D-01  6.94D-01  6.43D-01
                    CP:  8.17D-01  1.25D+00  1.02D+00  4.33D-01
 E= -3082.63475131501     Delta-E=        0.000001458404 Rises=F Damp=F
 DIIS: error= 6.79D-05 at cycle  10 NSaved=  10.
 NSaved=10 IEnMin= 9 EnMin= -3082.63475277342     IErMin= 7 ErrMin= 6.78D-05
 ErrMax= 6.79D-05  0.00D+00 EMaxC= 1.00D-01 BMatC= 1.69D-05 BMatP= 1.85D-05
 IDIUse=1 WtCom= 1.00D+00 WtEn= 0.00D+00
 Coeff-Com:  0.873D-03-0.355D-02 0.583D-02 0.236D-01 0.744D-01 0.183D+00
 Coeff-Com:  0.360D+00 0.562D+00-0.588D+00 0.382D+00
 Coeff:      0.873D-03-0.355D-02 0.583D-02 0.236D-01 0.744D-01 0.183D+00
 Coeff:      0.360D+00 0.562D+00-0.588D+00 0.382D+00
 Gap=     0.158 Goal=   None    Shift=    0.000
 Gap=     0.158 Goal=   None    Shift=    0.000
 RMSDP=1.09D-05 MaxDP=4.66D-04 DE= 1.46D-06 OVMax= 4.13D-05

 Cycle  11  Pass 0  IDiag  1:
 RMSU=  8.97D-06    CP:  9.93D-01  8.52D-01  6.68D-01  6.94D-01  6.44D-01
                    CP:  8.19D-01  1.20D+00  9.31D-01 -6.90D-02  1.53D+00
 E= -3082.63474799392     Delta-E=        0.000003321093 Rises=F Damp=F
 DIIS: error= 7.50D-05 at cycle  11 NSaved=  11.
 NSaved=11 IEnMin= 9 EnMin= -3082.63475277342     IErMin= 7 ErrMin= 6.78D-05
 ErrMax= 7.50D-05  0.00D+00 EMaxC= 1.00D-01 BMatC= 1.63D-05 BMatP= 1.69D-05
 IDIUse=1 WtCom= 1.00D+00 WtEn= 0.00D+00
 Coeff-Com:  0.887D-03-0.364D-02 0.587D-02 0.239D-01 0.756D-01 0.187D+00
 Coeff-Com:  0.370D+00 0.597D+00-0.640D+00 0.482D+00-0.989D-01
 Coeff:      0.887D-03-0.364D-02 0.587D-02 0.239D-01 0.756D-01 0.187D+00
 Coeff:      0.370D+00 0.597D+00-0.640D+00 0.482D+00-0.989D-01
 Gap=     0.158 Goal=   None    Shift=    0.000
 Gap=     0.158 Goal=   None    Shift=    0.000
 RMSDP=3.01D-06 MaxDP=1.00D-04 DE= 3.32D-06 OVMax= 8.48D-06

 Initial convergence to 1.0D-05 achieved.  Increase integral accuracy.
 Cycle  12  Pass 1  IDiag  1:
 E= -3082.63422321715     Delta-E=        0.000524776771 Rises=F Damp=F
 DIIS: error= 2.28D-04 at cycle   1 NSaved=   1.
 NSaved= 1 IEnMin= 1 EnMin= -3082.63422321715     IErMin= 1 ErrMin= 2.28D-04
 ErrMax= 2.28D-04  0.00D+00 EMaxC= 1.00D-01 BMatC= 1.58D-04 BMatP= 1.58D-04
 IDIUse=3 WtCom= 9.98D-01 WtEn= 2.28D-03
 Coeff-Com:  0.100D+01
 Coeff-En:   0.100D+01
 Coeff:      0.100D+01
 Gap=     0.158 Goal=   None    Shift=    0.000
 Gap=     0.158 Goal=   None    Shift=    0.000
 RMSDP=3.01D-06 MaxDP=1.00D-04 DE= 5.25D-04 OVMax= 5.99D-04

 Cycle  13  Pass 1  IDiag  1:
 RMSU=  1.61D-04    CP:  1.00D+00
 E= -3082.63426068717     Delta-E=       -0.000037470023 Rises=F Damp=F
 DIIS: error= 1.25D-05 at cycle   2 NSaved=   2.
 NSaved= 2 IEnMin= 2 EnMin= -3082.63426068717     IErMin= 2 ErrMin= 1.25D-05
 ErrMax= 1.25D-05  0.00D+00 EMaxC= 1.00D-01 BMatC= 1.57D-06 BMatP= 1.58D-04
 IDIUse=1 WtCom= 1.00D+00 WtEn= 0.00D+00
 Coeff-Com: -0.115D-01 0.101D+01
 Coeff:     -0.115D-01 0.101D+01
 Gap=     0.158 Goal=   None    Shift=    0.000
 Gap=     0.158 Goal=   None    Shift=    0.000
 RMSDP=6.72D-06 MaxDP=2.37D-04 DE=-3.75D-05 OVMax= 3.24D-04

 Cycle  14  Pass 1  IDiag  1:
 RMSU=  2.90D-06    CP:  1.00D+00  1.04D+00
 E= -3082.63425933065     Delta-E=        0.000001356522 Rises=F Damp=F
 DIIS: error= 2.97D-05 at cycle   3 NSaved=   3.
 NSaved= 3 IEnMin= 2 EnMin= -3082.63426068717     IErMin= 2 ErrMin= 1.25D-05
 ErrMax= 2.97D-05  0.00D+00 EMaxC= 1.00D-01 BMatC= 6.38D-06 BMatP= 1.57D-06
 IDIUse=1 WtCom= 1.00D+00 WtEn= 0.00D+00
 Coeff-Com: -0.174D-01 0.688D+00 0.329D+00
 Coeff:     -0.174D-01 0.688D+00 0.329D+00
 Gap=     0.158 Goal=   None    Shift=    0.000
 Gap=     0.158 Goal=   None    Shift=    0.000
 RMSDP=1.81D-06 MaxDP=1.07D-04 DE= 1.36D-06 OVMax= 2.46D-04

 Cycle  15  Pass 1  IDiag  1:
 RMSU=  9.55D-07    CP:  1.00D+00  1.04D+00  4.72D-01
 E= -3082.63426104390     Delta-E=       -0.000001713248 Rises=F Damp=F
 DIIS: error= 3.06D-06 at cycle   4 NSaved=   4.
 NSaved= 4 IEnMin= 4 EnMin= -3082.63426104390     IErMin= 4 ErrMin= 3.06D-06
 ErrMax= 3.06D-06  0.00D+00 EMaxC= 1.00D-01 BMatC= 1.05D-07 BMatP= 1.57D-06
 IDIUse=1 WtCom= 1.00D+00 WtEn= 0.00D+00
 Coeff-Com: -0.102D-01 0.387D+00 0.199D+00 0.424D+00
 Coeff:     -0.102D-01 0.387D+00 0.199D+00 0.424D+00
 Gap=     0.158 Goal=   None    Shift=    0.000
 Gap=     0.158 Goal=   None    Shift=    0.000
 RMSDP=2.47D-07 MaxDP=3.70D-05 DE=-1.71D-06 OVMax= 4.94D-05

 Cycle  16  Pass 1  IDiag  1:
 RMSU=  2.16D-07    CP:  1.00D+00  1.04D+00  5.02D-01  9.24D-01
 E= -3082.63426107604     Delta-E=       -0.000000032140 Rises=F Damp=F
 DIIS: error= 8.11D-07 at cycle   5 NSaved=   5.
 NSaved= 5 IEnMin= 5 EnMin= -3082.63426107604     IErMin= 5 ErrMin= 8.11D-07
 ErrMax= 8.11D-07  0.00D+00 EMaxC= 1.00D-01 BMatC= 7.80D-09 BMatP= 1.05D-07
 IDIUse=1 WtCom= 1.00D+00 WtEn= 0.00D+00
 Coeff-Com: -0.178D-02 0.611D-01 0.360D-01 0.222D+00 0.683D+00
 Coeff:     -0.178D-02 0.611D-01 0.360D-01 0.222D+00 0.683D+00
 Gap=     0.158 Goal=   None    Shift=    0.000
 Gap=     0.158 Goal=   None    Shift=    0.000
 RMSDP=1.11D-07 MaxDP=1.20D-05 DE=-3.21D-08 OVMax= 1.79D-05

 Cycle  17  Pass 1  IDiag  1:
 RMSU=  7.70D-08    CP:  1.00D+00  1.04D+00  5.07D-01  9.68D-01  7.83D-01
 E= -3082.63426107690     Delta-E=       -0.000000000860 Rises=F Damp=F
 DIIS: error= 6.69D-07 at cycle   6 NSaved=   6.
 NSaved= 6 IEnMin= 6 EnMin= -3082.63426107690     IErMin= 6 ErrMin= 6.69D-07
 ErrMax= 6.69D-07  0.00D+00 EMaxC= 1.00D-01 BMatC= 4.13D-09 BMatP= 7.80D-09
 IDIUse=1 WtCom= 1.00D+00 WtEn= 0.00D+00
 Coeff-Com:  0.651D-04-0.688D-02-0.489D-03 0.104D+00 0.500D+00 0.403D+00
 Coeff:      0.651D-04-0.688D-02-0.489D-03 0.104D+00 0.500D+00 0.403D+00
 Gap=     0.158 Goal=   None    Shift=    0.000
 Gap=     0.158 Goal=   None    Shift=    0.000
 RMSDP=5.53D-08 MaxDP=4.33D-06 DE=-8.60D-10 OVMax= 8.93D-06

 Cycle  18  Pass 1  IDiag  1:
 RMSU=  2.78D-08    CP:  1.00D+00  1.04D+00  5.08D-01  9.79D-01  8.63D-01
                    CP:  4.71D-01
 E= -3082.63426107809     Delta-E=       -0.000000001190 Rises=F Damp=F
 DIIS: error= 1.06D-07 at cycle   7 NSaved=   7.
 NSaved= 7 IEnMin= 7 EnMin= -3082.63426107809     IErMin= 7 ErrMin= 1.06D-07
 ErrMax= 1.06D-07  0.00D+00 EMaxC= 1.00D-01 BMatC= 1.98D-10 BMatP= 4.13D-09
 IDIUse=1 WtCom= 1.00D+00 WtEn= 0.00D+00
 Coeff-Com:  0.217D-03-0.102D-01-0.404D-02 0.397D-01 0.230D+00 0.243D+00
 Coeff-Com:  0.501D+00
 Coeff:      0.217D-03-0.102D-01-0.404D-02 0.397D-01 0.230D+00 0.243D+00
 Coeff:      0.501D+00
 Gap=     0.158 Goal=   None    Shift=    0.000
 Gap=     0.158 Goal=   None    Shift=    0.000
 RMSDP=1.19D-08 MaxDP=8.27D-07 DE=-1.19D-09 OVMax= 1.65D-06

 Cycle  19  Pass 1  IDiag  1:
 RMSU=  9.61D-09    CP:  1.00D+00  1.04D+00  5.09D-01  9.81D-01  8.66D-01
                    CP:  5.32D-01  8.44D-01
 E= -3082.63426107805     Delta-E=        0.000000000038 Rises=F Damp=F
 DIIS: error= 5.12D-08 at cycle   8 NSaved=   8.
 NSaved= 8 IEnMin= 7 EnMin= -3082.63426107809     IErMin= 8 ErrMin= 5.12D-08
 ErrMax= 5.12D-08  0.00D+00 EMaxC= 1.00D-01 BMatC= 2.13D-11 BMatP= 1.98D-10
 IDIUse=1 WtCom= 1.00D+00 WtEn= 0.00D+00
 Coeff-Com:  0.125D-03-0.556D-02-0.249D-02 0.144D-01 0.928D-01 0.112D+00
 Coeff-Com:  0.300D+00 0.488D+00
 Coeff:      0.125D-03-0.556D-02-0.249D-02 0.144D-01 0.928D-01 0.112D+00
 Coeff:      0.300D+00 0.488D+00
 Gap=     0.158 Goal=   None    Shift=    0.000
 Gap=     0.158 Goal=   None    Shift=    0.000
 RMSDP=4.70D-09 MaxDP=3.89D-07 DE= 3.82D-11 OVMax= 8.40D-07

 SCF Done:  E(ULC-wPBE) =  -3082.63426108     A.U. after   19 cycles
            NFock= 19  Conv=0.47D-08     -V/T= 2.0040
 <Sx>= 0.0000 <Sy>= 0.0000 <Sz>= 0.0000 <S**2>=-0.0000 S=-0.0000
 <L.S>= 0.000000000000E+00
 KE= 3.070373735397D+03 PE=-1.817011150027D+04 EE= 6.554570805699D+03
 Annihilation of the first spin contaminant:
 S**2 before annihilation    -0.0000,   after     0.0000
 Leave Link  502 at Thu Jul 23 13:11:21 2020, MaxMem=  4026531840 cpu:            5934.5 elap:             755.2
 (Enter /opt/ohpc/pub/libs/gaussian/g16-A.03/sandybridge/g16/l601.exe)
 Copying SCF densities to generalized density rwf, IOpCl= 1 IROHF=0.

 **********************************************************************

            Population analysis using the SCF density.

 **********************************************************************

 Orbital symmetries:
 Alpha Orbitals:
       Occupied  (A) (A) (A) (A) (A) (A) (A) (A) (A) (A) (A) (A)
                 (A) (A) (A) (A) (A) (A) (A) (A) (A) (A) (A) (A)
                 (A) (A) (A) (A) (A) (A) (A) (A) (A) (A) (A) (A)
                 (A) (A) (A) (A) (A) (A) (A) (A) (A) (A) (A) (A)
                 (A) (A) (A) (A) (A) (A) (A) (A) (A) (A) (A) (A)
                 (A) (A) (A) (A) (A) (A) (A) (A) (A) (A) (A) (A)
                 (A) (A) (A) (A) (A) (A) (A) (A) (A) (A) (A) (A)
                 (A) (A) (A) (A) (A) (A) (A) (A) (A) (A) (A) (A)
                 (A) (A) (A) (A) (A) (A) (A) (A) (A) (A) (A) (A)
                 (A) (A) (A) (A) (A) (A) (A) (A) (A) (A) (A) (A)
                 (A) (A) (A) (A) (A) (A) (A) (A) (A) (A) (A) (A)
                 (A) (A) (A) (A) (A) (A) (A) (A) (A) (A) (A) (A)
                 (A) (A) (A) (A) (A) (A) (A) (A) (A) (A) (A) (A)
                 (A) (A) (A) (A) (A) (A) (A) (A) (A) (A) (A) (A)
                 (A) (A) (A) (A)
       Virtual   (A) (A) (A) (A) (A) (A) (A) (A) (A) (A) (A) (A)
                 (A) (A) (A) (A) (A) (A) (A) (A) (A) (A) (A) (A)
                 (A) (A) (A) (A) (A) (A) (A) (A) (A) (A) (A) (A)
                 (A) (A) (A) (A) (A) (A) (A) (A) (A) (A) (A) (A)
                 (A) (A) (A) (A) (A) (A) (A) (A) (A) (A) (A) (A)
                 (A) (A) (A) (A) (A) (A) (A) (A) (A) (A) (A) (A)
                 (A) (A) (A) (A) (A) (A) (A) (A) (A) (A) (A) (A)
                 (A) (A) (A) (A) (A) (A) (A) (A) (A) (A) (A) (A)
                 (A) (A) (A) (A) (A) (A) (A) (A) (A) (A) (A) (A)
                 (A) (A) (A) (A) (A) (A) (A) (A) (A) (A) (A) (A)
                 (A) (A) (A) (A) (A) (A) (A) (A) (A) (A) (A) (A)
                 (A) (A) (A) (A) (A) (A) (A) (A) (A) (A) (A) (A)
                 (A) (A) (A) (A) (A) (A) (A) (A) (A) (A) (A) (A)
                 (A) (A) (A) (A) (A) (A) (A) (A) (A) (A) (A) (A)
                 (A) (A) (A) (A) (A) (A) (A) (A) (A) (A) (A) (A)
                 (A) (A) (A) (A) (A) (A) (A) (A) (A) (A) (A) (A)
                 (A) (A) (A) (A) (A) (A) (A) (A) (A) (A) (A) (A)
                 (A) (A) (A) (A) (A) (A) (A) (A) (A) (A) (A) (A)
                 (A) (A) (A) (A) (A) (A) (A) (A) (A) (A) (A) (A)
                 (A) (A) (A) (A) (A) (A) (A) (A) (A) (A) (A) (A)
                 (A) (A) (A) (A) (A) (A) (A) (A) (A) (A) (A) (A)
                 (A) (A) (A) (A) (A) (A) (A) (A) (A) (A) (A) (A)
                 (A) (A) (A) (A) (A) (A) (A) (A) (A) (A) (A) (A)
                 (A) (A) (A) (A) (A) (A) (A) (A) (A) (A) (A) (A)
                 (A) (A) (A) (A) (A) (A) (A) (A) (A) (A) (A) (A)
                 (A) (A) (A) (A) (A) (A) (A) (A) (A) (A) (A) (A)
                 (A) (A) (A) (A) (A) (A) (A) (A) (A) (A) (A) (A)
                 (A) (A) (A) (A) (A) (A) (A) (A) (A) (A) (A) (A)
                 (A) (A) (A) (A) (A) (A) (A) (A) (A) (A) (A) (A)
                 (A) (A) (A) (A) (A) (A) (A) (A) (A) (A) (A) (A)
                 (A) (A) (A) (A) (A) (A) (A) (A) (A) (A) (A) (A)
                 (A) (A) (A) (A) (A) (A) (A) (A) (A) (A) (A) (A)
                 (A) (A) (A) (A) (A) (A) (A) (A) (A) (A) (A) (A)
                 (A) (A) (A) (A) (A) (A) (A) (A) (A) (A) (A) (A)
                 (A) (A) (A) (A) (A) (A) (A) (A) (A) (A) (A) (A)
                 (A) (A) (A) (A) (A) (A) (A) (A) (A) (A) (A) (A)
                 (A) (A) (A) (A) (A) (A) (A) (A) (A) (A) (A) (A)
                 (A) (A) (A) (A) (A) (A) (A) (A) (A) (A) (A) (A)
                 (A) (A) (A) (A) (A) (A) (A) (A) (A) (A) (A) (A)
                 (A) (A) (A) (A) (A) (A) (A) (A) (A) (A) (A) (A)
                 (A) (A) (A) (A) (A) (A) (A) (A) (A) (A) (A) (A)
                 (A) (A) (A) (A) (A) (A) (A) (A) (A) (A) (A) (A)
                 (A) (A) (A) (A) (A) (A) (A) (A) (A) (A) (A) (A)
                 (A) (A) (A) (A) (A) (A) (A) (A) (A) (A) (A) (A)
                 (A) (A) (A) (A) (A) (A) (A) (A) (A) (A) (A) (A)
                 (A) (A) (A) (A) (A) (A) (A) (A) (A) (A) (A) (A)
                 (A) (A) (A) (A) (A) (A) (A) (A) (A) (A) (A) (A)
                 (A) (A) (A) (A) (A) (A) (A) (A) (A) (A) (A) (A)
                 (A) (A) (A) (A) (A) (A) (A) (A) (A) (A) (A) (A)
                 (A) (A) (A) (A) (A) (A) (A) (A) (A) (A) (A) (A)
                 (A) (A) (A) (A) (A) (A) (A) (A) (A) (A) (A) (A)
                 (A) (A) (A)
 Beta  Orbitals:
       Occupied  (A) (A) (A) (A) (A) (A) (A) (A) (A) (A) (A) (A)
                 (A) (A) (A) (A) (A) (A) (A) (A) (A) (A) (A) (A)
                 (A) (A) (A) (A) (A) (A) (A) (A) (A) (A) (A) (A)
                 (A) (A) (A) (A) (A) (A) (A) (A) (A) (A) (A) (A)
                 (A) (A) (A) (A) (A) (A) (A) (A) (A) (A) (A) (A)
                 (A) (A) (A) (A) (A) (A) (A) (A) (A) (A) (A) (A)
                 (A) (A) (A) (A) (A) (A) (A) (A) (A) (A) (A) (A)
                 (A) (A) (A) (A) (A) (A) (A) (A) (A) (A) (A) (A)
                 (A) (A) (A) (A) (A) (A) (A) (A) (A) (A) (A) (A)
                 (A) (A) (A) (A) (A) (A) (A) (A) (A) (A) (A) (A)
                 (A) (A) (A) (A) (A) (A) (A) (A) (A) (A) (A) (A)
                 (A) (A) (A) (A) (A) (A) (A) (A) (A) (A) (A) (A)
                 (A) (A) (A) (A) (A) (A) (A) (A) (A) (A) (A) (A)
                 (A) (A) (A) (A) (A) (A) (A) (A) (A) (A) (A) (A)
                 (A) (A) (A) (A)
       Virtual   (A) (A) (A) (A) (A) (A) (A) (A) (A) (A) (A) (A)
                 (A) (A) (A) (A) (A) (A) (A) (A) (A) (A) (A) (A)
                 (A) (A) (A) (A) (A) (A) (A) (A) (A) (A) (A) (A)
                 (A) (A) (A) (A) (A) (A) (A) (A) (A) (A) (A) (A)
                 (A) (A) (A) (A) (A) (A) (A) (A) (A) (A) (A) (A)
                 (A) (A) (A) (A) (A) (A) (A) (A) (A) (A) (A) (A)
                 (A) (A) (A) (A) (A) (A) (A) (A) (A) (A) (A) (A)
                 (A) (A) (A) (A) (A) (A) (A) (A) (A) (A) (A) (A)
                 (A) (A) (A) (A) (A) (A) (A) (A) (A) (A) (A) (A)
[...]
 
              Baa    -0.0000    -0.000    -0.000    -0.000  0.1308 -0.3758  0.9174
    13 C(13)  Bbb    -0.0000    -0.000    -0.000    -0.000  0.7658 -0.5494 -0.3342
              Bcc     0.0000     0.000     0.000     0.000  0.6296  0.7463  0.2159
 
              Baa    -0.0000    -0.000    -0.000    -0.000  0.4931  0.8469  0.1990
    14 C(13)  Bbb     0.0000     0.000     0.000     0.000  0.8087 -0.3619 -0.4638
              Bcc     0.0000     0.000     0.000     0.000  0.3207 -0.3896  0.8633
 
              Baa    -0.0000    -0.000    -0.000    -0.000  0.9737 -0.0495  0.2222
    15 S(33)  Bbb     0.0000     0.000     0.000     0.000  0.1272  0.9277 -0.3509
              Bcc     0.0000     0.000     0.000     0.000 -0.1888  0.3699  0.9097
 
              Baa    -0.0000    -0.000    -0.000    -0.000  0.1515  0.9811 -0.1208
    16 C(13)  Bbb    -0.0000    -0.000    -0.000    -0.000 -0.2450  0.1557  0.9569
              Bcc     0.0000     0.000     0.000     0.000  0.9576 -0.1154  0.2639
 
              Baa    -0.0000    -0.000    -0.000    -0.000  0.4173  0.8616 -0.2890
    17 C(13)  Bbb    -0.0000    -0.000    -0.000    -0.000  0.0316  0.3041  0.9521
              Bcc     0.0000     0.000     0.000     0.000  0.9082 -0.4065  0.0997
 
              Baa    -0.0000    -0.000    -0.000    -0.000  0.0251 -0.0091  0.9996
    18 N(14)  Bbb    -0.0000    -0.000    -0.000    -0.000  0.9511 -0.3078 -0.0267
              Bcc     0.0000     0.000     0.000     0.000  0.3079  0.9514  0.0010
 
              Baa    -0.0000    -0.000    -0.000    -0.000  0.7972  0.0379  0.6026
    19 C(13)  Bbb    -0.0000    -0.000    -0.000    -0.000 -0.1180  0.9886  0.0939
              Bcc     0.0000     0.000     0.000     0.000 -0.5921 -0.1460  0.7925
 
              Baa    -0.0000    -0.000    -0.000    -0.000  0.7469  0.6632  0.0474
    20 C(13)  Bbb     0.0000     0.000     0.000     0.000 -0.6275  0.7267 -0.2795
              Bcc     0.0000     0.000     0.000     0.000 -0.2198  0.1790  0.9590
 
              Baa    -0.0000     0.000     0.000     0.000  0.1285  0.9708 -0.2024
    21 O(17)  Bbb     0.0000    -0.000    -0.000    -0.000 -0.5408  0.2397  0.8062
              Bcc     0.0000    -0.000    -0.000    -0.000  0.8312  0.0059  0.5559
 
              Baa    -0.0000    -0.000    -0.000    -0.000  0.5598 -0.5689  0.6024
    22 C(13)  Bbb    -0.0000    -0.000    -0.000    -0.000 -0.2514  0.5762  0.7777
              Bcc     0.0000     0.000     0.000     0.000  0.7896  0.5868 -0.1795
 
              Baa    -0.0000    -0.000    -0.000    -0.000 -0.5512  0.7123 -0.4345
    23 C(13)  Bbb    -0.0000    -0.000    -0.000    -0.000  0.7642  0.6400  0.0798
              Bcc     0.0000     0.000     0.000     0.000 -0.3349  0.2881  0.8971
 
              Baa    -0.0000    -0.000    -0.000    -0.000 -0.1424 -0.4053  0.9030
    24 C(13)  Bbb     0.0000     0.000     0.000     0.000  0.9768 -0.2047  0.0622
              Bcc     0.0000     0.000     0.000     0.000  0.1596  0.8910  0.4250
 
              Baa    -0.0000    -0.000    -0.000    -0.000  0.9946 -0.0811  0.0653
    25 C(13)  Bbb     0.0000     0.000     0.000     0.000  0.0665  0.9772  0.2018
              Bcc     0.0000     0.000     0.000     0.000 -0.0802 -0.1963  0.9773
 
              Baa    -0.0000     0.000     0.000     0.000 -0.2977  0.9536 -0.0441
    26 O(17)  Bbb    -0.0000     0.000     0.000     0.000 -0.1323  0.0045  0.9912
              Bcc     0.0000    -0.000    -0.000    -0.000  0.9454  0.3009  0.1249
 
              Baa    -0.0000    -0.000    -0.000    -0.000  0.7479 -0.6608  0.0631
    27 C(13)  Bbb    -0.0000    -0.000    -0.000    -0.000 -0.2961 -0.2470  0.9227
              Bcc     0.0000     0.000     0.000     0.000  0.5941  0.7088  0.3804
 
              Baa    -0.0000    -0.000    -0.000    -0.000  0.7149 -0.5887 -0.3773
    28 C(13)  Bbb    -0.0000    -0.000    -0.000    -0.000  0.6960  0.5473  0.4647
              Bcc     0.0000     0.000     0.000     0.000 -0.0671 -0.5948  0.8010
 
              Baa    -0.0000    -0.000    -0.000    -0.000  0.3873  0.8400  0.3799
    29 C(13)  Bbb    -0.0000    -0.000    -0.000    -0.000  0.0411 -0.4274  0.9031
              Bcc     0.0000     0.000     0.000     0.000  0.9210 -0.3342 -0.2001
 
              Baa    -0.0000    -0.000    -0.000    -0.000  0.3833  0.3934  0.8357
    30 S(33)  Bbb    -0.0000    -0.000    -0.000    -0.000  0.3579  0.7708 -0.5270
              Bcc     0.0000     0.000     0.000     0.000  0.8515 -0.5011 -0.1547
 
              Baa    -0.0000    -0.000    -0.000    -0.000  0.0509  0.1000  0.9937
    31 C(13)  Bbb    -0.0000    -0.000    -0.000    -0.000 -0.0517  0.9939 -0.0973
              Bcc     0.0000     0.000     0.000     0.000  0.9974  0.0464 -0.0557
 
              Baa    -0.0000    -0.000    -0.000    -0.000  0.2999  0.2087  0.9309
    32 C(13)  Bbb     0.0000     0.000     0.000     0.000  0.8970  0.2704 -0.3496
              Bcc     0.0000     0.000     0.000     0.000 -0.3246  0.9399 -0.1061
 
              Baa    -0.0000    -0.000    -0.000    -0.000  0.8429  0.5311 -0.0866
    33 N(14)  Bbb     0.0000     0.000     0.000     0.000  0.0750  0.0433  0.9962
              Bcc     0.0000     0.000     0.000     0.000 -0.5329  0.8462  0.0033
 
              Baa    -0.0000    -0.000    -0.000    -0.000  0.8282 -0.4922  0.2679
    34 C(13)  Bbb    -0.0000    -0.000    -0.000    -0.000 -0.4732 -0.3583  0.8048
              Bcc     0.0000     0.000     0.000     0.000  0.3001  0.7933  0.5297
 
              Baa    -0.0000    -0.000    -0.000    -0.000  0.9438 -0.3280  0.0399
    35 C(13)  Bbb     0.0000     0.000     0.000     0.000  0.0291  0.2026  0.9788
              Bcc     0.0000     0.000     0.000     0.000  0.3292  0.9227 -0.2007
 
              Baa    -0.0000     0.000     0.000     0.000  0.8594 -0.5011  0.1016
    36 O(17)  Bbb    -0.0000     0.000     0.000     0.000  0.3904  0.7714  0.5026
              Bcc     0.0000    -0.000    -0.000    -0.000 -0.3303 -0.3922  0.8585
 
              Baa    -0.0000    -0.000    -0.000    -0.000  0.8156  0.1900  0.5465
    37 C(13)  Bbb    -0.0000    -0.000    -0.000    -0.000 -0.2599  0.9642  0.0526
              Bcc     0.0000     0.000     0.000     0.000 -0.5169 -0.1850  0.8358
 
              Baa    -0.0000    -0.000    -0.000    -0.000 -0.3690  0.8740 -0.3160
    38 C(13)  Bbb     0.0000     0.000     0.000     0.000 -0.2167  0.2497  0.9438
              Bcc     0.0000     0.000     0.000     0.000  0.9038  0.4168  0.0972
 
              Baa    -0.0000    -0.000    -0.000    -0.000  0.9874 -0.0973  0.1246
    39 C(13)  Bbb     0.0000     0.000     0.000     0.000 -0.1222  0.0302  0.9920
              Bcc     0.0000     0.000     0.000     0.000  0.1003  0.9948 -0.0179
 
              Baa    -0.0000    -0.000    -0.000    -0.000  0.6349  0.7661 -0.0997
    40 C(13)  Bbb     0.0000     0.000     0.000     0.000  0.7715 -0.6356  0.0290
              Bcc     0.0000     0.000     0.000     0.000  0.0412  0.0954  0.9946
 
              Baa    -0.0000     0.000     0.000     0.000 -0.4654  0.8845 -0.0314
    41 O(17)  Bbb     0.0000    -0.000    -0.000    -0.000  0.2592  0.1701  0.9507
              Bcc     0.0000    -0.000    -0.000    -0.000  0.8463  0.4343 -0.3084
 
              Baa    -0.0000    -0.000    -0.000    -0.000  0.7446  0.6244  0.2360
    42 C(13)  Bbb     0.0000     0.000     0.000     0.000  0.0286 -0.3831  0.9233
              Bcc     0.0000     0.000     0.000     0.000 -0.6669  0.6807  0.3031
 
              Baa    -0.0000    -0.000    -0.000    -0.000 -0.1303 -0.0481  0.9903
    43 C(13)  Bbb    -0.0000    -0.000    -0.000    -0.000  0.9153  0.3782  0.1388
              Bcc     0.0000     0.000     0.000     0.000 -0.3812  0.9245 -0.0052
 
              Baa    -0.0000    -0.000    -0.000    -0.000  0.0612  0.9956 -0.0712
    44 C(13)  Bbb     0.0000     0.000     0.000     0.000  0.9942 -0.0671 -0.0836
              Bcc     0.0000     0.000     0.000     0.000  0.0880  0.0657  0.9940
 
              Baa    -0.0000    -0.000    -0.000    -0.000  0.8379  0.2968 -0.4581
    45 S(33)  Bbb    -0.0000    -0.000    -0.000    -0.000  0.4103  0.2110  0.8872
              Bcc     0.0000     0.000     0.000     0.000 -0.3600  0.9313 -0.0550
 
              Baa    -0.0000    -0.000    -0.000    -0.000 -0.3949  0.5216  0.7563
    46 H(1)   Bbb     0.0000     0.000     0.000     0.000  0.6180  0.7599 -0.2015
              Bcc     0.0000     0.000     0.000     0.000  0.6799 -0.3878  0.6224
 
              Baa    -0.0000    -0.000    -0.000    -0.000  0.1589  0.9732 -0.1660
    47 H(1)   Bbb    -0.0000    -0.000    -0.000    -0.000  0.9717 -0.1839 -0.1482
              Bcc     0.0000     0.000     0.000     0.000  0.1747  0.1378  0.9749
 
              Baa    -0.0000    -0.000    -0.000    -0.000 -0.6452 -0.3355  0.6864
    48 H(1)   Bbb    -0.0000    -0.000    -0.000    -0.000  0.6522  0.2261  0.7235
              Bcc     0.0000     0.000     0.000     0.000 -0.3979  0.9145  0.0729
 
              Baa    -0.0000    -0.000    -0.000    -0.000  0.4392  0.5940  0.6740
    49 H(1)   Bbb    -0.0000    -0.000    -0.000    -0.000  0.7353  0.1934 -0.6496
              Bcc     0.0000     0.000     0.000     0.000 -0.5162  0.7809 -0.3518
 
              Baa    -0.0000    -0.000    -0.000    -0.000 -0.1323  0.9906  0.0346
    50 H(1)   Bbb    -0.0000    -0.000    -0.000    -0.000 -0.6683 -0.1149  0.7350
              Bcc     0.0000     0.000     0.000     0.000  0.7321  0.0741  0.6772
 
              Baa    -0.0000    -0.000    -0.000    -0.000  0.7098 -0.6919  0.1317
    51 H(1)   Bbb     0.0000     0.000     0.000     0.000  0.1211  0.3041  0.9449
              Bcc     0.0000     0.000     0.000     0.000  0.6939  0.6548 -0.2997
 
              Baa    -0.0000    -0.000    -0.000    -0.000  0.7495 -0.1974  0.6319
    52 H(1)   Bbb     0.0000     0.000     0.000     0.000 -0.3336  0.7118  0.6181
              Bcc     0.0000     0.000     0.000     0.000  0.5718  0.6740 -0.4676
 
              Baa    -0.0000    -0.000    -0.000    -0.000  0.7499  0.6459  0.1429
    53 H(1)   Bbb     0.0000     0.000     0.000     0.000 -0.1858 -0.0016  0.9826
              Bcc     0.0000     0.000     0.000     0.000 -0.6349  0.7634 -0.1189
 
              Baa    -0.0000    -0.000    -0.000    -0.000  0.7287  0.4211 -0.5401
    54 H(1)   Bbb     0.0000     0.000     0.000     0.000 -0.4692  0.8815  0.0542
              Bcc     0.0000     0.000     0.000     0.000  0.4989  0.2139  0.8398
 
              Baa    -0.0000    -0.000    -0.000    -0.000  0.6715  0.5400  0.5075
    55 H(1)   Bbb    -0.0000    -0.000    -0.000    -0.000 -0.4806 -0.2039  0.8529
              Bcc     0.0000     0.000     0.000     0.000 -0.5640  0.8166 -0.1226
 
              Baa    -0.0000    -0.000    -0.000    -0.000  0.8760 -0.4388  0.2003
    56 H(1)   Bbb    -0.0000    -0.000    -0.000    -0.000  0.4398  0.8971  0.0418
              Bcc     0.0000     0.000     0.000     0.000 -0.1980  0.0514  0.9788
 
              Baa    -0.0000    -0.000    -0.000    -0.000  0.2407  0.9634 -0.1177
    57 H(1)   Bbb    -0.0000    -0.000    -0.000    -0.000  0.7374 -0.1027  0.6676
              Bcc     0.0000     0.000     0.000     0.000 -0.6311  0.2475  0.7351
 
              Baa    -0.0000    -0.000    -0.000    -0.000  0.5835  0.1741  0.7932
    58 H(1)   Bbb    -0.0000    -0.000    -0.000    -0.000  0.7447 -0.5042 -0.4372
              Bcc     0.0000     0.000     0.000     0.000  0.3238  0.8459 -0.4239
 
              Baa    -0.0000    -0.000    -0.000    -0.000  0.1667  0.9628  0.2127
    59 H(1)   Bbb    -0.0000    -0.000    -0.000    -0.000  0.6230 -0.2700  0.7341
              Bcc     0.0000     0.000     0.000     0.000  0.7643  0.0101 -0.6448
 
              Baa    -0.0000    -0.000    -0.000    -0.000  0.7691 -0.5891  0.2480
    60 H(1)   Bbb     0.0000     0.000     0.000     0.000  0.6382  0.7292 -0.2468
              Bcc     0.0000     0.000     0.000     0.000 -0.0355  0.3481  0.9368
 
              Baa    -0.0000    -0.000    -0.000    -0.000 -0.4289  0.8246 -0.3690
    61 H(1)   Bbb     0.0000     0.000     0.000     0.000  0.1256  0.4589  0.8796
              Bcc     0.0000     0.000     0.000     0.000  0.8946  0.3309 -0.3004
 
              Baa    -0.0000    -0.000    -0.000    -0.000 -0.2088  0.6336  0.7450
    62 H(1)   Bbb    -0.0000    -0.000    -0.000    -0.000  0.9664  0.0171  0.2563
              Bcc     0.0000     0.000     0.000     0.000  0.1497  0.7735 -0.6159
 
              Baa    -0.0000    -0.000    -0.000    -0.000 -0.5902  0.7335 -0.3371
    63 H(1)   Bbb     0.0000     0.000     0.000     0.000 -0.5844 -0.1002  0.8053
              Bcc     0.0000     0.000     0.000     0.000  0.5569  0.6723  0.4878
 
              Baa    -0.0000    -0.000    -0.000    -0.000 -0.2736  0.6836 -0.6766
    64 H(1)   Bbb    -0.0000    -0.000    -0.000    -0.000  0.9586  0.2515 -0.1335
              Bcc     0.0000     0.000     0.000     0.000 -0.0789  0.6852  0.7241
 
              Baa    -0.0000    -0.000    -0.000    -0.000  0.4976  0.8593 -0.1186
    65 H(1)   Bbb    -0.0000    -0.000    -0.000    -0.000  0.8674 -0.4912  0.0797
              Bcc     0.0000     0.000     0.000     0.000 -0.0102  0.1425  0.9897
 
              Baa    -0.0000    -0.000    -0.000    -0.000  0.1481  0.2945  0.9441
    66 H(1)   Bbb     0.0000     0.000     0.000     0.000 -0.0905  0.9547 -0.2836
              Bcc     0.0000     0.000     0.000     0.000  0.9848  0.0434 -0.1681
 
              Baa    -0.0000    -0.000    -0.000    -0.000  0.9025 -0.3518  0.2483
    67 H(1)   Bbb     0.0000     0.000     0.000     0.000 -0.4139 -0.5496  0.7256
              Bcc     0.0000     0.000     0.000     0.000  0.1188  0.7577  0.6417
 
              Baa    -0.0000    -0.000    -0.000    -0.000  0.4412 -0.4116  0.7975
    68 H(1)   Bbb     0.0000     0.000     0.000     0.000 -0.4719  0.6495  0.5963
              Bcc     0.0000     0.000     0.000     0.000  0.7634  0.6393 -0.0923
 
              Baa    -0.0000    -0.000    -0.000    -0.000 -0.1782  0.4106  0.8942
    69 H(1)   Bbb    -0.0000    -0.000    -0.000    -0.000 -0.5846  0.6868 -0.4319
              Bcc     0.0000     0.000     0.000     0.000  0.7915  0.5997 -0.1177
 
              Baa    -0.0000    -0.000    -0.000    -0.000  0.5331  0.1664  0.8295
    70 H(1)   Bbb     0.0000     0.000     0.000     0.000  0.3170  0.8698 -0.3782
              Bcc     0.0000     0.000     0.000     0.000  0.7844 -0.4645 -0.4110
 
              Baa    -0.0000    -0.000    -0.000    -0.000  0.8620  0.5066 -0.0149
    71 H(1)   Bbb    -0.0000    -0.000    -0.000    -0.000  0.2197 -0.3470  0.9117
              Bcc     0.0000     0.000     0.000     0.000 -0.4568  0.7892  0.4105
 
              Baa    -0.0000    -0.000    -0.000    -0.000  0.8071 -0.2498  0.5350
    72 H(1)   Bbb    -0.0000    -0.000    -0.000    -0.000 -0.5081  0.1676  0.8448
              Bcc     0.0000     0.000     0.000     0.000  0.3007  0.9537 -0.0083
 
              Baa    -0.0000    -0.000    -0.000    -0.000  0.9001  0.4344  0.0329
    73 H(1)   Bbb    -0.0000    -0.000    -0.000    -0.000 -0.0590  0.0467  0.9972
              Bcc     0.0000     0.000     0.000     0.000 -0.4317  0.8995 -0.0677
 
              Baa    -0.0000    -0.000    -0.000    -0.000  0.7637 -0.6429 -0.0583
    74 H(1)   Bbb     0.0000     0.000     0.000     0.000  0.6455  0.7604  0.0710
              Bcc     0.0000     0.000     0.000     0.000 -0.0014 -0.0919  0.9958
 

 ---------------------------------------------------------------------------------

 No NMR shielding tensors so no spin-rotation constants.
 Leave Link  601 at Thu Jul 23 17:40:09 2020, MaxMem=  4026531840 cpu:              14.6 elap:               2.0
 (Enter /opt/ohpc/pub/libs/gaussian/g16-A.03/sandybridge/g16/l9999.exe)

 Test job not archived.
 1\1\GINC-SKYLAKE049\FOpt\ULC-wPBE\CC-pVDZ\C33H29N3O6S3\RDU230\23-Jul-2
 020\0\\#P uLC-wPBE/cc-pVDZ iop(3/107=0061000000, 3/108=0061000000) opt
 \\H29 C33 S3 N3 O6\\0,1\C,-11.1954248536,0.9063542583,-0.3259514504\C,
 -10.0830683003,1.6471523775,-0.741784198\N,-8.8250809528,1.1817523639,
 -0.6817707731\C,-8.5981867782,-0.0574556641,-0.1835230016\C,-9.6658949
 602,-0.8412691661,0.3596627796\O,-9.3230537244,-1.9931089555,0.9994311
 314\C,-10.3739261716,-2.8039816894,1.5139507419\C,-10.9795770533,-0.35
 6728697,0.2452640277\C,-7.1955135603,-0.4757945098,-0.1689880489\C,-6.
 5548902867,-1.7202090797,-0.2912036549\O,-7.2708463937,-2.8632427284,-
 0.4919430243\C,-6.5231021298,-4.0716709234,-0.5979227161\C,-5.13096382
 34,-1.6282083813,-0.265886475\C,-4.6649972078,-0.3212724079,-0.1573204
 758\S,-5.9991437524,0.8090654331,-0.0927834416\C,-3.2799982963,0.14192
 38314,-0.1087794587\C,-2.2228810876,-0.7265854778,0.2495540581\N,-0.94
 49906869,-0.3489034643,0.3475003503\C,-0.598519216,0.9380245577,0.0941
 996883\C,-1.5804354555,1.8742418643,-0.364961072\O,-1.129155289,3.0930
 372132,-0.7680072347\C,-2.0934267705,4.0492098495,-1.1990278176\C,-2.9
 192322593,1.4706048228,-0.4326144795\C,0.8220776995,1.2413488863,0.239
 5824886\C,1.5378305922,2.3983105032,0.5960042989\O,0.8909015663,3.5512
 649512,0.9274745799\C,1.7105547578,4.6653121654,1.2707537118\C,2.94919
 79487,2.1969777151,0.6495378713\C,3.3314048736,0.8882150928,0.36945547
 41\S,1.9311031018,-0.1100270737,0.0422634549\C,4.6812666745,0.33233883
 3,0.3393282624\C,5.8193499065,1.1555178031,0.1781656088\N,7.0782353334
 ,0.7109819944,0.1547928536\C,7.33153974,-0.613883905,0.277665527\C,6.2
 40219963,-1.5352288595,0.4229032274\O,6.5670439699,-2.8581680608,0.532
 6111685\C,5.5124811133,-3.8089111997,0.6740296855\C,4.9298729275,-1.05
 49663259,0.460112807\C,8.7348684798,-1.0243662,0.2529896781\C,9.874669
 4023,-0.1963423635,0.1362247742\O,9.7633178907,1.1553146113,0.03581637
 38\C,10.9801156714,1.887970993,-0.0783894957\C,11.1098627174,-0.919625
 3039,0.1384450796\C,10.9231047736,-2.280825659,0.2553369191\S,9.254877
 2597,-2.711608798,0.3655174166\H,-12.2128608151,1.3108152039,-0.423809
 7265\H,-10.201896409,2.6632259836,-1.1526077118\H,-10.9657357193,-2.27
 12416463,2.2914836744\H,-9.8799877293,-3.6805100206,1.9702698938\H,-11
 .0608777161,-3.1479270924,0.7091807047\H,-11.8272737265,-0.9427903522,
 0.6232615366\H,-5.9310976552,-4.273530069,0.3222263876\H,-7.2674636961
 ,-4.8770268728,-0.7351514513\H,-5.8367734504,-4.0580596172,-1.47376399
 93\H,-4.4591229365,-2.4865678519,-0.3762994514\H,-2.4303259144,-1.7802
 752232,0.4973677615\H,-2.6459607685,3.7020985164,-2.1002593756\H,-1.51
 9666679,4.958852523,-1.4513117507\H,-2.8251109585,4.2864574354,-0.3956
 2031\H,-3.6918932636,2.1663112222,-0.7864128723\H,2.383984271,4.956086
 1792,0.4342423182\H,2.3249805299,4.463269195,2.1762532351\H,1.01539373
 78,5.4975624963,1.4841573656\H,3.6688007763,2.9712734223,0.9375076817\
 H,5.6960509392,2.2427769444,0.039506182\H,4.9277628466,-3.6336051513,1
 .6033157058\H,6.0052283963,-4.7957949652,0.7307049359\H,4.8249519112,-
 3.7871581193,-0.1993699993\H,4.0881916525,-1.745669614,0.6039001197\H,
 11.6334258995,1.7497541707,0.8120554383\H,11.5499774415,1.60660867,-0.
 9920381827\H,10.683639694,2.9501353675,-0.1490931765\H,12.0983443453,-
 0.4543434454,0.0576369306\H,11.6904026429,-3.0620225155,0.2844129154\\
 Version=EM64L-G16RevA.03\State=1-A\HF=-3082.7856855\S2=0.\S2-1=0.\S2A=
 0.\RMSD=6.106e-09\RMSF=2.333e-06\Dipole=-0.8268607,-0.4731006,0.304778
 9\Quadrupole=22.7805155,10.5473354,-33.3278509,18.9438172,-5.166443,-2
 .6668409\PG=C01 [X(C33H29N3O6S3)]\\@


 A true friend is someone who is there for
 you when he'd rather be anywhere else.
                               -- Len Wein
 Job cpu time:       1 days 12 hours 53 minutes 55.5 seconds.
 Elapsed time:       0 days  4 hours 41 minutes 37.3 seconds.
 File lengths (MBytes):  RWF=    736 Int=      0 D2E=      0 Chk=     68 Scr=      8
 Normal termination of Gaussian 16 at Thu Jul 23 17:40:09 2020.
