 Entering Gaussian System, Link 0=g16
 Input=mols_65_1_29_cF-cF-N_opt_0.gjf
 Output=mols_65_1_29_cF-cF-N_opt_0.log
 Initial command:
 /opt/ohpc/pub/libs/gaussian/g16-A.03/sandybridge/g16/l1.exe "/mnt/gpfs2_4m/scratch/rdu230/ondemand/projects/dihedral_energies/7trial/wtuning/mols_65_1_29_cF-cF-N/Gau-140843.inp" -scrdir="/mnt/gpfs2_4m/scratch/rdu230/ondemand/projects/dihedral_energies/7trial/wtuning/mols_65_1_29_cF-cF-N/"
 Entering Link 1 = /opt/ohpc/pub/libs/gaussian/g16-A.03/sandybridge/g16/l1.exe PID=    140844.
  
 Copyright (c) 1988,1990,1992,1993,1995,1998,2003,2009,2016,
            Gaussian, Inc.  All Rights Reserved.
  
 This is part of the Gaussian(R) 16 program.  It is based on
 the Gaussian(R) 09 system (copyright 2009, Gaussian, Inc.),
 the Gaussian(R) 03 system (copyright 2003, Gaussian, Inc.),
 the Gaussian(R) 98 system (copyright 1998, Gaussian, Inc.),
 the Gaussian(R) 94 system (copyright 1995, Gaussian, Inc.),
 the Gaussian 92(TM) system (copyright 1992, Gaussian, Inc.),
 the Gaussian 90(TM) system (copyright 1990, Gaussian, Inc.),
 the Gaussian 88(TM) system (copyright 1988, Gaussian, Inc.),
 the Gaussian 86(TM) system (copyright 1986, Carnegie Mellon
 University), and the Gaussian 82(TM) system (copyright 1983,
 Carnegie Mellon University). Gaussian is a federally registered
 trademark of Gaussian, Inc.
  
 This software contains proprietary and confidential information,
 including trade secrets, belonging to Gaussian, Inc.
  
 This software is provided under written license and may be
 used, copied, transmitted, or stored only in accord with that
 written license.
  
 The following legend is applicable only to US Government
 contracts under FAR:
  
                    RESTRICTED RIGHTS LEGEND
  
 Use, reproduction and disclosure by the US Government is
 subject to restrictions as set forth in subparagraphs (a)
 and (c) of the Commercial Computer Software - Restricted
 Rights clause in FAR 52.227-19.
  
 Gaussian, Inc.
 340 Quinnipiac St., Bldg. 40, Wallingford CT 06492
  
  
 ---------------------------------------------------------------
 Warning -- This program may not be used in any manner that
 competes with the business of Gaussian, Inc. or will provide
 assistance to any competitor of Gaussian, Inc.  The licensee
 of this program is prohibited from giving any competitor of
 Gaussian, Inc. access to this program.  By using this program,
 the user acknowledges that Gaussian, Inc. is engaged in the
 business of creating and licensing software in the field of
 computational chemistry and represents and warrants to the
 licensee that it is not a competitor of Gaussian, Inc. and that
 it will not use this program in any manner prohibited above.
 ---------------------------------------------------------------
  

 Cite this work as:
 Gaussian 16, Revision A.03,
 M. J. Frisch, G. W. Trucks, H. B. Schlegel, G. E. Scuseria, 
 M. A. Robb, J. R. Cheeseman, G. Scalmani, V. Barone, 
 G. A. Petersson, H. Nakatsuji, X. Li, M. Caricato, A. V. Marenich, 
 J. Bloino, B. G. Janesko, R. Gomperts, B. Mennucci, H. P. Hratchian, 
 J. V. Ortiz, A. F. Izmaylov, J. L. Sonnenberg, D. Williams-Young, 
 F. Ding, F. Lipparini, F. Egidi, J. Goings, B. Peng, A. Petrone, 
 T. Henderson, D. Ranasinghe, V. G. Zakrzewski, J. Gao, N. Rega, 
 G. Zheng, W. Liang, M. Hada, M. Ehara, K. Toyota, R. Fukuda, 
 J. Hasegawa, M. Ishida, T. Nakajima, Y. Honda, O. Kitao, H. Nakai, 
 T. Vreven, K. Throssell, J. A. Montgomery, Jr., J. E. Peralta, 
 F. Ogliaro, M. J. Bearpark, J. J. Heyd, E. N. Brothers, K. N. Kudin, 
 V. N. Staroverov, T. A. Keith, R. Kobayashi, J. Normand, 
 K. Raghavachari, A. P. Rendell, J. C. Burant, S. S. Iyengar, 
 J. Tomasi, M. Cossi, J. M. Millam, M. Klene, C. Adamo, R. Cammi, 
 J. W. Ochterski, R. L. Martin, K. Morokuma, O. Farkas, 
 J. B. Foresman, and D. J. Fox, Gaussian, Inc., Wallingford CT, 2016.
 
 ******************************************
 Gaussian 16:  EM64L-G16RevA.03 25-Dec-2016
                25-Jul-2020 
 ******************************************
 %mem=30GB
 %nproc=8
 Will use up to    8 processors via shared memory.
 ---------------------------------------------------------------
 #P uLC-wPBE/cc-pVDZ iop(3/107=0156700000, 3/108=0156700000) opt
 ---------------------------------------------------------------
 1/18=20,19=15,26=3,38=1/1,3;
 2/9=110,12=2,17=6,18=5,40=1/2;
 3/5=16,11=2,25=1,30=1,71=1,74=-41,107=156700000,108=156700000,116=2/1,2,3;
 4//1;
 5/5=2,38=5/2;
 6/7=2,8=2,9=2,10=2,28=1/1;
 7//1,2,3,16;
 1/18=20,19=15,26=3/3(2);
 2/9=110/2;
 99//99;
 2/9=110/2;
 3/5=16,11=2,25=1,30=1,71=1,74=-41,107=156700000,108=156700000,116=2/1,2,3;
 4/5=5,16=3,69=1/1;
 5/5=2,38=5/2;
 7//1,2,3,16;
 1/18=20,19=15,26=3/3(-5);
 2/9=110/2;
 6/7=2,8=2,9=2,10=2,19=2,28=1/1;
 99/9=1/99;
 Leave Link    1 at Sat Jul 25 12:24:25 2020, MaxMem=  4026531840 cpu:               1.7 elap:               0.3
 (Enter /opt/ohpc/pub/libs/gaussian/g16-A.03/sandybridge/g16/l101.exe)
 --------------
 H5 C9 S1 N1 F2
 --------------
 Symbolic Z-matrix:
 Charge =  0 Multiplicity = 1
 C                     3.42308  -0.13532  -0.02284 
 C                     2.74416   1.14419   0.04464 
 C                     1.36149   1.19439  -0.04945 
 F                     0.80661   2.38751   0.01343 
 C                     0.53248   0.06865   0.04771 
 C                     1.20687  -1.21555   0.03199 
 F                     0.56304  -2.2948    0.00373 
 C                     2.61566  -1.264     0.0495 
 C                    -0.9275    0.21989   0.0473 
 N                    -1.60106   1.39002  -0.00987 
 C                    -2.97561   1.20561   0.00325 
 C                    -3.35928  -0.0617   -0.03139 
 S                    -1.99228  -1.13886  -0.04542 
 H                     4.47497  -0.20374  -0.0428 
 H                     3.32038   2.01543   0.03988 
 H                     3.0637   -2.25389   0.04782 
 H                    -3.59614   2.11292   0.016 
 H                    -4.34579  -0.49895   0.03378 
 
 ITRead=  0  0  0  0  0  0  0  0  0  0  0  0  0  0  0  0  0  0
 MicOpt= -1 -1 -1 -1 -1 -1 -1 -1 -1 -1 -1 -1 -1 -1 -1 -1 -1 -1
 NAtoms=     18 NQM=       18 NQMF=       0 NMMI=      0 NMMIF=      0
                NMic=       0 NMicF=      0.
                    Isotopes and Nuclear Properties:
 (Nuclear quadrupole moments (NQMom) in fm**2, nuclear magnetic moments (NMagM)
  in nuclear magnetons)

  Atom         1           2           3           4           5           6           7           8           9          10
 IAtWgt=          12          12          12          19          12          12          19          12          12          14
 AtmWgt=  12.0000000  12.0000000  12.0000000  18.9984033  12.0000000  12.0000000  18.9984033  12.0000000  12.0000000  14.0030740
 NucSpn=           0           0           0           1           0           0           1           0           0           2
 AtZEff=  -0.0000000  -0.0000000  -0.0000000  -0.0000000  -0.0000000  -0.0000000  -0.0000000  -0.0000000  -0.0000000  -0.0000000
 NQMom=    0.0000000   0.0000000   0.0000000   0.0000000   0.0000000   0.0000000   0.0000000   0.0000000   0.0000000   2.0440000
 NMagM=    0.0000000   0.0000000   0.0000000   2.6288670   0.0000000   0.0000000   2.6288670   0.0000000   0.0000000   0.4037610
 AtZNuc=   6.0000000   6.0000000   6.0000000   9.0000000   6.0000000   6.0000000   9.0000000   6.0000000   6.0000000   7.0000000

  Atom        11          12          13          14          15          16          17          18
 IAtWgt=          12          12          32           1           1           1           1           1
 AtmWgt=  12.0000000  12.0000000  31.9720718   1.0078250   1.0078250   1.0078250   1.0078250   1.0078250
 NucSpn=           0           0           0           1           1           1           1           1
 AtZEff=  -0.0000000  -0.0000000  -0.0000000  -0.0000000  -0.0000000  -0.0000000  -0.0000000  -0.0000000
 NQMom=    0.0000000   0.0000000   0.0000000   0.0000000   0.0000000   0.0000000   0.0000000   0.0000000
 NMagM=    0.0000000   0.0000000   0.0000000   2.7928460   2.7928460   2.7928460   2.7928460   2.7928460
 AtZNuc=   6.0000000   6.0000000  16.0000000   1.0000000   1.0000000   1.0000000   1.0000000   1.0000000
 Leave Link  101 at Sat Jul 25 12:24:26 2020, MaxMem=  4026531840 cpu:               2.6 elap:               0.5
 (Enter /opt/ohpc/pub/libs/gaussian/g16-A.03/sandybridge/g16/l103.exe)

 GradGradGradGradGradGradGradGradGradGradGradGradGradGradGradGradGradGrad
 Berny optimization.
 Initialization pass.
                           ----------------------------
                           !    Initial Parameters    !
                           ! (Angstroms and Degrees)  !
 --------------------------                            --------------------------
 ! Name  Definition              Value          Derivative Info.                !
 --------------------------------------------------------------------------------
 ! R1    R(1,2)                  1.45           estimate D2E/DX2                !
 ! R2    R(1,8)                  1.3896         estimate D2E/DX2                !
 ! R3    R(1,14)                 1.0543         estimate D2E/DX2                !
 ! R4    R(2,3)                  1.3868         estimate D2E/DX2                !
 ! R5    R(2,15)                 1.0446         estimate D2E/DX2                !
 ! R6    R(3,4)                  1.3173         estimate D2E/DX2                !
 ! R7    R(3,5)                  1.4014         estimate D2E/DX2                !
 ! R8    R(5,6)                  1.4506         estimate D2E/DX2                !
 ! R9    R(5,9)                  1.4678         estimate D2E/DX2                !
 ! R10   R(6,7)                  1.257          estimate D2E/DX2                !
 ! R11   R(6,8)                  1.4097         estimate D2E/DX2                !
 ! R12   R(8,16)                 1.0866         estimate D2E/DX2                !
 ! R13   R(9,10)                 1.3514         estimate D2E/DX2                !
 ! R14   R(9,13)                 1.7287         estimate D2E/DX2                !
 ! R15   R(10,11)                1.3869         estimate D2E/DX2                !
 ! R16   R(11,12)                1.3246         estimate D2E/DX2                !
 ! R17   R(11,17)                1.0993         estimate D2E/DX2                !
 ! R18   R(12,13)                1.7405         estimate D2E/DX2                !
 ! R19   R(12,18)                1.081          estimate D2E/DX2                !
 ! A1    A(2,1,8)              116.246          estimate D2E/DX2                !
 ! A2    A(2,1,14)             121.6873         estimate D2E/DX2                !
 ! A3    A(8,1,14)             121.8688         estimate D2E/DX2                !
 ! A4    A(1,2,3)              119.71           estimate D2E/DX2                !
 ! A5    A(1,2,15)             118.5214         estimate D2E/DX2                !
 ! A6    A(3,2,15)             121.2984         estimate D2E/DX2                !
 ! A7    A(2,3,4)              116.7127         estimate D2E/DX2                !
 ! A8    A(2,3,5)              123.7804         estimate D2E/DX2                !
 ! A9    A(4,3,5)              118.3632         estimate D2E/DX2                !
 ! A10   A(3,5,6)              115.8089         estimate D2E/DX2                !
 ! A11   A(3,5,9)              120.3718         estimate D2E/DX2                !
 ! A12   A(6,5,9)              123.6181         estimate D2E/DX2                !
 ! A13   A(5,6,7)              121.4811         estimate D2E/DX2                !
 ! A14   A(5,6,8)              119.6628         estimate D2E/DX2                !
 ! A15   A(7,6,8)              118.8561         estimate D2E/DX2                !
 ! A16   A(1,8,6)              123.5097         estimate D2E/DX2                !
 ! A17   A(1,8,16)             120.0191         estimate D2E/DX2                !
 ! A18   A(6,8,16)             116.3185         estimate D2E/DX2                !
 ! A19   A(5,9,10)             125.8037         estimate D2E/DX2                !
 ! A20   A(5,9,13)             122.1185         estimate D2E/DX2                !
 ! A21   A(10,9,13)            111.7966         estimate D2E/DX2                !
 ! A22   A(9,10,11)            112.2375         estimate D2E/DX2                !
 ! A23   A(10,11,12)           114.4591         estimate D2E/DX2                !
 ! A24   A(10,11,17)           116.7317         estimate D2E/DX2                !
 ! A25   A(12,11,17)           128.7908         estimate D2E/DX2                !
 ! A26   A(11,12,13)           111.3982         estimate D2E/DX2                !
 ! A27   A(11,12,18)           130.5222         estimate D2E/DX2                !
 ! A28   A(13,12,18)           117.8341         estimate D2E/DX2                !
 ! A29   A(9,13,12)             89.8221         estimate D2E/DX2                !
 ! D1    D(8,1,2,3)            -10.6656         estimate D2E/DX2                !
 ! D2    D(8,1,2,15)           177.0981         estimate D2E/DX2                !
 ! D3    D(14,1,2,3)           174.357          estimate D2E/DX2                !
 ! D4    D(14,1,2,15)            2.1206         estimate D2E/DX2                !
 ! D5    D(2,1,8,6)              7.2877         estimate D2E/DX2                !
 ! D6    D(2,1,8,16)          -177.3738         estimate D2E/DX2                !
 ! D7    D(14,1,8,6)          -177.7447         estimate D2E/DX2                !
 ! D8    D(14,1,8,16)           -2.4063         estimate D2E/DX2                !
 ! D9    D(1,2,3,4)           -179.7277         estimate D2E/DX2                !
 ! D10   D(1,2,3,5)             12.7257         estimate D2E/DX2                !
 ! D11   D(15,2,3,4)            -7.7123         estimate D2E/DX2                !
 ! D12   D(15,2,3,5)          -175.2589         estimate D2E/DX2                !
 ! D13   D(2,3,5,6)             -9.9903         estimate D2E/DX2                !
 ! D14   D(2,3,5,9)            174.9801         estimate D2E/DX2                !
 ! D15   D(4,3,5,6)           -177.3454         estimate D2E/DX2                !
 ! D16   D(4,3,5,9)              7.625          estimate D2E/DX2                !
 ! D17   D(3,5,6,7)           -174.1519         estimate D2E/DX2                !
 ! D18   D(3,5,6,8)              5.891          estimate D2E/DX2                !
 ! D19   D(9,5,6,7)              0.6981         estimate D2E/DX2                !
 ! D20   D(9,5,6,8)           -179.259          estimate D2E/DX2                !
 ! D21   D(3,5,9,10)            -1.6398         estimate D2E/DX2                !
 ! D22   D(3,5,9,13)           171.7612         estimate D2E/DX2                !
 ! D23   D(6,5,9,10)          -176.2654         estimate D2E/DX2                !
 ! D24   D(6,5,9,13)            -2.8644         estimate D2E/DX2                !
 ! D25   D(5,6,8,1)             -5.1722         estimate D2E/DX2                !
 ! D26   D(5,6,8,16)           179.3305         estimate D2E/DX2                !
 ! D27   D(7,6,8,1)            174.8695         estimate D2E/DX2                !
 ! D28   D(7,6,8,16)            -0.6277         estimate D2E/DX2                !
 ! D29   D(5,9,10,11)          179.8472         estimate D2E/DX2                !
 ! D30   D(13,9,10,11)           5.8643         estimate D2E/DX2                !
 ! D31   D(5,9,13,12)         -178.5394         estimate D2E/DX2                !
 ! D32   D(10,9,13,12)          -4.3004         estimate D2E/DX2                !
 ! D33   D(9,10,11,12)          -4.7341         estimate D2E/DX2                !
 ! D34   D(9,10,11,17)         176.6874         estimate D2E/DX2                !
 ! D35   D(10,11,12,13)          1.3684         estimate D2E/DX2                !
 ! D36   D(10,11,12,18)        175.4406         estimate D2E/DX2                !
 ! D37   D(17,11,12,13)        179.7396         estimate D2E/DX2                !
 ! D38   D(17,11,12,18)         -6.1883         estimate D2E/DX2                !
 ! D39   D(11,12,13,9)           1.6445         estimate D2E/DX2                !
 ! D40   D(18,12,13,9)        -173.2622         estimate D2E/DX2                !
 --------------------------------------------------------------------------------
 Trust Radius=3.00D-01 FncErr=1.00D-07 GrdErr=1.00D-06 EigMax=2.50D+02 EigMin=1.00D-04
 Number of steps in this run=     98 maximum allowed number of steps=    108.
 GradGradGradGradGradGradGradGradGradGradGradGradGradGradGradGradGradGrad

 Leave Link  103 at Sat Jul 25 12:24:26 2020, MaxMem=  4026531840 cpu:               0.2 elap:               0.1
 (Enter /opt/ohpc/pub/libs/gaussian/g16-A.03/sandybridge/g16/l202.exe)
                          Input orientation:                          
 ---------------------------------------------------------------------
 Center     Atomic      Atomic             Coordinates (Angstroms)
 Number     Number       Type             X           Y           Z
 ---------------------------------------------------------------------
      1          6           0        3.423081   -0.135315   -0.022843
      2          6           0        2.744159    1.144187    0.044643
      3          6           0        1.361494    1.194393   -0.049452
      4          9           0        0.806613    2.387512    0.013427
      5          6           0        0.532477    0.068646    0.047705
      6          6           0        1.206869   -1.215545    0.031985
      7          9           0        0.563042   -2.294797    0.003732
      8          6           0        2.615660   -1.264000    0.049497
      9          6           0       -0.927503    0.219890    0.047299
     10          7           0       -1.601055    1.390024   -0.009867
     11          6           0       -2.975608    1.205612    0.003245
     12          6           0       -3.359283   -0.061704   -0.031392
     13         16           0       -1.992280   -1.138864   -0.045415
     14          1           0        4.474973   -0.203736   -0.042797
     15          1           0        3.320375    2.015429    0.039883
     16          1           0        3.063697   -2.253893    0.047823
     17          1           0       -3.596138    2.112921    0.015995
     18          1           0       -4.345789   -0.498949    0.033777
 ---------------------------------------------------------------------
                    Distance matrix (angstroms):
                    1          2          3          4          5
     1  C    0.000000
     2  C    1.450040   0.000000
     3  C    2.453359   1.386772   0.000000
     4  F    3.634814   2.302372   1.317338   0.000000
     5  C    2.898649   2.459336   1.401433   2.335266   0.000000
     6  C    2.466069   2.816337   2.416266   3.625268   1.450585
     7  F    3.583838   4.072537   3.579777   4.688650   2.364050
     8  C    1.389637   2.411618   2.761597   4.075229   2.472974
     9  C    4.365624   3.786216   2.489684   2.776129   1.467793
    10  N    5.250597   4.352504   2.969265   2.606221   2.510242
    11  C    6.537736   5.720247   4.337437   3.962599   3.687998
    12  C    6.782769   6.221893   4.885063   4.832738   3.894746
    13  S    5.507609   5.258734   4.085573   4.502510   2.800205
    14  H    1.054304   2.195509   3.412999   4.491614   3.952930
    15  H    2.154108   1.044562   2.125864   2.541288   3.400353
    16  H    2.150005   3.413072   3.846769   5.161226   3.435297
    17  H    7.370584   6.413940   5.042429   4.411306   4.607117
    18  H    7.777582   7.277869   5.953773   5.905871   4.911195
                    6          7          8          9         10
     6  C    0.000000
     7  F    1.257019   0.000000
     8  C    1.409733   2.297363   0.000000
     9  C    2.572208   2.923572   3.841346   0.000000
    10  N    3.830820   4.273337   4.982776   1.351353   0.000000
    11  C    4.832798   4.977440   6.112561   2.273395   1.386930
    12  C    4.710107   4.513599   6.095244   2.449294   2.280207
    13  S    3.201004   2.805043   4.610616   1.728745   2.559218
    14  H    3.421966   4.435978   2.142364   5.419808   6.281662
    15  H    3.860850   5.116858   3.354306   4.611777   4.961258
    16  H    2.127493   2.501378   1.086567   4.695666   5.919575
    17  H    5.843613   6.060273   7.070442   3.272027   2.122170
    18  H    5.598707   5.227102   7.003379   3.493078   3.332220
                   11         12         13         14         15
    11  C    0.000000
    12  C    1.324574   0.000000
    13  S    2.542807   1.740450   0.000000
    14  H    7.582845   7.835552   6.534511   0.000000
    15  H    6.347956   6.995527   6.179089   2.502923   0.000000
    16  H    6.960127   6.787241   5.178309   2.490593   4.277038
    17  H    1.099286   2.187999   3.626326   8.397213   6.917241
    18  H    2.187203   1.081029   2.440239   8.826033   8.067974
                   16         17         18
    16  H    0.000000
    17  H    7.963886   0.000000
    18  H    7.614493   2.717381   0.000000
 Stoichiometry    C9H5F2NS
 Framework group  C1[X(C9H5F2NS)]
 Deg. of freedom    48
 Full point group                 C1      NOp   1
 Largest Abelian subgroup         C1      NOp   1
 Largest concise Abelian subgroup C1      NOp   1
                         Standard orientation:                         
 ---------------------------------------------------------------------
 Center     Atomic      Atomic             Coordinates (Angstroms)
 Number     Number       Type             X           Y           Z
 ---------------------------------------------------------------------
      1          6           0       -3.425724   -0.087372    0.045597
      2          6           0       -2.727675    1.181730   -0.023122
      3          6           0       -1.343847    1.210502    0.062485
      4          9           0       -0.771120    2.395122   -0.001057
      5          6           0       -0.532822    0.072416   -0.042459
      6          6           0       -1.226733   -1.201319   -0.025544
      7          9           0       -0.599383   -2.290381   -0.003820
      8          6           0       -2.636183   -1.228125   -0.034403
      9          6           0        0.929282    0.201256   -0.050784
     10          7           0        1.621054    1.360783    0.004925
     11          6           0        2.992507    1.155350   -0.017171
     12          6           0        3.356894   -0.117781    0.012116
     13         16           0        1.973634   -1.173886    0.032128
     14          1           0       -4.478398   -0.139706    0.071936
     15          1           0       -3.290412    2.061690   -0.012740
     16          1           0       -3.099340   -2.211033   -0.032254
     17          1           0        3.626798    2.053066   -0.031662
     18          1           0        4.336152   -0.569940   -0.060211
 ---------------------------------------------------------------------
 Rotational constants (GHZ):           1.3329308           0.5859975           0.4071799
 Leave Link  202 at Sat Jul 25 12:24:26 2020, MaxMem=  4026531840 cpu:               0.3 elap:               0.1
 (Enter /opt/ohpc/pub/libs/gaussian/g16-A.03/sandybridge/g16/l301.exe)
 Standard basis: CC-pVDZ (5D, 7F)
 Ernie: Thresh=  0.10000D-02 Tol=  0.10000D-05 Strict=F.
 Ernie:  34 primitive shells out of 339 were deleted.
 There are   224 symmetry adapted cartesian basis functions of A   symmetry.
 There are   211 symmetry adapted basis functions of A   symmetry.
   211 basis functions,   502 primitive gaussians,   224 cartesian basis functions
    50 alpha electrons       50 beta electrons
       nuclear repulsion energy       854.8811701202 Hartrees.
 IExCor=32609 DFT=T Ex+Corr=LC-wPBE ExCW=0 ScaHFX=  1.000000
 ScaDFX=  1.000000  0.000000  1.000000  1.000000 ScalE2=  1.000000  1.000000
 IRadAn=      5 IRanWt=     -1 IRanGd=            0 ICorTp=0 IEmpDi=  4
 HFx  wShort=  0.000000 wLong=  0.156700 cFull=  0.000000 cShort=  0.000000 cLong=  1.000000
 DFx  wShort=  0.000000 wLong=  0.156700 cFull=  0.000000 cShort=  0.000000 cLong=  1.000000
 NAtoms=   18 NActive=   18 NUniq=   18 SFac= 1.00D+00 NAtFMM=   60 NAOKFM=F Big=F
 Integral buffers will be    131072 words long.
 Raffenetti 2 integral format.
 Two-electron integral symmetry is turned on.
 Leave Link  301 at Sat Jul 25 12:24:26 2020, MaxMem=  4026531840 cpu:               0.3 elap:               0.1
 (Enter /opt/ohpc/pub/libs/gaussian/g16-A.03/sandybridge/g16/l302.exe)
 NPDir=0 NMtPBC=     1 NCelOv=     1 NCel=       1 NClECP=     1 NCelD=      1
         NCelK=      1 NCelE2=     1 NClLst=     1 CellRange=     0.0.
 One-electron integrals computed using PRISM.
 One-electron integral symmetry used in STVInt
 NBasis=   211 RedAO= T EigKep=  5.44D-04  NBF=   211
 NBsUse=   211 1.00D-06 EigRej= -1.00D+00 NBFU=   211
 Precomputing XC quadrature grid using
 IXCGrd= 4 IRadAn=           5 IRanWt=          -1 IRanGd=           0 AccXCQ= 0.00D+00.
 Generated NRdTot=       0 NPtTot=           0 NUsed=           0 NTot=          32
 NSgBfM=   224   224   224   224   224 MxSgAt=    18 MxSgA2=    18.
 Leave Link  302 at Sat Jul 25 12:24:27 2020, MaxMem=  4026531840 cpu:               6.4 elap:               1.3
 (Enter /opt/ohpc/pub/libs/gaussian/g16-A.03/sandybridge/g16/l303.exe)
 DipDrv:  MaxL=1.
 Leave Link  303 at Sat Jul 25 12:24:28 2020, MaxMem=  4026531840 cpu:               1.1 elap:               0.3
 (Enter /opt/ohpc/pub/libs/gaussian/g16-A.03/sandybridge/g16/l401.exe)
 ExpMin= 1.22D-01 ExpMax= 1.11D+05 ExpMxC= 1.07D+03 IAcc=3 IRadAn=         5 AccDes= 0.00D+00
 Harris functional with IExCor=32609 and IRadAn=       5 diagonalized for initial guess.
 HarFok:  IExCor=32609 AccDes= 0.00D+00 IRadAn=         5 IDoV= 1 UseB2=F ITyADJ=14
 ICtDFT=  3500011 ScaDFX=  1.000000  1.000000  1.000000  1.000000
 FoFCou: FMM=F IPFlag=           0 FMFlag=      100000 FMFlg1=           0
         NFxFlg=           0 DoJE=T BraDBF=F KetDBF=T FulRan=T
         wScrn=  0.000000 ICntrl=       500 IOpCl=  0 I1Cent=   200000004 NGrid=           0
         NMat0=    1 NMatS0=      1 NMatT0=    0 NMatD0=    1 NMtDS0=    0 NMtDT0=    0
 Petite list used in FoFCou.
 Harris En= -997.912167537043    
 JPrj=0 DoOrth=F DoCkMO=F.
 Initial guess <Sx>= 0.0000 <Sy>= 0.0000 <Sz>= 0.0000 <S**2>= 0.0000 S= 0.0000
 Leave Link  401 at Sat Jul 25 12:24:29 2020, MaxMem=  4026531840 cpu:               8.7 elap:               1.2
 (Enter /opt/ohpc/pub/libs/gaussian/g16-A.03/sandybridge/g16/l502.exe)
 Integral symmetry usage will be decided dynamically.
 UHF open shell SCF:
 Using DIIS extrapolation, IDIIS=  1040.
 NGot=  4026531840 LenX=  4026427352 LenY=  4026376735
 Requested convergence on RMS density matrix=1.00D-08 within 128 cycles.
 Requested convergence on MAX density matrix=1.00D-06.
 Requested convergence on             energy=1.00D-06.
 No special actions if energy rises.
 Fock matrices will be formed incrementally for  20 cycles.
 Integral accuracy reduced to 1.0D-05 until final iterations.

 Cycle   1  Pass 0  IDiag  1:
 FoFJK:  IHMeth= 1 ICntrl=       0 DoSepK=T KAlg= 0 I1Cent=           0 FoldK=F
 IRaf=         1 NMat=       1 IRICut=       1 DoRegI=T DoRafI=F ISym2E= 0 IDoP0=0 IntGTp=1.
 FoFCou: FMM=F IPFlag=           0 FMFlag=      100000 FMFlg1=           0
         NFxFlg=           0 DoJE=T BraDBF=F KetDBF=F FulRan=T
         wScrn=  0.000000 ICntrl=       500 IOpCl=  0 I1Cent=           0 NGrid=           0
         NMat0=    1 NMatS0=      1 NMatT0=    0 NMatD0=    1 NMtDS0=    0 NMtDT0=    0
 Symmetry not used in FoFCou.
 E= -997.667060934461    
 DIIS: error= 2.03D-02 at cycle   1 NSaved=   1.
 NSaved= 1 IEnMin= 1 EnMin= -997.667060934461     IErMin= 1 ErrMin= 2.03D-02
 ErrMax= 2.03D-02  0.00D+00 EMaxC= 1.00D-01 BMatC= 9.09D-01 BMatP= 9.09D-01
 IDIUse=3 WtCom= 7.97D-01 WtEn= 2.03D-01
 Coeff-Com:  0.100D+01
 Coeff-En:   0.100D+01
 Coeff:      0.100D+01
 Gap=     0.338 Goal=   None    Shift=    0.000
 Gap=     0.338 Goal=   None    Shift=    0.000
 GapD=    0.338 DampG=1.000 DampE=0.500 DampFc=0.5000 IDamp=-1.
 Damping current iteration by 5.00D-01
 RMSDP=6.09D-03 MaxDP=1.61D-01              OVMax= 2.88D-01

 Cycle   2  Pass 0  IDiag  1:
 RMSU=  3.04D-03    CP:  9.94D-01
 E= -997.744899710014     Delta-E=       -0.077838775553 Rises=F Damp=T
 DIIS: error= 7.55D-03 at cycle   2 NSaved=   2.
 NSaved= 2 IEnMin= 2 EnMin= -997.744899710014     IErMin= 2 ErrMin= 7.55D-03
 ErrMax= 7.55D-03  0.00D+00 EMaxC= 1.00D-01 BMatC= 1.13D-01 BMatP= 9.09D-01
 IDIUse=3 WtCom= 9.25D-01 WtEn= 7.55D-02
 Coeff-Com:  0.198D+00 0.802D+00
 Coeff-En:   0.318D+00 0.682D+00
 Coeff:      0.208D+00 0.792D+00
 Gap=     0.307 Goal=   None    Shift=    0.000
 Gap=     0.307 Goal=   None    Shift=    0.000
 RMSDP=1.80D-03 MaxDP=4.01D-02 DE=-7.78D-02 OVMax= 2.06D-01

 Cycle   3  Pass 0  IDiag  1:
 RMSU=  1.59D-03    CP:  9.93D-01  7.20D-01
 E= -997.906913910483     Delta-E=       -0.162014200469 Rises=F Damp=F
 DIIS: error= 8.37D-03 at cycle   3 NSaved=   3.
 NSaved= 3 IEnMin= 3 EnMin= -997.906913910483     IErMin= 2 ErrMin= 7.55D-03
 ErrMax= 8.37D-03  0.00D+00 EMaxC= 1.00D-01 BMatC= 7.54D-02 BMatP= 1.13D-01
 IDIUse=3 WtCom= 9.16D-01 WtEn= 8.37D-02
 Coeff-Com:  0.709D-01 0.447D+00 0.482D+00
 Coeff-En:   0.000D+00 0.000D+00 0.100D+01
 Coeff:      0.650D-01 0.410D+00 0.525D+00
 Gap=     0.262 Goal=   None    Shift=    0.000
 Gap=     0.262 Goal=   None    Shift=    0.000
 RMSDP=7.31D-04 MaxDP=3.40D-02 DE=-1.62D-01 OVMax= 4.60D-02

 Cycle   4  Pass 0  IDiag  1:
 RMSU=  5.36D-04    CP:  9.95D-01  8.07D-01  7.37D-01
 E= -997.922908662910     Delta-E=       -0.015994752427 Rises=F Damp=F
 DIIS: error= 2.57D-03 at cycle   4 NSaved=   4.
 NSaved= 4 IEnMin= 4 EnMin= -997.922908662910     IErMin= 4 ErrMin= 2.57D-03
 ErrMax= 2.57D-03  0.00D+00 EMaxC= 1.00D-01 BMatC= 7.61D-03 BMatP= 7.54D-02
 IDIUse=3 WtCom= 9.74D-01 WtEn= 2.57D-02
 Coeff-Com:  0.162D-01 0.990D-01 0.260D+00 0.625D+00
 Coeff-En:   0.000D+00 0.000D+00 0.356D-01 0.964D+00
 Coeff:      0.158D-01 0.964D-01 0.254D+00 0.634D+00
 Gap=     0.259 Goal=   None    Shift=    0.000
 Gap=     0.259 Goal=   None    Shift=    0.000
 RMSDP=2.35D-04 MaxDP=9.21D-03 DE=-1.60D-02 OVMax= 1.18D-02

 Cycle   5  Pass 0  IDiag  1:
 RMSU=  1.66D-04    CP:  9.95D-01  7.81D-01  7.69D-01  7.47D-01
 E= -997.924504107755     Delta-E=       -0.001595444844 Rises=F Damp=F
 DIIS: error= 6.24D-04 at cycle   5 NSaved=   5.
 NSaved= 5 IEnMin= 5 EnMin= -997.924504107755     IErMin= 5 ErrMin= 6.24D-04
 ErrMax= 6.24D-04  0.00D+00 EMaxC= 1.00D-01 BMatC= 6.64D-04 BMatP= 7.61D-03
 IDIUse=3 WtCom= 9.94D-01 WtEn= 6.24D-03
 Coeff-Com:  0.273D-02-0.283D-02 0.676D-01 0.308D+00 0.624D+00
 Coeff-En:   0.000D+00 0.000D+00 0.000D+00 0.000D+00 0.100D+01
 Coeff:      0.271D-02-0.281D-02 0.672D-01 0.306D+00 0.627D+00
 Gap=     0.260 Goal=   None    Shift=    0.000
 Gap=     0.260 Goal=   None    Shift=    0.000
 RMSDP=7.62D-05 MaxDP=2.12D-03 DE=-1.60D-03 OVMax= 4.21D-03

 Cycle   6  Pass 0  IDiag  1:
 RMSU=  5.25D-05    CP:  9.95D-01  7.81D-01  7.91D-01  8.10D-01  8.40D-01
 E= -997.924648481032     Delta-E=       -0.000144373278 Rises=F Damp=F
 DIIS: error= 1.56D-04 at cycle   6 NSaved=   6.
 NSaved= 6 IEnMin= 6 EnMin= -997.924648481032     IErMin= 6 ErrMin= 1.56D-04
 ErrMax= 1.56D-04  0.00D+00 EMaxC= 1.00D-01 BMatC= 5.11D-05 BMatP= 6.64D-04
 IDIUse=3 WtCom= 9.98D-01 WtEn= 1.56D-03
 Coeff-Com:  0.857D-03-0.141D-01-0.425D-03 0.546D-01 0.245D+00 0.714D+00
 Coeff-En:   0.000D+00 0.000D+00 0.000D+00 0.000D+00 0.000D+00 0.100D+01
 Coeff:      0.856D-03-0.141D-01-0.424D-03 0.545D-01 0.244D+00 0.715D+00
 Gap=     0.260 Goal=   None    Shift=    0.000
 Gap=     0.260 Goal=   None    Shift=    0.000
 RMSDP=2.99D-05 MaxDP=6.67D-04 DE=-1.44D-04 OVMax= 1.60D-03

 Cycle   7  Pass 0  IDiag  1:
 RMSU=  2.13D-05    CP:  9.95D-01  7.76D-01  7.94D-01  8.18D-01  9.30D-01
                    CP:  9.79D-01
 E= -997.924662763184     Delta-E=       -0.000014282151 Rises=F Damp=F
 DIIS: error= 8.80D-05 at cycle   7 NSaved=   7.
 NSaved= 7 IEnMin= 7 EnMin= -997.924662763184     IErMin= 7 ErrMin= 8.80D-05
 ErrMax= 8.80D-05  0.00D+00 EMaxC= 1.00D-01 BMatC= 9.74D-06 BMatP= 5.11D-05
 IDIUse=1 WtCom= 1.00D+00 WtEn= 0.00D+00
 Coeff-Com:  0.457D-03-0.764D-02-0.597D-02-0.463D-02 0.445D-01 0.335D+00
 Coeff-Com:  0.638D+00
 Coeff:      0.457D-03-0.764D-02-0.597D-02-0.463D-02 0.445D-01 0.335D+00
 Coeff:      0.638D+00
 Gap=     0.260 Goal=   None    Shift=    0.000
 Gap=     0.260 Goal=   None    Shift=    0.000
 RMSDP=1.14D-05 MaxDP=2.77D-04 DE=-1.43D-05 OVMax= 8.64D-04

 Cycle   8  Pass 0  IDiag  1:
 RMSU=  7.74D-06    CP:  9.95D-01  7.76D-01  7.97D-01  8.25D-01  9.43D-01
                    CP:  1.08D+00  9.09D-01
 E= -997.924665656190     Delta-E=       -0.000002893006 Rises=F Damp=F
 DIIS: error= 3.40D-05 at cycle   8 NSaved=   8.
 NSaved= 8 IEnMin= 8 EnMin= -997.924665656190     IErMin= 8 ErrMin= 3.40D-05
 ErrMax= 3.40D-05  0.00D+00 EMaxC= 1.00D-01 BMatC= 1.45D-06 BMatP= 9.74D-06
 IDIUse=1 WtCom= 1.00D+00 WtEn= 0.00D+00
 Coeff-Com:  0.175D-03-0.108D-02-0.176D-02-0.122D-01-0.310D-01-0.814D-02
 Coeff-Com:  0.269D+00 0.785D+00
 Coeff:      0.175D-03-0.108D-02-0.176D-02-0.122D-01-0.310D-01-0.814D-02
 Coeff:      0.269D+00 0.785D+00
 Gap=     0.260 Goal=   None    Shift=    0.000
 Gap=     0.260 Goal=   None    Shift=    0.000
 RMSDP=6.55D-06 MaxDP=1.58D-04 DE=-2.89D-06 OVMax= 3.54D-04

 Initial convergence to 1.0D-05 achieved.  Increase integral accuracy.
 Cycle   9  Pass 1  IDiag  1:
 E= -997.924507818702     Delta-E=        0.000157837488 Rises=F Damp=F
 DIIS: error= 4.92D-05 at cycle   1 NSaved=   1.
 NSaved= 1 IEnMin= 1 EnMin= -997.924507818702     IErMin= 1 ErrMin= 4.92D-05
 ErrMax= 4.92D-05  0.00D+00 EMaxC= 1.00D-01 BMatC= 1.23D-06 BMatP= 1.23D-06
 IDIUse=1 WtCom= 1.00D+00 WtEn= 0.00D+00
 Coeff-Com:  0.100D+01
 Coeff:      0.100D+01
 Gap=     0.260 Goal=   None    Shift=    0.000
 Gap=     0.260 Goal=   None    Shift=    0.000
 RMSDP=6.55D-06 MaxDP=1.58D-04 DE= 1.58D-04 OVMax= 1.72D-04

 Cycle  10  Pass 1  IDiag  1:
 RMSU=  3.33D-05    CP:  1.00D+00
 E= -997.924507968384     Delta-E=       -0.000000149682 Rises=F Damp=F
 DIIS: error= 2.02D-05 at cycle   2 NSaved=   2.
 NSaved= 2 IEnMin= 2 EnMin= -997.924507968384     IErMin= 2 ErrMin= 2.02D-05
 ErrMax= 2.02D-05  0.00D+00 EMaxC= 1.00D-01 BMatC= 6.26D-07 BMatP= 1.23D-06
 IDIUse=1 WtCom= 1.00D+00 WtEn= 0.00D+00
 Coeff-Com:  0.380D+00 0.620D+00
 Coeff:      0.380D+00 0.620D+00
 Gap=     0.260 Goal=   None    Shift=    0.000
 Gap=     0.260 Goal=   None    Shift=    0.000
 RMSDP=3.20D-06 MaxDP=1.10D-04 DE=-1.50D-07 OVMax= 1.81D-04

 Cycle  11  Pass 1  IDiag  1:
 RMSU=  3.08D-06    CP:  1.00D+00  1.03D+00
 E= -997.924508006131     Delta-E=       -0.000000037747 Rises=F Damp=F
 DIIS: error= 1.32D-05 at cycle   3 NSaved=   3.
 NSaved= 3 IEnMin= 3 EnMin= -997.924508006131     IErMin= 3 ErrMin= 1.32D-05
 ErrMax= 1.32D-05  0.00D+00 EMaxC= 1.00D-01 BMatC= 2.86D-07 BMatP= 6.26D-07
 IDIUse=1 WtCom= 1.00D+00 WtEn= 0.00D+00
 Coeff-Com: -0.146D-01 0.403D+00 0.612D+00
 Coeff:     -0.146D-01 0.403D+00 0.612D+00
 Gap=     0.260 Goal=   None    Shift=    0.000
 Gap=     0.260 Goal=   None    Shift=    0.000
 RMSDP=1.43D-06 MaxDP=4.93D-05 DE=-3.77D-08 OVMax= 7.86D-05

 Cycle  12  Pass 1  IDiag  1:
 RMSU=  5.08D-07    CP:  1.00D+00  1.05D+00  6.76D-01
 E= -997.924508102725     Delta-E=       -0.000000096594 Rises=F Damp=F
 DIIS: error= 1.70D-06 at cycle   4 NSaved=   4.
 NSaved= 4 IEnMin= 4 EnMin= -997.924508102725     IErMin= 4 ErrMin= 1.70D-06
 ErrMax= 1.70D-06  0.00D+00 EMaxC= 1.00D-01 BMatC= 5.35D-09 BMatP= 2.86D-07
 IDIUse=1 WtCom= 1.00D+00 WtEn= 0.00D+00
 Coeff-Com: -0.149D-01 0.191D+00 0.305D+00 0.519D+00
 Coeff:     -0.149D-01 0.191D+00 0.305D+00 0.519D+00
 Gap=     0.260 Goal=   None    Shift=    0.000
 Gap=     0.260 Goal=   None    Shift=    0.000
 RMSDP=2.04D-07 MaxDP=5.93D-06 DE=-9.66D-08 OVMax= 9.94D-06

 Cycle  13  Pass 1  IDiag  1:
 RMSU=  1.89D-07    CP:  1.00D+00  1.05D+00  6.85D-01  9.20D-01
 E= -997.924508104052     Delta-E=       -0.000000001327 Rises=F Damp=F
 DIIS: error= 6.43D-07 at cycle   5 NSaved=   5.
 NSaved= 5 IEnMin= 5 EnMin= -997.924508104052     IErMin= 5 ErrMin= 6.43D-07
 ErrMax= 6.43D-07  0.00D+00 EMaxC= 1.00D-01 BMatC= 3.56D-10 BMatP= 5.35D-09
 IDIUse=1 WtCom= 1.00D+00 WtEn= 0.00D+00
 Coeff-Com: -0.379D-02 0.243D-01 0.411D-01 0.180D+00 0.758D+00
 Coeff:     -0.379D-02 0.243D-01 0.411D-01 0.180D+00 0.758D+00
 Gap=     0.260 Goal=   None    Shift=    0.000
 Gap=     0.260 Goal=   None    Shift=    0.000
 RMSDP=1.05D-07 MaxDP=2.48D-06 DE=-1.33D-09 OVMax= 5.53D-06

 Cycle  14  Pass 1  IDiag  1:
 RMSU=  7.92D-08    CP:  1.00D+00  1.05D+00  6.89D-01  1.04D+00  1.07D+00
 E= -997.924508104205     Delta-E=       -0.000000000153 Rises=F Damp=F
 DIIS: error= 2.61D-07 at cycle   6 NSaved=   6.
 NSaved= 6 IEnMin= 6 EnMin= -997.924508104205     IErMin= 6 ErrMin= 2.61D-07
 ErrMax= 2.61D-07  0.00D+00 EMaxC= 1.00D-01 BMatC= 1.04D-10 BMatP= 3.56D-10
 IDIUse=1 WtCom= 1.00D+00 WtEn= 0.00D+00
 Coeff-Com:  0.254D-02-0.440D-01-0.690D-01-0.692D-01 0.374D+00 0.806D+00
 Coeff:      0.254D-02-0.440D-01-0.690D-01-0.692D-01 0.374D+00 0.806D+00
 Gap=     0.260 Goal=   None    Shift=    0.000
 Gap=     0.260 Goal=   None    Shift=    0.000
 RMSDP=6.31D-08 MaxDP=2.09D-06 DE=-1.53D-10 OVMax= 7.27D-06

 Cycle  15  Pass 1  IDiag  1:
 RMSU=  3.84D-08    CP:  1.00D+00  1.05D+00  6.92D-01  1.11D+00  1.26D+00
                    CP:  1.04D+00
 E= -997.924508117404     Delta-E=       -0.000000013198 Rises=F Damp=F
 DIIS: error= 1.82D-07 at cycle   7 NSaved=   7.
 NSaved= 7 IEnMin= 7 EnMin= -997.924508117404     IErMin= 7 ErrMin= 1.82D-07
 ErrMax= 1.82D-07  0.00D+00 EMaxC= 1.00D-01 BMatC= 2.76D-11 BMatP= 1.04D-10
 IDIUse=1 WtCom= 1.00D+00 WtEn= 0.00D+00
 Coeff-Com:  0.197D-02-0.298D-01-0.470D-01-0.622D-01 0.135D+00 0.479D+00
 Coeff-Com:  0.523D+00
 Coeff:      0.197D-02-0.298D-01-0.470D-01-0.622D-01 0.135D+00 0.479D+00
 Coeff:      0.523D+00
 Gap=     0.260 Goal=   None    Shift=    0.000
 Gap=     0.260 Goal=   None    Shift=    0.000
 RMSDP=2.03D-08 MaxDP=5.75D-07 DE=-1.32D-08 OVMax= 1.29D-06

 Cycle  16  Pass 1  IDiag  1:
 RMSU=  1.36D-08    CP:  1.00D+00  1.05D+00  6.94D-01  1.12D+00  1.29D+00
                    CP:  1.17D+00  9.67D-01
 E= -997.924508117426     Delta-E=       -0.000000000023 Rises=F Damp=F
 DIIS: error= 3.77D-08 at cycle   8 NSaved=   8.
 NSaved= 8 IEnMin= 8 EnMin= -997.924508117426     IErMin= 8 ErrMin= 3.77D-08
 ErrMax= 3.77D-08  0.00D+00 EMaxC= 1.00D-01 BMatC= 1.72D-12 BMatP= 2.76D-11
 IDIUse=1 WtCom= 1.00D+00 WtEn= 0.00D+00
 Coeff-Com:  0.284D-03-0.328D-02-0.510D-02-0.105D-01-0.200D-01 0.447D-01
 Coeff-Com:  0.212D+00 0.782D+00
 Coeff:      0.284D-03-0.328D-02-0.510D-02-0.105D-01-0.200D-01 0.447D-01
 Coeff:      0.212D+00 0.782D+00
 Gap=     0.260 Goal=   None    Shift=    0.000
 Gap=     0.260 Goal=   None    Shift=    0.000
 RMSDP=7.13D-09 MaxDP=1.70D-07 DE=-2.27D-11 OVMax= 5.54D-07

 SCF Done:  E(ULC-wPBE) =  -997.924508117     A.U. after   16 cycles
            NFock= 16  Conv=0.71D-08     -V/T= 2.0041
 <Sx>= 0.0000 <Sy>= 0.0000 <Sz>= 0.0000 <S**2>=-0.0000 S=-0.0000
 <L.S>= 0.000000000000E+00
 KE= 9.938833742912D+02 PE=-4.062187667240D+03 EE= 1.215498614711D+03
 Annihilation of the first spin contaminant:
 S**2 before annihilation    -0.0000,   after     0.0000
 Leave Link  502 at Sat Jul 25 12:25:15 2020, MaxMem=  4026531840 cpu:             365.1 elap:              46.5
 (Enter /opt/ohpc/pub/libs/gaussian/g16-A.03/sandybridge/g16/l601.exe)
 Copying SCF densities to generalized density rwf, IOpCl= 1 IROHF=0.

 **********************************************************************

            Population analysis using the SCF density.

 **********************************************************************

 Orbital symmetries:
 Alpha Orbitals:
       Occupied  (A) (A) (A) (A) (A) (A) (A) (A) (A) (A) (A) (A)
                 (A) (A) (A) (A) (A) (A) (A) (A) (A) (A) (A) (A)
                 (A) (A) (A) (A) (A) (A) (A) (A) (A) (A) (A) (A)
                 (A) (A) (A) (A) (A) (A) (A) (A) (A) (A) (A) (A)
                 (A) (A)
       Virtual   (A) (A) (A) (A) (A) (A) (A) (A) (A) (A) (A) (A)
                 (A) (A) (A) (A) (A) (A) (A) (A) (A) (A) (A) (A)
                 (A) (A) (A) (A) (A) (A) (A) (A) (A) (A) (A) (A)
                 (A) (A) (A) (A) (A) (A) (A) (A) (A) (A) (A) (A)
                 (A) (A) (A) (A) (A) (A) (A) (A) (A) (A) (A) (A)
                 (A) (A) (A) (A) (A) (A) (A) (A) (A) (A) (A) (A)
                 (A) (A) (A) (A) (A) (A) (A) (A) (A) (A) (A) (A)
                 (A) (A) (A) (A) (A) (A) (A) (A) (A) (A) (A) (A)
                 (A) (A) (A) (A) (A) (A) (A) (A) (A) (A) (A) (A)
                 (A) (A) (A) (A) (A) (A) (A) (A) (A) (A) (A) (A)
                 (A) (A) (A) (A) (A) (A) (A) (A) (A) (A) (A) (A)
                 (A) (A) (A) (A) (A) (A) (A) (A) (A) (A) (A) (A)
                 (A) (A) (A) (A) (A) (A) (A) (A) (A) (A) (A) (A)
                 (A) (A) (A) (A) (A)
 Beta  Orbitals:
       Occupied  (A) (A) (A) (A) (A) (A) (A) (A) (A) (A) (A) (A)
                 (A) (A) (A) (A) (A) (A) (A) (A) (A) (A) (A) (A)
                 (A) (A) (A) (A) (A) (A) (A) (A) (A) (A) (A) (A)
                 (A) (A) (A) (A) (A) (A) (A) (A) (A) (A) (A) (A)
                 (A) (A)
       Virtual   (A) (A) (A) (A) (A) (A) (A) (A) (A) (A) (A) (A)
                 (A) (A) (A) (A) (A) (A) (A) (A) (A) (A) (A) (A)
                 (A) (A) (A) (A) (A) (A) (A) (A) (A) (A) (A) (A)
                 (A) (A) (A) (A) (A) (A) (A) (A) (A) (A) (A) (A)
                 (A) (A) (A) (A) (A) (A) (A) (A) (A) (A) (A) (A)
                 (A) (A) (A) (A) (A) (A) (A) (A) (A) (A) (A) (A)
                 (A) (A) (A) (A) (A) (A) (A) (A) (A) (A) (A) (A)
                 (A) (A) (A) (A) (A) (A) (A) (A) (A) (A) (A) (A)
                 (A) (A) (A) (A) (A) (A) (A) (A) (A) (A) (A) (A)
                 (A) (A) (A) (A) (A) (A) (A) (A) (A) (A) (A) (A)
                 (A) (A) (A) (A) (A) (A) (A) (A) (A) (A) (A) (A)
                 (A) (A) (A) (A) (A) (A) (A) (A) (A) (A) (A) (A)
                 (A) (A) (A) (A) (A) (A) (A) (A) (A) (A) (A) (A)
                 (A) (A) (A) (A) (A)
 The electronic state is 1-A.
 Alpha  occ. eigenvalues --  -88.19387 -24.41765 -24.37569 -14.08265 -10.09389
 Alpha  occ. eigenvalues --  -10.07891 -10.05821 -10.02395 -10.01466 -10.01402
 Alpha  occ. eigenvalues --  -10.01233 -10.00085  -9.99708  -7.79799  -5.81822
 Alpha  occ. eigenvalues --   -5.81363  -5.81047  -1.28699  -1.22514  -0.96509
 Alpha  occ. eigenvalues --   -0.88360  -0.81405  -0.81244  -0.77593  -0.75549
 Alpha  occ. eigenvalues --   -0.68269  -0.66645  -0.62810  -0.60753  -0.59860
 Alpha  occ. eigenvalues --   -0.56207  -0.54630  -0.54410  -0.53506  -0.51797
 Alpha  occ. eigenvalues --   -0.50045  -0.49054  -0.47605  -0.45535  -0.44791
 Alpha  occ. eigenvalues --   -0.42687  -0.41104  -0.40388  -0.40094  -0.39572
 Alpha  occ. eigenvalues --   -0.34663  -0.32545  -0.29650  -0.29610  -0.27782
 Alpha virt. eigenvalues --   -0.01745   0.03497   0.05451   0.07521   0.09558
 Alpha virt. eigenvalues --    0.11579   0.13447   0.14507   0.16744   0.17861
 Alpha virt. eigenvalues --    0.18054   0.18947   0.19283   0.22722   0.25292
 Alpha virt. eigenvalues --    0.28712   0.31614   0.31910   0.35849   0.38288
 Alpha virt. eigenvalues --    0.39079   0.41460   0.44206   0.45484   0.47255
 Alpha virt. eigenvalues --    0.47453   0.48519   0.49222   0.50819   0.50953
 Alpha virt. eigenvalues --    0.51280   0.52467   0.52835   0.53128   0.54363
 Alpha virt. eigenvalues --    0.54900   0.54994   0.55252   0.57536   0.57974
 Alpha virt. eigenvalues --    0.59735   0.60779   0.61249   0.62153   0.64419
 Alpha virt. eigenvalues --    0.64975   0.67044   0.69148   0.69702   0.71470
 Alpha virt. eigenvalues --    0.72156   0.72955   0.74757   0.77363   0.77980
 Alpha virt. eigenvalues --    0.79349   0.80400   0.82514   0.85814   0.87239
 Alpha virt. eigenvalues --    0.89507   0.90209   0.91747   0.93464   0.96483
 Alpha virt. eigenvalues --    0.97373   0.98024   1.00855   1.01206   1.03053
 Alpha virt. eigenvalues --    1.03645   1.04449   1.04892   1.07026   1.09084
 Alpha virt. eigenvalues --    1.11011   1.12595   1.13674   1.15572   1.17751
 Alpha virt. eigenvalues --    1.19264   1.20731   1.25560   1.27454   1.30040
 Alpha virt. eigenvalues --    1.30707   1.32325   1.32954   1.34684   1.37847
 Alpha virt. eigenvalues --    1.42642   1.43756   1.46316   1.47933   1.50078
 Alpha virt. eigenvalues --    1.50538   1.52241   1.52408   1.56801   1.58701
 Alpha virt. eigenvalues --    1.60912   1.62845   1.63557   1.64992   1.65618
 Alpha virt. eigenvalues --    1.67501   1.68813   1.69188   1.70722   1.71402
 Alpha virt. eigenvalues --    1.72492   1.74278   1.75659   1.78374   1.80566
 Alpha virt. eigenvalues --    1.81700   1.83950   1.85635   1.87868   1.88016
 Alpha virt. eigenvalues --    1.89698   1.93463   1.95461   1.99795   2.01432
 Alpha virt. eigenvalues --    2.02983   2.03506   2.09572   2.10501   2.12667
 Alpha virt. eigenvalues --    2.15667   2.21948   2.27818   2.28987   2.32946
 Alpha virt. eigenvalues --    2.35974   2.39195   2.40741   2.44306   2.46626
 Alpha virt. eigenvalues --    2.47739   2.49691   2.52616   2.56815   2.65053
 Alpha virt. eigenvalues --    2.72323   2.76740   2.77759   2.86277   3.10161
 Alpha virt. eigenvalues --    3.31263   3.51967   3.56328   3.57240   3.60818
 Alpha virt. eigenvalues --    3.76575   3.79383   4.00293   4.02498   4.12837
 Alpha virt. eigenvalues --    4.22677
  Beta  occ. eigenvalues --  -88.19387 -24.41765 -24.37569 -14.08265 -10.09389
  Beta  occ. eigenvalues --  -10.07891 -10.05821 -10.02395 -10.01466 -10.01402
  Beta  occ. eigenvalues --  -10.01233 -10.00085  -9.99708  -7.79799  -5.81822
  Beta  occ. eigenvalues --   -5.81363  -5.81047  -1.28699  -1.22514  -0.96509
  Beta  occ. eigenvalues --   -0.88360  -0.81405  -0.81244  -0.77593  -0.75549
  Beta  occ. eigenvalues --   -0.68269  -0.66645  -0.62810  -0.60753  -0.59860
  Beta  occ. eigenvalues --   -0.56207  -0.54630  -0.54410  -0.53506  -0.51797
  Beta  occ. eigenvalues --   -0.50045  -0.49054  -0.47605  -0.45535  -0.44791
  Beta  occ. eigenvalues --   -0.42687  -0.41104  -0.40388  -0.40094  -0.39572
  Beta  occ. eigenvalues --   -0.34663  -0.32545  -0.29650  -0.29610  -0.27782
  Beta virt. eigenvalues --   -0.01745   0.03497   0.05451   0.07521   0.09558
  Beta virt. eigenvalues --    0.11579   0.13447   0.14507   0.16744   0.17861
  Beta virt. eigenvalues --    0.18054   0.18947   0.19283   0.22722   0.25292
  Beta virt. eigenvalues --    0.28712   0.31614   0.31910   0.35849   0.38288
  Beta virt. eigenvalues --    0.39079   0.41460   0.44206   0.45484   0.47255
  Beta virt. eigenvalues --    0.47453   0.48519   0.49222   0.50819   0.50953
  Beta virt. eigenvalues --    0.51280   0.52467   0.52835   0.53128   0.54363
  Beta virt. eigenvalues --    0.54900   0.54994   0.55252   0.57536   0.57974
  Beta virt. eigenvalues --    0.59735   0.60779   0.61249   0.62153   0.64419
  Beta virt. eigenvalues --    0.64975   0.67044   0.69148   0.69702   0.71470
  Beta virt. eigenvalues --    0.72156   0.72955   0.74757   0.77363   0.77980
  Beta virt. eigenvalues --    0.79349   0.80400   0.82514   0.85814   0.87239
  Beta virt. eigenvalues --    0.89507   0.90209   0.91747   0.93464   0.96483
  Beta virt. eigenvalues --    0.97373   0.98024   1.00855   1.01206   1.03053
  Beta virt. eigenvalues --    1.03645   1.04449   1.04892   1.07026   1.09084
  Beta virt. eigenvalues --    1.11011   1.12595   1.13674   1.15572   1.17751
  Beta virt. eigenvalues --    1.19264   1.20731   1.25560   1.27454   1.30040
  Beta virt. eigenvalues --    1.30707   1.32325   1.32954   1.34684   1.37847
  Beta virt. eigenvalues --    1.42642   1.43756   1.46316   1.47933   1.50078
  Beta virt. eigenvalues --    1.50538   1.52241   1.52408   1.56801   1.58701
  Beta virt. eigenvalues --    1.60912   1.62845   1.63557   1.64992   1.65618
  Beta virt. eigenvalues --    1.67501   1.68813   1.69188   1.70722   1.71402
  Beta virt. eigenvalues --    1.72492   1.74278   1.75659   1.78374   1.80566
  Beta virt. eigenvalues --    1.81700   1.83950   1.85635   1.87868   1.88016
  Beta virt. eigenvalues --    1.89698   1.93463   1.95461   1.99795   2.01432
  Beta virt. eigenvalues --    2.02983   2.03506   2.09572   2.10501   2.12667
  Beta virt. eigenvalues --    2.15667   2.21948   2.27818   2.28987   2.32946
  Beta virt. eigenvalues --    2.35974   2.39195   2.40741   2.44306   2.46626
  Beta virt. eigenvalues --    2.47739   2.49691   2.52616   2.56815   2.65053
  Beta virt. eigenvalues --    2.72323   2.76740   2.77759   2.86277   3.10161
  Beta virt. eigenvalues --    3.31263   3.51967   3.56328   3.57240   3.60818
  Beta virt. eigenvalues --    3.76575   3.79383   4.00293   4.02498   4.12837
  Beta virt. eigenvalues --    4.22677
          Condensed to atoms (all electrons):
               1          2          3          4          5          6
     1  C    4.780768   0.411070   0.028431   0.003677  -0.063287   0.023967
     2  C    0.411070   4.939504   0.435284  -0.057630  -0.022867  -0.090066
     3  C    0.028431   0.435284   4.899559   0.439628   0.186777   0.026551
     4  F    0.003677  -0.057630   0.439628   8.752251  -0.059292   0.003391
     5  C   -0.063287  -0.022867   0.186777  -0.059292   5.717902   0.251000
     6  C    0.023967  -0.090066   0.026551   0.003391   0.251000   4.919670
     7  F    0.003936  -0.000034   0.002594  -0.000001  -0.059556   0.438330
     8  C    0.446815   0.015557  -0.082780  -0.000160  -0.016705   0.453763
     9  C    0.000010   0.012217  -0.069477  -0.002266   0.232658  -0.081300
    10  N    0.000001   0.000615   0.012688  -0.005277  -0.048358   0.002505
    11  C   -0.000000   0.000018   0.000266   0.000209   0.005104   0.000028
    12  C   -0.000001   0.000004  -0.000091  -0.000040   0.002310   0.000121
    13  S   -0.000092   0.000074   0.009346  -0.000065  -0.072750  -0.018361
    14  H    0.396161  -0.047160   0.010016  -0.000050  -0.001731   0.010799
    15  H   -0.045772   0.368453  -0.032698   0.001686   0.014748  -0.000034
    16  H   -0.048136   0.009499  -0.000113   0.000003   0.014749  -0.031217
    17  H   -0.000000  -0.000000  -0.000030   0.000038  -0.000618   0.000008
    18  H    0.000000  -0.000000  -0.000006   0.000000  -0.000167   0.000006
               7          8          9         10         11         12
     1  C    0.003936   0.446815   0.000010   0.000001  -0.000000  -0.000001
     2  C   -0.000034   0.015557   0.012217   0.000615   0.000018   0.000004
     3  C    0.002594  -0.082780  -0.069477   0.012688   0.000266  -0.000091
     4  F   -0.000001  -0.000160  -0.002266  -0.005277   0.000209  -0.000040
     5  C   -0.059556  -0.016705   0.232658  -0.048358   0.005104   0.002310
     6  C    0.438330   0.453763  -0.081300   0.002505   0.000028   0.000121
     7  F    8.685402  -0.052563  -0.003734   0.000026  -0.000012   0.000305
     8  C   -0.052563   4.899689   0.008744  -0.000067   0.000003   0.000008
     9  C   -0.003734   0.008744   5.181249   0.612500  -0.110529  -0.065286
    10  N    0.000026  -0.000067   0.612500   6.304753   0.511516  -0.051345
    11  C   -0.000012   0.000003  -0.110529   0.511516   4.643709   0.518629
    12  C    0.000305   0.000008  -0.065286  -0.051345   0.518629   5.061924
    13  S    0.012308   0.000683   0.292420  -0.115181  -0.099477   0.359532
    14  H   -0.000054  -0.042106   0.000000  -0.000000   0.000000   0.000000
    15  H    0.000003   0.009928  -0.000362   0.000023   0.000000  -0.000000
    16  H    0.002246   0.361967  -0.000394   0.000001  -0.000000  -0.000000
    17  H    0.000000  -0.000000   0.002896  -0.025149   0.404178  -0.055605
    18  H    0.000001   0.000000   0.003750   0.006412  -0.016959   0.381592
              13         14         15         16         17         18
     1  C   -0.000092   0.396161  -0.045772  -0.048136  -0.000000   0.000000
     2  C    0.000074  -0.047160   0.368453   0.009499  -0.000000  -0.000000
     3  C    0.009346   0.010016  -0.032698  -0.000113  -0.000030  -0.000006
     4  F   -0.000065  -0.000050   0.001686   0.000003   0.000038   0.000000
     5  C   -0.072750  -0.001731   0.014748   0.014749  -0.000618  -0.000167
     6  C   -0.018361   0.010799  -0.000034  -0.031217   0.000008   0.000006
     7  F    0.012308  -0.000054   0.000003   0.002246   0.000000   0.000001
     8  C    0.000683  -0.042106   0.009928   0.361967  -0.000000   0.000000
     9  C    0.292420   0.000000  -0.000362  -0.000394   0.002896   0.003750
    10  N   -0.115181  -0.000000   0.000023   0.000001  -0.025149   0.006412
    11  C   -0.099477   0.000000   0.000000  -0.000000   0.404178  -0.016959
    12  C    0.359532   0.000000  -0.000000  -0.000000  -0.055605   0.381592
    13  S   15.526838   0.000000   0.000007   0.000010   0.006707  -0.040292
    14  H    0.000000   0.725095  -0.014109  -0.015676   0.000000   0.000000
    15  H    0.000007  -0.014109   0.722385  -0.000278  -0.000000  -0.000000
    16  H    0.000010  -0.015676  -0.000278   0.718456   0.000000  -0.000000
    17  H    0.006707   0.000000  -0.000000   0.000000   0.666366  -0.004950
    18  H   -0.040292   0.000000  -0.000000  -0.000000  -0.004950   0.656095
          Atomic-Atomic Spin Densities.
               1          2          3          4          5          6
     1  C   -0.000000   0.000000  -0.000000  -0.000000   0.000000  -0.000000
     2  C    0.000000  -0.000000   0.000000  -0.000000  -0.000000   0.000000
     3  C   -0.000000   0.000000  -0.000000  -0.000000   0.000000  -0.000000
     4  F   -0.000000  -0.000000  -0.000000   0.000000   0.000000   0.000000
     5  C    0.000000  -0.000000   0.000000   0.000000  -0.000000   0.000000
     6  C   -0.000000   0.000000  -0.000000   0.000000   0.000000   0.000000
     7  F   -0.000000   0.000000  -0.000000   0.000000   0.000000  -0.000000
     8  C    0.000000  -0.000000   0.000000   0.000000  -0.000000   0.000000
     9  C    0.000000   0.000000   0.000000  -0.000000  -0.000000  -0.000000
    10  N    0.000000  -0.000000  -0.000000  -0.000000  -0.000000   0.000000
    11  C   -0.000000  -0.000000   0.000000  -0.000000   0.000000  -0.000000
    12  C    0.000000   0.000000   0.000000  -0.000000  -0.000000   0.000000
    13  S   -0.000000   0.000000   0.000000   0.000000  -0.000000  -0.000000
    14  H   -0.000000   0.000000  -0.000000  -0.000000   0.000000  -0.000000
    15  H    0.000000  -0.000000   0.000000   0.000000  -0.000000   0.000000
    16  H    0.000000  -0.000000   0.000000  -0.000000  -0.000000  -0.000000
    17  H    0.000000  -0.000000  -0.000000  -0.000000  -0.000000   0.000000
    18  H    0.000000  -0.000000   0.000000  -0.000000  -0.000000  -0.000000
               7          8          9         10         11         12
     1  C   -0.000000   0.000000   0.000000   0.000000  -0.000000   0.000000
     2  C    0.000000  -0.000000   0.000000  -0.000000  -0.000000   0.000000
     3  C   -0.000000   0.000000   0.000000  -0.000000   0.000000   0.000000
     4  F    0.000000   0.000000  -0.000000  -0.000000  -0.000000  -0.000000
     5  C    0.000000  -0.000000  -0.000000  -0.000000   0.000000  -0.000000
     6  C   -0.000000   0.000000  -0.000000   0.000000  -0.000000   0.000000
     7  F    0.000000   0.000000  -0.000000   0.000000  -0.000000   0.000000
     8  C    0.000000   0.000000  -0.000000  -0.000000  -0.000000  -0.000000
     9  C   -0.000000  -0.000000   0.000000   0.000000  -0.000000   0.000000
    10  N    0.000000  -0.000000   0.000000  -0.000000  -0.000000   0.000000
    11  C   -0.000000  -0.000000  -0.000000  -0.000000   0.000000  -0.000000
    12  C    0.000000  -0.000000   0.000000   0.000000  -0.000000   0.000000
    13  S    0.000000   0.000000   0.000000  -0.000000   0.000000   0.000000
    14  H   -0.000000   0.000000   0.000000  -0.000000  -0.000000   0.000000
    15  H    0.000000  -0.000000  -0.000000   0.000000   0.000000  -0.000000
    16  H    0.000000  -0.000000  -0.000000  -0.000000   0.000000  -0.000000
    17  H   -0.000000  -0.000000  -0.000000   0.000000  -0.000000   0.000000
    18  H   -0.000000  -0.000000  -0.000000  -0.000000   0.000000  -0.000000
              13         14         15         16         17         18
     1  C   -0.000000  -0.000000   0.000000   0.000000   0.000000   0.000000
     2  C    0.000000   0.000000  -0.000000  -0.000000  -0.000000  -0.000000
     3  C    0.000000  -0.000000   0.000000   0.000000  -0.000000   0.000000
     4  F    0.000000  -0.000000   0.000000  -0.000000  -0.000000  -0.000000
     5  C   -0.000000   0.000000  -0.000000  -0.000000  -0.000000  -0.000000
     6  C   -0.000000  -0.000000   0.000000  -0.000000   0.000000  -0.000000
     7  F    0.000000  -0.000000   0.000000   0.000000  -0.000000  -0.000000
     8  C    0.000000   0.000000  -0.000000  -0.000000  -0.000000  -0.000000
     9  C    0.000000   0.000000  -0.000000  -0.000000  -0.000000  -0.000000
    10  N   -0.000000  -0.000000   0.000000  -0.000000   0.000000  -0.000000
    11  C    0.000000  -0.000000   0.000000   0.000000  -0.000000   0.000000
    12  C    0.000000   0.000000  -0.000000  -0.000000   0.000000  -0.000000
    13  S   -0.000000  -0.000000  -0.000000   0.000000   0.000000  -0.000000
    14  H   -0.000000   0.000000   0.000000   0.000000   0.000000   0.000000
    15  H   -0.000000   0.000000  -0.000000  -0.000000  -0.000000  -0.000000
    16  H    0.000000   0.000000  -0.000000  -0.000000  -0.000000  -0.000000
    17  H    0.000000   0.000000  -0.000000  -0.000000  -0.000000   0.000000
    18  H   -0.000000   0.000000  -0.000000  -0.000000   0.000000   0.000000
 Mulliken charges and spin densities:
               1          2
     1  C    0.062453  -0.000000
     2  C    0.025462   0.000000
     3  C    0.134054   0.000000
     4  F   -0.076104   0.000000
     5  C   -0.079917  -0.000000
     6  C    0.090837   0.000000
     7  F   -0.029198   0.000000
     8  C   -0.002777   0.000000
     9  C   -0.013096   0.000000
    10  N   -0.205662  -0.000000
    11  C    0.143317  -0.000000
    12  C   -0.152057   0.000000
    13  S    0.138293  -0.000000
    14  H   -0.021187  -0.000000
    15  H   -0.023981  -0.000000
    16  H   -0.011116  -0.000000
    17  H    0.006160  -0.000000
    18  H    0.014518  -0.000000
 Sum of Mulliken charges =  -0.00000   0.00000
 Mulliken charges and spin densities with hydrogens summed into heavy atoms:
               1          2
     1  C    0.041266  -0.000000
     2  C    0.001481   0.000000
     3  C    0.134054   0.000000
     4  F   -0.076104   0.000000
     5  C   -0.079917  -0.000000
     6  C    0.090837   0.000000
     7  F   -0.029198   0.000000
     8  C   -0.013893   0.000000
     9  C   -0.013096   0.000000
    10  N   -0.205662  -0.000000
    11  C    0.149477  -0.000000
    12  C   -0.137539   0.000000
    13  S    0.138293  -0.000000
 Electronic spatial extent (au):  <R**2>=           2513.4912
 Charge=             -0.0000 electrons
 Dipole moment (field-independent basis, Debye):
    X=             -0.6916    Y=             -1.4125    Z=              0.0042  Tot=              1.5727
 Quadrupole moment (field-independent basis, Debye-Ang):
   XX=            -61.5394   YY=            -79.3481   ZZ=            -81.5352
   XY=              0.0069   XZ=             -0.4896   YZ=              0.0007
 Traceless Quadrupole moment (field-independent basis, Debye-Ang):
   XX=             12.6015   YY=             -5.2072   ZZ=             -7.3943
   XY=              0.0069   XZ=             -0.4896   YZ=              0.0007
 Octapole moment (field-independent basis, Debye-Ang**2):
  XXX=              2.0047  YYY=             -5.6155  ZZZ=              0.1742  XYY=             -5.2453
  XXY=              2.9832  XXZ=             -0.2756  XZZ=             -0.0065  YZZ=             -0.0647
  YYZ=             -0.1471  XYZ=             -0.3036
 Hexadecapole moment (field-independent basis, Debye-Ang**3):
 XXXX=          -2001.5547 YYYY=           -836.6403 ZZZZ=            -85.0253 XXXY=             -0.4653
 XXXZ=            -10.0752 YYYX=              5.0968 YYYZ=             -0.6930 ZZZX=             -0.2636
 ZZZY=             -0.1160 XXYY=           -475.6510 XXZZ=           -441.7972 YYZZ=           -155.1751
 XXYZ=             -0.7039 YYXZ=              0.5349 ZZXY=             -2.9051
 N-N= 8.548811701202D+02 E-N=-4.062187661792D+03  KE= 9.938833742912D+02
                          Isotropic Fermi Contact Couplings
        Atom                 a.u.       MegaHertz       Gauss      10(-4) cm-1
     1  C(13)             -0.00000      -0.00000      -0.00000      -0.00000
     2  C(13)              0.00000       0.00000       0.00000       0.00000
     3  C(13)             -0.00000      -0.00000      -0.00000      -0.00000
     4  F(19)              0.00000       0.00000       0.00000       0.00000
     5  C(13)             -0.00000      -0.00000      -0.00000      -0.00000
     6  C(13)             -0.00000      -0.00000      -0.00000      -0.00000
     7  F(19)             -0.00000      -0.00000      -0.00000      -0.00000
     8  C(13)              0.00000       0.00000       0.00000       0.00000
     9  C(13)              0.00000       0.00000       0.00000       0.00000
    10  N(14)              0.00000       0.00000       0.00000       0.00000
    11  C(13)             -0.00000      -0.00000      -0.00000      -0.00000
    12  C(13)              0.00000       0.00000       0.00000       0.00000
    13  S(33)              0.00000       0.00000       0.00000       0.00000
    14  H(1)               0.00000       0.00000       0.00000       0.00000
    15  H(1)               0.00000       0.00000       0.00000       0.00000
    16  H(1)              -0.00000      -0.00000      -0.00000      -0.00000
    17  H(1)               0.00000       0.00000       0.00000       0.00000
    18  H(1)               0.00000       0.00000       0.00000       0.00000
 --------------------------------------------------------
       Center         ----  Spin Dipole Couplings  ----
                      3XX-RR        3YY-RR        3ZZ-RR
 --------------------------------------------------------
     1   Atom       -0.000000     -0.000000      0.000000
     2   Atom       -0.000000      0.000000      0.000000
     3   Atom        0.000000     -0.000000      0.000000
     4   Atom        0.000000     -0.000000      0.000000
     5   Atom       -0.000000      0.000000      0.000000
     6   Atom        0.000000     -0.000000      0.000000
     7   Atom       -0.000000      0.000000      0.000000
     8   Atom       -0.000000      0.000000     -0.000000
     9   Atom        0.000000     -0.000000     -0.000000
    10   Atom        0.000000     -0.000000      0.000000
    11   Atom       -0.000000      0.000000      0.000000
    12   Atom       -0.000000      0.000000      0.000000
    13   Atom       -0.000000      0.000000     -0.000000
    14   Atom       -0.000000      0.000000      0.000000
    15   Atom        0.000000     -0.000000      0.000000
    16   Atom        0.000000     -0.000000      0.000000
    17   Atom       -0.000000      0.000000      0.000000
    18   Atom       -0.000000     -0.000000      0.000000
 --------------------------------------------------------
                        XY            XZ            YZ
 --------------------------------------------------------
     1   Atom       -0.000000     -0.000000      0.000000
     2   Atom        0.000000     -0.000000      0.000000
     3   Atom       -0.000000     -0.000000     -0.000000
     4   Atom       -0.000000     -0.000000     -0.000000
     5   Atom        0.000000      0.000000      0.000000
     6   Atom       -0.000000     -0.000000      0.000000
     7   Atom        0.000000     -0.000000      0.000000
     8   Atom       -0.000000      0.000000      0.000000
     9   Atom        0.000000      0.000000      0.000000
    10   Atom       -0.000000     -0.000000     -0.000000
    11   Atom        0.000000      0.000000      0.000000
    12   Atom        0.000000      0.000000     -0.000000
    13   Atom       -0.000000      0.000000     -0.000000
    14   Atom       -0.000000      0.000000      0.000000
    15   Atom        0.000000      0.000000      0.000000
    16   Atom        0.000000     -0.000000     -0.000000
    17   Atom       -0.000000     -0.000000      0.000000
    18   Atom        0.000000      0.000000     -0.000000
 --------------------------------------------------------


 ---------------------------------------------------------------------------------
              Anisotropic Spin Dipole Couplings in Principal Axis System
 ---------------------------------------------------------------------------------

       Atom             a.u.   MegaHertz   Gauss  10(-4) cm-1        Axes

              Baa    -0.0000    -0.000    -0.000    -0.000  0.8224  0.5690 -0.0029
     1 C(13)  Bbb     0.0000     0.000     0.000     0.000 -0.5283  0.7617 -0.3752
              Bcc     0.0000     0.000     0.000     0.000 -0.2113  0.3101  0.9269
 
              Baa    -0.0000    -0.000    -0.000    -0.000  0.8301 -0.5569  0.0276
     2 C(13)  Bbb     0.0000     0.000     0.000     0.000 -0.3929 -0.5492  0.7375
              Bcc     0.0000     0.000     0.000     0.000  0.3956  0.6231  0.6747
 
              Baa    -0.0000    -0.000    -0.000    -0.000  0.0407  0.9903  0.1330
     3 C(13)  Bbb     0.0000     0.000     0.000     0.000  0.2069 -0.1386  0.9685
              Bcc     0.0000     0.000     0.000     0.000  0.9775 -0.0119 -0.2105
 
              Baa    -0.0000    -0.000    -0.000    -0.000  0.4606  0.8537  0.2432
     4 F(19)  Bbb     0.0000     0.000     0.000     0.000 -0.0789 -0.2335  0.9691
              Bcc     0.0000     0.000     0.000     0.000  0.8841 -0.4655 -0.0402
 
              Baa    -0.0000    -0.000    -0.000    -0.000  0.9678 -0.2447 -0.0595
     5 C(13)  Bbb     0.0000     0.000     0.000     0.000  0.0453 -0.0633  0.9970
              Bcc     0.0000     0.000     0.000     0.000  0.2477  0.9675  0.0502
 
              Baa    -0.0000    -0.000    -0.000    -0.000  0.2458  0.9693  0.0025
     6 C(13)  Bbb     0.0000     0.000     0.000     0.000  0.2029 -0.0540  0.9777
              Bcc     0.0000     0.000     0.000     0.000  0.9478 -0.2399 -0.2099
 
              Baa    -0.0000    -0.000    -0.000    -0.000  0.9199 -0.3837  0.0807
     7 F(19)  Bbb     0.0000     0.000     0.000     0.000 -0.0652  0.0532  0.9965
              Bcc     0.0000     0.000     0.000     0.000  0.3866  0.9219 -0.0239
 
              Baa    -0.0000    -0.000    -0.000    -0.000  0.8742  0.4799 -0.0743
     8 C(13)  Bbb    -0.0000    -0.000    -0.000    -0.000  0.0990 -0.0263  0.9947
              Bcc     0.0000     0.000     0.000     0.000 -0.4754  0.8770  0.0705
 
              Baa    -0.0000    -0.000    -0.000    -0.000 -0.0114 -0.0995  0.9950
     9 C(13)  Bbb    -0.0000    -0.000    -0.000    -0.000 -0.0102  0.9950  0.0994
              Bcc     0.0000     0.000     0.000     0.000  0.9999  0.0090  0.0124
 
              Baa    -0.0000    -0.000    -0.000    -0.000  0.3191  0.9238  0.2116
    10 N(14)  Bbb     0.0000     0.000     0.000     0.000  0.0065 -0.2254  0.9742
              Bcc     0.0000     0.000     0.000     0.000  0.9477 -0.3095 -0.0779
 
              Baa    -0.0000    -0.000    -0.000    -0.000  0.9833 -0.1692 -0.0665
    11 C(13)  Bbb     0.0000     0.000     0.000     0.000  0.0596 -0.0454  0.9972
              Bcc     0.0000     0.000     0.000     0.000  0.1718  0.9845  0.0346
 
              Baa    -0.0000    -0.000    -0.000    -0.000  0.8351 -0.5497 -0.0199
    12 C(13)  Bbb     0.0000     0.000     0.000     0.000 -0.1365 -0.2420  0.9606
              Bcc     0.0000     0.000     0.000     0.000  0.5329  0.7995  0.2772
 
              Baa    -0.0000    -0.000    -0.000    -0.000 -0.1701  0.0221  0.9852
    13 S(33)  Bbb    -0.0000    -0.000    -0.000    -0.000  0.8833  0.4466  0.1425
              Bcc     0.0000     0.000     0.000     0.000 -0.4368  0.8945 -0.0955
 
              Baa    -0.0000    -0.000    -0.000    -0.000  0.8510  0.5226 -0.0522
    14 H(1)   Bbb     0.0000     0.000     0.000     0.000 -0.1282  0.3031  0.9443
              Bcc     0.0000     0.000     0.000     0.000 -0.5093  0.7969 -0.3249
 
              Baa    -0.0000    -0.000    -0.000    -0.000 -0.5478  0.8347  0.0560
    15 H(1)   Bbb     0.0000     0.000     0.000     0.000 -0.4185 -0.3315  0.8456
              Bcc     0.0000     0.000     0.000     0.000  0.7244  0.4398  0.5309
 
              Baa    -0.0000    -0.000    -0.000    -0.000 -0.1008  0.9948  0.0144
    16 H(1)   Bbb     0.0000     0.000     0.000     0.000  0.7523  0.0667  0.6555
              Bcc     0.0000     0.000     0.000     0.000 -0.6511 -0.0769  0.7551
 
              Baa    -0.0000    -0.000    -0.000    -0.000  0.9898  0.1426  0.0005
    17 H(1)   Bbb     0.0000     0.000     0.000     0.000  0.0033 -0.0266  0.9996
              Bcc     0.0000     0.000     0.000     0.000 -0.1425  0.9894  0.0268
 
              Baa    -0.0000    -0.000    -0.000    -0.000  0.7880 -0.6114 -0.0720
    18 H(1)   Bbb     0.0000     0.000     0.000     0.000  0.1483  0.0750  0.9861
              Bcc     0.0000     0.000     0.000     0.000  0.5975  0.7877 -0.1498
 

 ---------------------------------------------------------------------------------

 No NMR shielding tensors so no spin-rotation constants.
 Leave Link  601 at Sat Jul 25 12:25:16 2020, MaxMem=  4026531840 cpu:               3.7 elap:               0.8
 (Enter /opt/ohpc/pub/libs/gaussian/g16-A.03/sandybridge/g16/l701.exe)
 ... and contract with generalized density number  0.
 Compute integral first derivatives.
 Leave Link  701 at Sat Jul 25 12:25:17 2020, MaxMem=  4026531840 cpu:               4.2 elap:               1.1
 (Enter /opt/ohpc/pub/libs/gaussian/g16-A.03/sandybridge/g16/l702.exe)
 L702 exits ... SP integral derivatives will be done elsewhere.
 Leave Link  702 at Sat Jul 25 12:25:17 2020, MaxMem=  4026531840 cpu:               0.2 elap:               0.1
 (Enter /opt/ohpc/pub/libs/gaussian/g16-A.03/sandybridge/g16/l703.exe)
 Integral derivatives from FoFJK, PRISM(SPDF).
 Compute integral first derivatives, UseDBF=F ICtDFT=           0.
 Calling FoFJK, ICntrl=      2127 FMM=F ISym2X=0 I1Cent= 0 IOpClX= 1 NMat=1 NMatS=1 NMatT=0.
 FoFJK:  IHMeth= 1 ICntrl=    2127 DoSepK=T KAlg= 0 I1Cent=           0 FoldK=F
 IRaf=         1 NMat=       1 IRICut=       1 DoRegI=T DoRafI=F ISym2E= 0 IDoP0=0 IntGTp=1.
 FoFCou: FMM=F IPFlag=           0 FMFlag=      100000 FMFlg1=         800
         NFxFlg=           0 DoJE=F BraDBF=F KetDBF=F FulRan=T
         wScrn=  0.000000 ICntrl=      2527 IOpCl=  0 I1Cent=           0 NGrid=           0
         NMat0=    1 NMatS0=      1 NMatT0=    0 NMatD0=    1 NMtDS0=    0 NMtDT0=    0
 Symmetry not used in FoFCou.
 Leave Link  703 at Sat Jul 25 12:25:28 2020, MaxMem=  4026531840 cpu:              84.9 elap:              10.9
 (Enter /opt/ohpc/pub/libs/gaussian/g16-A.03/sandybridge/g16/l716.exe)
 Dipole        =-2.72107985D-01-5.55710185D-01 1.63849550D-03
 ***** Axes restored to original set *****
 -------------------------------------------------------------------
 Center     Atomic                   Forces (Hartrees/Bohr)
 Number     Number              X              Y              Z
 -------------------------------------------------------------------
      1        6          -0.063900856    0.036283500    0.013584235
      2        6           0.012831824   -0.063964105   -0.018522644
      3        6           0.014290258   -0.006867998    0.025610362
      4        9          -0.008475599    0.024053532   -0.005009373
      5        6           0.000640702   -0.028419136   -0.012520028
      6        6           0.050410832    0.107636612    0.004422810
      7        9          -0.050130610   -0.076106715    0.000912518
      8        6          -0.004126673   -0.009821515   -0.008268256
      9        6          -0.018671089    0.030591945   -0.011460152
     10        7           0.015581959   -0.010489451    0.010597893
     11        6           0.037501667    0.042153380   -0.003316896
     12        6          -0.011669680   -0.052342894    0.001742721
     13       16          -0.014355261   -0.013132549    0.004728215
     14        1           0.031339185   -0.001312581    0.000361921
     15        1           0.017909513    0.036980295    0.000015347
     16        1           0.002991793   -0.008982302   -0.000654245
     17        1          -0.001682942   -0.003761241    0.000074723
     18        1          -0.010485023   -0.002498778   -0.002299154
 -------------------------------------------------------------------
 Cartesian Forces:  Max     0.107636612 RMS     0.029382994
 Leave Link  716 at Sat Jul 25 12:25:28 2020, MaxMem=  4026531840 cpu:               0.4 elap:               0.1
 (Enter /opt/ohpc/pub/libs/gaussian/g16-A.03/sandybridge/g16/l103.exe)

 GradGradGradGradGradGradGradGradGradGradGradGradGradGradGradGradGradGrad
 Berny optimization.
 FormGI is forming the generalized inverse of G from B-inverse, IUseBI=4.
 Internal  Forces:  Max     0.090999963 RMS     0.015051184
 Search for a local minimum.
 Step number   1 out of a maximum of   98
 All quantities printed in internal units (Hartrees-Bohrs-Radians)
 RMS Force = .15051D-01 SwitMx=.10000D-02 MixMth= 1
 Mixed Optimization -- RFO/linear search
 Second derivative matrix not updated -- first step.
 ITU=  0
     Eigenvalues ---    0.01192   0.01522   0.01560   0.01649   0.01698
     Eigenvalues ---    0.01757   0.01788   0.01907   0.01970   0.02114
     Eigenvalues ---    0.02171   0.02264   0.02355   0.02494   0.02821
     Eigenvalues ---    0.15839   0.15928   0.15933   0.15965   0.15996
     Eigenvalues ---    0.21939   0.22425   0.23136   0.24477   0.24689
     Eigenvalues ---    0.24776   0.24894   0.24903   0.25000   0.30849
     Eigenvalues ---    0.31844   0.33761   0.35212   0.35870   0.36006
     Eigenvalues ---    0.36266   0.38202   0.39286   0.40639   0.41574
     Eigenvalues ---    0.44254   0.46347   0.46581   0.47197   0.51907
     Eigenvalues ---    0.58582   0.62599   0.80696
 RFO step:  Lambda=-4.00592196D-02 EMin= 1.19198339D-02
 Linear search not attempted -- first point.
 Iteration  1 RMS(Cart)=  0.06262871 RMS(Int)=  0.00146683
 Iteration  2 RMS(Cart)=  0.00212944 RMS(Int)=  0.00063087
 Iteration  3 RMS(Cart)=  0.00000252 RMS(Int)=  0.00063087
 Iteration  4 RMS(Cart)=  0.00000000 RMS(Int)=  0.00063087
 ITry= 1 IFail=0 DXMaxC= 2.30D-01 DCOld= 1.00D+10 DXMaxT= 3.00D-01 DXLimC= 3.00D+00 Rises=F
 Variable       Old X    -DE/DX   Delta X   Delta X   Delta X     New X
                                 (Linear)    (Quad)   (Total)
    R1        2.74018  -0.03325   0.00000  -0.07916  -0.07927   2.66091
    R2        2.62603   0.00401   0.00000   0.00679   0.00681   2.63285
    R3        1.99235   0.03135   0.00000   0.07240   0.07240   2.06475
    R4        2.62062   0.00522   0.00000   0.01080   0.01072   2.63134
    R5        1.97394   0.04072   0.00000   0.09121   0.09121   2.06515
    R6        2.48941   0.02512   0.00000   0.03771   0.03771   2.52712
    R7        2.64832   0.01775   0.00000   0.03698   0.03695   2.68527
    R8        2.74121  -0.02490   0.00000  -0.05860  -0.05850   2.68271
    R9        2.77373   0.00278   0.00000   0.00696   0.00696   2.78068
   R10        2.37542   0.09100   0.00000   0.10743   0.10743   2.48286
   R11        2.66401  -0.00859   0.00000  -0.01864  -0.01855   2.64546
   R12        2.05331   0.00942   0.00000   0.02402   0.02402   2.07733
   R13        2.55369  -0.02620   0.00000  -0.04903  -0.04922   2.50447
   R14        3.26685   0.02443   0.00000   0.06115   0.06122   3.32807
   R15        2.62092  -0.00779   0.00000  -0.01488  -0.01508   2.60584
   R16        2.50308   0.04988   0.00000   0.08097   0.08097   2.58406
   R17        2.07735  -0.00215   0.00000  -0.00570  -0.00570   2.07165
   R18        3.28897  -0.01079   0.00000  -0.02485  -0.02462   3.26435
   R19        2.04285   0.01044   0.00000   0.02618   0.02618   2.06903
    A1        2.02887   0.01243   0.00000   0.04687   0.04636   2.07524
    A2        2.12384  -0.00688   0.00000  -0.02571  -0.02585   2.09800
    A3        2.12701  -0.00534   0.00000  -0.01793  -0.01805   2.10896
    A4        2.08933  -0.00276   0.00000  -0.00722  -0.00795   2.08139
    A5        2.06859   0.00682   0.00000   0.03312   0.03295   2.10154
    A6        2.11706  -0.00373   0.00000  -0.01973  -0.01997   2.09709
    A7        2.03702   0.00007   0.00000   0.00382   0.00191   2.03894
    A8        2.16038  -0.00498   0.00000  -0.00752  -0.00997   2.15040
    A9        2.06583   0.00628   0.00000   0.02578   0.02401   2.08984
   A10        2.02125  -0.00231   0.00000  -0.00354  -0.00378   2.01747
   A11        2.10088   0.01319   0.00000   0.04447   0.04449   2.14538
   A12        2.15754  -0.01076   0.00000  -0.03866  -0.03880   2.11874
   A13        2.12025  -0.00904   0.00000  -0.03151  -0.03155   2.08870
   A14        2.08851   0.00845   0.00000   0.02979   0.02979   2.11830
   A15        2.07443   0.00060   0.00000   0.00172   0.00170   2.07613
   A16        2.15565  -0.00971   0.00000  -0.03925  -0.03948   2.11617
   A17        2.09473   0.00592   0.00000   0.02541   0.02539   2.12012
   A18        2.03014   0.00389   0.00000   0.01540   0.01541   2.04555
   A19        2.19569  -0.00948   0.00000  -0.02418  -0.02451   2.17118
   A20        2.13137  -0.00602   0.00000  -0.01228  -0.01265   2.11872
   A21        1.95122   0.01579   0.00000   0.04232   0.04130   1.99252
   A22        1.95891  -0.00786   0.00000  -0.03794  -0.03905   1.91987
   A23        1.99769   0.00845   0.00000   0.04340   0.04287   2.04055
   A24        2.03735  -0.00061   0.00000  -0.00356  -0.00331   2.03404
   A25        2.24782  -0.00782   0.00000  -0.03960  -0.03936   2.20846
   A26        1.94427  -0.01290   0.00000  -0.03141  -0.03151   1.91275
   A27        2.27804   0.00452   0.00000   0.00664   0.00673   2.28477
   A28        2.05659   0.00839   0.00000   0.02562   0.02565   2.08224
   A29        1.56769  -0.00308   0.00000  -0.00923  -0.00915   1.55854
    D1       -0.18615   0.00432   0.00000   0.08092   0.08174  -0.10441
    D2        3.09094   0.00188   0.00000   0.03185   0.03160   3.12255
    D3        3.04310   0.00199   0.00000   0.04072   0.04138   3.08448
    D4        0.03701  -0.00045   0.00000  -0.00835  -0.00875   0.02826
    D5        0.12719  -0.00288   0.00000  -0.04830  -0.04832   0.07887
    D6       -3.09576  -0.00122   0.00000  -0.02378  -0.02422  -3.11998
    D7       -3.10223  -0.00063   0.00000  -0.00844  -0.00810  -3.11033
    D8       -0.04200   0.00103   0.00000   0.01609   0.01601  -0.02599
    D9       -3.13684   0.00160   0.00000   0.01862   0.01823  -3.11861
   D10        0.22210  -0.00662   0.00000  -0.10334  -0.10260   0.11950
   D11       -0.13460   0.00495   0.00000   0.07332   0.07244  -0.06217
   D12       -3.05885  -0.00328   0.00000  -0.04864  -0.04839  -3.10724
   D13       -0.17436   0.00471   0.00000   0.07474   0.07476  -0.09960
   D14        3.05398   0.00384   0.00000   0.04888   0.04801   3.10199
   D15       -3.09526  -0.00289   0.00000  -0.04647  -0.04672   3.14121
   D16        0.13308  -0.00376   0.00000  -0.07233  -0.07347   0.05961
   D17       -3.03952  -0.00223   0.00000  -0.04333  -0.04368  -3.08320
   D18        0.10282  -0.00142   0.00000  -0.03231  -0.03304   0.06977
   D19        0.01218   0.00000   0.00000  -0.01187  -0.01279  -0.00060
   D20       -3.12866   0.00081   0.00000  -0.00084  -0.00215  -3.13081
   D21       -0.02862  -0.00124   0.00000  -0.01680  -0.01642  -0.04504
   D22        2.99780   0.00313   0.00000   0.05449   0.05428   3.05208
[...]
    13  S    0.013630   0.000684   0.305689  -0.104737  -0.099763   0.342578
    14  H   -0.000050  -0.049426  -0.000011  -0.000000   0.000000   0.000000
    15  H    0.000002   0.009982  -0.000199   0.000022   0.000000  -0.000000
    16  H    0.001418   0.372720  -0.000270   0.000000  -0.000000  -0.000000
    17  H    0.000000  -0.000000   0.002556  -0.025045   0.401422  -0.054457
    18  H    0.000000   0.000000   0.003435   0.005071  -0.015823   0.383691
              13         14         15         16         17         18
     1  C   -0.000115   0.396744  -0.053110  -0.053222  -0.000000   0.000000
     2  C    0.000157  -0.048497   0.373249   0.009728  -0.000000  -0.000000
     3  C    0.008147   0.010586  -0.032485  -0.001003  -0.000043  -0.000002
     4  F   -0.000053  -0.000049   0.002085   0.000002   0.000035   0.000000
     5  C   -0.073599  -0.001751   0.015682   0.015947  -0.000685  -0.000147
     6  C   -0.020558   0.010972  -0.001069  -0.031715   0.000014  -0.000001
     7  F    0.013630  -0.000050   0.000002   0.001418   0.000000   0.000000
     8  C    0.000684  -0.049426   0.009982   0.372720  -0.000000   0.000000
     9  C    0.305689  -0.000011  -0.000199  -0.000270   0.002556   0.003435
    10  N   -0.104737  -0.000000   0.000022   0.000000  -0.025045   0.005071
    11  C   -0.099763   0.000000   0.000000  -0.000000   0.401422  -0.015823
    12  C    0.342578   0.000000  -0.000000  -0.000000  -0.054457   0.383691
    13  S   15.502311   0.000000   0.000005   0.000024   0.006713  -0.036724
    14  H    0.000000   0.713482  -0.014783  -0.014526   0.000000   0.000000
    15  H    0.000005  -0.014783   0.700913  -0.000129  -0.000000  -0.000000
    16  H    0.000024  -0.014526  -0.000129   0.700735   0.000000  -0.000000
    17  H    0.006713   0.000000  -0.000000   0.000000   0.672121  -0.004639
    18  H   -0.036724   0.000000  -0.000000  -0.000000  -0.004639   0.639048
          Atomic-Atomic Spin Densities.
               1          2          3          4          5          6
     1  C   -0.000000  -0.000000   0.000000   0.000000  -0.000000   0.000000
     2  C   -0.000000   0.000000  -0.000000  -0.000000   0.000000  -0.000000
     3  C    0.000000  -0.000000   0.000000   0.000000  -0.000000   0.000000
     4  F    0.000000  -0.000000   0.000000  -0.000000   0.000000   0.000000
     5  C   -0.000000   0.000000  -0.000000   0.000000   0.000000  -0.000000
     6  C    0.000000  -0.000000   0.000000   0.000000  -0.000000   0.000000
     7  F    0.000000  -0.000000   0.000000  -0.000000  -0.000000   0.000000
     8  C   -0.000000   0.000000  -0.000000  -0.000000   0.000000  -0.000000
     9  C   -0.000000   0.000000  -0.000000  -0.000000  -0.000000  -0.000000
    10  N    0.000000   0.000000   0.000000   0.000000   0.000000   0.000000
    11  C    0.000000   0.000000   0.000000   0.000000  -0.000000  -0.000000
    12  C   -0.000000  -0.000000  -0.000000  -0.000000   0.000000   0.000000
    13  S   -0.000000   0.000000  -0.000000   0.000000  -0.000000  -0.000000
    14  H   -0.000000  -0.000000   0.000000   0.000000  -0.000000   0.000000
    15  H   -0.000000   0.000000  -0.000000   0.000000   0.000000  -0.000000
    16  H    0.000000   0.000000  -0.000000  -0.000000  -0.000000  -0.000000
    17  H   -0.000000   0.000000  -0.000000   0.000000  -0.000000   0.000000
    18  H   -0.000000  -0.000000  -0.000000   0.000000   0.000000   0.000000
               7          8          9         10         11         12
     1  C    0.000000  -0.000000  -0.000000   0.000000   0.000000  -0.000000
     2  C   -0.000000   0.000000   0.000000   0.000000   0.000000  -0.000000
     3  C    0.000000  -0.000000  -0.000000   0.000000   0.000000  -0.000000
     4  F   -0.000000  -0.000000  -0.000000   0.000000   0.000000  -0.000000
     5  C   -0.000000   0.000000  -0.000000   0.000000  -0.000000   0.000000
     6  C    0.000000  -0.000000  -0.000000   0.000000  -0.000000   0.000000
     7  F   -0.000000  -0.000000   0.000000   0.000000   0.000000  -0.000000
     8  C   -0.000000   0.000000   0.000000  -0.000000   0.000000   0.000000
     9  C    0.000000   0.000000   0.000000   0.000000   0.000000  -0.000000
    10  N    0.000000  -0.000000   0.000000  -0.000000  -0.000000   0.000000
    11  C    0.000000   0.000000   0.000000  -0.000000  -0.000000   0.000000
    12  C   -0.000000   0.000000  -0.000000   0.000000   0.000000  -0.000000
    13  S   -0.000000   0.000000   0.000000  -0.000000  -0.000000   0.000000
    14  H    0.000000   0.000000  -0.000000   0.000000  -0.000000  -0.000000
    15  H   -0.000000   0.000000   0.000000  -0.000000  -0.000000   0.000000
    16  H   -0.000000   0.000000   0.000000  -0.000000  -0.000000   0.000000
    17  H    0.000000   0.000000  -0.000000   0.000000  -0.000000   0.000000
    18  H   -0.000000   0.000000   0.000000  -0.000000   0.000000   0.000000
              13         14         15         16         17         18
     1  C   -0.000000  -0.000000  -0.000000   0.000000  -0.000000  -0.000000
     2  C    0.000000  -0.000000   0.000000   0.000000   0.000000  -0.000000
     3  C   -0.000000   0.000000  -0.000000  -0.000000  -0.000000  -0.000000
     4  F    0.000000   0.000000   0.000000  -0.000000   0.000000   0.000000
     5  C   -0.000000  -0.000000   0.000000  -0.000000  -0.000000   0.000000
     6  C   -0.000000   0.000000  -0.000000  -0.000000   0.000000   0.000000
     7  F   -0.000000   0.000000  -0.000000  -0.000000   0.000000  -0.000000
     8  C    0.000000   0.000000   0.000000   0.000000   0.000000   0.000000
     9  C    0.000000  -0.000000   0.000000   0.000000  -0.000000   0.000000
    10  N   -0.000000   0.000000  -0.000000  -0.000000   0.000000  -0.000000
    11  C   -0.000000  -0.000000  -0.000000  -0.000000  -0.000000   0.000000
    12  C    0.000000  -0.000000   0.000000   0.000000   0.000000   0.000000
    13  S    0.000000  -0.000000   0.000000  -0.000000   0.000000   0.000000
    14  H   -0.000000   0.000000  -0.000000  -0.000000  -0.000000  -0.000000
    15  H    0.000000  -0.000000   0.000000   0.000000   0.000000   0.000000
    16  H   -0.000000  -0.000000   0.000000   0.000000   0.000000   0.000000
    17  H    0.000000  -0.000000   0.000000   0.000000   0.000000   0.000000
    18  H    0.000000  -0.000000   0.000000   0.000000   0.000000  -0.000000
 Mulliken charges and spin densities:
               1          2
     1  C    0.046708  -0.000000
     2  C    0.020785   0.000000
     3  C    0.097986   0.000000
     4  F   -0.092173  -0.000000
     5  C   -0.005181  -0.000000
     6  C    0.076275   0.000000
     7  F   -0.124292  -0.000000
     8  C    0.029650  -0.000000
     9  C   -0.018270  -0.000000
    10  N   -0.171052  -0.000000
    11  C    0.123054  -0.000000
    12  C   -0.164634   0.000000
    13  S    0.155612  -0.000000
    14  H   -0.002692  -0.000000
    15  H   -0.000165   0.000000
    16  H    0.000291   0.000000
    17  H    0.002008   0.000000
    18  H    0.026091  -0.000000
 Sum of Mulliken charges =  -0.00000   0.00000
 Mulliken charges and spin densities with hydrogens summed into heavy atoms:
               1          2
     1  C    0.044016  -0.000000
     2  C    0.020619   0.000000
     3  C    0.097986   0.000000
     4  F   -0.092173  -0.000000
     5  C   -0.005181  -0.000000
     6  C    0.076275   0.000000
     7  F   -0.124292  -0.000000
     8  C    0.029940  -0.000000
     9  C   -0.018270  -0.000000
    10  N   -0.171052  -0.000000
    11  C    0.125062  -0.000000
    12  C   -0.138543   0.000000
    13  S    0.155612  -0.000000
 Electronic spatial extent (au):  <R**2>=           2523.2370
 Charge=             -0.0000 electrons
 Dipole moment (field-independent basis, Debye):
    X=             -0.8406    Y=             -1.0502    Z=             -0.0006  Tot=              1.3452
 Quadrupole moment (field-independent basis, Debye-Ang):
   XX=            -60.6179   YY=            -80.2963   ZZ=            -81.6831
   XY=              0.5031   XZ=             -0.0006   YZ=             -0.0002
 Traceless Quadrupole moment (field-independent basis, Debye-Ang):
   XX=             13.5812   YY=             -6.0972   ZZ=             -7.4840
   XY=              0.5031   XZ=             -0.0006   YZ=             -0.0002
 Octapole moment (field-independent basis, Debye-Ang**2):
  XXX=              2.3047  YYY=             -4.2089  ZZZ=             -0.0013  XYY=             -6.1415
  XXY=              1.5559  XXZ=             -0.0015  XZZ=             -0.2291  YZZ=              0.3616
  YYZ=             -0.0012  XYZ=              0.0065
 Hexadecapole moment (field-independent basis, Debye-Ang**3):
 XXXX=          -1990.2812 YYYY=           -857.3370 ZZZZ=            -84.5127 XXXY=             -5.1344
 XXXZ=             -0.0055 YYYX=              3.8916 YYYZ=             -0.0109 ZZZX=              0.0008
 ZZZY=             -0.0142 XXYY=           -474.6887 XXZZ=           -441.8988 YYZZ=           -158.5798
 XXYZ=              0.0082 YYXZ=              0.0035 ZZXY=             -6.1589
 N-N= 8.512565848124D+02 E-N=-4.054804590714D+03  KE= 9.934840600568D+02
                          Isotropic Fermi Contact Couplings
        Atom                 a.u.       MegaHertz       Gauss      10(-4) cm-1
     1  C(13)              0.00000       0.00000       0.00000       0.00000
     2  C(13)              0.00000       0.00000       0.00000       0.00000
     3  C(13)              0.00000       0.00000       0.00000       0.00000
     4  F(19)              0.00000       0.00000       0.00000       0.00000
     5  C(13)             -0.00000      -0.00000      -0.00000      -0.00000
     6  C(13)              0.00000       0.00000       0.00000       0.00000
     7  F(19)              0.00000       0.00000       0.00000       0.00000
     8  C(13)              0.00000       0.00000       0.00000       0.00000
     9  C(13)             -0.00000      -0.00000      -0.00000      -0.00000
    10  N(14)             -0.00000      -0.00000      -0.00000      -0.00000
    11  C(13)             -0.00000      -0.00000      -0.00000      -0.00000
    12  C(13)              0.00000       0.00000       0.00000       0.00000
    13  S(33)             -0.00000      -0.00000      -0.00000      -0.00000
    14  H(1)               0.00000       0.00000       0.00000       0.00000
    15  H(1)              -0.00000      -0.00000      -0.00000      -0.00000
    16  H(1)              -0.00000      -0.00000      -0.00000      -0.00000
    17  H(1)               0.00000       0.00000       0.00000       0.00000
    18  H(1)              -0.00000      -0.00000      -0.00000      -0.00000
 --------------------------------------------------------
       Center         ----  Spin Dipole Couplings  ----
                      3XX-RR        3YY-RR        3ZZ-RR
 --------------------------------------------------------
     1   Atom       -0.000000      0.000000     -0.000000
     2   Atom        0.000000      0.000000     -0.000000
     3   Atom       -0.000000      0.000000     -0.000000
     4   Atom        0.000000     -0.000000      0.000000
     5   Atom       -0.000000     -0.000000      0.000000
     6   Atom        0.000000      0.000000     -0.000000
     7   Atom       -0.000000      0.000000     -0.000000
     8   Atom        0.000000      0.000000     -0.000000
     9   Atom       -0.000000      0.000000      0.000000
    10   Atom       -0.000000     -0.000000      0.000000
    11   Atom        0.000000      0.000000     -0.000000
    12   Atom       -0.000000     -0.000000      0.000000
    13   Atom       -0.000000      0.000000     -0.000000
    14   Atom        0.000000      0.000000     -0.000000
    15   Atom       -0.000000      0.000000     -0.000000
    16   Atom       -0.000000      0.000000      0.000000
    17   Atom        0.000000      0.000000     -0.000000
    18   Atom       -0.000000      0.000000      0.000000
 --------------------------------------------------------
                        XY            XZ            YZ
 --------------------------------------------------------
     1   Atom        0.000000     -0.000000     -0.000000
     2   Atom       -0.000000      0.000000      0.000000
     3   Atom        0.000000      0.000000      0.000000
     4   Atom        0.000000      0.000000      0.000000
     5   Atom        0.000000      0.000000      0.000000
     6   Atom       -0.000000     -0.000000     -0.000000
     7   Atom       -0.000000     -0.000000     -0.000000
     8   Atom       -0.000000      0.000000     -0.000000
     9   Atom       -0.000000      0.000000     -0.000000
    10   Atom        0.000000      0.000000     -0.000000
    11   Atom       -0.000000     -0.000000      0.000000
    12   Atom       -0.000000     -0.000000     -0.000000
    13   Atom       -0.000000     -0.000000     -0.000000
    14   Atom       -0.000000      0.000000     -0.000000
    15   Atom       -0.000000     -0.000000      0.000000
    16   Atom       -0.000000      0.000000      0.000000
    17   Atom        0.000000      0.000000      0.000000
    18   Atom       -0.000000     -0.000000     -0.000000
 --------------------------------------------------------


 ---------------------------------------------------------------------------------
              Anisotropic Spin Dipole Couplings in Principal Axis System
 ---------------------------------------------------------------------------------

       Atom             a.u.   MegaHertz   Gauss  10(-4) cm-1        Axes

              Baa    -0.0000    -0.000    -0.000    -0.000  0.0356 -0.0005  0.9994
     1 C(13)  Bbb    -0.0000    -0.000    -0.000    -0.000  0.9079 -0.4179 -0.0326
              Bcc     0.0000     0.000     0.000     0.000  0.4177  0.9085 -0.0144
 
              Baa    -0.0000    -0.000    -0.000    -0.000 -0.0369 -0.0473  0.9982
     2 C(13)  Bbb    -0.0000    -0.000    -0.000    -0.000  0.6223  0.7805  0.0600
              Bcc     0.0000     0.000     0.000     0.000  0.7819 -0.6234 -0.0006
 
              Baa    -0.0000    -0.000    -0.000    -0.000 -0.4980  0.2910  0.8169
     3 C(13)  Bbb    -0.0000    -0.000    -0.000    -0.000  0.6862 -0.4437  0.5764
              Bcc     0.0000     0.000     0.000     0.000  0.5301  0.8477  0.0213
 
              Baa    -0.0000    -0.000    -0.000    -0.000 -0.2699  0.9621 -0.0398
     4 F(19)  Bbb     0.0000     0.000     0.000     0.000 -0.0481  0.0278  0.9985
              Bcc     0.0000     0.000     0.000     0.000  0.9617  0.2714  0.0387
 
              Baa    -0.0000    -0.000    -0.000    -0.000 -0.6591  0.7521  0.0045
     5 C(13)  Bbb     0.0000     0.000     0.000     0.000  0.7516  0.6588 -0.0330
              Bcc     0.0000     0.000     0.000     0.000  0.0278  0.0184  0.9994
 
              Baa    -0.0000    -0.000    -0.000    -0.000  0.0202  0.0138  0.9997
     6 C(13)  Bbb    -0.0000    -0.000    -0.000    -0.000  0.7512  0.6596 -0.0243
              Bcc     0.0000     0.000     0.000     0.000 -0.6597  0.7515  0.0030
 
              Baa    -0.0000    -0.000    -0.000    -0.000  0.8848  0.4658  0.0144
     7 F(19)  Bbb    -0.0000    -0.000    -0.000    -0.000 -0.0124 -0.0073  0.9999
              Bcc     0.0000     0.000     0.000     0.000 -0.4659  0.8848  0.0007
 
              Baa    -0.0000    -0.000    -0.000    -0.000 -0.0084  0.0028  1.0000
     8 C(13)  Bbb    -0.0000    -0.000    -0.000    -0.000  0.3154  0.9490  0.0000
              Bcc     0.0000     0.000     0.000     0.000  0.9489 -0.3154  0.0089
 
              Baa    -0.0000    -0.000    -0.000    -0.000  0.8674  0.4975  0.0111
     9 C(13)  Bbb     0.0000     0.000     0.000     0.000 -0.0390  0.0458  0.9982
              Bcc     0.0000     0.000     0.000     0.000 -0.4961  0.8663 -0.0591
 
              Baa    -0.0000    -0.000    -0.000    -0.000 -0.6714  0.7411  0.0059
    10 N(14)  Bbb     0.0000     0.000     0.000     0.000  0.0152  0.0058  0.9999
              Bcc     0.0000     0.000     0.000     0.000  0.7409  0.6714 -0.0152
 
              Baa    -0.0000    -0.000    -0.000    -0.000  0.0415  0.0289  0.9987
    11 C(13)  Bbb    -0.0000    -0.000    -0.000    -0.000  0.5189  0.8536 -0.0463
              Bcc     0.0000     0.000     0.000     0.000  0.8538 -0.5202 -0.0204
 
              Baa    -0.0000    -0.000    -0.000    -0.000  0.6502  0.7596  0.0143
    12 C(13)  Bbb     0.0000     0.000     0.000     0.000 -0.0016 -0.0174  0.9998
              Bcc     0.0000     0.000     0.000     0.000  0.7598 -0.6501 -0.0101
 
              Baa    -0.0000    -0.000    -0.000    -0.000  0.8550  0.5183  0.0186
    13 S(33)  Bbb    -0.0000    -0.000    -0.000    -0.000 -0.0214 -0.0006  0.9998
              Bcc     0.0000     0.000     0.000     0.000 -0.5182  0.8552 -0.0106
 
              Baa    -0.0000    -0.000    -0.000    -0.000 -0.0206 -0.0027  0.9998
    14 H(1)   Bbb     0.0000     0.000     0.000     0.000  0.3896  0.9209  0.0105
              Bcc     0.0000     0.000     0.000     0.000  0.9208 -0.3897  0.0179
 
              Baa    -0.0000    -0.000    -0.000    -0.000  0.9281  0.3722  0.0106
    15 H(1)   Bbb    -0.0000    -0.000    -0.000    -0.000 -0.0043 -0.0178  0.9998
              Bcc     0.0000     0.000     0.000     0.000 -0.3724  0.9280  0.0149
 
              Baa    -0.0000    -0.000    -0.000    -0.000  0.9176  0.3953 -0.0428
    16 H(1)   Bbb     0.0000     0.000     0.000     0.000  0.0505 -0.0091  0.9987
              Bcc     0.0000     0.000     0.000     0.000 -0.3944  0.9185  0.0283
 
              Baa    -0.0000    -0.000    -0.000    -0.000 -0.0075 -0.1114  0.9937
    17 H(1)   Bbb     0.0000     0.000     0.000     0.000 -0.1792  0.9778  0.1082
              Bcc     0.0000     0.000     0.000     0.000  0.9838  0.1773  0.0273
 
              Baa    -0.0000    -0.000    -0.000    -0.000  0.7820  0.6232  0.0089
    18 H(1)   Bbb     0.0000     0.000     0.000     0.000 -0.0007 -0.0134  0.9999
              Bcc     0.0000     0.000     0.000     0.000 -0.6233  0.7819  0.0100
 

 ---------------------------------------------------------------------------------

 No NMR shielding tensors so no spin-rotation constants.
 Leave Link  601 at Sat Jul 25 12:48:57 2020, MaxMem=  4026531840 cpu:               6.0 elap:               1.2
 (Enter /opt/ohpc/pub/libs/gaussian/g16-A.03/sandybridge/g16/l9999.exe)

 Test job not archived.
 1\1\GINC-SKYLAKE040\FOpt\ULC-wPBE\CC-pVDZ\C9H5F2N1S1\RDU230\25-Jul-202
 0\0\\#P uLC-wPBE/cc-pVDZ iop(3/107=0156700000, 3/108=0156700000) opt\\
 H5 C9 S1 N1 F2\\0,1\C,3.3858157906,-0.128289639,0.0139413128\C,2.78147
 06765,1.132030769,0.0117694015\C,1.3889895387,1.2317733544,0.009983490
 3\F,0.8624547692,2.4669472892,0.0079546226\C,0.5363943821,0.0993020888
 ,0.010240223\C,1.2097707978,-1.1413890579,0.0124933675\F,0.4660894569,
 -2.2782158288,0.0129906003\C,2.5949148532,-1.2814121748,0.0143437898\C
 ,-0.9323511648,0.2185144362,0.0082313078\N,-1.573364263,1.3699834911,0
 .0053727809\C,-2.9301075776,1.184125316,0.0041607366\C,-3.3617764347,-
 0.1221003811,0.0060395177\S,-2.0086327731,-1.192009839,0.0095607408\H,
 4.4803003279,-0.2128957047,0.0153383521\H,3.3666744834,2.0596347588,0.
 0114165508\H,3.023895468,-2.290467607,0.0160528702\H,-3.5887157875,2.0
 615028666,0.0017679879\H,-4.3870385435,-0.5052231376,0.0055873475\\Ver
 sion=EM64L-G16RevA.03\State=1-A\HF=-997.9520332\S2=0.\S2-1=0.\S2A=0.\R
 MSD=6.608e-09\RMSF=5.515e-06\Dipole=0.339405,-0.4060542,0.0011664\Quad
 rupole=10.1065194,-4.5423983,-5.5641212,-0.0634545,0.0182578,-0.001324
 5\PG=C01 [X(C9H5F2N1S1)]\\@


 I take a simple view of life: keep your eyes open and get on with it.
 -- Laurence Olivier
 Job cpu time:       0 days  2 hours  8 minutes 45.2 seconds.
 Elapsed time:       0 days  0 hours 24 minutes 30.8 seconds.
 File lengths (MBytes):  RWF=    104 Int=      0 D2E=      0 Chk=     12 Scr=      8
 Normal termination of Gaussian 16 at Sat Jul 25 12:48:57 2020.
