 Entering Gaussian System, Link 0=g16
 Input=mols_66_3_03_c-c-c-cF_opt_0.gjf
 Output=mols_66_3_03_c-c-c-cF_opt_0.log
 Initial command:
 /opt/ohpc/pub/libs/gaussian/g16-A.03/sandybridge/g16/l1.exe "/mnt/gpfs2_4m/scratch/rdu230/ondemand/projects/dihedral_energies/7trial/wtuning/mols_66_3_03_c-c-c-cF/Gau-324694.inp" -scrdir="/mnt/gpfs2_4m/scratch/rdu230/ondemand/projects/dihedral_energies/7trial/wtuning/mols_66_3_03_c-c-c-cF/"
 Entering Link 1 = /opt/ohpc/pub/libs/gaussian/g16-A.03/sandybridge/g16/l1.exe PID=    324695.
  
 Copyright (c) 1988,1990,1992,1993,1995,1998,2003,2009,2016,
            Gaussian, Inc.  All Rights Reserved.
  
 This is part of the Gaussian(R) 16 program.  It is based on
 the Gaussian(R) 09 system (copyright 2009, Gaussian, Inc.),
 the Gaussian(R) 03 system (copyright 2003, Gaussian, Inc.),
 the Gaussian(R) 98 system (copyright 1998, Gaussian, Inc.),
 the Gaussian(R) 94 system (copyright 1995, Gaussian, Inc.),
 the Gaussian 92(TM) system (copyright 1992, Gaussian, Inc.),
 the Gaussian 90(TM) system (copyright 1990, Gaussian, Inc.),
 the Gaussian 88(TM) system (copyright 1988, Gaussian, Inc.),
 the Gaussian 86(TM) system (copyright 1986, Carnegie Mellon
 University), and the Gaussian 82(TM) system (copyright 1983,
 Carnegie Mellon University). Gaussian is a federally registered
 trademark of Gaussian, Inc.
  
 This software contains proprietary and confidential information,
 including trade secrets, belonging to Gaussian, Inc.
  
 This software is provided under written license and may be
 used, copied, transmitted, or stored only in accord with that
 written license.
  
 The following legend is applicable only to US Government
 contracts under FAR:
  
                    RESTRICTED RIGHTS LEGEND
  
 Use, reproduction and disclosure by the US Government is
 subject to restrictions as set forth in subparagraphs (a)
 and (c) of the Commercial Computer Software - Restricted
 Rights clause in FAR 52.227-19.
  
 Gaussian, Inc.
 340 Quinnipiac St., Bldg. 40, Wallingford CT 06492
  
  
 ---------------------------------------------------------------
 Warning -- This program may not be used in any manner that
 competes with the business of Gaussian, Inc. or will provide
 assistance to any competitor of Gaussian, Inc.  The licensee
 of this program is prohibited from giving any competitor of
 Gaussian, Inc. access to this program.  By using this program,
 the user acknowledges that Gaussian, Inc. is engaged in the
 business of creating and licensing software in the field of
 computational chemistry and represents and warrants to the
 licensee that it is not a competitor of Gaussian, Inc. and that
 it will not use this program in any manner prohibited above.
 ---------------------------------------------------------------
  

 Cite this work as:
 Gaussian 16, Revision A.03,
 M. J. Frisch, G. W. Trucks, H. B. Schlegel, G. E. Scuseria, 
 M. A. Robb, J. R. Cheeseman, G. Scalmani, V. Barone, 
 G. A. Petersson, H. Nakatsuji, X. Li, M. Caricato, A. V. Marenich, 
 J. Bloino, B. G. Janesko, R. Gomperts, B. Mennucci, H. P. Hratchian, 
 J. V. Ortiz, A. F. Izmaylov, J. L. Sonnenberg, D. Williams-Young, 
 F. Ding, F. Lipparini, F. Egidi, J. Goings, B. Peng, A. Petrone, 
 T. Henderson, D. Ranasinghe, V. G. Zakrzewski, J. Gao, N. Rega, 
 G. Zheng, W. Liang, M. Hada, M. Ehara, K. Toyota, R. Fukuda, 
 J. Hasegawa, M. Ishida, T. Nakajima, Y. Honda, O. Kitao, H. Nakai, 
 T. Vreven, K. Throssell, J. A. Montgomery, Jr., J. E. Peralta, 
 F. Ogliaro, M. J. Bearpark, J. J. Heyd, E. N. Brothers, K. N. Kudin, 
 V. N. Staroverov, T. A. Keith, R. Kobayashi, J. Normand, 
 K. Raghavachari, A. P. Rendell, J. C. Burant, S. S. Iyengar, 
 J. Tomasi, M. Cossi, J. M. Millam, M. Klene, C. Adamo, R. Cammi, 
 J. W. Ochterski, R. L. Martin, K. Morokuma, O. Farkas, 
 J. B. Foresman, and D. J. Fox, Gaussian, Inc., Wallingford CT, 2016.
 
 ******************************************
 Gaussian 16:  EM64L-G16RevA.03 25-Dec-2016
                23-Jul-2020 
 ******************************************
 %mem=30GB
 %nproc=8
 Will use up to    8 processors via shared memory.
 ---------------------------------------------------------------
 #P uLC-wPBE/cc-pVDZ iop(3/107=0187400000, 3/108=0187400000) opt
 ---------------------------------------------------------------
 1/18=20,19=15,26=3,38=1/1,3;
 2/9=110,12=2,17=6,18=5,40=1/2;
 3/5=16,11=2,25=1,30=1,71=1,74=-41,107=187400000,108=187400000,116=2/1,2,3;
 4//1;
 5/5=2,38=5/2;
 6/7=2,8=2,9=2,10=2,28=1/1;
 7//1,2,3,16;
 1/18=20,19=15,26=3/3(2);
 2/9=110/2;
 99//99;
 2/9=110/2;
 3/5=16,11=2,25=1,30=1,71=1,74=-41,107=187400000,108=187400000,116=2/1,2,3;
 4/5=5,16=3,69=1/1;
 5/5=2,38=5/2;
 7//1,2,3,16;
 1/18=20,19=15,26=3/3(-5);
 2/9=110/2;
 6/7=2,8=2,9=2,10=2,19=2,28=1/1;
 99/9=1/99;
 Leave Link    1 at Thu Jul 23 23:15:38 2020, MaxMem=  4026531840 cpu:               0.8 elap:               0.1
 (Enter /opt/ohpc/pub/libs/gaussian/g16-A.03/sandybridge/g16/l101.exe)
 ----------
 H23 C36 F3
 ----------
 Symbolic Z-matrix:
 Charge =  0 Multiplicity = 1
 C                    -12.32272  -0.16145  -0.10842 
 C                    -11.59204  -0.89921   0.78589 
 C                    -10.1833  -0.89632   0.79867 
 C                    -9.47939  -0.08591  -0.02709 
 C                    -10.19504   0.66163  -0.94928 
 C                    -11.63167   0.68538  -1.02369 
 C                    -8.01117  -0.12963  -0.10514 
 C                    -7.23632  -1.31347  -0.03873 
 C                    -5.8841   -1.34194  -0.03033 
 C                    -5.13868  -0.13052  -0.01149 
 C                    -5.8447    1.08762  -0.10462 
 C                    -7.21194   1.10315  -0.08681 
 F                    -7.85481   2.24269  -0.02933 
 C                    -3.68666  -0.16476  -0.06583 
 C                    -2.94451   0.56398   0.95015 
 C                    -1.5887    0.59744   0.90331 
 C                    -0.81137  -0.15989   0.00265 
 C                    -1.58617  -0.84257  -0.98314 
 C                    -2.97324  -0.83426  -1.04812 
 C                     0.69339  -0.15926  -0.07071 
 C                     1.42656   0.1488   -1.19738 
 C                     2.82451   0.14009  -1.24581 
 C                     3.55774  -0.16106  -0.0582 
 C                     2.77594  -0.45711   1.10636 
 C                     1.40174  -0.42936   1.06664 
 F                     0.73559  -0.71789   2.2834 
 C                     4.99358  -0.0944   -0.03827 
 C                     5.74336  -0.87585  -1.032 
 C                     7.12437  -0.84513  -1.00528 
 C                     7.88247  -0.13557  -0.11532 
 C                     7.16781   0.63937   0.84664 
 C                     5.71492   0.58605   0.82787 
 C                     9.32581  -0.09042  -0.11249 
 C                     10.00815  -1.36424  -0.0588 
 C                     11.42197  -1.31397  -0.10391 
 C                     12.11915  -0.20621  -0.12686 
 C                     11.48867   1.04326  -0.0606 
 C                     10.03663   1.00973  -0.08677 
 F                     9.41125   2.22594  -0.05942 
 H                    -13.38147  -0.13134  -0.14924 
 H                    -12.12184  -1.46423   1.59065 
 H                    -9.67527  -1.50163   1.54403 
 H                    -9.72236   1.28758  -1.73418 
 H                    -12.12461   1.28463  -1.7766 
 H                    -7.80454  -2.20913  -0.07393 
 H                    -5.38246  -2.30128  -0.03709 
 H                    -5.33784   2.09389  -0.07597 
 H                    -3.44883   1.19751   1.71156 
 H                    -1.02249   1.15128   1.73508 
 H                    -1.01448  -1.47337  -1.7303 
 H                    -3.49814  -1.38547  -1.81044 
 H                     0.88371   0.40642  -2.10187 
 H                     3.25639   0.38766  -2.12247 
 H                     3.34159  -0.68163   2.01055 
 H                     5.14225  -1.50854  -1.76508 
 H                     7.57377  -1.48024  -1.7603 
 H                     7.59967   1.25601   1.56168 
 H                     5.22137   1.2853    1.56558 
 H                     9.50931  -2.26218  -0.05269 
 H                     11.95325  -2.32825  -0.15393 
 H                     13.2065  -0.19926  -0.14986 
 H                     11.95507   1.95719  -0.09808 
 
 ITRead=  0  0  0  0  0  0  0  0  0  0  0  0  0  0  0  0  0  0  0  0
 ITRead=  0  0  0  0  0  0  0  0  0  0  0  0  0  0  0  0  0  0  0  0
 ITRead=  0  0  0  0  0  0  0  0  0  0  0  0  0  0  0  0  0  0  0  0
 ITRead=  0  0
 MicOpt= -1 -1 -1 -1 -1 -1 -1 -1 -1 -1 -1 -1 -1 -1 -1 -1 -1 -1 -1 -1
 MicOpt= -1 -1 -1 -1 -1 -1 -1 -1 -1 -1 -1 -1 -1 -1 -1 -1 -1 -1 -1 -1
 MicOpt= -1 -1 -1 -1 -1 -1 -1 -1 -1 -1 -1 -1 -1 -1 -1 -1 -1 -1 -1 -1
 MicOpt= -1 -1
 NAtoms=     62 NQM=       62 NQMF=       0 NMMI=      0 NMMIF=      0
                NMic=       0 NMicF=      0.
                    Isotopes and Nuclear Properties:
 (Nuclear quadrupole moments (NQMom) in fm**2, nuclear magnetic moments (NMagM)
  in nuclear magnetons)

  Atom         1           2           3           4           5           6           7           8           9          10
 IAtWgt=          12          12          12          12          12          12          12          12          12          12
 AtmWgt=  12.0000000  12.0000000  12.0000000  12.0000000  12.0000000  12.0000000  12.0000000  12.0000000  12.0000000  12.0000000
 NucSpn=           0           0           0           0           0           0           0           0           0           0
 AtZEff=  -0.0000000  -0.0000000  -0.0000000  -0.0000000  -0.0000000  -0.0000000  -0.0000000  -0.0000000  -0.0000000  -0.0000000
 NQMom=    0.0000000   0.0000000   0.0000000   0.0000000   0.0000000   0.0000000   0.0000000   0.0000000   0.0000000   0.0000000
 NMagM=    0.0000000   0.0000000   0.0000000   0.0000000   0.0000000   0.0000000   0.0000000   0.0000000   0.0000000   0.0000000
 AtZNuc=   6.0000000   6.0000000   6.0000000   6.0000000   6.0000000   6.0000000   6.0000000   6.0000000   6.0000000   6.0000000

  Atom        11          12          13          14          15          16          17          18          19          20
 IAtWgt=          12          12          19          12          12          12          12          12          12          12
 AtmWgt=  12.0000000  12.0000000  18.9984033  12.0000000  12.0000000  12.0000000  12.0000000  12.0000000  12.0000000  12.0000000
 NucSpn=           0           0           1           0           0           0           0           0           0           0
 AtZEff=  -0.0000000  -0.0000000  -0.0000000  -0.0000000  -0.0000000  -0.0000000  -0.0000000  -0.0000000  -0.0000000  -0.0000000
 NQMom=    0.0000000   0.0000000   0.0000000   0.0000000   0.0000000   0.0000000   0.0000000   0.0000000   0.0000000   0.0000000
 NMagM=    0.0000000   0.0000000   2.6288670   0.0000000   0.0000000   0.0000000   0.0000000   0.0000000   0.0000000   0.0000000
 AtZNuc=   6.0000000   6.0000000   9.0000000   6.0000000   6.0000000   6.0000000   6.0000000   6.0000000   6.0000000   6.0000000

  Atom        21          22          23          24          25          26          27          28          29          30
 IAtWgt=          12          12          12          12          12          19          12          12          12          12
 AtmWgt=  12.0000000  12.0000000  12.0000000  12.0000000  12.0000000  18.9984033  12.0000000  12.0000000  12.0000000  12.0000000
 NucSpn=           0           0           0           0           0           1           0           0           0           0
 AtZEff=  -0.0000000  -0.0000000  -0.0000000  -0.0000000  -0.0000000  -0.0000000  -0.0000000  -0.0000000  -0.0000000  -0.0000000
 NQMom=    0.0000000   0.0000000   0.0000000   0.0000000   0.0000000   0.0000000   0.0000000   0.0000000   0.0000000   0.0000000
 NMagM=    0.0000000   0.0000000   0.0000000   0.0000000   0.0000000   2.6288670   0.0000000   0.0000000   0.0000000   0.0000000
 AtZNuc=   6.0000000   6.0000000   6.0000000   6.0000000   6.0000000   9.0000000   6.0000000   6.0000000   6.0000000   6.0000000

  Atom        31          32          33          34          35          36          37          38          39          40
 IAtWgt=          12          12          12          12          12          12          12          12          19           1
 AtmWgt=  12.0000000  12.0000000  12.0000000  12.0000000  12.0000000  12.0000000  12.0000000  12.0000000  18.9984033   1.0078250
 NucSpn=           0           0           0           0           0           0           0           0           1           1
 AtZEff=  -0.0000000  -0.0000000  -0.0000000  -0.0000000  -0.0000000  -0.0000000  -0.0000000  -0.0000000  -0.0000000  -0.0000000
 NQMom=    0.0000000   0.0000000   0.0000000   0.0000000   0.0000000   0.0000000   0.0000000   0.0000000   0.0000000   0.0000000
 NMagM=    0.0000000   0.0000000   0.0000000   0.0000000   0.0000000   0.0000000   0.0000000   0.0000000   2.6288670   2.7928460
 AtZNuc=   6.0000000   6.0000000   6.0000000   6.0000000   6.0000000   6.0000000   6.0000000   6.0000000   9.0000000   1.0000000

  Atom        41          42          43          44          45          46          47          48          49          50
 IAtWgt=           1           1           1           1           1           1           1           1           1           1
 AtmWgt=   1.0078250   1.0078250   1.0078250   1.0078250   1.0078250   1.0078250   1.0078250   1.0078250   1.0078250   1.0078250
 NucSpn=           1           1           1           1           1           1           1           1           1           1
 AtZEff=  -0.0000000  -0.0000000  -0.0000000  -0.0000000  -0.0000000  -0.0000000  -0.0000000  -0.0000000  -0.0000000  -0.0000000
 NQMom=    0.0000000   0.0000000   0.0000000   0.0000000   0.0000000   0.0000000   0.0000000   0.0000000   0.0000000   0.0000000
 NMagM=    2.7928460   2.7928460   2.7928460   2.7928460   2.7928460   2.7928460   2.7928460   2.7928460   2.7928460   2.7928460
 AtZNuc=   1.0000000   1.0000000   1.0000000   1.0000000   1.0000000   1.0000000   1.0000000   1.0000000   1.0000000   1.0000000

  Atom        51          52          53          54          55          56          57          58          59          60
 IAtWgt=           1           1           1           1           1           1           1           1           1           1
 AtmWgt=   1.0078250   1.0078250   1.0078250   1.0078250   1.0078250   1.0078250   1.0078250   1.0078250   1.0078250   1.0078250
 NucSpn=           1           1           1           1           1           1           1           1           1           1
 AtZEff=  -0.0000000  -0.0000000  -0.0000000  -0.0000000  -0.0000000  -0.0000000  -0.0000000  -0.0000000  -0.0000000  -0.0000000
 NQMom=    0.0000000   0.0000000   0.0000000   0.0000000   0.0000000   0.0000000   0.0000000   0.0000000   0.0000000   0.0000000
 NMagM=    2.7928460   2.7928460   2.7928460   2.7928460   2.7928460   2.7928460   2.7928460   2.7928460   2.7928460   2.7928460
 AtZNuc=   1.0000000   1.0000000   1.0000000   1.0000000   1.0000000   1.0000000   1.0000000   1.0000000   1.0000000   1.0000000

  Atom        61          62
 IAtWgt=           1           1
 AtmWgt=   1.0078250   1.0078250
 NucSpn=           1           1
 AtZEff=  -0.0000000  -0.0000000
 NQMom=    0.0000000   0.0000000
 NMagM=    2.7928460   2.7928460
 AtZNuc=   1.0000000   1.0000000
 Leave Link  101 at Thu Jul 23 23:15:39 2020, MaxMem=  4026531840 cpu:               2.4 elap:               0.5
 (Enter /opt/ohpc/pub/libs/gaussian/g16-A.03/sandybridge/g16/l103.exe)

 GradGradGradGradGradGradGradGradGradGradGradGradGradGradGradGradGradGrad
 Berny optimization.
 Initialization pass.
                           ----------------------------
                           !    Initial Parameters    !
                           ! (Angstroms and Degrees)  !
 --------------------------                            --------------------------
 ! Name  Definition              Value          Derivative Info.                !
 --------------------------------------------------------------------------------
 ! R1    R(1,2)                  1.3704         estimate D2E/DX2                !
 ! R2    R(1,6)                  1.4256         estimate D2E/DX2                !
 ! R3    R(1,40)                 1.06           estimate D2E/DX2                !
 ! R4    R(2,3)                  1.4088         estimate D2E/DX2                !
 ! R5    R(2,41)                 1.1169         estimate D2E/DX2                !
 ! R6    R(3,4)                  1.3543         estimate D2E/DX2                !
 ! R7    R(3,42)                 1.0863         estimate D2E/DX2                !
 ! R8    R(4,5)                  1.3862         estimate D2E/DX2                !
 ! R9    R(4,7)                  1.4709         estimate D2E/DX2                !
 ! R10   R(5,6)                  1.4388         estimate D2E/DX2                !
 ! R11   R(5,43)                 1.1096         estimate D2E/DX2                !
 ! R12   R(6,44)                 1.0812         estimate D2E/DX2                !
 ! R13   R(7,8)                  1.4164         estimate D2E/DX2                !
 ! R14   R(7,12)                 1.4693         estimate D2E/DX2                !
 ! R15   R(8,9)                  1.3525         estimate D2E/DX2                !
 ! R16   R(8,45)                 1.0613         estimate D2E/DX2                !
 ! R17   R(9,10)                 1.4225         estimate D2E/DX2                !
 ! R18   R(9,46)                 1.0826         estimate D2E/DX2                !
 ! R19   R(10,11)                1.411          estimate D2E/DX2                !
 ! R20   R(10,14)                1.4534         estimate D2E/DX2                !
 ! R21   R(11,12)                1.3674         estimate D2E/DX2                !
 ! R22   R(11,47)                1.1271         estimate D2E/DX2                !
 ! R23   R(12,13)                1.3096         estimate D2E/DX2                !
 ! R24   R(14,15)                1.454          estimate D2E/DX2                !
 ! R25   R(14,19)                1.3864         estimate D2E/DX2                !
 ! R26   R(15,16)                1.357          estimate D2E/DX2                !
 ! R27   R(15,48)                1.1115         estimate D2E/DX2                !
 ! R28   R(16,17)                1.4103         estimate D2E/DX2                !
 ! R29   R(16,49)                1.1486         estimate D2E/DX2                !
 ! R30   R(17,18)                1.4276         estimate D2E/DX2                !
 ! R31   R(17,20)                1.5065         estimate D2E/DX2                !
 ! R32   R(18,19)                1.3886         estimate D2E/DX2                !
 ! R33   R(18,50)                1.1327         estimate D2E/DX2                !
 ! R34   R(19,51)                1.0773         estimate D2E/DX2                !
 ! R35   R(20,21)                1.3791         estimate D2E/DX2                !
 ! R36   R(20,25)                1.3669         estimate D2E/DX2                !
 ! R37   R(21,22)                1.3988         estimate D2E/DX2                !
 ! R38   R(21,52)                1.0859         estimate D2E/DX2                !
 ! R39   R(22,23)                1.4278         estimate D2E/DX2                !
 ! R40   R(22,53)                1.0081         estimate D2E/DX2                !
 ! R41   R(23,24)                1.4335         estimate D2E/DX2                !
 ! R42   R(23,27)                1.4375         estimate D2E/DX2                !
 ! R43   R(24,25)                1.3751         estimate D2E/DX2                !
 ! R44   R(24,54)                1.0899         estimate D2E/DX2                !
 ! R45   R(25,26)                1.4169         estimate D2E/DX2                !
 ! R46   R(27,28)                1.4698         estimate D2E/DX2                !
 ! R47   R(27,32)                1.3166         estimate D2E/DX2                !
 ! R48   R(28,29)                1.3816         estimate D2E/DX2                !
 ! R49   R(28,55)                1.1397         estimate D2E/DX2                !
 ! R50   R(29,30)                1.3676         estimate D2E/DX2                !
 ! R51   R(29,56)                1.0842         estimate D2E/DX2                !
 ! R52   R(30,31)                1.4271         estimate D2E/DX2                !
 ! R53   R(30,33)                1.4441         estimate D2E/DX2                !
 ! R54   R(31,32)                1.454          estimate D2E/DX2                !
 ! R55   R(31,57)                1.0383         estimate D2E/DX2                !
 ! R56   R(32,58)                1.1299         estimate D2E/DX2                !
 ! R57   R(33,34)                1.4461         estimate D2E/DX2                !
 ! R58   R(33,38)                1.3101         estimate D2E/DX2                !
 ! R59   R(34,35)                1.4154         estimate D2E/DX2                !
 ! R60   R(34,59)                1.0272         estimate D2E/DX2                !
 ! R61   R(35,36)                1.3091         estimate D2E/DX2                !
 ! R62   R(35,60)                1.1461         estimate D2E/DX2                !
 ! R63   R(36,37)                1.4011         estimate D2E/DX2                !
 ! R64   R(36,61)                1.0876         estimate D2E/DX2                !
 ! R65   R(37,38)                1.4527         estimate D2E/DX2                !
 ! R66   R(37,62)                1.0267         estimate D2E/DX2                !
 ! R67   R(38,39)                1.3678         estimate D2E/DX2                !
 ! A1    A(2,1,6)              118.7055         estimate D2E/DX2                !
 ! A2    A(2,1,40)             124.9598         estimate D2E/DX2                !
 ! A3    A(6,1,40)             116.269          estimate D2E/DX2                !
 ! A4    A(1,2,3)              122.5464         estimate D2E/DX2                !
 ! A5    A(1,2,41)             119.3157         estimate D2E/DX2                !
 ! A6    A(3,2,41)             117.9571         estimate D2E/DX2                !
 ! A7    A(2,3,4)              121.0265         estimate D2E/DX2                !
 ! A8    A(2,3,42)             118.2117         estimate D2E/DX2                !
 ! A9    A(4,3,42)             120.5789         estimate D2E/DX2                !
 ! A10   A(3,4,5)              117.3878         estimate D2E/DX2                !
 ! A11   A(3,4,7)              122.2327         estimate D2E/DX2                !
 ! A12   A(5,4,7)              119.7402         estimate D2E/DX2                !
 ! A13   A(4,5,6)              123.9752         estimate D2E/DX2                !
 ! A14   A(4,5,43)             123.7018         estimate D2E/DX2                !
 ! A15   A(6,5,43)             112.3004         estimate D2E/DX2                !
 ! A16   A(1,6,5)              116.1688         estimate D2E/DX2                !
 ! A17   A(1,6,44)             123.7324         estimate D2E/DX2                !
 ! A18   A(5,6,44)             120.027          estimate D2E/DX2                !
 ! A19   A(4,7,8)              124.6384         estimate D2E/DX2                !
 ! A20   A(4,7,12)             121.1541         estimate D2E/DX2                !
 ! A21   A(8,7,12)             113.7715         estimate D2E/DX2                !
 ! A22   A(7,8,9)              124.3883         estimate D2E/DX2                !
 ! A23   A(7,8,45)             114.2615         estimate D2E/DX2                !
 ! A24   A(9,8,45)             121.18           estimate D2E/DX2                !
 ! A25   A(8,9,10)             120.4013         estimate D2E/DX2                !
 ! A26   A(8,9,46)             118.8072         estimate D2E/DX2                !
 ! A27   A(10,9,46)            120.7915         estimate D2E/DX2                !
 ! A28   A(9,10,11)            118.1714         estimate D2E/DX2                !
 ! A29   A(9,10,14)            120.1951         estimate D2E/DX2                !
 ! A30   A(11,10,14)           121.1814         estimate D2E/DX2                !
 ! A31   A(10,11,12)           120.6127         estimate D2E/DX2                !
 ! A32   A(10,11,47)           122.9608         estimate D2E/DX2                !
 ! A33   A(12,11,47)           116.0513         estimate D2E/DX2                !
 ! A34   A(7,12,11)            122.2885         estimate D2E/DX2                !
 ! A35   A(7,12,13)            117.6186         estimate D2E/DX2                !
 ! A36   A(11,12,13)           120.0831         estimate D2E/DX2                !
 ! A37   A(10,14,15)           118.1642         estimate D2E/DX2                !
 ! A38   A(10,14,19)           123.5009         estimate D2E/DX2                !
 ! A39   A(15,14,19)           118.3239         estimate D2E/DX2                !
 ! A40   A(14,15,16)           119.8815         estimate D2E/DX2                !
 ! A41   A(14,15,48)           122.1906         estimate D2E/DX2                !
 ! A42   A(16,15,48)           117.5754         estimate D2E/DX2                !
 ! A43   A(15,16,17)           124.0201         estimate D2E/DX2                !
 ! A44   A(15,16,49)           118.6477         estimate D2E/DX2                !
 ! A45   A(17,16,49)           116.7252         estimate D2E/DX2                !
 ! A46   A(16,17,18)           113.4924         estimate D2E/DX2                !
 ! A47   A(16,17,20)           125.5486         estimate D2E/DX2                !
 ! A48   A(18,17,20)           120.5737         estimate D2E/DX2                !
 ! A49   A(17,18,19)           124.8588         estimate D2E/DX2                !
 ! A50   A(17,18,50)           116.607          estimate D2E/DX2                !
 ! A51   A(19,18,50)           118.4653         estimate D2E/DX2                !
 ! A52   A(14,19,18)           118.9308         estimate D2E/DX2                !
 ! A53   A(14,19,51)           119.8506         estimate D2E/DX2                !
 ! A54   A(18,19,51)           121.1154         estimate D2E/DX2                !
 ! A55   A(17,20,21)           124.8124         estimate D2E/DX2                !
 ! A56   A(17,20,25)           118.4907         estimate D2E/DX2                !
 ! A57   A(21,20,25)           116.6431         estimate D2E/DX2                !
 ! A58   A(20,21,22)           123.9322         estimate D2E/DX2                !
 ! A59   A(20,21,52)           117.8866         estimate D2E/DX2                !
 ! A60   A(22,21,52)           118.1798         estimate D2E/DX2                !
 ! A61   A(21,22,23)           119.0598         estimate D2E/DX2                !
 ! A62   A(21,22,53)           117.1746         estimate D2E/DX2                !
 ! A63   A(23,22,53)           123.7164         estimate D2E/DX2                !
 ! A64   A(22,23,24)           116.0518         estimate D2E/DX2                !
 ! A65   A(22,23,27)           120.9758         estimate D2E/DX2                !
 ! A66   A(24,23,27)           122.8904         estimate D2E/DX2                !
 ! A67   A(23,24,25)           121.1575         estimate D2E/DX2                !
 ! A68   A(23,24,54)           115.6861         estimate D2E/DX2                !
 ! A69   A(25,24,54)           123.146          estimate D2E/DX2                !
 ! A70   A(20,25,24)           123.0883         estimate D2E/DX2                !
 ! A71   A(20,25,26)           120.7417         estimate D2E/DX2                !
 ! A72   A(24,25,26)           116.1647         estimate D2E/DX2                !
 ! A73   A(23,27,28)           118.3916         estimate D2E/DX2                !
 ! A74   A(23,27,32)           125.4725         estimate D2E/DX2                !
 ! A75   A(28,27,32)           116.1072         estimate D2E/DX2                !
 ! A76   A(27,28,29)           119.0127         estimate D2E/DX2                !
 ! A77   A(27,28,55)           117.4488         estimate D2E/DX2                !
 ! A78   A(29,28,55)           123.5012         estimate D2E/DX2                !
 ! A79   A(28,29,30)           125.3257         estimate D2E/DX2                !
 ! A80   A(28,29,56)           112.8207         estimate D2E/DX2                !
 ! A81   A(30,29,56)           121.8277         estimate D2E/DX2                !
 ! A82   A(29,30,31)           116.2828         estimate D2E/DX2                !
 ! A83   A(29,30,33)           124.8595         estimate D2E/DX2                !
 ! A84   A(31,30,33)           118.8312         estimate D2E/DX2                !
 ! A85   A(30,31,32)           118.1499         estimate D2E/DX2                !
 ! A86   A(30,31,57)           125.3396         estimate D2E/DX2                !
 ! A87   A(32,31,57)           116.506          estimate D2E/DX2                !
 ! A88   A(27,32,31)           125.0925         estimate D2E/DX2                !
 ! A89   A(27,32,58)           120.664          estimate D2E/DX2                !
 ! A90   A(31,32,58)           113.9126         estimate D2E/DX2                !
 ! A91   A(30,33,34)           116.3698         estimate D2E/DX2                !
 ! A92   A(30,33,38)           124.6538         estimate D2E/DX2                !
 ! A93   A(34,33,38)           118.8807         estimate D2E/DX2                !
 ! A94   A(33,34,35)           116.031          estimate D2E/DX2                !
 ! A95   A(33,34,59)           122.7586         estimate D2E/DX2                !
 ! A96   A(35,34,59)           121.0847         estimate D2E/DX2                !
 ! A97   A(34,35,36)           124.2341         estimate D2E/DX2                !
 ! A98   A(34,35,60)           115.6579         estimate D2E/DX2                !
 ! A99   A(36,35,60)           120.0817         estimate D2E/DX2                !
 ! A100  A(35,36,37)           120.9404         estimate D2E/DX2                !
 ! A101  A(35,36,61)           122.5628         estimate D2E/DX2                !
 ! A102  A(37,36,61)           116.4347         estimate D2E/DX2                !
 ! A103  A(36,37,38)           115.3636         estimate D2E/DX2                !
 ! A104  A(36,37,62)           125.9909         estimate D2E/DX2                !
 ! A105  A(38,37,62)           118.2911         estimate D2E/DX2                !
 ! A106  A(33,38,37)           124.2007         estimate D2E/DX2                !
 ! A107  A(33,38,39)           119.9334         estimate D2E/DX2                !
 ! A108  A(37,38,39)           115.8566         estimate D2E/DX2                !
 ! D1    D(6,1,2,3)             -2.7459         estimate D2E/DX2                !
 ! D2    D(6,1,2,41)           172.2636         estimate D2E/DX2                !
 ! D3    D(40,1,2,3)          -179.6821         estimate D2E/DX2                !
 ! D4    D(40,1,2,41)           -4.6726         estimate D2E/DX2                !
 ! D5    D(2,1,6,5)              1.6702         estimate D2E/DX2                !
 ! D6    D(2,1,6,44)           178.5808         estimate D2E/DX2                !
 ! D7    D(40,1,6,5)           178.8702         estimate D2E/DX2                !
 ! D8    D(40,1,6,44)           -4.2191         estimate D2E/DX2                !
 ! D9    D(1,2,3,4)              4.4037         estimate D2E/DX2                !
 ! D10   D(1,2,3,42)           179.5151         estimate D2E/DX2                !
 ! D11   D(41,2,3,4)          -170.6701         estimate D2E/DX2                !
 ! D12   D(41,2,3,42)            4.4413         estimate D2E/DX2                !
 ! D13   D(2,3,4,5)             -4.7182         estimate D2E/DX2                !
 ! D14   D(2,3,4,7)           -175.5199         estimate D2E/DX2                !
 ! D15   D(42,3,4,5)          -179.7142         estimate D2E/DX2                !
 ! D16   D(42,3,4,7)             9.4841         estimate D2E/DX2                !
 ! D17   D(3,4,5,6)              3.8634         estimate D2E/DX2                !
 ! D18   D(3,4,5,43)          -174.2757         estimate D2E/DX2                !
 ! D19   D(7,4,5,6)            174.9044         estimate D2E/DX2                !
 ! D20   D(7,4,5,43)            -3.2348         estimate D2E/DX2                !
 ! D21   D(3,4,7,8)             38.1176         estimate D2E/DX2                !
 ! D22   D(3,4,7,12)          -133.8244         estimate D2E/DX2                !
 ! D23   D(5,4,7,8)           -132.4743         estimate D2E/DX2                !
 ! D24   D(5,4,7,12)            55.5836         estimate D2E/DX2                !
 ! D25   D(4,5,6,1)             -2.3326         estimate D2E/DX2                !
 ! D26   D(4,5,6,44)          -179.3652         estimate D2E/DX2                !
 ! D27   D(43,5,6,1)           175.9942         estimate D2E/DX2                !
 ! D28   D(43,5,6,44)           -1.0384         estimate D2E/DX2                !
 ! D29   D(4,7,8,9)           -175.8434         estimate D2E/DX2                !
 ! D30   D(4,7,8,45)             8.8659         estimate D2E/DX2                !
 ! D31   D(12,7,8,9)            -3.3754         estimate D2E/DX2                !
 ! D32   D(12,7,8,45)         -178.6661         estimate D2E/DX2                !
 ! D33   D(4,7,12,11)          177.3464         estimate D2E/DX2                !
 ! D34   D(4,7,12,13)           -1.5224         estimate D2E/DX2                !
 ! D35   D(8,7,12,11)            4.5862         estimate D2E/DX2                !
 ! D36   D(8,7,12,13)         -174.2827         estimate D2E/DX2                !
 ! D37   D(7,8,9,10)             3.6839         estimate D2E/DX2                !
 ! D38   D(7,8,9,46)          -176.3832         estimate D2E/DX2                !
 ! D39   D(45,8,9,10)          178.6648         estimate D2E/DX2                !
 ! D40   D(45,8,9,46)           -1.4022         estimate D2E/DX2                !
 ! D41   D(8,9,10,11)           -4.7342         estimate D2E/DX2                !
 ! D42   D(8,9,10,14)         -177.1114         estimate D2E/DX2                !
 ! D43   D(46,9,10,11)         175.3342         estimate D2E/DX2                !
 ! D44   D(46,9,10,14)           2.957          estimate D2E/DX2                !
 ! D45   D(9,10,11,12)           6.006          estimate D2E/DX2                !
 ! D46   D(9,10,11,47)         178.6928         estimate D2E/DX2                !
 ! D47   D(14,10,11,12)        178.3045         estimate D2E/DX2                !
 ! D48   D(14,10,11,47)         -9.0087         estimate D2E/DX2                !
 ! D49   D(9,10,14,15)        -127.7183         estimate D2E/DX2                !
 ! D50   D(9,10,14,19)          53.5135         estimate D2E/DX2                !
 ! D51   D(11,10,14,15)         60.1377         estimate D2E/DX2                !
 ! D52   D(11,10,14,19)       -118.6306         estimate D2E/DX2                !
 ! D53   D(10,11,12,7)          -6.1583         estimate D2E/DX2                !
 ! D54   D(10,11,12,13)        172.6834         estimate D2E/DX2                !
 ! D55   D(47,11,12,7)        -179.3307         estimate D2E/DX2                !
 ! D56   D(47,11,12,13)         -0.489          estimate D2E/DX2                !
 ! D57   D(10,14,15,16)       -177.5172         estimate D2E/DX2                !
 ! D58   D(10,14,15,48)         -4.5011         estimate D2E/DX2                !
 ! D59   D(19,14,15,16)          1.3159         estimate D2E/DX2                !
 ! D60   D(19,14,15,48)        174.3321         estimate D2E/DX2                !
 ! D61   D(10,14,19,18)       -177.8416         estimate D2E/DX2                !
 ! D62   D(10,14,19,51)         -1.4948         estimate D2E/DX2                !
 ! D63   D(15,14,19,18)          3.392          estimate D2E/DX2                !
 ! D64   D(15,14,19,51)        179.7388         estimate D2E/DX2                !
 ! D65   D(14,15,16,17)         -7.3256         estimate D2E/DX2                !
 ! D66   D(14,15,16,49)       -178.0859         estimate D2E/DX2                !
 ! D67   D(48,15,16,17)        179.3407         estimate D2E/DX2                !
 ! D68   D(48,15,16,49)          8.5804         estimate D2E/DX2                !
 ! D69   D(15,16,17,18)          7.7459         estimate D2E/DX2                !
 ! D70   D(15,16,17,20)       -179.3886         estimate D2E/DX2                !
 ! D71   D(49,16,17,18)        178.6689         estimate D2E/DX2                !
 ! D72   D(49,16,17,20)         -8.4656         estimate D2E/DX2                !
 ! D73   D(16,17,18,19)         -2.6676         estimate D2E/DX2                !
 ! D74   D(16,17,18,50)       -179.5909         estimate D2E/DX2                !
 ! D75   D(20,17,18,19)       -175.9274         estimate D2E/DX2                !
 ! D76   D(20,17,18,50)          7.1493         estimate D2E/DX2                !
 ! D77   D(16,17,20,21)       -122.9059         estimate D2E/DX2                !
 ! D78   D(16,17,20,25)         54.3303         estimate D2E/DX2                !
 ! D79   D(18,17,20,21)         49.4917         estimate D2E/DX2                !
 ! D80   D(18,17,20,25)       -133.272          estimate D2E/DX2                !
 ! D81   D(17,18,19,14)         -2.6783         estimate D2E/DX2                !
 ! D82   D(17,18,19,51)       -178.9773         estimate D2E/DX2                !
 ! D83   D(50,18,19,14)        174.1924         estimate D2E/DX2                !
 ! D84   D(50,18,19,51)         -2.1065         estimate D2E/DX2                !
 ! D85   D(17,20,21,22)       -179.8226         estimate D2E/DX2                !
 ! D86   D(17,20,21,52)         -0.2743         estimate D2E/DX2                !
 ! D87   D(25,20,21,22)          2.8949         estimate D2E/DX2                !
 ! D88   D(25,20,21,52)       -177.5568         estimate D2E/DX2                !
 ! D89   D(17,20,25,24)        179.8204         estimate D2E/DX2                !
 ! D90   D(17,20,25,26)          0.6869         estimate D2E/DX2                !
 ! D91   D(21,20,25,24)         -2.7181         estimate D2E/DX2                !
 ! D92   D(21,20,25,26)        178.1484         estimate D2E/DX2                !
 ! D93   D(20,21,22,23)         -2.1097         estimate D2E/DX2                !
 ! D94   D(20,21,22,53)       -179.6531         estimate D2E/DX2                !
 ! D95   D(52,21,22,23)        178.3432         estimate D2E/DX2                !
 ! D96   D(52,21,22,53)          0.7998         estimate D2E/DX2                !
 ! D97   D(21,22,23,24)          0.9858         estimate D2E/DX2                !
 ! D98   D(21,22,23,27)       -175.8135         estimate D2E/DX2                !
 ! D99   D(53,22,23,24)        178.3584         estimate D2E/DX2                !
 ! D100  D(53,22,23,27)          1.5591         estimate D2E/DX2                !
 ! D101  D(22,23,24,25)         -0.8664         estimate D2E/DX2                !
 ! D102  D(22,23,24,54)       -179.731          estimate D2E/DX2                !
 ! D103  D(27,23,24,25)        175.8655         estimate D2E/DX2                !
 ! D104  D(27,23,24,54)         -2.9991         estimate D2E/DX2                !
 ! D105  D(22,23,27,28)        -54.9674         estimate D2E/DX2                !
 ! D106  D(22,23,27,32)        127.0628         estimate D2E/DX2                !
 ! D107  D(24,23,27,28)        128.4573         estimate D2E/DX2                !
 ! D108  D(24,23,27,32)        -49.5126         estimate D2E/DX2                !
 ! D109  D(23,24,25,20)          1.819          estimate D2E/DX2                !
 ! D110  D(23,24,25,26)       -179.0108         estimate D2E/DX2                !
 ! D111  D(54,24,25,20)       -179.4031         estimate D2E/DX2                !
 ! D112  D(54,24,25,26)         -0.2329         estimate D2E/DX2                !
 ! D113  D(23,27,28,29)       -178.5459         estimate D2E/DX2                !
 ! D114  D(23,27,28,55)         -0.6878         estimate D2E/DX2                !
 ! D115  D(32,27,28,29)         -0.3871         estimate D2E/DX2                !
 ! D116  D(32,27,28,55)        177.4711         estimate D2E/DX2                !
 ! D117  D(23,27,32,31)        179.498          estimate D2E/DX2                !
 ! D118  D(23,27,32,58)         -7.5202         estimate D2E/DX2                !
 ! D119  D(28,27,32,31)          1.4869         estimate D2E/DX2                !
 ! D120  D(28,27,32,58)        174.4687         estimate D2E/DX2                !
 ! D121  D(27,28,29,30)          0.0079         estimate D2E/DX2                !
 ! D122  D(27,28,29,56)        178.1765         estimate D2E/DX2                !
 ! D123  D(55,28,29,30)       -177.7127         estimate D2E/DX2                !
 ! D124  D(55,28,29,56)          0.456          estimate D2E/DX2                !
 ! D125  D(28,29,30,31)         -0.6539         estimate D2E/DX2                !
 ! D126  D(28,29,30,33)       -178.7524         estimate D2E/DX2                !
 ! D127  D(56,29,30,31)       -178.6671         estimate D2E/DX2                !
 ! D128  D(56,29,30,33)          3.2344         estimate D2E/DX2                !
 ! D129  D(29,30,31,32)          1.5984         estimate D2E/DX2                !
 ! D130  D(29,30,31,57)       -177.5913         estimate D2E/DX2                !
 ! D131  D(33,30,31,32)        179.8174         estimate D2E/DX2                !
 ! D132  D(33,30,31,57)          0.6277         estimate D2E/DX2                !
 ! D133  D(29,30,33,34)        -54.6661         estimate D2E/DX2                !
 ! D134  D(29,30,33,38)        128.9436         estimate D2E/DX2                !
 ! D135  D(31,30,33,34)        127.2801         estimate D2E/DX2                !
 ! D136  D(31,30,33,38)        -49.1103         estimate D2E/DX2                !
 ! D137  D(30,31,32,27)         -2.1681         estimate D2E/DX2                !
 ! D138  D(30,31,32,58)       -175.5663         estimate D2E/DX2                !
 ! D139  D(57,31,32,27)        177.0933         estimate D2E/DX2                !
 ! D140  D(57,31,32,58)          3.6951         estimate D2E/DX2                !
 ! D141  D(30,33,34,35)        177.8554         estimate D2E/DX2                !
 ! D142  D(30,33,34,59)          1.8946         estimate D2E/DX2                !
 ! D143  D(38,33,34,35)         -5.5354         estimate D2E/DX2                !
 ! D144  D(38,33,34,59)        178.5038         estimate D2E/DX2                !
 ! D145  D(30,33,38,37)        178.8749         estimate D2E/DX2                !
 ! D146  D(30,33,38,39)          0.0331         estimate D2E/DX2                !
 ! D147  D(34,33,38,37)          2.5685         estimate D2E/DX2                !
 ! D148  D(34,33,38,39)       -176.2734         estimate D2E/DX2                !
 ! D149  D(33,34,35,36)          3.2905         estimate D2E/DX2                !
 ! D150  D(33,34,35,60)       -174.8386         estimate D2E/DX2                !
 ! D151  D(59,34,35,36)        179.3242         estimate D2E/DX2                !
 ! D152  D(59,34,35,60)          1.1951         estimate D2E/DX2                !
 ! D153  D(34,35,36,37)          2.2388         estimate D2E/DX2                !
 ! D154  D(34,35,36,61)        179.271          estimate D2E/DX2                !
 ! D155  D(60,35,36,37)       -179.7101         estimate D2E/DX2                !
 ! D156  D(60,35,36,61)         -2.6779         estimate D2E/DX2                !
 ! D157  D(35,36,37,38)         -5.2298         estimate D2E/DX2                !
 ! D158  D(35,36,37,62)       -178.2369         estimate D2E/DX2                !
 ! D159  D(61,36,37,38)        177.5634         estimate D2E/DX2                !
 ! D160  D(61,36,37,62)          4.5563         estimate D2E/DX2                !
 ! D161  D(36,37,38,33)          2.8319         estimate D2E/DX2                !
 ! D162  D(36,37,38,39)       -178.2834         estimate D2E/DX2                !
 ! D163  D(62,37,38,33)        176.4088         estimate D2E/DX2                !
 ! D164  D(62,37,38,39)         -4.7065         estimate D2E/DX2                !
 --------------------------------------------------------------------------------
 Trust Radius=3.00D-01 FncErr=1.00D-07 GrdErr=1.00D-06 EigMax=2.50D+02 EigMin=1.00D-04
 Number of steps in this run=    349 maximum allowed number of steps=    372.
 GradGradGradGradGradGradGradGradGradGradGradGradGradGradGradGradGradGrad

 Leave Link  103 at Thu Jul 23 23:15:39 2020, MaxMem=  4026531840 cpu:               0.2 elap:               0.1
 (Enter /opt/ohpc/pub/libs/gaussian/g16-A.03/sandybridge/g16/l202.exe)
 Stoichiometry    C36H23F3
 Framework group  C1[X(C36H23F3)]
 Deg. of freedom   180
 Full point group                 C1      NOp   1
 Largest Abelian subgroup         C1      NOp   1
 Largest concise Abelian subgroup C1      NOp   1
                         Standard orientation:                         
 ---------------------------------------------------------------------
 Center     Atomic      Atomic             Coordinates (Angstroms)
 Number     Number       Type             X           Y           Z
 ---------------------------------------------------------------------
      1          6           0      -12.322991   -0.148589   -0.107341
      2          6           0      -11.592378   -0.894386    0.780335
      3          6           0      -10.183633   -0.892189    0.792756
      4          6           0       -9.479604   -0.074926   -0.026126
      5          6           0      -10.195195    0.680885   -0.941600
      6          6           0      -11.631836    0.705865   -1.015411
      7          6           0       -8.011430   -0.118579   -0.104942
      8          6           0       -7.237043   -1.303266   -0.049025
      9          6           0       -5.884837   -1.332358   -0.041235
     10          6           0       -5.138906   -0.121454   -0.012079
     11          6           0       -5.844456    1.097734   -0.094435
     12          6           0       -7.211682    1.113666   -0.076129
     13          9           0       -7.854066    2.252928   -0.008580
     14          6           0       -3.686920   -0.155824   -0.067098
     15          6           0       -2.944195    0.563763    0.954967
     16          6           0       -1.588389    0.597073    0.908051
     17          6           0       -0.811610   -0.152734    0.000646
     18          6           0       -1.586952   -0.826509   -0.990831
     19          6           0       -2.974034   -0.817061   -1.055360
     20          6           0        0.693133   -0.152082   -0.073111
     21          6           0        1.426133    0.165445   -1.197255
     22          6           0        2.824066    0.156583   -1.246134
     23          6           0        3.557485   -0.155165   -0.061385
     24          6           0        2.775873   -0.460998    1.100766
     25          6           0        1.401672   -0.432339    1.061664
     26          9           0        0.735727   -0.731144    2.276051
     27          6           0        4.993351   -0.089273   -0.041260
     28          6           0        5.742547   -0.862371   -1.041941
     29          6           0        7.123575   -0.832451   -1.015328
     30          6           0        7.882203   -0.130957   -0.119439
     31          6           0        7.168126    0.635893    0.849397
     32          6           0        5.715205    0.583333    0.830556
     33          6           0        9.325567   -0.086428   -0.116609
     34          6           0       10.007397   -1.360946   -0.074160
     35          6           0       11.421219   -1.310868   -0.119212
     36          6           0       12.118853   -0.203242   -0.132729
     37          6           0       11.488907    1.045867   -0.055456
     38          6           0       10.036851    1.013160   -0.081528
     39          9           0        9.411981    2.229341   -0.043450
     40          1           0      -13.381736   -0.117697   -0.147615
     41          1           0      -12.122194   -1.466156    1.580292
     42          1           0       -9.675652   -1.504158    1.532699
     43          1           0       -9.722458    1.313431   -1.721159
     44          1           0      -12.124722    1.311836   -1.762960
     45          1           0       -7.805648   -2.198355   -0.091845
     46          1           0       -5.383596   -2.291815   -0.056457
     47          1           0       -5.337171    2.103512   -0.057188
     48          1           0       -3.448058    1.190868    1.721984
     49          1           0       -1.021730    1.143436    1.744454
     50          1           0       -1.015724   -1.451033   -1.743587
     51          1           0       -3.499367   -1.361419   -1.822295
     52          1           0        0.883149    0.431132   -2.099334
     53          1           0        3.255816    0.411582   -2.120734
     54          1           0        3.341668   -0.693591    2.002823
     55          1           0        5.140985   -1.488422   -1.780324
     56          1           0        7.572517   -1.461171   -1.775950
     57          1           0        7.600430    1.246124    1.569650
     58          1           0        5.222138    1.276353    1.574442
     59          1           0        9.508186   -2.258700   -0.075714
     60          1           0       11.952073   -2.324892   -0.178182
     61          1           0       13.206206   -0.196534   -0.155965
     62          1           0       11.955679    1.959894   -0.085124
 ---------------------------------------------------------------------
 Rotational constants (GHZ):           0.6165902           0.0175384           0.0174508
 Leave Link  202 at Thu Jul 23 23:15:39 2020, MaxMem=  4026531840 cpu:               0.3 elap:               0.1
 (Enter /opt/ohpc/pub/libs/gaussian/g16-A.03/sandybridge/g16/l301.exe)
 Standard basis: CC-pVDZ (5D, 7F)
 Ernie: Thresh=  0.10000D-02 Tol=  0.10000D-05 Strict=F.
 Ernie:  78 primitive shells out of 973 were deleted.
 There are   700 symmetry adapted cartesian basis functions of A   symmetry.
 There are   661 symmetry adapted basis functions of A   symmetry.
   661 basis functions,  1448 primitive gaussians,   700 cartesian basis functions
   133 alpha electrons      133 beta electrons
       nuclear repulsion energy      3428.6350990150 Hartrees.
 IExCor=32609 DFT=T Ex+Corr=LC-wPBE ExCW=0 ScaHFX=  1.000000
 ScaDFX=  1.000000  0.000000  1.000000  1.000000 ScalE2=  1.000000  1.000000
 IRadAn=      5 IRanWt=     -1 IRanGd=            0 ICorTp=0 IEmpDi=  4
 HFx  wShort=  0.000000 wLong=  0.187400 cFull=  0.000000 cShort=  0.000000 cLong=  1.000000
 DFx  wShort=  0.000000 wLong=  0.187400 cFull=  0.000000 cShort=  0.000000 cLong=  1.000000
 NAtoms=   62 NActive=   62 NUniq=   62 SFac= 1.00D+00 NAtFMM=   60 NAOKFM=T Big=T
 Integral buffers will be    131072 words long.
 Raffenetti 2 integral format.
 Two-electron integral symmetry is turned on.
 Leave Link  301 at Thu Jul 23 23:15:40 2020, MaxMem=  4026531840 cpu:               0.7 elap:               0.2
 (Enter /opt/ohpc/pub/libs/gaussian/g16-A.03/sandybridge/g16/l302.exe)
 NPDir=0 NMtPBC=     1 NCelOv=     1 NCel=       1 NClECP=     1 NCelD=      1
         NCelK=      1 NCelE2=     1 NClLst=     1 CellRange=     0.0.
 One-electron integrals computed using PRISM.
 One-electron integral symmetry used in STVInt
 NBasis=   661 RedAO= T EigKep=  2.67D-04  NBF=   661
 NBsUse=   661 1.00D-06 EigRej= -1.00D+00 NBFU=   661
 Precomputing XC quadrature grid using
 IXCGrd= 4 IRadAn=           5 IRanWt=          -1 IRanGd=           0 AccXCQ= 0.00D+00.
 Generated NRdTot=       0 NPtTot=           0 NUsed=           0 NTot=          32
 NSgBfM=   589   589   589   589   589 MxSgAt=    62 MxSgA2=    62.
 Leave Link  302 at Thu Jul 23 23:15:42 2020, MaxMem=  4026531840 cpu:              13.9 elap:               2.4
 (Enter /opt/ohpc/pub/libs/gaussian/g16-A.03/sandybridge/g16/l303.exe)
 DipDrv:  MaxL=1.
 Leave Link  303 at Thu Jul 23 23:15:42 2020, MaxMem=  4026531840 cpu:               0.9 elap:               0.2
 (Enter /opt/ohpc/pub/libs/gaussian/g16-A.03/sandybridge/g16/l401.exe)
 ExpMin= 1.22D-01 ExpMax= 1.47D+04 ExpMxC= 5.03D+02 IAcc=3 IRadAn=         5 AccDes= 0.00D+00
 Harris functional with IExCor=32609 and IRadAn=       5 diagonalized for initial guess.
 HarFok:  IExCor=32609 AccDes= 0.00D+00 IRadAn=         5 IDoV= 1 UseB2=F ITyADJ=14
 ICtDFT=  3500011 ScaDFX=  1.000000  1.000000  1.000000  1.000000
 FoFCou: FMM=F IPFlag=           0 FMFlag=      100000 FMFlg1=        2001
         NFxFlg=           0 DoJE=T BraDBF=F KetDBF=T FulRan=T
         wScrn=  0.000000 ICntrl=       500 IOpCl=  0 I1Cent=   200000004 NGrid=           0
         NMat0=    1 NMatS0=      1 NMatT0=    0 NMatD0=    1 NMtDS0=    0 NMtDT0=    0
 Petite list used in FoFCou.
 Harris En= -1683.86992478980    
 JPrj=0 DoOrth=F DoCkMO=F.
 Initial guess <Sx>= 0.0000 <Sy>= 0.0000 <Sz>= 0.0000 <S**2>=-0.0000 S=-0.0000
 Leave Link  401 at Thu Jul 23 23:15:49 2020, MaxMem=  4026531840 cpu:              51.4 elap:               6.6
 (Enter /opt/ohpc/pub/libs/gaussian/g16-A.03/sandybridge/g16/l502.exe)
 Integral symmetry usage will be decided dynamically.
 UHF open shell SCF:
 Using DIIS extrapolation, IDIIS=  1040.
 NGot=  4026531840 LenX=  4025539106 LenY=  4025048406
 Requested convergence on RMS density matrix=1.00D-08 within 128 cycles.
 Requested convergence on MAX density matrix=1.00D-06.
 Requested convergence on             energy=1.00D-06.
 No special actions if energy rises.
 Fock matrices will be formed incrementally for  20 cycles.
 Integral accuracy reduced to 1.0D-05 until final iterations.

 Cycle   1  Pass 0  IDiag  1:
 FoFJK:  IHMeth= 1 ICntrl=       0 DoSepK=T KAlg= 0 I1Cent=           0 FoldK=F
 IRaf=         1 NMat=       1 IRICut=       1 DoRegI=T DoRafI=F ISym2E= 0 IDoP0=0 IntGTp=1.
 FoFCou: FMM=T IPFlag=           0 FMFlag=      100000 FMFlg1=        2001
         NFxFlg=           0 DoJE=T BraDBF=F KetDBF=F FulRan=T
         wScrn=  0.000000 ICntrl=       500 IOpCl=  0 I1Cent=           0 NGrid=           0
         NMat0=    1 NMatS0=      1 NMatT0=    0 NMatD0=    1 NMtDS0=    0 NMtDT0=    0
 Symmetry not used in FoFCou.
 FMM levels:  10  Number of levels for PrismC:   9
 E= -1683.12387345923    
 DIIS: error= 1.99D-02 at cycle   1 NSaved=   1.
 NSaved= 1 IEnMin= 1 EnMin= -1683.12387345923     IErMin= 1 ErrMin= 1.99D-02
 ErrMax= 1.99D-02  0.00D+00 EMaxC= 1.00D-01 BMatC= 1.92D+00 BMatP= 1.92D+00
 IDIUse=3 WtCom= 8.01D-01 WtEn= 1.99D-01
 Coeff-Com:  0.100D+01
 Coeff-En:   0.100D+01
 Coeff:      0.100D+01
 Gap=     0.282 Goal=   None    Shift=    0.000
 Gap=     0.282 Goal=   None    Shift=    0.000
 GapD=    0.282 DampG=1.000 DampE=0.500 DampFc=0.5000 IDamp=-1.
 Damping current iteration by 5.00D-01
 RMSDP=2.36D-03 MaxDP=8.69D-02              OVMax= 1.58D-01

 Cycle   2  Pass 0  IDiag  1:
 RMSU=  1.15D-03    CP:  9.80D-01
 E= -1683.41987676326     Delta-E=       -0.296003304027 Rises=F Damp=T
 DIIS: error= 5.15D-03 at cycle   2 NSaved=   2.
 NSaved= 2 IEnMin= 2 EnMin= -1683.41987676326     IErMin= 2 ErrMin= 5.15D-03
 ErrMax= 5.15D-03  0.00D+00 EMaxC= 1.00D-01 BMatC= 9.97D-02 BMatP= 1.92D+00
 IDIUse=3 WtCom= 9.48D-01 WtEn= 5.15D-02
 Coeff-Com: -0.750D-01 0.107D+01
 Coeff-En:   0.000D+00 0.100D+01
 Coeff:     -0.711D-01 0.107D+01
 Gap=     0.278 Goal=   None    Shift=    0.000
 Gap=     0.278 Goal=   None    Shift=    0.000
 RMSDP=7.26D-04 MaxDP=2.96D-02 DE=-2.96D-01 OVMax= 9.06D-02

 Cycle   3  Pass 0  IDiag  1:
 RMSU=  6.47D-04    CP:  9.72D-01  1.27D+00
 E= -1683.68979835326     Delta-E=       -0.269921589997 Rises=F Damp=F
 DIIS: error= 3.13D-03 at cycle   3 NSaved=   3.
 NSaved= 3 IEnMin= 3 EnMin= -1683.68979835326     IErMin= 3 ErrMin= 3.13D-03
 ErrMax= 3.13D-03  0.00D+00 EMaxC= 1.00D-01 BMatC= 5.12D-02 BMatP= 9.97D-02
 IDIUse=3 WtCom= 9.69D-01 WtEn= 3.13D-02
 Coeff-Com: -0.660D-01 0.466D+00 0.599D+00
 Coeff-En:   0.000D+00 0.000D+00 0.100D+01
 Coeff:     -0.639D-01 0.452D+00 0.612D+00
 Gap=     0.270 Goal=   None    Shift=    0.000
 Gap=     0.270 Goal=   None    Shift=    0.000
 RMSDP=2.41D-04 MaxDP=2.03D-02 DE=-2.70D-01 OVMax= 2.85D-02

 Cycle   4  Pass 0  IDiag  1:
 RMSU=  1.85D-04    CP:  9.73D-01  1.29D+00  7.63D-01
 E= -1683.70120902729     Delta-E=       -0.011410674031 Rises=F Damp=F
 DIIS: error= 1.08D-03 at cycle   4 NSaved=   4.
 NSaved= 4 IEnMin= 4 EnMin= -1683.70120902729     IErMin= 4 ErrMin= 1.08D-03
 ErrMax= 1.08D-03  0.00D+00 EMaxC= 1.00D-01 BMatC= 7.10D-03 BMatP= 5.12D-02
 IDIUse=3 WtCom= 9.89D-01 WtEn= 1.08D-02
 Coeff-Com: -0.196D-01 0.114D+00 0.302D+00 0.603D+00
 Coeff-En:   0.000D+00 0.000D+00 0.689D-01 0.931D+00
 Coeff:     -0.194D-01 0.113D+00 0.300D+00 0.607D+00
 Gap=     0.270 Goal=   None    Shift=    0.000
 Gap=     0.270 Goal=   None    Shift=    0.000
 RMSDP=8.22D-05 MaxDP=4.01D-03 DE=-1.14D-02 OVMax= 9.64D-03

 Cycle   5  Pass 0  IDiag  1:
 RMSU=  5.43D-05    CP:  9.73D-01  1.28D+00  8.14D-01  7.19D-01
 E= -1683.70289046149     Delta-E=       -0.001681434205 Rises=F Damp=F
 DIIS: error= 4.04D-04 at cycle   5 NSaved=   5.
 NSaved= 5 IEnMin= 5 EnMin= -1683.70289046149     IErMin= 5 ErrMin= 4.04D-04
 ErrMax= 4.04D-04  0.00D+00 EMaxC= 1.00D-01 BMatC= 6.84D-04 BMatP= 7.10D-03
 IDIUse=3 WtCom= 9.96D-01 WtEn= 4.04D-03
 Coeff-Com: -0.390D-02 0.201D-01 0.107D+00 0.308D+00 0.569D+00
 Coeff-En:   0.000D+00 0.000D+00 0.000D+00 0.000D+00 0.100D+01
 Coeff:     -0.389D-02 0.200D-01 0.106D+00 0.307D+00 0.570D+00
 Gap=     0.270 Goal=   None    Shift=    0.000
 Gap=     0.270 Goal=   None    Shift=    0.000
 RMSDP=3.11D-05 MaxDP=1.67D-03 DE=-1.68D-03 OVMax= 2.98D-03

 Cycle   6  Pass 0  IDiag  1:
 RMSU=  2.57D-05    CP:  9.73D-01  1.29D+00  8.25D-01  7.85D-01  8.16D-01
 E= -1683.70304439429     Delta-E=       -0.000153932802 Rises=F Damp=F
 DIIS: error= 1.35D-04 at cycle   6 NSaved=   6.
 NSaved= 6 IEnMin= 6 EnMin= -1683.70304439429     IErMin= 6 ErrMin= 1.35D-04
 ErrMax= 1.35D-04  0.00D+00 EMaxC= 1.00D-01 BMatC= 6.92D-05 BMatP= 6.84D-04
 IDIUse=3 WtCom= 9.99D-01 WtEn= 1.35D-03
 Coeff-Com:  0.113D-02-0.502D-02 0.134D-01 0.658D-01 0.271D+00 0.654D+00
 Coeff-En:   0.000D+00 0.000D+00 0.000D+00 0.000D+00 0.213D-01 0.979D+00
 Coeff:      0.113D-02-0.502D-02 0.134D-01 0.657D-01 0.270D+00 0.655D+00
 Gap=     0.270 Goal=   None    Shift=    0.000
 Gap=     0.270 Goal=   None    Shift=    0.000
 RMSDP=1.90D-05 MaxDP=4.79D-04 DE=-1.54D-04 OVMax= 1.31D-03

 Cycle   7  Pass 0  IDiag  1:
 RMSU=  1.65D-05    CP:  9.74D-01  1.29D+00  8.29D-01  8.02D-01  9.61D-01
                    CP:  1.09D+00
 E= -1683.70305766801     Delta-E=       -0.000013273711 Rises=F Damp=F
 DIIS: error= 5.77D-05 at cycle   7 NSaved=   7.
 NSaved= 7 IEnMin= 7 EnMin= -1683.70305766801     IErMin= 7 ErrMin= 5.77D-05
 ErrMax= 5.77D-05  0.00D+00 EMaxC= 1.00D-01 BMatC= 9.26D-06 BMatP= 6.92D-05
 IDIUse=1 WtCom= 1.00D+00 WtEn= 0.00D+00
 Coeff-Com:  0.103D-02-0.416D-02-0.783D-03 0.743D-02 0.786D-01 0.308D+00
 Coeff-Com:  0.610D+00
 Coeff:      0.103D-02-0.416D-02-0.783D-03 0.743D-02 0.786D-01 0.308D+00
 Coeff:      0.610D+00
 Gap=     0.270 Goal=   None    Shift=    0.000
 Gap=     0.270 Goal=   None    Shift=    0.000
 RMSDP=2.03D-05 MaxDP=6.89D-04 DE=-1.33D-05 OVMax= 3.82D-04

 Cycle   8  Pass 0  IDiag  1:
 RMSU=  1.52D-05    CP:  9.74D-01  1.29D+00  8.32D-01  8.19D-01  1.06D+00
                    CP:  1.40D+00  1.54D+00
 E= -1683.70305924718     Delta-E=       -0.000001579178 Rises=F Damp=F
 DIIS: error= 8.11D-05 at cycle   8 NSaved=   8.
 NSaved= 8 IEnMin= 8 EnMin= -1683.70305924718     IErMin= 7 ErrMin= 5.77D-05
 ErrMax= 8.11D-05  0.00D+00 EMaxC= 1.00D-01 BMatC= 7.06D-06 BMatP= 9.26D-06
 IDIUse=1 WtCom= 1.00D+00 WtEn= 0.00D+00
 Coeff-Com:  0.856D-03-0.339D-02-0.762D-03 0.483D-02 0.590D-01 0.242D+00
 Coeff-Com:  0.491D+00 0.207D+00
 Coeff:      0.856D-03-0.339D-02-0.762D-03 0.483D-02 0.590D-01 0.242D+00
 Coeff:      0.491D+00 0.207D+00
 Gap=     0.270 Goal=   None    Shift=    0.000
 Gap=     0.270 Goal=   None    Shift=    0.000
 RMSDP=9.18D-06 MaxDP=1.76D-04 DE=-1.58D-06 OVMax= 6.19D-05

 Initial convergence to 1.0D-05 achieved.  Increase integral accuracy.
 Cycle   9  Pass 1  IDiag  1:
 E= -1683.70243421606     Delta-E=        0.000625031128 Rises=F Damp=F
 DIIS: error= 5.48D-04 at cycle   1 NSaved=   1.
 NSaved= 1 IEnMin= 1 EnMin= -1683.70243421606     IErMin= 1 ErrMin= 5.48D-04
 ErrMax= 5.48D-04  0.00D+00 EMaxC= 1.00D-01 BMatC= 1.97D-04 BMatP= 1.97D-04
 IDIUse=3 WtCom= 9.95D-01 WtEn= 5.48D-03
 Coeff-Com:  0.100D+01
 Coeff-En:   0.100D+01
 Coeff:      0.100D+01
 Gap=     0.270 Goal=   None    Shift=    0.000
 Gap=     0.270 Goal=   None    Shift=    0.000
 RMSDP=9.18D-06 MaxDP=1.76D-04 DE= 6.25D-04 OVMax= 7.73D-04

 Cycle  10  Pass 1  IDiag  1:
 RMSU=  3.11D-04    CP:  9.99D-01
 E= -1683.70247749841     Delta-E=       -0.000043282349 Rises=F Damp=F
 DIIS: error= 1.91D-05 at cycle   2 NSaved=   2.
 NSaved= 2 IEnMin= 2 EnMin= -1683.70247749841     IErMin= 2 ErrMin= 1.91D-05
 ErrMax= 1.91D-05  0.00D+00 EMaxC= 1.00D-01 BMatC= 6.10D-07 BMatP= 1.97D-04
 IDIUse=1 WtCom= 1.00D+00 WtEn= 0.00D+00
 Coeff-Com: -0.338D-01 0.103D+01
 Coeff:     -0.338D-01 0.103D+01
 Gap=     0.270 Goal=   None    Shift=    0.000
 Gap=     0.270 Goal=   None    Shift=    0.000
 RMSDP=1.49D-05 MaxDP=6.10D-04 DE=-4.33D-05 OVMax= 1.34D-04

 Cycle  11  Pass 1  IDiag  1:
 RMSU=  3.86D-06    CP:  9.99D-01  1.05D+00
 E= -1683.70247763094     Delta-E=       -0.000000132532 Rises=F Damp=F
 DIIS: error= 7.41D-06 at cycle   3 NSaved=   3.
 NSaved= 3 IEnMin= 3 EnMin= -1683.70247763094     IErMin= 3 ErrMin= 7.41D-06
 ErrMax= 7.41D-06  0.00D+00 EMaxC= 1.00D-01 BMatC= 4.79D-07 BMatP= 6.10D-07
 IDIUse=1 WtCom= 1.00D+00 WtEn= 0.00D+00
 Coeff-Com: -0.197D-01 0.544D+00 0.476D+00
 Coeff:     -0.197D-01 0.544D+00 0.476D+00
 Gap=     0.270 Goal=   None    Shift=    0.000
 Gap=     0.270 Goal=   None    Shift=    0.000
 RMSDP=6.31D-07 MaxDP=3.51D-05 DE=-1.33D-07 OVMax= 6.15D-05

 Cycle  12  Pass 1  IDiag  1:
 RMSU=  5.97D-07    CP:  9.99D-01  1.05D+00  1.01D+00
 E= -1683.70247771808     Delta-E=       -0.000000087148 Rises=F Damp=F
 DIIS: error= 2.17D-06 at cycle   4 NSaved=   4.
 NSaved= 4 IEnMin= 4 EnMin= -1683.70247771808     IErMin= 4 ErrMin= 2.17D-06
 ErrMax= 2.17D-06  0.00D+00 EMaxC= 1.00D-01 BMatC= 1.21D-08 BMatP= 4.79D-07
 IDIUse=1 WtCom= 1.00D+00 WtEn= 0.00D+00
 Coeff-Com: -0.156D-02 0.317D-01 0.113D+00 0.857D+00
 Coeff:     -0.156D-02 0.317D-01 0.113D+00 0.857D+00
 Gap=     0.270 Goal=   None    Shift=    0.000
 Gap=     0.270 Goal=   None    Shift=    0.000
 RMSDP=3.10D-07 MaxDP=1.02D-05 DE=-8.71D-08 OVMax= 2.86D-05

 Cycle  13  Pass 1  IDiag  1:
 RMSU=  1.67D-07    CP:  9.99D-01  1.05D+00  1.06D+00  9.80D-01
 E= -1683.70247771672     Delta-E=        0.000000001369 Rises=F Damp=F
 DIIS: error= 1.63D-06 at cycle   5 NSaved=   5.
 NSaved= 5 IEnMin= 4 EnMin= -1683.70247771808     IErMin= 5 ErrMin= 1.63D-06
 ErrMax= 1.63D-06  0.00D+00 EMaxC= 1.00D-01 BMatC= 8.15D-09 BMatP= 1.21D-08
 IDIUse=1 WtCom= 1.00D+00 WtEn= 0.00D+00
 Coeff-Com:  0.147D-02-0.472D-01 0.404D-02 0.518D+00 0.524D+00
 Coeff:      0.147D-02-0.472D-01 0.404D-02 0.518D+00 0.524D+00
 Gap=     0.270 Goal=   None    Shift=    0.000
 Gap=     0.270 Goal=   None    Shift=    0.000
 RMSDP=9.70D-08 MaxDP=6.33D-06 DE= 1.37D-09 OVMax= 1.61D-05

 Cycle  14  Pass 1  IDiag  1:
 RMSU=  7.24D-08    CP:  9.99D-01  1.05D+00  1.07D+00  1.03D+00  8.15D-01
 E= -1683.70247771915     Delta-E=       -0.000000002431 Rises=F Damp=F
 DIIS: error= 2.39D-07 at cycle   6 NSaved=   6.
 NSaved= 6 IEnMin= 6 EnMin= -1683.70247771915     IErMin= 6 ErrMin= 2.39D-07
 ErrMax= 2.39D-07  0.00D+00 EMaxC= 1.00D-01 BMatC= 3.13D-10 BMatP= 8.15D-09
 IDIUse=1 WtCom= 1.00D+00 WtEn= 0.00D+00
 Coeff-Com:  0.406D-03-0.112D-01-0.161D-01 0.721D-02 0.130D+00 0.890D+00
 Coeff:      0.406D-03-0.112D-01-0.161D-01 0.721D-02 0.130D+00 0.890D+00
 Gap=     0.270 Goal=   None    Shift=    0.000
 Gap=     0.270 Goal=   None    Shift=    0.000
 RMSDP=3.24D-08 MaxDP=1.24D-06 DE=-2.43D-09 OVMax= 6.89D-06

 Cycle  15  Pass 1  IDiag  1:
 RMSU=  2.29D-08    CP:  9.99D-01  1.05D+00  1.07D+00  1.04D+00  9.33D-01
                    CP:  1.12D+00
 E= -1683.70247772574     Delta-E=       -0.000000006588 Rises=F Damp=F
 DIIS: error= 1.38D-07 at cycle   7 NSaved=   7.
 NSaved= 7 IEnMin= 7 EnMin= -1683.70247772574     IErMin= 7 ErrMin= 1.38D-07
 ErrMax= 1.38D-07  0.00D+00 EMaxC= 1.00D-01 BMatC= 1.23D-10 BMatP= 3.13D-10
 IDIUse=1 WtCom= 1.00D+00 WtEn= 0.00D+00
 Coeff-Com: -0.143D-03 0.569D-02-0.121D-01-0.133D+00-0.531D-01 0.505D+00
 Coeff-Com:  0.688D+00
 Coeff:     -0.143D-03 0.569D-02-0.121D-01-0.133D+00-0.531D-01 0.505D+00
 Coeff:      0.688D+00
 Gap=     0.270 Goal=   None    Shift=    0.000
 Gap=     0.270 Goal=   None    Shift=    0.000
 RMSDP=1.66D-08 MaxDP=6.47D-07 DE=-6.59D-09 OVMax= 3.42D-06

 Cycle  16  Pass 1  IDiag  1:
 RMSU=  1.09D-08    CP:  9.99D-01  1.05D+00  1.07D+00  1.05D+00  9.78D-01
                    CP:  1.25D+00  9.79D-01
 E= -1683.70247772578     Delta-E=       -0.000000000047 Rises=F Damp=F
 DIIS: error= 3.42D-08 at cycle   8 NSaved=   8.
 NSaved= 8 IEnMin= 8 EnMin= -1683.70247772578     IErMin= 8 ErrMin= 3.42D-08
 ErrMax= 3.42D-08  0.00D+00 EMaxC= 1.00D-01 BMatC= 6.54D-12 BMatP= 1.23D-10
 IDIUse=1 WtCom= 1.00D+00 WtEn= 0.00D+00
 Coeff-Com: -0.955D-04 0.337D-02-0.379D-02-0.559D-01-0.313D-01 0.136D+00
 Coeff-Com:  0.283D+00 0.668D+00
 Coeff:     -0.955D-04 0.337D-02-0.379D-02-0.559D-01-0.313D-01 0.136D+00
 Coeff:      0.283D+00 0.668D+00
 Gap=     0.270 Goal=   None    Shift=    0.000
 Gap=     0.270 Goal=   None    Shift=    0.000
 RMSDP=3.71D-09 MaxDP=1.94D-07 DE=-4.73D-11 OVMax= 7.27D-07

 SCF Done:  E(ULC-wPBE) =  -1683.70247773     A.U. after   16 cycles
            NFock= 16  Conv=0.37D-08     -V/T= 2.0059
 <Sx>= 0.0000 <Sy>= 0.0000 <Sz>= 0.0000 <S**2>=-0.0000 S=-0.0000
 <L.S>= 0.000000000000E+00
 KE= 1.673791241714D+03 PE=-1.078256886335D+04 EE= 3.996440044894D+03
 Annihilation of the first spin contaminant:
 S**2 before annihilation    -0.0000,   after    -0.0000
 Leave Link  502 at Thu Jul 23 23:21:31 2020, MaxMem=  4026531840 cpu:            2660.8 elap:             342.0
 (Enter /opt/ohpc/pub/libs/gaussian/g16-A.03/sandybridge/g16/l601.exe)
 Copying SCF densities to generalized density rwf, IOpCl= 1 IROHF=0.

 **********************************************************************

            Population analysis using the SCF density.

 **********************************************************************

 Orbital symmetries:
 Alpha Orbitals:
       Occupied  (A) (A) (A) (A) (A) (A) (A) (A) (A) (A) (A) (A)
                 (A) (A) (A) (A) (A) (A) (A) (A) (A) (A) (A) (A)
                 (A) (A) (A) (A) (A) (A) (A) (A) (A) (A) (A) (A)
                 (A) (A) (A) (A) (A) (A) (A) (A) (A) (A) (A) (A)
                 (A) (A) (A) (A) (A) (A) (A) (A) (A) (A) (A) (A)
                 (A) (A) (A) (A) (A) (A) (A) (A) (A) (A) (A) (A)
                 (A) (A) (A) (A) (A) (A) (A) (A) (A) (A) (A) (A)
                 (A) (A) (A) (A) (A) (A) (A) (A) (A) (A) (A) (A)
                 (A) (A) (A) (A) (A) (A) (A) (A) (A) (A) (A) (A)
                 (A) (A) (A) (A) (A) (A) (A) (A) (A) (A) (A) (A)
                 (A) (A) (A) (A) (A) (A) (A) (A) (A) (A) (A) (A)
                 (A)
       Virtual   (A) (A) (A) (A) (A) (A) (A) (A) (A) (A) (A) (A)
                 (A) (A) (A) (A) (A) (A) (A) (A) (A) (A) (A) (A)
                 (A) (A) (A) (A) (A) (A) (A) (A) (A) (A) (A) (A)
                 (A) (A) (A) (A) (A) (A) (A) (A) (A) (A) (A) (A)
                 (A) (A) (A) (A) (A) (A) (A) (A) (A) (A) (A) (A)
                 (A) (A) (A) (A) (A) (A) (A) (A) (A) (A) (A) (A)
                 (A) (A) (A) (A) (A) (A) (A) (A) (A) (A) (A) (A)
                 (A) (A) (A) (A) (A) (A) (A) (A) (A) (A) (A) (A)
                 (A) (A) (A) (A) (A) (A) (A) (A) (A) (A) (A) (A)
                 (A) (A) (A) (A) (A) (A) (A) (A) (A) (A) (A) (A)
                 (A) (A) (A) (A) (A) (A) (A) (A) (A) (A) (A) (A)
                 (A) (A) (A) (A) (A) (A) (A) (A) (A) (A) (A) (A)
                 (A) (A) (A) (A) (A) (A) (A) (A) (A) (A) (A) (A)
                 (A) (A) (A) (A) (A) (A) (A) (A) (A) (A) (A) (A)
                 (A) (A) (A) (A) (A) (A) (A) (A) (A) (A) (A) (A)
                 (A) (A) (A) (A) (A) (A) (A) (A) (A) (A) (A) (A)
                 (A) (A) (A) (A) (A) (A) (A) (A) (A) (A) (A) (A)
                 (A) (A) (A) (A) (A) (A) (A) (A) (A) (A) (A) (A)
                 (A) (A) (A) (A) (A) (A) (A) (A) (A) (A) (A) (A)
                 (A) (A) (A) (A) (A) (A) (A) (A) (A) (A) (A) (A)
                 (A) (A) (A) (A) (A) (A) (A) (A) (A) (A) (A) (A)
                 (A) (A) (A) (A) (A) (A) (A) (A) (A) (A) (A) (A)
                 (A) (A) (A) (A) (A) (A) (A) (A) (A) (A) (A) (A)
                 (A) (A) (A) (A) (A) (A) (A) (A) (A) (A) (A) (A)
                 (A) (A) (A) (A) (A) (A) (A) (A) (A) (A) (A) (A)
                 (A) (A) (A) (A) (A) (A) (A) (A) (A) (A) (A) (A)
                 (A) (A) (A) (A) (A) (A) (A) (A) (A) (A) (A) (A)
                 (A) (A) (A) (A) (A) (A) (A) (A) (A) (A) (A) (A)
                 (A) (A) (A) (A) (A) (A) (A) (A) (A) (A) (A) (A)
                 (A) (A) (A) (A) (A) (A) (A) (A) (A) (A) (A) (A)
                 (A) (A) (A) (A) (A) (A) (A) (A) (A) (A) (A) (A)
                 (A) (A) (A) (A) (A) (A) (A) (A) (A) (A) (A) (A)
                 (A) (A) (A) (A) (A) (A) (A) (A) (A) (A) (A) (A)
                 (A) (A) (A) (A) (A) (A) (A) (A) (A) (A) (A) (A)
                 (A) (A) (A) (A) (A) (A) (A) (A) (A) (A) (A) (A)
                 (A) (A) (A) (A) (A) (A) (A) (A) (A) (A) (A) (A)
                 (A) (A) (A) (A) (A) (A) (A) (A) (A) (A) (A) (A)
                 (A) (A) (A) (A) (A) (A) (A) (A) (A) (A) (A) (A)
                 (A) (A) (A) (A) (A) (A) (A) (A) (A) (A) (A) (A)
                 (A) (A) (A) (A) (A) (A) (A) (A) (A) (A) (A) (A)
                 (A) (A) (A) (A) (A) (A) (A) (A) (A) (A) (A) (A)
                 (A) (A) (A) (A) (A) (A) (A) (A) (A) (A) (A) (A)
                 (A) (A) (A) (A) (A) (A) (A) (A) (A) (A) (A) (A)
                 (A) (A) (A) (A) (A) (A) (A) (A) (A) (A) (A) (A)
 Beta  Orbitals:
       Occupied  (A) (A) (A) (A) (A) (A) (A) (A) (A) (A) (A) (A)
                 (A) (A) (A) (A) (A) (A) (A) (A) (A) (A) (A) (A)
                 (A) (A) (A) (A) (A) (A) (A) (A) (A) (A) (A) (A)
                 (A) (A) (A) (A) (A) (A) (A) (A) (A) (A) (A) (A)
                 (A) (A) (A) (A) (A) (A) (A) (A) (A) (A) (A) (A)
                 (A) (A) (A) (A) (A) (A) (A) (A) (A) (A) (A) (A)
                 (A) (A) (A) (A) (A) (A) (A) (A) (A) (A) (A) (A)
                 (A) (A) (A) (A) (A) (A) (A) (A) (A) (A) (A) (A)
                 (A) (A) (A) (A) (A) (A) (A) (A) (A) (A) (A) (A)
                 (A) (A) (A) (A) (A) (A) (A) (A) (A) (A) (A) (A)
                 (A) (A) (A) (A) (A) (A) (A) (A) (A) (A) (A) (A)
                 (A)
       Virtual   (A) (A) (A) (A) (A) (A) (A) (A) (A) (A) (A) (A)
                 (A) (A) (A) (A) (A) (A) (A) (A) (A) (A) (A) (A)
                 (A) (A) (A) (A) (A) (A) (A) (A) (A) (A) (A) (A)
                 (A) (A) (A) (A) (A) (A) (A) (A) (A) (A) (A) (A)
                 (A) (A) (A) (A) (A) (A) (A) (A) (A) (A) (A) (A)
                 (A) (A) (A) (A) (A) (A) (A) (A) (A) (A) (A) (A)
                 (A) (A) (A) (A) (A) (A) (A) (A) (A) (A) (A) (A)
                 (A) (A) (A) (A) (A) (A) (A) (A) (A) (A) (A) (A)
                 (A) (A) (A) (A) (A) (A) (A) (A) (A) (A) (A) (A)
                 (A) (A) (A) (A) (A) (A) (A) (A) (A) (A) (A) (A)
                 (A) (A) (A) (A) (A) (A) (A) (A) (A) (A) (A) (A)
                 (A) (A) (A) (A) (A) (A) (A) (A) (A) (A) (A) (A)
                 (A) (A) (A) (A) (A) (A) (A) (A) (A) (A) (A) (A)
                 (A) (A) (A) (A) (A) (A) (A) (A) (A) (A) (A) (A)
                 (A) (A) (A) (A) (A) (A) (A) (A) (A) (A) (A) (A)
                 (A) (A) (A) (A) (A) (A) (A) (A) (A) (A) (A) (A)
                 (A) (A) (A) (A) (A) (A) (A) (A) (A) (A) (A) (A)
                 (A) (A) (A) (A) (A) (A) (A) (A) (A) (A) (A) (A)
                 (A) (A) (A) (A) (A) (A) (A) (A) (A) (A) (A) (A)
                 (A) (A) (A) (A) (A) (A) (A) (A) (A) (A) (A) (A)
                 (A) (A) (A) (A) (A) (A) (A) (A) (A) (A) (A) (A)
                 (A) (A) (A) (A) (A) (A) (A) (A) (A) (A) (A) (A)
                 (A) (A) (A) (A) (A) (A) (A) (A) (A) (A) (A) (A)
                 (A) (A) (A) (A) (A) (A) (A) (A) (A) (A) (A) (A)
                 (A) (A) (A) (A) (A) (A) (A) (A) (A) (A) (A) (A)
                 (A) (A) (A) (A) (A) (A) (A) (A) (A) (A) (A) (A)
                 (A) (A) (A) (A) (A) (A) (A) (A) (A) (A) (A) (A)
                 (A) (A) (A) (A) (A) (A) (A) (A) (A) (A) (A) (A)
                 (A) (A) (A) (A) (A) (A) (A) (A) (A) (A) (A) (A)
                 (A) (A) (A) (A) (A) (A) (A) (A) (A) (A) (A) (A)
                 (A) (A) (A) (A) (A) (A) (A) (A) (A) (A) (A) (A)
                 (A) (A) (A) (A) (A) (A) (A) (A) (A) (A) (A) (A)
                 (A) (A) (A) (A) (A) (A) (A) (A) (A) (A) (A) (A)
                 (A) (A) (A) (A) (A) (A) (A) (A) (A) (A) (A) (A)
                 (A) (A) (A) (A) (A) (A) (A) (A) (A) (A) (A) (A)
                 (A) (A) (A) (A) (A) (A) (A) (A) (A) (A) (A) (A)
                 (A) (A) (A) (A) (A) (A) (A) (A) (A) (A) (A) (A)
                 (A) (A) (A) (A) (A) (A) (A) (A) (A) (A) (A) (A)
                 (A) (A) (A) (A) (A) (A) (A) (A) (A) (A) (A) (A)
                 (A) (A) (A) (A) (A) (A) (A) (A) (A) (A) (A) (A)
                 (A) (A) (A) (A) (A) (A) (A) (A) (A) (A) (A) (A)
                 (A) (A) (A) (A) (A) (A) (A) (A) (A) (A) (A) (A)
                 (A) (A) (A) (A) (A) (A) (A) (A) (A) (A) (A) (A)
                 (A) (A) (A) (A) (A) (A) (A) (A) (A) (A) (A) (A)
 The electronic state is 1-A.
 Alpha  occ. eigenvalues --  -24.39857 -24.38720 -24.37922 -10.08831 -10.08594
 Alpha  occ. eigenvalues --  -10.08488 -10.03154 -10.02712 -10.02647 -10.02532
 Alpha  occ. eigenvalues --  -10.02405 -10.02391 -10.02205 -10.02170 -10.02002
 Alpha  occ. eigenvalues --  -10.01962 -10.01803 -10.01756 -10.01752 -10.01701
 Alpha  occ. eigenvalues --  -10.01614 -10.01526 -10.01443 -10.01369 -10.01224
 Alpha  occ. eigenvalues --  -10.01210 -10.01174 -10.01161 -10.01160 -10.01148
 Alpha  occ. eigenvalues --  -10.01050 -10.00958 -10.00953 -10.00937 -10.00846
 Alpha  occ. eigenvalues --  -10.00757 -10.00571 -10.00562 -10.00494  -1.24963
 Alpha  occ. eigenvalues --   -1.22020  -1.19673  -0.92092  -0.91480  -0.90920
 Alpha  occ. eigenvalues --   -0.89889  -0.89249  -0.88079  -0.85086  -0.83125
 Alpha  occ. eigenvalues --   -0.81572  -0.79839  -0.79541  -0.79394  -0.78921
 Alpha  occ. eigenvalues --   -0.78617  -0.78358  -0.77762  -0.76981  -0.74620
 Alpha  occ. eigenvalues --   -0.70328  -0.68880  -0.68162  -0.67481  -0.66667
 Alpha  occ. eigenvalues --   -0.65552  -0.65129  -0.64563  -0.64038  -0.63785
 Alpha  occ. eigenvalues --   -0.63050  -0.62617  -0.59799  -0.59266  -0.59002
 Alpha  occ. eigenvalues --   -0.57294  -0.56480  -0.55241  -0.55152  -0.54784
 Alpha  occ. eigenvalues --   -0.54158  -0.53536  -0.53125  -0.52354  -0.51982
 Alpha  occ. eigenvalues --   -0.51674  -0.51328  -0.50922  -0.50139  -0.49809
 Alpha  occ. eigenvalues --   -0.49751  -0.49628  -0.49271  -0.48623  -0.48517
 Alpha  occ. eigenvalues --   -0.48303  -0.47840  -0.46780  -0.46581  -0.46479
 Alpha  occ. eigenvalues --   -0.45839  -0.45380  -0.44997  -0.44696  -0.44300
 Alpha  occ. eigenvalues --   -0.43642  -0.43166  -0.43019  -0.42736  -0.42365
 Alpha  occ. eigenvalues --   -0.42120  -0.41667  -0.41451  -0.41309  -0.40048
 Alpha  occ. eigenvalues --   -0.39809  -0.39507  -0.39394  -0.38229  -0.37868
 Alpha  occ. eigenvalues --   -0.37393  -0.35410  -0.34285  -0.33216  -0.32435
 Alpha  occ. eigenvalues --   -0.32165  -0.31887  -0.31628  -0.31077  -0.31042
 Alpha  occ. eigenvalues --   -0.30616  -0.29033  -0.27635
 Alpha virt. eigenvalues --   -0.00624   0.00664   0.02047   0.03064   0.03825
 Alpha virt. eigenvalues --    0.03990   0.04113   0.04677   0.05477   0.05772
 Alpha virt. eigenvalues --    0.07183   0.08169   0.11686   0.11844   0.12394
 Alpha virt. eigenvalues --    0.12542   0.13335   0.13878   0.14592   0.15024
 Alpha virt. eigenvalues --    0.15960   0.16276   0.16470   0.16711   0.17153
 Alpha virt. eigenvalues --    0.17433   0.17844   0.18411   0.18637   0.18936
 Alpha virt. eigenvalues --    0.19125   0.19438   0.19748   0.20230   0.20533
 Alpha virt. eigenvalues --    0.20574   0.21171   0.21515   0.21686   0.21999
 Alpha virt. eigenvalues --    0.22116   0.22412   0.23003   0.24145   0.26941
 Alpha virt. eigenvalues --    0.28171   0.28337   0.28862   0.30080   0.30885
 Alpha virt. eigenvalues --    0.31320   0.32296   0.32377   0.32475   0.33071
 Alpha virt. eigenvalues --    0.33567   0.33865   0.33960   0.34641   0.34993
 Alpha virt. eigenvalues --    0.35744   0.36450   0.36707   0.37265   0.37455
 Alpha virt. eigenvalues --    0.38167   0.38673   0.39194   0.40054   0.41304
 Alpha virt. eigenvalues --    0.42345   0.42823   0.43140   0.44997   0.45888
 Alpha virt. eigenvalues --    0.46317   0.47045   0.47171   0.47682   0.48092
 Alpha virt. eigenvalues --    0.48433   0.48723   0.48891   0.49193   0.49546
 Alpha virt. eigenvalues --    0.49610   0.50140   0.50365   0.50814   0.51649
 Alpha virt. eigenvalues --    0.51961   0.52023   0.52653   0.52878   0.53258
 Alpha virt. eigenvalues --    0.53401   0.53700   0.54081   0.54189   0.54575
 Alpha virt. eigenvalues --    0.54627   0.54704   0.54977   0.55215   0.55507
 Alpha virt. eigenvalues --    0.55589   0.56041   0.56188   0.56401   0.56640
 Alpha virt. eigenvalues --    0.56848   0.57052   0.57101   0.57468   0.57590
 Alpha virt. eigenvalues --    0.57880   0.58032   0.58111   0.58493   0.58662
 Alpha virt. eigenvalues --    0.59023   0.59446   0.59701   0.60221   0.60369
 Alpha virt. eigenvalues --    0.60504   0.61126   0.61360   0.61544   0.61784
 Alpha virt. eigenvalues --    0.62401   0.63277   0.63820   0.63963   0.64247
 Alpha virt. eigenvalues --    0.64337   0.64637   0.64681   0.65348   0.65674
 Alpha virt. eigenvalues --    0.66069   0.66707   0.67543   0.68029   0.68388
 Alpha virt. eigenvalues --    0.68600   0.68696   0.69193   0.69497   0.69637
 Alpha virt. eigenvalues --    0.69823   0.70032   0.70565   0.70824   0.70960
 Alpha virt. eigenvalues --    0.71455   0.71914   0.72104   0.72444   0.72742
 Alpha virt. eigenvalues --    0.73068   0.73218   0.73619   0.74033   0.74627
 Alpha virt. eigenvalues --    0.74828   0.74970   0.75249   0.75505   0.76060
 Alpha virt. eigenvalues --    0.76333   0.77039   0.77892   0.78697   0.79021
 Alpha virt. eigenvalues --    0.79359   0.79561   0.80104   0.80229   0.80897
 Alpha virt. eigenvalues --    0.81344   0.81711   0.82246   0.83731   0.83993
 Alpha virt. eigenvalues --    0.84952   0.86181   0.87085   0.88542   0.88772
 Alpha virt. eigenvalues --    0.89608   0.90997   0.91235   0.91705   0.92394
 Alpha virt. eigenvalues --    0.93310   0.93729   0.94396   0.95192   0.95563
 Alpha virt. eigenvalues --    0.95771   0.96219   0.96949   0.97312   0.98059
 Alpha virt. eigenvalues --    0.98370   0.98958   0.99732   0.99829   1.00382
 Alpha virt. eigenvalues --    1.01414   1.01530   1.01913   1.02313   1.02595
 Alpha virt. eigenvalues --    1.02772   1.03245   1.03668   1.03941   1.04180
 Alpha virt. eigenvalues --    1.04676   1.04873   1.05430   1.05674   1.06072
 Alpha virt. eigenvalues --    1.06196   1.06944   1.07132   1.07500   1.07673
 Alpha virt. eigenvalues --    1.08052   1.08577   1.08705   1.08937   1.09250
 Alpha virt. eigenvalues --    1.09418   1.09718   1.10239   1.11115   1.11806
 Alpha virt. eigenvalues --    1.12186   1.12669   1.12783   1.13282   1.13504
 Alpha virt. eigenvalues --    1.13664   1.14132   1.14821   1.15522   1.15903
 Alpha virt. eigenvalues --    1.16213   1.16690   1.17039   1.17538   1.18071
 Alpha virt. eigenvalues --    1.18264   1.19038   1.19410   1.20397   1.21318
 Alpha virt. eigenvalues --    1.21982   1.22916   1.23833   1.24629   1.26833
[...]
    61   Atom       -0.000000      0.000000     -0.000000
    62   Atom       -0.000000      0.000000      0.000000
 --------------------------------------------------------


 ---------------------------------------------------------------------------------
              Anisotropic Spin Dipole Couplings in Principal Axis System
 ---------------------------------------------------------------------------------

       Atom             a.u.   MegaHertz   Gauss  10(-4) cm-1        Axes

              Baa    -0.0000    -0.000    -0.000    -0.000 -0.0482  0.8303  0.5552
     1 C(13)  Bbb     0.0000     0.000     0.000     0.000 -0.1578 -0.5552  0.8166
              Bcc     0.0000     0.000     0.000     0.000  0.9863 -0.0482  0.1578
 
              Baa    -0.0000    -0.000    -0.000    -0.000  0.9373 -0.2866  0.1982
     2 C(13)  Bbb    -0.0000    -0.000    -0.000    -0.000  0.1929  0.9006  0.3896
              Bcc     0.0000     0.000     0.000     0.000 -0.2901 -0.3269  0.8994
 
              Baa    -0.0000    -0.000    -0.000    -0.000  0.7826  0.4852 -0.3900
     3 C(13)  Bbb    -0.0000    -0.000    -0.000    -0.000 -0.3503  0.8611  0.3685
              Bcc     0.0000     0.000     0.000     0.000  0.5146 -0.1518  0.8439
 
              Baa    -0.0000    -0.000    -0.000    -0.000  0.1327  0.7647  0.6306
     4 C(13)  Bbb    -0.0000    -0.000    -0.000    -0.000 -0.5330 -0.4814  0.6958
              Bcc     0.0000     0.000     0.000     0.000  0.8356 -0.4285  0.3437
 
              Baa    -0.0000    -0.000    -0.000    -0.000 -0.4491  0.8564  0.2548
     5 C(13)  Bbb    -0.0000    -0.000    -0.000    -0.000  0.5199  0.0186  0.8540
              Bcc     0.0000     0.000     0.000     0.000  0.7266  0.5160 -0.4536
 
              Baa    -0.0000    -0.000    -0.000    -0.000  0.8410  0.3423 -0.4189
     6 C(13)  Bbb     0.0000     0.000     0.000     0.000 -0.0864  0.8494  0.5207
              Bcc     0.0000     0.000     0.000     0.000  0.5340 -0.4017  0.7439
 
              Baa    -0.0000    -0.000    -0.000    -0.000  0.9973  0.0030  0.0735
     7 C(13)  Bbb     0.0000     0.000     0.000     0.000 -0.0144  0.9879  0.1544
              Bcc     0.0000     0.000     0.000     0.000 -0.0722 -0.1550  0.9853
 
              Baa    -0.0000    -0.000    -0.000    -0.000 -0.0452  0.1719  0.9841
     8 C(13)  Bbb    -0.0000    -0.000    -0.000    -0.000  0.9179  0.3960 -0.0270
              Bcc     0.0000     0.000     0.000     0.000 -0.3943  0.9020 -0.1757
 
              Baa    -0.0000    -0.000    -0.000    -0.000  0.7335 -0.6794 -0.0198
     9 C(13)  Bbb     0.0000     0.000     0.000     0.000  0.5927  0.6249  0.5082
              Bcc     0.0000     0.000     0.000     0.000 -0.3329 -0.3845  0.8610
 
              Baa    -0.0000    -0.000    -0.000    -0.000 -0.5542  0.8168  0.1606
    10 C(13)  Bbb     0.0000     0.000     0.000     0.000 -0.0318 -0.2135  0.9764
              Bcc     0.0000     0.000     0.000     0.000  0.8318  0.5360  0.1443
 
              Baa    -0.0000    -0.000    -0.000    -0.000  0.0102  0.9878 -0.1556
    11 C(13)  Bbb    -0.0000    -0.000    -0.000    -0.000 -0.0407  0.1559  0.9869
              Bcc     0.0000     0.000     0.000     0.000  0.9991 -0.0037  0.0418
 
              Baa    -0.0000    -0.000    -0.000    -0.000  0.8073  0.4948 -0.3217
    12 C(13)  Bbb    -0.0000    -0.000    -0.000    -0.000  0.2095  0.2695  0.9400
              Bcc     0.0000     0.000     0.000     0.000 -0.5518  0.8262 -0.1139
 
              Baa    -0.0000    -0.000    -0.000    -0.000 -0.5255  0.7623 -0.3778
    13 F(19)  Bbb     0.0000     0.000     0.000     0.000 -0.1242  0.3705  0.9205
              Bcc     0.0000     0.000     0.000     0.000  0.8417  0.5307 -0.1000
 
              Baa    -0.0000    -0.000    -0.000    -0.000  0.8866  0.3603  0.2899
    14 C(13)  Bbb     0.0000     0.000     0.000     0.000  0.0398 -0.6841  0.7283
              Bcc     0.0000     0.000     0.000     0.000 -0.4607  0.6342  0.6209
 
              Baa    -0.0000    -0.000    -0.000    -0.000  0.9627 -0.2469  0.1108
    15 C(13)  Bbb     0.0000     0.000     0.000     0.000 -0.0702  0.1675  0.9834
              Bcc     0.0000     0.000     0.000     0.000  0.2614  0.9544 -0.1439
 
              Baa    -0.0000    -0.000    -0.000    -0.000  0.4786  0.6506 -0.5897
    16 C(13)  Bbb     0.0000     0.000     0.000     0.000  0.1267  0.6134  0.7796
              Bcc     0.0000     0.000     0.000     0.000  0.8689 -0.4478  0.2111
 
              Baa    -0.0000    -0.000    -0.000    -0.000 -0.1363  0.9905 -0.0183
    17 C(13)  Bbb     0.0000     0.000     0.000     0.000  0.3323  0.0631  0.9411
              Bcc     0.0000     0.000     0.000     0.000  0.9333  0.1221 -0.3378
 
              Baa    -0.0000    -0.000    -0.000    -0.000  0.7969 -0.2075 -0.5673
    18 C(13)  Bbb    -0.0000    -0.000    -0.000    -0.000  0.3089 -0.6670  0.6780
              Bcc     0.0000     0.000     0.000     0.000  0.5191  0.7155  0.4675
 
              Baa    -0.0000    -0.000    -0.000    -0.000  0.9443 -0.2029 -0.2591
    19 C(13)  Bbb     0.0000     0.000     0.000     0.000  0.3207  0.3910  0.8627
              Bcc     0.0000     0.000     0.000     0.000  0.0737  0.8977 -0.4343
 
              Baa    -0.0000    -0.000    -0.000    -0.000 -0.1823  0.0388  0.9825
    20 C(13)  Bbb    -0.0000    -0.000    -0.000    -0.000 -0.3004  0.9492 -0.0933
              Bcc     0.0000     0.000     0.000     0.000  0.9362  0.3121  0.1614
 
              Baa    -0.0000    -0.000    -0.000    -0.000  0.1827  0.3293  0.9264
    21 C(13)  Bbb     0.0000     0.000     0.000     0.000 -0.0000  0.9422 -0.3349
              Bcc     0.0000     0.000     0.000     0.000  0.9832 -0.0612 -0.1722
 
              Baa    -0.0000    -0.000    -0.000    -0.000  0.6115  0.4780  0.6306
    22 C(13)  Bbb    -0.0000    -0.000    -0.000    -0.000  0.0121  0.7912 -0.6114
              Bcc     0.0000     0.000     0.000     0.000  0.7912 -0.3815 -0.4780
 
              Baa    -0.0000    -0.000    -0.000    -0.000  0.2466  0.5965  0.7638
    23 C(13)  Bbb    -0.0000    -0.000    -0.000    -0.000 -0.0489  0.7948 -0.6049
              Bcc     0.0000     0.000     0.000     0.000  0.9679 -0.1117 -0.2252
 
              Baa    -0.0000    -0.000    -0.000    -0.000  0.8147 -0.5762 -0.0652
    24 C(13)  Bbb    -0.0000    -0.000    -0.000    -0.000  0.5744  0.8173 -0.0457
              Bcc     0.0000     0.000     0.000     0.000  0.0796 -0.0002  0.9968
 
              Baa    -0.0000    -0.000    -0.000    -0.000 -0.4568  0.2438  0.8555
    25 C(13)  Bbb     0.0000     0.000     0.000     0.000 -0.1668  0.9212 -0.3516
              Bcc     0.0000     0.000     0.000     0.000  0.8738  0.3033  0.3801
 
              Baa    -0.0000    -0.000    -0.000    -0.000  0.8980 -0.2151  0.3838
    26 F(19)  Bbb    -0.0000    -0.000    -0.000    -0.000 -0.4321 -0.5951  0.6776
              Bcc     0.0000     0.000     0.000     0.000 -0.0826  0.7743  0.6274
 
              Baa    -0.0000    -0.000    -0.000    -0.000  0.0155 -0.2023  0.9792
    27 C(13)  Bbb    -0.0000    -0.000    -0.000    -0.000 -0.2594  0.9450  0.1994
              Bcc     0.0000     0.000     0.000     0.000  0.9657  0.2571  0.0378
 
              Baa    -0.0000    -0.000    -0.000    -0.000  0.8873 -0.4561 -0.0686
    28 C(13)  Bbb     0.0000     0.000     0.000     0.000  0.0886  0.0226  0.9958
              Bcc     0.0000     0.000     0.000     0.000  0.4526  0.8896 -0.0604
 
              Baa    -0.0000    -0.000    -0.000    -0.000 -0.6027  0.6496  0.4634
    29 C(13)  Bbb     0.0000     0.000     0.000     0.000  0.6489  0.7370 -0.1890
              Bcc     0.0000     0.000     0.000     0.000  0.4643 -0.1868  0.8657
 
              Baa    -0.0000    -0.000    -0.000    -0.000  0.0348 -0.5305  0.8470
    30 C(13)  Bbb    -0.0000    -0.000    -0.000    -0.000  0.2986  0.8143  0.4977
              Bcc     0.0000     0.000     0.000     0.000  0.9537 -0.2356 -0.1867
 
              Baa    -0.0000    -0.000    -0.000    -0.000  0.9284 -0.3528 -0.1163
    31 C(13)  Bbb     0.0000     0.000     0.000     0.000  0.3088  0.5589  0.7696
              Bcc     0.0000     0.000     0.000     0.000  0.2065  0.7504 -0.6279
 
              Baa    -0.0000    -0.000    -0.000    -0.000  0.0195 -0.3641  0.9312
    32 C(13)  Bbb     0.0000     0.000     0.000     0.000  0.2206  0.9100  0.3511
              Bcc     0.0000     0.000     0.000     0.000  0.9752 -0.1986 -0.0981
 
              Baa    -0.0000    -0.000    -0.000    -0.000  0.9207  0.3328 -0.2038
    33 C(13)  Bbb     0.0000     0.000     0.000     0.000 -0.3830  0.6709 -0.6350
              Bcc     0.0000     0.000     0.000     0.000 -0.0746  0.6627  0.7451
 
              Baa    -0.0000    -0.000    -0.000    -0.000  0.0395  0.3385  0.9401
    34 C(13)  Bbb     0.0000     0.000     0.000     0.000 -0.5472  0.7946 -0.2631
              Bcc     0.0000     0.000     0.000     0.000  0.8361  0.5040 -0.2166
 
              Baa    -0.0000    -0.000    -0.000    -0.000 -0.0015  0.3332  0.9428
    35 C(13)  Bbb     0.0000     0.000     0.000     0.000  0.6094  0.7478 -0.2633
              Bcc     0.0000     0.000     0.000     0.000  0.7929 -0.5742  0.2042
 
              Baa    -0.0000    -0.000    -0.000    -0.000 -0.5655  0.7553 -0.3314
    36 C(13)  Bbb     0.0000     0.000     0.000     0.000 -0.0107  0.3951  0.9186
              Bcc     0.0000     0.000     0.000     0.000  0.8247  0.5230 -0.2153
 
              Baa    -0.0000    -0.000    -0.000    -0.000  0.5904  0.7542 -0.2874
    37 C(13)  Bbb    -0.0000    -0.000    -0.000    -0.000  0.7970 -0.6010  0.0600
              Bcc     0.0000     0.000     0.000     0.000  0.1275  0.2645  0.9559
 
              Baa    -0.0000    -0.000    -0.000    -0.000  0.7544  0.6297 -0.1851
    38 C(13)  Bbb     0.0000     0.000     0.000     0.000  0.5712 -0.4910  0.6578
              Bcc     0.0000     0.000     0.000     0.000 -0.3233  0.6020  0.7301
 
              Baa    -0.0000    -0.000    -0.000    -0.000 -0.5848  0.8005  0.1309
    39 F(19)  Bbb    -0.0000    -0.000    -0.000    -0.000  0.1798 -0.0294  0.9833
              Bcc     0.0000     0.000     0.000     0.000  0.7910  0.5986 -0.1267
 
              Baa    -0.0000    -0.000    -0.000    -0.000 -0.0634  0.8360  0.5450
    40 H(1)   Bbb    -0.0000    -0.000    -0.000    -0.000 -0.1604 -0.5475  0.8213
              Bcc     0.0000     0.000     0.000     0.000  0.9850 -0.0353  0.1688
 
              Baa    -0.0000    -0.000    -0.000    -0.000 -0.5827  0.7556  0.2992
    41 H(1)   Bbb    -0.0000    -0.000    -0.000    -0.000  0.7267  0.3197  0.6081
              Bcc     0.0000     0.000     0.000     0.000 -0.3638 -0.5717  0.7354
 
              Baa    -0.0000    -0.000    -0.000    -0.000  0.8013 -0.2920  0.5222
    42 H(1)   Bbb     0.0000     0.000     0.000     0.000 -0.2246  0.6622  0.7149
              Bcc     0.0000     0.000     0.000     0.000  0.5546  0.6901 -0.4650
 
              Baa    -0.0000    -0.000    -0.000    -0.000 -0.5472 -0.4409  0.7114
    43 H(1)   Bbb     0.0000     0.000     0.000     0.000 -0.1461  0.8873  0.4375
              Bcc     0.0000     0.000     0.000     0.000  0.8241 -0.1355  0.5499
 
              Baa    -0.0000    -0.000    -0.000    -0.000  0.9667  0.0640 -0.2476
    44 H(1)   Bbb    -0.0000    -0.000    -0.000    -0.000  0.0761  0.8523  0.5176
              Bcc     0.0000     0.000     0.000     0.000  0.2442 -0.5192  0.8190
 
              Baa    -0.0000    -0.000    -0.000    -0.000 -0.1246  0.4917  0.8618
    45 H(1)   Bbb    -0.0000    -0.000    -0.000    -0.000  0.8068 -0.4554  0.3764
              Bcc     0.0000     0.000     0.000     0.000  0.5775  0.7422 -0.3400
 
              Baa    -0.0000    -0.000    -0.000    -0.000  0.0224 -0.2290  0.9732
    46 H(1)   Bbb     0.0000     0.000     0.000     0.000  0.1569  0.9622  0.2228
              Bcc     0.0000     0.000     0.000     0.000  0.9874 -0.1477 -0.0575
 
              Baa    -0.0000    -0.000    -0.000    -0.000  0.6866  0.6460 -0.3336
    47 H(1)   Bbb     0.0000     0.000     0.000     0.000  0.7266 -0.5932  0.3467
              Bcc     0.0000     0.000     0.000     0.000 -0.0261  0.4804  0.8767
 
              Baa    -0.0000    -0.000    -0.000    -0.000  0.1504  0.9041 -0.4000
    48 H(1)   Bbb     0.0000     0.000     0.000     0.000  0.0279  0.4005  0.9159
              Bcc     0.0000     0.000     0.000     0.000  0.9882 -0.1489  0.0350
 
              Baa    -0.0000    -0.000    -0.000    -0.000 -0.3810 -0.1403  0.9139
    49 H(1)   Bbb    -0.0000    -0.000    -0.000    -0.000  0.8429 -0.4589  0.2810
              Bcc     0.0000     0.000     0.000     0.000  0.3800  0.8773  0.2931
 
              Baa    -0.0000    -0.000    -0.000    -0.000  0.9050 -0.2997 -0.3019
    50 H(1)   Bbb     0.0000     0.000     0.000     0.000  0.3680  0.9076  0.2022
              Bcc     0.0000     0.000     0.000     0.000  0.2134 -0.2941  0.9316
 
              Baa    -0.0000    -0.000    -0.000    -0.000  0.0707  0.8898 -0.4508
    51 H(1)   Bbb     0.0000     0.000     0.000     0.000  0.9895 -0.0054  0.1446
              Bcc     0.0000     0.000     0.000     0.000 -0.1263  0.4563  0.8808
 
              Baa    -0.0000    -0.000    -0.000    -0.000  0.9397  0.0395 -0.3398
    52 H(1)   Bbb     0.0000     0.000     0.000     0.000  0.1668  0.8145  0.5557
              Bcc     0.0000     0.000     0.000     0.000  0.2987 -0.5789  0.7587
 
              Baa    -0.0000    -0.000    -0.000    -0.000  0.0386  0.9497 -0.3109
    53 H(1)   Bbb    -0.0000    -0.000    -0.000    -0.000  0.7111  0.1925  0.6762
              Bcc     0.0000     0.000     0.000     0.000  0.7020 -0.2472 -0.6679
 
              Baa    -0.0000    -0.000    -0.000    -0.000  0.4519 -0.5039  0.7361
    54 H(1)   Bbb    -0.0000    -0.000    -0.000    -0.000  0.8430  0.5110 -0.1678
              Bcc     0.0000     0.000     0.000     0.000 -0.2916  0.6964  0.6558
 
              Baa    -0.0000    -0.000    -0.000    -0.000 -0.4582  0.8093  0.3677
    55 H(1)   Bbb     0.0000     0.000     0.000     0.000  0.8460  0.2702  0.4596
              Bcc     0.0000     0.000     0.000     0.000 -0.2726 -0.5216  0.8084
 
              Baa    -0.0000    -0.000    -0.000    -0.000  0.8779  0.4392  0.1907
    56 H(1)   Bbb    -0.0000    -0.000    -0.000    -0.000 -0.4712  0.7217  0.5071
              Bcc     0.0000     0.000     0.000     0.000  0.0851 -0.5350  0.8405
 
              Baa    -0.0000    -0.000    -0.000    -0.000 -0.2044  0.9624  0.1787
    57 H(1)   Bbb    -0.0000    -0.000    -0.000    -0.000 -0.6170 -0.2684  0.7398
              Bcc     0.0000     0.000     0.000     0.000  0.7599  0.0410  0.6487
 
              Baa    -0.0000    -0.000    -0.000    -0.000  0.0530 -0.4755  0.8781
    58 H(1)   Bbb    -0.0000    -0.000    -0.000    -0.000  0.8477  0.4862  0.2121
              Bcc     0.0000     0.000     0.000     0.000 -0.5278  0.7332  0.4288
 
              Baa    -0.0000    -0.000    -0.000    -0.000  0.0461  0.2508  0.9669
    59 H(1)   Bbb     0.0000     0.000     0.000     0.000  0.7380 -0.6609  0.1362
              Bcc     0.0000     0.000     0.000     0.000  0.6733  0.7073 -0.2156
 
              Baa    -0.0000    -0.000    -0.000    -0.000  0.8981 -0.1415  0.4165
    60 H(1)   Bbb     0.0000     0.000     0.000     0.000 -0.4367 -0.1744  0.8825
              Bcc     0.0000     0.000     0.000     0.000  0.0523  0.9744  0.2185
 
              Baa    -0.0000    -0.000    -0.000    -0.000 -0.2077  0.0606  0.9763
    61 H(1)   Bbb    -0.0000    -0.000    -0.000    -0.000  0.5871  0.8061  0.0748
              Bcc     0.0000     0.000     0.000     0.000  0.7824 -0.5887  0.2030
 
              Baa    -0.0000    -0.000    -0.000    -0.000  0.6805  0.7137 -0.1659
    62 H(1)   Bbb     0.0000     0.000     0.000     0.000  0.7297 -0.6394  0.2422
              Bcc     0.0000     0.000     0.000     0.000 -0.0667  0.2859  0.9559
 

 ---------------------------------------------------------------------------------

 No NMR shielding tensors so no spin-rotation constants.
 Leave Link  601 at Fri Jul 24 00:25:07 2020, MaxMem=  4026531840 cpu:               6.5 elap:               1.0
 (Enter /opt/ohpc/pub/libs/gaussian/g16-A.03/sandybridge/g16/l9999.exe)

 Test job not archived.
 1\1\GINC-SKYLAKE046\FOpt\ULC-wPBE\CC-pVDZ\C36H23F3\RDU230\24-Jul-2020\
 0\\#P uLC-wPBE/cc-pVDZ iop(3/107=0187400000, 3/108=0187400000) opt\\H2
 3 C36 F3\\0,1\C,-12.3411307626,-0.2053504619,-0.1480072874\C,-11.61677
 98245,-1.1610789151,0.5734478411\C,-10.2190947953,-1.1142784559,0.5948
 137628\C,-9.5189262741,-0.1127441581,-0.1046164249\C,-10.2592355877,0.
 8474643653,-0.8211468632\C,-11.6563546404,0.7981423312,-0.8438971274\C
 ,-8.0303568805,-0.1023516008,-0.0963927341\C,-7.2868667066,-1.29174561
 81,-0.2217861375\C,-5.890862782,-1.2999520021,-0.200248339\C,-5.164849
 9764,-0.1036417875,-0.0481854451\C,-5.8883419223,1.0946427386,0.079262
 4024\C,-7.2800721009,1.0759597271,0.0521009395\F,-7.9256755738,2.26368
 08097,0.1787906305\C,-3.6770040143,-0.0993652497,-0.0242002891\C,-2.96
 60688235,0.7357191542,0.8579655553\C,-1.5703549296,0.738220202,0.88534
 57248\C,-0.8293287604,-0.0926325263,0.0233485821\C,-1.5397686361,-0.93
 06865644,-0.8563580343\C,-2.9360399381,-0.934527823,-0.8802137605\C,0.
 6579678583,-0.0804875643,0.0074608432\C,1.3803781748,-0.1326889286,-1.
 200618678\C,2.7760612138,-0.140320849,-1.2303778646\C,3.523554722,-0.0
 962301575,-0.0382368709\C,2.8212373268,-0.0418377486,1.1781470592\C,1.
 4293085407,-0.0333406972,1.1807511657\F,0.8044222735,0.0015635858,2.38
 57146151\C,5.0113501361,-0.1021322497,-0.0571630011\C,5.7206327273,-0.
 9025396917,-0.9711838943\C,7.1170650774,-0.9083764817,-0.9882917307\C,
 7.8587561242,-0.1149023501,-0.0934814945\C,7.1496164049,0.6919640654,0
 .8164211265\C,5.753713327,0.6942626671,0.8347592012\C,9.3464431621,-0.
 1633026568,-0.1061187789\C,10.0357957823,-1.3838473538,-0.2480027193\C
 ,11.4323315504,-1.442175821,-0.2785368468\C,12.1832782952,-0.265995639
 ,-0.1680611801\C,11.5311927604,0.9626451292,-0.0253998252\C,10.1380094
 086,0.9926791766,0.0044954995\F,9.533166353,2.2011846374,0.1353825354\
 H,-13.4387446909,-0.2401909415,-0.1652920805\H,-12.1432810178,-1.94733
 59132,1.131248216\H,-9.6582940921,-1.8557644602,1.1802498738\H,-9.7326
 017663,1.6359633153,-1.3722019328\H,-12.2156996282,1.5523503926,-1.413
 8739654\H,-7.8306725725,-2.237032313,-0.3518160701\H,-5.3545056612,-2.
 2540005447,-0.2839951107\H,-5.3823300334,2.062686922,0.1822506696\H,-3
 .5177546552,1.382770483,1.5534297086\H,-1.0459697993,1.396732424,1.587
 9674948\H,-0.9875353785,-1.6019740982,-1.5280162623\H,-3.4618356013,-1
 .5869349169,-1.590401228\H,0.8204875116,-0.1381848762,-2.1454166593\H,
 3.2957861649,-0.1471928618,-2.197153591\H,3.3438212349,-0.0358519552,2
 .1428123389\H,5.1696855803,-1.5463026238,-1.6701205975\H,7.6447089947,
 -1.5348098459,-1.7203263104\H,7.6993836473,1.3278008985,1.5205755085\H
 ,5.2272217532,1.3464927317,1.5447559147\H,9.4494891532,-2.3102164596,-
 0.3150821592\H,11.9356481141,-2.4120594937,-0.3822428196\H,13.28040067
 32,-0.3010012878,-0.1893507495\H,12.0810507794,1.908153187,0.059174653
 9\\Version=EM64L-G16RevA.03\State=1-A\HF=-1683.8080862\S2=0.\S2-1=0.\S
 2A=0.\RMSD=7.758e-09\RMSF=2.973e-06\Dipole=0.705445,-0.7226586,-0.4418
 526\Quadrupole=17.4085909,-6.8976076,-10.5109833,-0.3080942,0.4418505,
 3.5147644\PG=C01 [X(C36H23F3)]\\@


 NO HUMAN INVESTIGATION CAN BECOME REAL SCIENCE
 WITHOUT GOING THROUGH MATHEMATICAL PEOPLE.
 -- LEONARDO DA VINCI, IN "PENSIERI" CA. 1492
 Job cpu time:       0 days  8 hours 52 minutes 52.3 seconds.
 Elapsed time:       0 days  1 hours  9 minutes 26.4 seconds.
 File lengths (MBytes):  RWF=    536 Int=      0 D2E=      0 Chk=     48 Scr=      8
 Normal termination of Gaussian 16 at Fri Jul 24 00:25:07 2020.
