 Entering Gaussian System, Link 0=g16
 Input=mols_65_5_09_c-cF-N_opt_0.gjf
 Output=mols_65_5_09_c-cF-N_opt_0.log
 Initial command:
 /opt/ohpc/pub/libs/gaussian/g16-A.03/sandybridge/g16/l1.exe "/mnt/gpfs2_4m/scratch/rdu230/ondemand/projects/dihedral_energies/7trial/wtuning/mols_65_5_09_c-cF-N/Gau-220055.inp" -scrdir="/mnt/gpfs2_4m/scratch/rdu230/ondemand/projects/dihedral_energies/7trial/wtuning/mols_65_5_09_c-cF-N/"
 Entering Link 1 = /opt/ohpc/pub/libs/gaussian/g16-A.03/sandybridge/g16/l1.exe PID=    220056.
  
 Copyright (c) 1988,1990,1992,1993,1995,1998,2003,2009,2016,
            Gaussian, Inc.  All Rights Reserved.
  
 This is part of the Gaussian(R) 16 program.  It is based on
 the Gaussian(R) 09 system (copyright 2009, Gaussian, Inc.),
 the Gaussian(R) 03 system (copyright 2003, Gaussian, Inc.),
 the Gaussian(R) 98 system (copyright 1998, Gaussian, Inc.),
 the Gaussian(R) 94 system (copyright 1995, Gaussian, Inc.),
 the Gaussian 92(TM) system (copyright 1992, Gaussian, Inc.),
 the Gaussian 90(TM) system (copyright 1990, Gaussian, Inc.),
 the Gaussian 88(TM) system (copyright 1988, Gaussian, Inc.),
 the Gaussian 86(TM) system (copyright 1986, Carnegie Mellon
 University), and the Gaussian 82(TM) system (copyright 1983,
 Carnegie Mellon University). Gaussian is a federally registered
 trademark of Gaussian, Inc.
  
 This software contains proprietary and confidential information,
 including trade secrets, belonging to Gaussian, Inc.
  
 This software is provided under written license and may be
 used, copied, transmitted, or stored only in accord with that
 written license.
  
 The following legend is applicable only to US Government
 contracts under FAR:
  
                    RESTRICTED RIGHTS LEGEND
  
 Use, reproduction and disclosure by the US Government is
 subject to restrictions as set forth in subparagraphs (a)
 and (c) of the Commercial Computer Software - Restricted
 Rights clause in FAR 52.227-19.
  
 Gaussian, Inc.
 340 Quinnipiac St., Bldg. 40, Wallingford CT 06492
  
  
 ---------------------------------------------------------------
 Warning -- This program may not be used in any manner that
 competes with the business of Gaussian, Inc. or will provide
 assistance to any competitor of Gaussian, Inc.  The licensee
 of this program is prohibited from giving any competitor of
 Gaussian, Inc. access to this program.  By using this program,
 the user acknowledges that Gaussian, Inc. is engaged in the
 business of creating and licensing software in the field of
 computational chemistry and represents and warrants to the
 licensee that it is not a competitor of Gaussian, Inc. and that
 it will not use this program in any manner prohibited above.
 ---------------------------------------------------------------
  

 Cite this work as:
 Gaussian 16, Revision A.03,
 M. J. Frisch, G. W. Trucks, H. B. Schlegel, G. E. Scuseria, 
 M. A. Robb, J. R. Cheeseman, G. Scalmani, V. Barone, 
 G. A. Petersson, H. Nakatsuji, X. Li, M. Caricato, A. V. Marenich, 
 J. Bloino, B. G. Janesko, R. Gomperts, B. Mennucci, H. P. Hratchian, 
 J. V. Ortiz, A. F. Izmaylov, J. L. Sonnenberg, D. Williams-Young, 
 F. Ding, F. Lipparini, F. Egidi, J. Goings, B. Peng, A. Petrone, 
 T. Henderson, D. Ranasinghe, V. G. Zakrzewski, J. Gao, N. Rega, 
 G. Zheng, W. Liang, M. Hada, M. Ehara, K. Toyota, R. Fukuda, 
 J. Hasegawa, M. Ishida, T. Nakajima, Y. Honda, O. Kitao, H. Nakai, 
 T. Vreven, K. Throssell, J. A. Montgomery, Jr., J. E. Peralta, 
 F. Ogliaro, M. J. Bearpark, J. J. Heyd, E. N. Brothers, K. N. Kudin, 
 V. N. Staroverov, T. A. Keith, R. Kobayashi, J. Normand, 
 K. Raghavachari, A. P. Rendell, J. C. Burant, S. S. Iyengar, 
 J. Tomasi, M. Cossi, J. M. Millam, M. Klene, C. Adamo, R. Cammi, 
 J. W. Ochterski, R. L. Martin, K. Morokuma, O. Farkas, 
 J. B. Foresman, and D. J. Fox, Gaussian, Inc., Wallingford CT, 2016.
 
 ******************************************
 Gaussian 16:  EM64L-G16RevA.03 25-Dec-2016
                24-Jul-2020 
 ******************************************
 %mem=30GB
 %nproc=8
 Will use up to    8 processors via shared memory.
 ---------------------------------------------------------------
 #P uLC-wPBE/cc-pVDZ iop(3/107=0050500000, 3/108=0050500000) opt
 ---------------------------------------------------------------
 1/18=20,19=15,26=3,38=1/1,3;
 2/9=110,12=2,17=6,18=5,40=1/2;
 3/5=16,11=2,25=1,30=1,71=1,74=-41,107=50500000,108=50500000,116=2/1,2,3;
 4//1;
 5/5=2,38=5/2;
 6/7=2,8=2,9=2,10=2,28=1/1;
 7//1,2,3,16;
 1/18=20,19=15,26=3/3(2);
 2/9=110/2;
 99//99;
 2/9=110/2;
 3/5=16,11=2,25=1,30=1,71=1,74=-41,107=50500000,108=50500000,116=2/1,2,3;
 4/5=5,16=3,69=1/1;
 5/5=2,38=5/2;
 7//1,2,3,16;
 1/18=20,19=15,26=3/3(-5);
 2/9=110/2;
 6/7=2,8=2,9=2,10=2,19=2,28=1/1;
 99/9=1/99;
 Leave Link    1 at Fri Jul 24 12:28:09 2020, MaxMem=  4026531840 cpu:               3.1 elap:               0.5
 (Enter /opt/ohpc/pub/libs/gaussian/g16-A.03/sandybridge/g16/l101.exe)
 ----------------
 H22 C45 S5 N5 F5
 ----------------
 Symbolic Z-matrix:
 Charge =  0 Multiplicity = 1
 C                     19.49401   0.24817  -0.26817 
 C                     18.72938   1.35573   0.1046 
 C                     17.31277   1.09032   0.38836 
 C                     16.76516  -0.22499   0.15212 
 C                     17.60593  -1.18418  -0.28026 
 F                     17.12694  -2.41006  -0.45899 
 C                     18.95439  -0.97565  -0.50012 
 C                     15.37525  -0.49945   0.40528 
 N                     14.93511  -1.50591   0.97775 
 C                     13.51729  -1.54472   1.02358 
 C                     12.96116  -0.36415   0.45542 
 S                     14.14228   0.6468   -0.05605 
 C                     11.52139  -0.04413   0.28738 
 C                     10.95298   1.23718   0.61203 
 C                     9.68388   1.4983    0.44041 
 C                     8.74736   0.50865   0.07326 
 C                     9.2718   -0.79378  -0.27591 
 F                     8.42098  -1.7568   -0.71393 
 C                     10.64198  -1.03742  -0.13782 
 C                     7.32392   0.81988  -0.15541 
 N                     6.89708   2.03829  -0.43844 
 C                     5.51803   2.089    -0.51643 
 C                     4.82442   0.88155  -0.24611 
 S                     6.03154  -0.27605   0.22248 
 C                     3.41397   0.56183  -0.22249 
 C                     2.95382  -0.76782  -0.52673 
 C                     1.62032  -0.97446  -0.54605 
 C                     0.61047  -0.03506  -0.33145 
 C                     1.15659   1.32066  -0.08118 
 F                     0.29888   2.3883    0.10036 
 C                     2.46842   1.56753  -0.11066 
 C                    -0.80164  -0.40087  -0.38408 
 N                    -1.22112  -1.49363  -0.84629 
 C                    -2.58457  -1.57042  -0.72633 
 C                    -3.28886  -0.44804  -0.26441 
 S                    -2.1143    0.69796   0.13485 
 C                    -4.66497  -0.23904  -0.13527 
 C                    -5.24277   1.03178  -0.3996 
 C                    -6.602     1.24087  -0.3146 
 C                    -7.50318   0.28867   0.22054 
 C                    -6.87706  -0.93951   0.47415 
 F                    -7.60985  -1.92546   1.0115 
 C                    -5.57358  -1.21706   0.37301 
 C                    -8.8697    0.53974   0.37148 
 N                    -9.39099   1.78302   0.68907 
 C                    -10.79516   1.72528   0.74315 
 C                    -11.35038   0.58405   0.36701 
 S                    -10.07434  -0.59158  -0.01388 
 C                    -12.78192   0.21235   0.27657 
 C                    -13.23805  -1.09546   0.56888 
 C                    -14.65899  -1.39253   0.42928 
 C                    -15.59606  -0.34262   0.02386 
 C                    -15.06822   0.85836  -0.28289 
 F                    -15.81732   1.88486  -0.80554 
 C                    -13.6684   1.17726  -0.25367 
 C                    -16.94609  -0.75448  -0.04561 
 N                    -17.36215  -1.9647   -0.19324 
 C                    -18.79377  -1.98829  -0.17618 
 C                    -19.41852  -0.84834  -0.09097 
 S                    -18.2654   0.40255   0.0264 
 H                     20.56421   0.46365  -0.49136 
 H                     19.11727   2.2586    0.28479 
 H                     16.74595   1.89888   0.65642 
 H                     19.60037  -1.85885  -0.83871 
 H                     12.98986  -2.29302   1.51919 
 H                     11.61781   2.02318   0.92932 
 H                     9.27736   2.55898   0.6559 
 H                     10.93771  -2.08783  -0.35459 
 H                     5.04063   2.98852  -0.8235 
 H                     3.60919  -1.51813  -0.66829 
 H                     1.23694  -2.057    -0.68573 
 H                     2.79815   2.56823   0.14848 
 H                    -3.11206  -2.46262  -1.14247 
 H                    -4.60694   1.82385  -0.80662 
 H                    -7.03292   2.28075  -0.49068 
 H                    -5.12036  -2.21912   0.63567 
 H                    -11.25104   2.61595   1.07837 
 H                    -12.59122  -1.85765   0.8478 
 H                    -14.99075  -2.31415   0.65578 
 H                    -13.37911   2.15587  -0.44966 
 H                    -19.32223  -2.95894  -0.28546 
 H                    -20.50649  -0.56919  -0.12542 
 
 ITRead=  0  0  0  0  0  0  0  0  0  0  0  0  0  0  0  0  0  0  0  0
 ITRead=  0  0  0  0  0  0  0  0  0  0  0  0  0  0  0  0  0  0  0  0
 ITRead=  0  0  0  0  0  0  0  0  0  0  0  0  0  0  0  0  0  0  0  0
 ITRead=  0  0  0  0  0  0  0  0  0  0  0  0  0  0  0  0  0  0  0  0
 ITRead=  0  0
 MicOpt= -1 -1 -1 -1 -1 -1 -1 -1 -1 -1 -1 -1 -1 -1 -1 -1 -1 -1 -1 -1
 MicOpt= -1 -1 -1 -1 -1 -1 -1 -1 -1 -1 -1 -1 -1 -1 -1 -1 -1 -1 -1 -1
 MicOpt= -1 -1 -1 -1 -1 -1 -1 -1 -1 -1 -1 -1 -1 -1 -1 -1 -1 -1 -1 -1
 MicOpt= -1 -1 -1 -1 -1 -1 -1 -1 -1 -1 -1 -1 -1 -1 -1 -1 -1 -1 -1 -1
 MicOpt= -1 -1
 NAtoms=     82 NQM=       82 NQMF=       0 NMMI=      0 NMMIF=      0
                NMic=       0 NMicF=      0.
                    Isotopes and Nuclear Properties:
 (Nuclear quadrupole moments (NQMom) in fm**2, nuclear magnetic moments (NMagM)
  in nuclear magnetons)

  Atom         1           2           3           4           5           6           7           8           9          10
 IAtWgt=          12          12          12          12          12          19          12          12          14          12
 AtmWgt=  12.0000000  12.0000000  12.0000000  12.0000000  12.0000000  18.9984033  12.0000000  12.0000000  14.0030740  12.0000000
 NucSpn=           0           0           0           0           0           1           0           0           2           0
 AtZEff=  -0.0000000  -0.0000000  -0.0000000  -0.0000000  -0.0000000  -0.0000000  -0.0000000  -0.0000000  -0.0000000  -0.0000000
 NQMom=    0.0000000   0.0000000   0.0000000   0.0000000   0.0000000   0.0000000   0.0000000   0.0000000   2.0440000   0.0000000
 NMagM=    0.0000000   0.0000000   0.0000000   0.0000000   0.0000000   2.6288670   0.0000000   0.0000000   0.4037610   0.0000000
 AtZNuc=   6.0000000   6.0000000   6.0000000   6.0000000   6.0000000   9.0000000   6.0000000   6.0000000   7.0000000   6.0000000

  Atom        11          12          13          14          15          16          17          18          19          20
 IAtWgt=          12          32          12          12          12          12          12          19          12          12
 AtmWgt=  12.0000000  31.9720718  12.0000000  12.0000000  12.0000000  12.0000000  12.0000000  18.9984033  12.0000000  12.0000000
 NucSpn=           0           0           0           0           0           0           0           1           0           0
 AtZEff=  -0.0000000  -0.0000000  -0.0000000  -0.0000000  -0.0000000  -0.0000000  -0.0000000  -0.0000000  -0.0000000  -0.0000000
 NQMom=    0.0000000   0.0000000   0.0000000   0.0000000   0.0000000   0.0000000   0.0000000   0.0000000   0.0000000   0.0000000
 NMagM=    0.0000000   0.0000000   0.0000000   0.0000000   0.0000000   0.0000000   0.0000000   2.6288670   0.0000000   0.0000000
 AtZNuc=   6.0000000  16.0000000   6.0000000   6.0000000   6.0000000   6.0000000   6.0000000   9.0000000   6.0000000   6.0000000

  Atom        21          22          23          24          25          26          27          28          29          30
 IAtWgt=          14          12          12          32          12          12          12          12          12          19
 AtmWgt=  14.0030740  12.0000000  12.0000000  31.9720718  12.0000000  12.0000000  12.0000000  12.0000000  12.0000000  18.9984033
 NucSpn=           2           0           0           0           0           0           0           0           0           1
 AtZEff=  -0.0000000  -0.0000000  -0.0000000  -0.0000000  -0.0000000  -0.0000000  -0.0000000  -0.0000000  -0.0000000  -0.0000000
 NQMom=    2.0440000   0.0000000   0.0000000   0.0000000   0.0000000   0.0000000   0.0000000   0.0000000   0.0000000   0.0000000
 NMagM=    0.4037610   0.0000000   0.0000000   0.0000000   0.0000000   0.0000000   0.0000000   0.0000000   0.0000000   2.6288670
 AtZNuc=   7.0000000   6.0000000   6.0000000  16.0000000   6.0000000   6.0000000   6.0000000   6.0000000   6.0000000   9.0000000

  Atom        31          32          33          34          35          36          37          38          39          40
 IAtWgt=          12          12          14          12          12          32          12          12          12          12
 AtmWgt=  12.0000000  12.0000000  14.0030740  12.0000000  12.0000000  31.9720718  12.0000000  12.0000000  12.0000000  12.0000000
 NucSpn=           0           0           2           0           0           0           0           0           0           0
 AtZEff=  -0.0000000  -0.0000000  -0.0000000  -0.0000000  -0.0000000  -0.0000000  -0.0000000  -0.0000000  -0.0000000  -0.0000000
 NQMom=    0.0000000   0.0000000   2.0440000   0.0000000   0.0000000   0.0000000   0.0000000   0.0000000   0.0000000   0.0000000
 NMagM=    0.0000000   0.0000000   0.4037610   0.0000000   0.0000000   0.0000000   0.0000000   0.0000000   0.0000000   0.0000000
 AtZNuc=   6.0000000   6.0000000   7.0000000   6.0000000   6.0000000  16.0000000   6.0000000   6.0000000   6.0000000   6.0000000

  Atom        41          42          43          44          45          46          47          48          49          50
 IAtWgt=          12          19          12          12          14          12          12          32          12          12
 AtmWgt=  12.0000000  18.9984033  12.0000000  12.0000000  14.0030740  12.0000000  12.0000000  31.9720718  12.0000000  12.0000000
 NucSpn=           0           1           0           0           2           0           0           0           0           0
 AtZEff=  -0.0000000  -0.0000000  -0.0000000  -0.0000000  -0.0000000  -0.0000000  -0.0000000  -0.0000000  -0.0000000  -0.0000000
 NQMom=    0.0000000   0.0000000   0.0000000   0.0000000   2.0440000   0.0000000   0.0000000   0.0000000   0.0000000   0.0000000
 NMagM=    0.0000000   2.6288670   0.0000000   0.0000000   0.4037610   0.0000000   0.0000000   0.0000000   0.0000000   0.0000000
 AtZNuc=   6.0000000   9.0000000   6.0000000   6.0000000   7.0000000   6.0000000   6.0000000  16.0000000   6.0000000   6.0000000

  Atom        51          52          53          54          55          56          57          58          59          60
 IAtWgt=          12          12          12          19          12          12          14          12          12          32
 AtmWgt=  12.0000000  12.0000000  12.0000000  18.9984033  12.0000000  12.0000000  14.0030740  12.0000000  12.0000000  31.9720718
 NucSpn=           0           0           0           1           0           0           2           0           0           0
 AtZEff=  -0.0000000  -0.0000000  -0.0000000  -0.0000000  -0.0000000  -0.0000000  -0.0000000  -0.0000000  -0.0000000  -0.0000000
 NQMom=    0.0000000   0.0000000   0.0000000   0.0000000   0.0000000   0.0000000   2.0440000   0.0000000   0.0000000   0.0000000
 NMagM=    0.0000000   0.0000000   0.0000000   2.6288670   0.0000000   0.0000000   0.4037610   0.0000000   0.0000000   0.0000000
 AtZNuc=   6.0000000   6.0000000   6.0000000   9.0000000   6.0000000   6.0000000   7.0000000   6.0000000   6.0000000  16.0000000

  Atom        61          62          63          64          65          66          67          68          69          70
 IAtWgt=           1           1           1           1           1           1           1           1           1           1
 AtmWgt=   1.0078250   1.0078250   1.0078250   1.0078250   1.0078250   1.0078250   1.0078250   1.0078250   1.0078250   1.0078250
 NucSpn=           1           1           1           1           1           1           1           1           1           1
 AtZEff=  -0.0000000  -0.0000000  -0.0000000  -0.0000000  -0.0000000  -0.0000000  -0.0000000  -0.0000000  -0.0000000  -0.0000000
 NQMom=    0.0000000   0.0000000   0.0000000   0.0000000   0.0000000   0.0000000   0.0000000   0.0000000   0.0000000   0.0000000
 NMagM=    2.7928460   2.7928460   2.7928460   2.7928460   2.7928460   2.7928460   2.7928460   2.7928460   2.7928460   2.7928460
 AtZNuc=   1.0000000   1.0000000   1.0000000   1.0000000   1.0000000   1.0000000   1.0000000   1.0000000   1.0000000   1.0000000

  Atom        71          72          73          74          75          76          77          78          79          80
 IAtWgt=           1           1           1           1           1           1           1           1           1           1
 AtmWgt=   1.0078250   1.0078250   1.0078250   1.0078250   1.0078250   1.0078250   1.0078250   1.0078250   1.0078250   1.0078250
 NucSpn=           1           1           1           1           1           1           1           1           1           1
 AtZEff=  -0.0000000  -0.0000000  -0.0000000  -0.0000000  -0.0000000  -0.0000000  -0.0000000  -0.0000000  -0.0000000  -0.0000000
 NQMom=    0.0000000   0.0000000   0.0000000   0.0000000   0.0000000   0.0000000   0.0000000   0.0000000   0.0000000   0.0000000
 NMagM=    2.7928460   2.7928460   2.7928460   2.7928460   2.7928460   2.7928460   2.7928460   2.7928460   2.7928460   2.7928460
 AtZNuc=   1.0000000   1.0000000   1.0000000   1.0000000   1.0000000   1.0000000   1.0000000   1.0000000   1.0000000   1.0000000

  Atom        81          82
 IAtWgt=           1           1
 AtmWgt=   1.0078250   1.0078250
 NucSpn=           1           1
 AtZEff=  -0.0000000  -0.0000000
 NQMom=    0.0000000   0.0000000
 NMagM=    2.7928460   2.7928460
 AtZNuc=   1.0000000   1.0000000
 Leave Link  101 at Fri Jul 24 12:28:10 2020, MaxMem=  4026531840 cpu:               3.1 elap:               0.4
 (Enter /opt/ohpc/pub/libs/gaussian/g16-A.03/sandybridge/g16/l103.exe)

 GradGradGradGradGradGradGradGradGradGradGradGradGradGradGradGradGradGrad
 Berny optimization.
 Initialization pass.
                           ----------------------------
                           !    Initial Parameters    !
                           ! (Angstroms and Degrees)  !
 --------------------------                            --------------------------
 ! Name  Definition              Value          Derivative Info.                !
 --------------------------------------------------------------------------------
 ! R1    R(1,2)                  1.3965         estimate D2E/DX2                !
 ! R2    R(1,7)                  1.3575         estimate D2E/DX2                !
 ! R3    R(1,61)                 1.1143         estimate D2E/DX2                !
 ! R4    R(2,3)                  1.4689         estimate D2E/DX2                !
 ! R5    R(2,62)                 0.999          estimate D2E/DX2                !
 ! R6    R(3,4)                  1.4442         estimate D2E/DX2                !
 ! R7    R(3,63)                 1.0232         estimate D2E/DX2                !
 ! R8    R(4,5)                  1.3468         estimate D2E/DX2                !
 ! R9    R(4,8)                  1.4392         estimate D2E/DX2                !
 ! R10   R(5,6)                  1.3282         estimate D2E/DX2                !
 ! R11   R(5,7)                  1.3821         estimate D2E/DX2                !
 ! R12   R(7,64)                 1.1454         estimate D2E/DX2                !
 ! R13   R(8,9)                  1.2387         estimate D2E/DX2                !
 ! R14   R(8,12)                 1.7455         estimate D2E/DX2                !
 ! R15   R(9,10)                 1.4191         estimate D2E/DX2                !
 ! R16   R(10,11)                1.4233         estimate D2E/DX2                !
 ! R17   R(10,65)                1.041          estimate D2E/DX2                !
 ! R18   R(11,12)                1.6367         estimate D2E/DX2                !
 ! R19   R(11,13)                1.4844         estimate D2E/DX2                !
 ! R20   R(13,14)                1.4388         estimate D2E/DX2                !
 ! R21   R(13,19)                1.3931         estimate D2E/DX2                !
 ! R22   R(14,15)                1.307          estimate D2E/DX2                !
 ! R23   R(14,66)                1.0773         estimate D2E/DX2                !
 ! R24   R(15,16)                1.4111         estimate D2E/DX2                !
 ! R25   R(15,67)                1.1562         estimate D2E/DX2                !
 ! R26   R(16,17)                1.4468         estimate D2E/DX2                !
 ! R27   R(16,20)                1.4749         estimate D2E/DX2                !
 ! R28   R(17,18)                1.3576         estimate D2E/DX2                !
 ! R29   R(17,19)                1.3985         estimate D2E/DX2                !
 ! R30   R(19,68)                1.1126         estimate D2E/DX2                !
 ! R31   R(20,21)                1.3217         estimate D2E/DX2                !
 ! R32   R(20,24)                1.7361         estimate D2E/DX2                !
 ! R33   R(21,22)                1.3822         estimate D2E/DX2                !
 ! R34   R(22,23)                1.4185         estimate D2E/DX2                !
 ! R35   R(22,69)                1.0636         estimate D2E/DX2                !
 ! R36   R(23,24)                1.7369         estimate D2E/DX2                !
 ! R37   R(23,25)                1.4464         estimate D2E/DX2                !
 ! R38   R(25,26)                1.4395         estimate D2E/DX2                !
 ! R39   R(25,31)                1.3849         estimate D2E/DX2                !
 ! R40   R(26,27)                1.3496         estimate D2E/DX2                !
 ! R41   R(26,70)                1.0062         estimate D2E/DX2                !
 ! R42   R(27,28)                1.3958         estimate D2E/DX2                !
 ! R43   R(27,71)                1.1569         estimate D2E/DX2                !
 ! R44   R(28,29)                1.4829         estimate D2E/DX2                !
 ! R45   R(28,32)                1.4597         estimate D2E/DX2                !
 ! R46   R(29,30)                1.3815         estimate D2E/DX2                !
 ! R47   R(29,31)                1.3352         estimate D2E/DX2                !
 ! R48   R(31,72)                1.085          estimate D2E/DX2                !
 ! R49   R(32,33)                1.2585         estimate D2E/DX2                !
 ! R50   R(32,36)                1.7888         estimate D2E/DX2                !
 ! R51   R(33,34)                1.3709         estimate D2E/DX2                !
 ! R52   R(34,35)                1.4033         estimate D2E/DX2                !
 ! R53   R(34,73)                1.1169         estimate D2E/DX2                !
 ! R54   R(35,36)                1.6889         estimate D2E/DX2                !
 ! R55   R(35,37)                1.3979         estimate D2E/DX2                !
 ! R56   R(37,38)                1.4208         estimate D2E/DX2                !
 ! R57   R(37,43)                1.4284         estimate D2E/DX2                !
 ! R58   R(38,39)                1.3778         estimate D2E/DX2                !
 ! R59   R(38,74)                1.0942         estimate D2E/DX2                !
 ! R60   R(39,40)                1.416          estimate D2E/DX2                !
 ! R61   R(39,75)                1.1393         estimate D2E/DX2                !
 ! R62   R(40,41)                1.4017         estimate D2E/DX2                !
 ! R63   R(40,44)                1.3976         estimate D2E/DX2                !
 ! R64   R(41,42)                1.3408         estimate D2E/DX2                !
 ! R65   R(41,43)                1.3365         estimate D2E/DX2                !
 ! R66   R(43,76)                1.1307         estimate D2E/DX2                !
 ! R67   R(44,45)                1.385          estimate D2E/DX2                !
 ! R68   R(44,48)                1.6969         estimate D2E/DX2                !
 ! R69   R(45,46)                1.4064         estimate D2E/DX2                !
 ! R70   R(46,47)                1.3237         estimate D2E/DX2                !
 ! R71   R(46,77)                1.0552         estimate D2E/DX2                !
 ! R72   R(47,48)                1.7764         estimate D2E/DX2                !
 ! R73   R(47,49)                1.4818         estimate D2E/DX2                !
 ! R74   R(49,50)                1.4156         estimate D2E/DX2                !
 ! R75   R(49,55)                1.4135         estimate D2E/DX2                !
 ! R76   R(50,51)                1.4584         estimate D2E/DX2                !
 ! R77   R(50,78)                1.0378         estimate D2E/DX2                !
 ! R78   R(51,52)                1.4645         estimate D2E/DX2                !
 ! R79   R(51,79)                1.0054         estimate D2E/DX2                !
 ! R80   R(52,53)                1.3472         estimate D2E/DX2                !
 ! R81   R(52,56)                1.4132         estimate D2E/DX2                !
 ! R82   R(53,54)                1.3741         estimate D2E/DX2                !
 ! R83   R(53,55)                1.436          estimate D2E/DX2                !
 ! R84   R(55,80)                1.0391         estimate D2E/DX2                !
 ! R85   R(56,57)                1.2882         estimate D2E/DX2                !
 ! R86   R(56,60)                1.7563         estimate D2E/DX2                !
 ! R87   R(57,58)                1.4319         estimate D2E/DX2                !
 ! R88   R(58,59)                1.3027         estimate D2E/DX2                !
 ! R89   R(58,81)                1.1106         estimate D2E/DX2                !
 ! R90   R(59,60)                1.7053         estimate D2E/DX2                !
 ! R91   R(59,82)                1.1237         estimate D2E/DX2                !
 ! A1    A(2,1,7)              122.8848         estimate D2E/DX2                !
 ! A2    A(2,1,61)             115.2117         estimate D2E/DX2                !
 ! A3    A(7,1,61)             121.4615         estimate D2E/DX2                !
 ! A4    A(1,2,3)              115.8673         estimate D2E/DX2                !
 ! A5    A(1,2,62)             123.5242         estimate D2E/DX2                !
 ! A6    A(3,2,62)             120.1906         estimate D2E/DX2                !
 ! A7    A(2,3,4)              119.9093         estimate D2E/DX2                !
 ! A8    A(2,3,63)             116.2363         estimate D2E/DX2                !
 ! A9    A(4,3,63)             123.5393         estimate D2E/DX2                !
 ! A10   A(3,4,5)              117.6741         estimate D2E/DX2                !
 ! A11   A(3,4,8)              120.7374         estimate D2E/DX2                !
 ! A12   A(5,4,8)              121.5702         estimate D2E/DX2                !
 ! A13   A(4,5,6)              118.3852         estimate D2E/DX2                !
 ! A14   A(4,5,7)              123.5518         estimate D2E/DX2                !
 ! A15   A(6,5,7)              118.0149         estimate D2E/DX2                !
 ! A16   A(1,7,5)              119.7815         estimate D2E/DX2                !
 ! A17   A(1,7,64)             121.4311         estimate D2E/DX2                !
 ! A18   A(5,7,64)             118.7465         estimate D2E/DX2                !
 ! A19   A(4,8,9)              125.4084         estimate D2E/DX2                !
 ! A20   A(4,8,12)             120.6936         estimate D2E/DX2                !
 ! A21   A(9,8,12)             113.8724         estimate D2E/DX2                !
 ! A22   A(8,9,10)             113.0886         estimate D2E/DX2                !
 ! A23   A(9,10,11)            110.7812         estimate D2E/DX2                !
 ! A24   A(9,10,65)            122.7663         estimate D2E/DX2                !
 ! A25   A(11,10,65)           126.036          estimate D2E/DX2                !
 ! A26   A(10,11,12)           110.8007         estimate D2E/DX2                !
 ! A27   A(10,11,13)           127.0826         estimate D2E/DX2                !
 ! A28   A(12,11,13)           122.1004         estimate D2E/DX2                !
 ! A29   A(8,12,11)             91.2341         estimate D2E/DX2                !
 ! A30   A(11,13,14)           123.339          estimate D2E/DX2                !
 ! A31   A(11,13,19)           119.5447         estimate D2E/DX2                !
 ! A32   A(14,13,19)           117.0279         estimate D2E/DX2                !
 ! A33   A(13,14,15)           122.1328         estimate D2E/DX2                !
 ! A34   A(13,14,66)           118.1907         estimate D2E/DX2                !
 ! A35   A(15,14,66)           119.4824         estimate D2E/DX2                !
 ! A36   A(14,15,16)           122.5793         estimate D2E/DX2                !
 ! A37   A(14,15,67)           120.0149         estimate D2E/DX2                !
 ! A38   A(16,15,67)           117.293          estimate D2E/DX2                !
 ! A39   A(15,16,17)           116.9722         estimate D2E/DX2                !
 ! A40   A(15,16,20)           122.1987         estimate D2E/DX2                !
 ! A41   A(17,16,20)           120.1573         estimate D2E/DX2                !
 ! A42   A(16,17,18)           119.2915         estimate D2E/DX2                !
 ! A43   A(16,17,19)           119.2182         estimate D2E/DX2                !
 ! A44   A(18,17,19)           121.485          estimate D2E/DX2                !
 ! A45   A(13,19,17)           121.6273         estimate D2E/DX2                !
 ! A46   A(13,19,68)           124.391          estimate D2E/DX2                !
 ! A47   A(17,19,68)           113.9327         estimate D2E/DX2                !
 ! A48   A(16,20,21)           122.6439         estimate D2E/DX2                !
 ! A49   A(16,20,24)           123.4688         estimate D2E/DX2                !
 ! A50   A(21,20,24)           112.8386         estimate D2E/DX2                !
 ! A51   A(20,21,22)           111.6001         estimate D2E/DX2                !
 ! A52   A(21,22,23)           116.4801         estimate D2E/DX2                !
 ! A53   A(21,22,69)           119.6791         estimate D2E/DX2                !
 ! A54   A(23,22,69)           123.7393         estimate D2E/DX2                !
 ! A55   A(22,23,24)           106.1949         estimate D2E/DX2                !
 ! A56   A(22,23,25)           131.9194         estimate D2E/DX2                !
 ! A57   A(24,23,25)           121.7342         estimate D2E/DX2                !
 ! A58   A(20,24,23)            92.1727         estimate D2E/DX2                !
 ! A59   A(23,25,26)           120.8247         estimate D2E/DX2                !
 ! A60   A(23,25,31)           120.4357         estimate D2E/DX2                !
 ! A61   A(26,25,31)           118.0065         estimate D2E/DX2                !
 ! A62   A(25,26,27)           117.4063         estimate D2E/DX2                !
 ! A63   A(25,26,70)           120.6825         estimate D2E/DX2                !
 ! A64   A(27,26,70)           121.8284         estimate D2E/DX2                !
 ! A65   A(26,27,28)           127.5624         estimate D2E/DX2                !
 ! A66   A(26,27,71)           118.1934         estimate D2E/DX2                !
 ! A67   A(28,27,71)           114.115          estimate D2E/DX2                !
 ! A68   A(27,28,29)           112.0124         estimate D2E/DX2                !
 ! A69   A(27,28,32)           121.7152         estimate D2E/DX2                !
 ! A70   A(29,28,32)           126.2635         estimate D2E/DX2                !
 ! A71   A(28,29,30)           120.0058         estimate D2E/DX2                !
 ! A72   A(28,29,31)           121.8138         estimate D2E/DX2                !
 ! A73   A(30,29,31)           118.0356         estimate D2E/DX2                !
 ! A74   A(25,31,29)           122.5697         estimate D2E/DX2                !
 ! A75   A(25,31,72)           118.7868         estimate D2E/DX2                !
 ! A76   A(29,31,72)           117.634          estimate D2E/DX2                !
 ! A77   A(28,32,33)           123.5951         estimate D2E/DX2                !
 ! A78   A(28,32,36)           123.0594         estimate D2E/DX2                !
 ! A79   A(33,32,36)           113.2876         estimate D2E/DX2                !
 ! A80   A(32,33,34)           110.3663         estimate D2E/DX2                !
 ! A81   A(33,34,35)           118.8934         estimate D2E/DX2                !
 ! A82   A(33,34,73)           118.8074         estimate D2E/DX2                !
 ! A83   A(35,34,73)           121.6377         estimate D2E/DX2                !
 ! A84   A(34,35,36)           105.7537         estimate D2E/DX2                !
 ! A85   A(34,35,37)           130.0971         estimate D2E/DX2                !
 ! A86   A(36,35,37)           124.1488         estimate D2E/DX2                !
 ! A87   A(32,36,35)            91.4294         estimate D2E/DX2                !
 ! A88   A(35,37,38)           121.1238         estimate D2E/DX2                !
 ! A89   A(35,37,43)           123.8271         estimate D2E/DX2                !
 ! A90   A(38,37,43)           114.8291         estimate D2E/DX2                !
 ! A91   A(37,38,39)           121.6974         estimate D2E/DX2                !
 ! A92   A(37,38,74)           118.7071         estimate D2E/DX2                !
 ! A93   A(39,38,74)           119.1002         estimate D2E/DX2                !
 ! A94   A(38,39,40)           123.3039         estimate D2E/DX2                !
 ! A95   A(38,39,75)           120.1384         estimate D2E/DX2                !
 ! A96   A(40,39,75)           115.5592         estimate D2E/DX2                !
 ! A97   A(39,40,41)           111.9191         estimate D2E/DX2                !
 ! A98   A(39,40,44)           122.8392         estimate D2E/DX2                !
 ! A99   A(41,40,44)           125.0734         estimate D2E/DX2                !
 ! A100  A(40,41,42)           118.209          estimate D2E/DX2                !
 ! A101  A(40,41,43)           127.1495         estimate D2E/DX2                !
 ! A102  A(42,41,43)           114.2445         estimate D2E/DX2                !
 ! A103  A(37,43,41)           120.3383         estimate D2E/DX2                !
 ! A104  A(37,43,76)           115.7514         estimate D2E/DX2                !
 ! A105  A(41,43,76)           123.8738         estimate D2E/DX2                !
 ! A106  A(40,44,45)           123.6438         estimate D2E/DX2                !
 ! A107  A(40,44,48)           123.3555         estimate D2E/DX2                !
 ! A108  A(45,44,48)           112.5409         estimate D2E/DX2                !
 ! A109  A(44,45,46)           110.3488         estimate D2E/DX2                !
 ! A110  A(45,46,47)           116.3117         estimate D2E/DX2                !
 ! A111  A(45,46,77)           114.1355         estimate D2E/DX2                !
 ! A112  A(47,46,77)           129.5518         estimate D2E/DX2                !
 ! A113  A(46,47,48)           109.2819         estimate D2E/DX2                !
 ! A114  A(46,47,49)           129.7061         estimate D2E/DX2                !
 ! A115  A(48,47,49)           120.9895         estimate D2E/DX2                !
 ! A116  A(44,48,47)            91.1474         estimate D2E/DX2                !
 ! A117  A(47,49,50)           122.0362         estimate D2E/DX2                !
 ! A118  A(47,49,55)           117.2282         estimate D2E/DX2                !
 ! A119  A(50,49,55)           120.4002         estimate D2E/DX2                !
 ! A120  A(49,50,51)           118.8413         estimate D2E/DX2                !
 ! A121  A(49,50,78)           122.2191         estimate D2E/DX2                !
 ! A122  A(51,50,78)           118.9063         estimate D2E/DX2                !
 ! A123  A(50,51,52)           120.2582         estimate D2E/DX2                !
 ! A124  A(50,51,79)           119.1232         estimate D2E/DX2                !
 ! A125  A(52,51,79)           120.5585         estimate D2E/DX2                !
 ! A126  A(51,52,53)           116.8345         estimate D2E/DX2                !
 ! A127  A(51,52,56)           114.578          estimate D2E/DX2                !
 ! A128  A(53,52,56)           128.5286         estimate D2E/DX2                !
 ! A129  A(52,53,54)           122.6132         estimate D2E/DX2                !
 ! A130  A(52,53,55)           125.1182         estimate D2E/DX2                !
 ! A131  A(54,53,55)           111.9179         estimate D2E/DX2                !
 ! A132  A(49,55,53)           117.8645         estimate D2E/DX2                !
 ! A133  A(49,55,80)           122.6179         estimate D2E/DX2                !
 ! A134  A(53,55,80)           118.4697         estimate D2E/DX2                !
 ! A135  A(52,56,57)           126.0138         estimate D2E/DX2                !
 ! A136  A(52,56,60)           121.5752         estimate D2E/DX2                !
 ! A137  A(57,56,60)           112.3945         estimate D2E/DX2                !
 ! A138  A(56,57,58)           109.6956         estimate D2E/DX2                !
 ! A139  A(57,58,59)           117.7644         estimate D2E/DX2                !
 ! A140  A(57,58,81)           119.2729         estimate D2E/DX2                !
 ! A141  A(59,58,81)           122.8913         estimate D2E/DX2                !
 ! A142  A(58,59,60)           108.7896         estimate D2E/DX2                !
 ! A143  A(58,59,82)           132.8187         estimate D2E/DX2                !
 ! A144  A(60,59,82)           118.33           estimate D2E/DX2                !
 ! A145  A(56,60,59)            91.2541         estimate D2E/DX2                !
 ! D1    D(7,1,2,3)              6.9125         estimate D2E/DX2                !
 ! D2    D(7,1,2,62)           179.4864         estimate D2E/DX2                !
 ! D3    D(61,1,2,3)           179.3757         estimate D2E/DX2                !
 ! D4    D(61,1,2,62)           -8.0504         estimate D2E/DX2                !
 ! D5    D(2,1,7,5)             -4.424          estimate D2E/DX2                !
 ! D6    D(2,1,7,64)           177.9313         estimate D2E/DX2                !
 ! D7    D(61,1,7,5)          -176.427          estimate D2E/DX2                !
 ! D8    D(61,1,7,64)            5.9283         estimate D2E/DX2                !
 ! D9    D(1,2,3,4)             -5.8544         estimate D2E/DX2                !
 ! D10   D(1,2,3,63)          -179.635          estimate D2E/DX2                !
 ! D11   D(62,2,3,4)          -178.6935         estimate D2E/DX2                !
 ! D12   D(62,2,3,63)            7.5259         estimate D2E/DX2                !
 ! D13   D(2,3,4,5)              2.4503         estimate D2E/DX2                !
 ! D14   D(2,3,4,8)           -179.0803         estimate D2E/DX2                !
 ! D15   D(63,3,4,5)           175.7552         estimate D2E/DX2                !
 ! D16   D(63,3,4,8)            -5.7754         estimate D2E/DX2                !
 ! D17   D(3,4,5,6)            177.7691         estimate D2E/DX2                !
 ! D18   D(3,4,5,7)              0.3443         estimate D2E/DX2                !
 ! D19   D(8,4,5,6)             -0.6867         estimate D2E/DX2                !
 ! D20   D(8,4,5,7)           -178.1116         estimate D2E/DX2                !
 ! D21   D(3,4,8,9)           -135.8891         estimate D2E/DX2                !
 ! D22   D(3,4,8,12)            42.1589         estimate D2E/DX2                !
 ! D23   D(5,4,8,9)             42.5199         estimate D2E/DX2                !
 ! D24   D(5,4,8,12)          -139.4321         estimate D2E/DX2                !
 ! D25   D(4,5,7,1)              0.4952         estimate D2E/DX2                !
 ! D26   D(4,5,7,64)           178.2031         estimate D2E/DX2                !
 ! D27   D(6,5,7,1)           -176.9386         estimate D2E/DX2                !
 ! D28   D(6,5,7,64)             0.7693         estimate D2E/DX2                !
 ! D29   D(4,8,9,10)          -176.7826         estimate D2E/DX2                !
 ! D30   D(12,8,9,10)            5.053          estimate D2E/DX2                !
 ! D31   D(4,8,12,11)          177.2596         estimate D2E/DX2                !
 ! D32   D(9,8,12,11)           -4.4802         estimate D2E/DX2                !
 ! D33   D(8,9,10,11)           -3.1988         estimate D2E/DX2                !
 ! D34   D(8,9,10,65)         -176.1981         estimate D2E/DX2                !
 ! D35   D(9,10,11,12)          -0.2147         estimate D2E/DX2                !
 ! D36   D(9,10,11,13)         178.3312         estimate D2E/DX2                !
 ! D37   D(65,10,11,12)        172.5041         estimate D2E/DX2                !
 ! D38   D(65,10,11,13)         -8.95           estimate D2E/DX2                !
 ! D39   D(10,11,12,8)           2.3569         estimate D2E/DX2                !
 ! D40   D(13,11,12,8)        -176.2737         estimate D2E/DX2                !
 ! D41   D(10,11,13,14)        135.033          estimate D2E/DX2                !
 ! D42   D(10,11,13,19)        -41.4458         estimate D2E/DX2                !
 ! D43   D(12,11,13,14)        -46.5717         estimate D2E/DX2                !
 ! D44   D(12,11,13,19)        136.9495         estimate D2E/DX2                !
 ! D45   D(11,13,14,15)        179.2091         estimate D2E/DX2                !
 ! D46   D(11,13,14,66)          4.3015         estimate D2E/DX2                !
 ! D47   D(19,13,14,15)         -4.2297         estimate D2E/DX2                !
 ! D48   D(19,13,14,66)       -179.1373         estimate D2E/DX2                !
 ! D49   D(11,13,19,17)        178.2435         estimate D2E/DX2                !
 ! D50   D(11,13,19,68)          0.9439         estimate D2E/DX2                !
 ! D51   D(14,13,19,17)          1.5457         estimate D2E/DX2                !
 ! D52   D(14,13,19,68)       -175.754          estimate D2E/DX2                !
 ! D53   D(13,14,15,16)          7.4971         estimate D2E/DX2                !
 ! D54   D(13,14,15,67)       -176.4682         estimate D2E/DX2                !
 ! D55   D(66,14,15,16)       -177.659          estimate D2E/DX2                !
 ! D56   D(66,14,15,67)         -1.6243         estimate D2E/DX2                !
 ! D57   D(14,15,16,17)         -7.6198         estimate D2E/DX2                !
 ! D58   D(14,15,16,20)       -178.2308         estimate D2E/DX2                !
 ! D59   D(67,15,16,17)        176.2438         estimate D2E/DX2                !
 ! D60   D(67,15,16,20)          5.6328         estimate D2E/DX2                !
 ! D61   D(15,16,17,18)       -176.0499         estimate D2E/DX2                !
 ! D62   D(15,16,17,19)          4.7764         estimate D2E/DX2                !
 ! D63   D(20,16,17,18)         -5.2369         estimate D2E/DX2                !
 ! D64   D(20,16,17,19)        175.5894         estimate D2E/DX2                !
 ! D65   D(15,16,20,21)         21.291          estimate D2E/DX2                !
 ! D66   D(15,16,20,24)       -146.1516         estimate D2E/DX2                !
 ! D67   D(17,16,20,21)       -149.0287         estimate D2E/DX2                !
 ! D68   D(17,16,20,24)         43.5288         estimate D2E/DX2                !
 ! D69   D(16,17,19,13)         -2.0693         estimate D2E/DX2                !
 ! D70   D(16,17,19,68)        175.4929         estimate D2E/DX2                !
 ! D71   D(18,17,19,13)        178.7758         estimate D2E/DX2                !
 ! D72   D(18,17,19,68)         -3.662          estimate D2E/DX2                !
 ! D73   D(16,20,21,22)       -175.8322         estimate D2E/DX2                !
 ! D74   D(24,20,21,22)         -7.1819         estimate D2E/DX2                !
 ! D75   D(16,20,24,23)        176.8175         estimate D2E/DX2                !
 ! D76   D(21,20,24,23)          8.2754         estimate D2E/DX2                !
 ! D77   D(20,21,22,23)          1.9458         estimate D2E/DX2                !
 ! D78   D(20,21,22,69)       -174.5292         estimate D2E/DX2                !
 ! D79   D(21,22,23,24)          4.025          estimate D2E/DX2                !
 ! D80   D(21,22,23,25)        179.4789         estimate D2E/DX2                !
 ! D81   D(69,22,23,24)       -179.6581         estimate D2E/DX2                !
 ! D82   D(69,22,23,25)         -4.2042         estimate D2E/DX2                !
 ! D83   D(22,23,24,20)         -6.5357         estimate D2E/DX2                !
 ! D84   D(25,23,24,20)        177.4406         estimate D2E/DX2                !
 ! D85   D(22,23,25,26)        151.1995         estimate D2E/DX2                !
 ! D86   D(22,23,25,31)        -18.7962         estimate D2E/DX2                !
 ! D87   D(24,23,25,26)        -33.9351         estimate D2E/DX2                !
 ! D88   D(24,23,25,31)        156.0692         estimate D2E/DX2                !
 ! D89   D(23,25,26,27)       -176.9476         estimate D2E/DX2                !
 ! D90   D(23,25,26,70)          6.3007         estimate D2E/DX2                !
 ! D91   D(31,25,26,27)         -6.715          estimate D2E/DX2                !
 ! D92   D(31,25,26,70)        176.5333         estimate D2E/DX2                !
 ! D93   D(23,25,31,29)       -179.8208         estimate D2E/DX2                !
 ! D94   D(23,25,31,72)        -11.5935         estimate D2E/DX2                !
 ! D95   D(26,25,31,29)          9.9071         estimate D2E/DX2                !
 ! D96   D(26,25,31,72)        178.1343         estimate D2E/DX2                !
 ! D97   D(25,26,27,28)          1.5081         estimate D2E/DX2                !
 ! D98   D(25,26,27,71)       -174.0947         estimate D2E/DX2                !
 ! D99   D(70,26,27,28)        178.2201         estimate D2E/DX2                !
 ! D100  D(70,26,27,71)          2.6173         estimate D2E/DX2                !
 ! D101  D(26,27,28,29)          0.9592         estimate D2E/DX2                !
 ! D102  D(26,27,28,32)        179.936          estimate D2E/DX2                !
 ! D103  D(71,27,28,29)        176.7134         estimate D2E/DX2                !
 ! D104  D(71,27,28,32)         -4.3098         estimate D2E/DX2                !
 ! D105  D(27,28,29,30)        177.4746         estimate D2E/DX2                !
 ! D106  D(27,28,29,31)          1.9365         estimate D2E/DX2                !
 ! D107  D(32,28,29,30)         -1.4459         estimate D2E/DX2                !
 ! D108  D(32,28,29,31)       -176.984          estimate D2E/DX2                !
 ! D109  D(27,28,32,33)        -12.9409         estimate D2E/DX2                !
 ! D110  D(27,28,32,36)        170.0148         estimate D2E/DX2                !
 ! D111  D(29,28,32,33)        165.8826         estimate D2E/DX2                !
 ! D112  D(29,28,32,36)        -11.1617         estimate D2E/DX2                !
 ! D113  D(28,29,31,25)         -7.5729         estimate D2E/DX2                !
 ! D114  D(28,29,31,72)       -175.9283         estimate D2E/DX2                !
 ! D115  D(30,29,31,25)        176.8045         estimate D2E/DX2                !
 ! D116  D(30,29,31,72)          8.449          estimate D2E/DX2                !
 ! D117  D(28,32,33,34)        178.1641         estimate D2E/DX2                !
 ! D118  D(36,32,33,34)         -4.5326         estimate D2E/DX2                !
 ! D119  D(28,32,36,35)        179.2656         estimate D2E/DX2                !
 ! D120  D(33,32,36,35)          1.9458         estimate D2E/DX2                !
 ! D121  D(32,33,34,35)          6.0025         estimate D2E/DX2                !
 ! D122  D(32,33,34,73)        176.8378         estimate D2E/DX2                !
 ! D123  D(33,34,35,36)         -4.3461         estimate D2E/DX2                !
 ! D124  D(33,34,35,37)        175.4313         estimate D2E/DX2                !
 ! D125  D(73,34,35,36)       -174.9114         estimate D2E/DX2                !
 ! D126  D(73,34,35,37)          4.866          estimate D2E/DX2                !
 ! D127  D(34,35,36,32)          1.2804         estimate D2E/DX2                !
 ! D128  D(37,35,36,32)       -178.5139         estimate D2E/DX2                !
 ! D129  D(34,35,37,38)       -143.3457         estimate D2E/DX2                !
 ! D130  D(34,35,37,43)         42.3271         estimate D2E/DX2                !
 ! D131  D(36,35,37,38)         36.3954         estimate D2E/DX2                !
 ! D132  D(36,35,37,43)       -137.9318         estimate D2E/DX2                !
 ! D133  D(35,37,38,39)        178.041          estimate D2E/DX2                !
 ! D134  D(35,37,38,74)          6.1901         estimate D2E/DX2                !
 ! D135  D(43,37,38,39)         -7.1501         estimate D2E/DX2                !
 ! D136  D(43,37,38,74)       -179.001          estimate D2E/DX2                !
 ! D137  D(35,37,43,41)        179.5874         estimate D2E/DX2                !
 ! D138  D(35,37,43,76)         -2.5284         estimate D2E/DX2                !
 ! D139  D(38,37,43,41)          4.9373         estimate D2E/DX2                !
 ! D140  D(38,37,43,76)       -177.1785         estimate D2E/DX2                !
 ! D141  D(37,38,39,40)          9.4511         estimate D2E/DX2                !
 ! D142  D(37,38,39,75)        177.5046         estimate D2E/DX2                !
 ! D143  D(74,38,39,40)       -178.7291         estimate D2E/DX2                !
 ! D144  D(74,38,39,75)        -10.6756         estimate D2E/DX2                !
 ! D145  D(38,39,40,41)         -8.2026         estimate D2E/DX2                !
 ! D146  D(38,39,40,44)        176.2965         estimate D2E/DX2                !
 ! D147  D(75,39,40,41)       -176.7571         estimate D2E/DX2                !
 ! D148  D(75,39,40,44)          7.7419         estimate D2E/DX2                !
 ! D149  D(39,40,41,42)        178.558          estimate D2E/DX2                !
 ! D150  D(39,40,41,43)          6.2419         estimate D2E/DX2                !
 ! D151  D(44,40,41,42)         -6.061          estimate D2E/DX2                !
 ! D152  D(44,40,41,43)       -178.3771         estimate D2E/DX2                !
 ! D153  D(39,40,44,45)        -34.2928         estimate D2E/DX2                !
 ! D154  D(39,40,44,48)        137.3413         estimate D2E/DX2                !
 ! D155  D(41,40,44,45)        150.8085         estimate D2E/DX2                !
 ! D156  D(41,40,44,48)        -37.5574         estimate D2E/DX2                !
 ! D157  D(40,41,43,37)         -5.0897         estimate D2E/DX2                !
 ! D158  D(40,41,43,76)        177.2056         estimate D2E/DX2                !
 ! D159  D(42,41,43,37)       -177.665          estimate D2E/DX2                !
 ! D160  D(42,41,43,76)          4.6303         estimate D2E/DX2                !
 ! D161  D(40,44,45,46)        178.7538         estimate D2E/DX2                !
 ! D162  D(48,44,45,46)          6.3147         estimate D2E/DX2                !
 ! D163  D(40,44,48,47)       -176.3618         estimate D2E/DX2                !
 ! D164  D(45,44,48,47)         -3.8975         estimate D2E/DX2                !
 ! D165  D(44,45,46,47)         -6.3252         estimate D2E/DX2                !
 ! D166  D(44,45,46,77)        173.9881         estimate D2E/DX2                !
 ! D167  D(45,46,47,48)          3.3715         estimate D2E/DX2                !
 ! D168  D(45,46,47,49)       -178.3736         estimate D2E/DX2                !
 ! D169  D(77,46,47,48)       -176.9993         estimate D2E/DX2                !
 ! D170  D(77,46,47,49)          1.2556         estimate D2E/DX2                !
 ! D171  D(46,47,48,44)          0.3257         estimate D2E/DX2                !
 ! D172  D(49,47,48,44)       -178.1082         estimate D2E/DX2                !
 ! D173  D(46,47,49,50)       -144.9832         estimate D2E/DX2                !
 ! D174  D(46,47,49,55)         41.6474         estimate D2E/DX2                !
 ! D175  D(48,47,49,50)         33.0952         estimate D2E/DX2                !
 ! D176  D(48,47,49,55)       -140.2742         estimate D2E/DX2                !
 ! D177  D(47,49,50,51)       -178.6935         estimate D2E/DX2                !
 ! D178  D(47,49,50,78)         -0.8171         estimate D2E/DX2                !
 ! D179  D(55,49,50,51)         -5.5302         estimate D2E/DX2                !
 ! D180  D(55,49,50,78)        172.3462         estimate D2E/DX2                !
 ! D181  D(47,49,55,53)       -176.8101         estimate D2E/DX2                !
 ! D182  D(47,49,55,80)         -8.7079         estimate D2E/DX2                !
 ! D183  D(50,49,55,53)          9.7062         estimate D2E/DX2                !
 ! D184  D(50,49,55,80)        177.8085         estimate D2E/DX2                !
 ! D185  D(49,50,51,52)         -1.4259         estimate D2E/DX2                !
 ! D186  D(49,50,51,79)       -178.6249         estimate D2E/DX2                !
 ! D187  D(78,50,51,52)       -179.3736         estimate D2E/DX2                !
 ! D188  D(78,50,51,79)          3.4274         estimate D2E/DX2                !
 ! D189  D(50,51,52,53)          3.8577         estimate D2E/DX2                !
 ! D190  D(50,51,52,56)       -178.6927         estimate D2E/DX2                !
 ! D191  D(79,51,52,53)       -178.9838         estimate D2E/DX2                !
 ! D192  D(79,51,52,56)         -1.5342         estimate D2E/DX2                !
 ! D193  D(51,52,53,54)        173.2466         estimate D2E/DX2                !
 ! D194  D(51,52,53,55)          0.6026         estimate D2E/DX2                !
 ! D195  D(56,52,53,54)         -3.7883         estimate D2E/DX2                !
 ! D196  D(56,52,53,55)       -176.4323         estimate D2E/DX2                !
 ! D197  D(51,52,56,57)        -22.4844         estimate D2E/DX2                !
 ! D198  D(51,52,56,60)        159.1059         estimate D2E/DX2                !
 ! D199  D(53,52,56,57)        154.6062         estimate D2E/DX2                !
 ! D200  D(53,52,56,60)        -23.8035         estimate D2E/DX2                !
 ! D201  D(52,53,55,49)         -7.4124         estimate D2E/DX2                !
 ! D202  D(52,53,55,80)       -176.0194         estimate D2E/DX2                !
 ! D203  D(54,53,55,49)        179.2633         estimate D2E/DX2                !
 ! D204  D(54,53,55,80)         10.6564         estimate D2E/DX2                !
 ! D205  D(52,56,57,58)        178.2021         estimate D2E/DX2                !
 ! D206  D(60,56,57,58)         -3.2633         estimate D2E/DX2                !
 ! D207  D(52,56,60,59)       -179.2427         estimate D2E/DX2                !
 ! D208  D(57,56,60,59)          2.1485         estimate D2E/DX2                !
 ! D209  D(56,57,58,59)          3.3586         estimate D2E/DX2                !
 ! D210  D(56,57,58,81)       -179.6243         estimate D2E/DX2                !
 ! D211  D(57,58,59,60)         -1.693          estimate D2E/DX2                !
 ! D212  D(57,58,59,82)        175.3136         estimate D2E/DX2                !
 ! D213  D(81,58,59,60)       -178.5941         estimate D2E/DX2                !
 ! D214  D(81,58,59,82)         -1.5875         estimate D2E/DX2                !
 ! D215  D(58,59,60,56)         -0.182          estimate D2E/DX2                !
 ! D216  D(82,59,60,56)       -177.6879         estimate D2E/DX2                !
 --------------------------------------------------------------------------------
 Trust Radius=3.00D-01 FncErr=1.00D-07 GrdErr=1.00D-06 EigMax=2.50D+02 EigMin=1.00D-04
 Number of steps in this run=    462 maximum allowed number of steps=    492.
 GradGradGradGradGradGradGradGradGradGradGradGradGradGradGradGradGradGrad

 Leave Link  103 at Fri Jul 24 12:28:10 2020, MaxMem=  4026531840 cpu:               0.3 elap:               0.1
 (Enter /opt/ohpc/pub/libs/gaussian/g16-A.03/sandybridge/g16/l202.exe)
 Stoichiometry    C45H22F5N5S5
 Framework group  C1[X(C45H22F5N5S5)]
 Deg. of freedom   240
 Full point group                 C1      NOp   1
 Largest Abelian subgroup         C1      NOp   1
 Largest concise Abelian subgroup C1      NOp   1
                         Standard orientation:                         
 ---------------------------------------------------------------------
 Center     Atomic      Atomic             Coordinates (Angstroms)
 Number     Number       Type             X           Y           Z
 ---------------------------------------------------------------------
      1          6           0       19.497299    0.251220   -0.271593
      2          6           0       18.732659    1.359942    0.097696
      3          6           0       17.316022    1.095438    0.382165
      4          6           0       16.768408   -0.220586    0.149942
      5          6           0       17.609190   -1.181124   -0.279411
      6          9           0       17.130193   -2.407541   -0.454390
      7          6           0       18.957671   -0.973299   -0.499802
      8          6           0       15.378474   -0.494236    0.403832
      9          7           0       14.938261   -1.498912    0.979373
     10          6           0       13.520436   -1.537551    1.025209
     11          6           0       12.964381   -0.358732    0.453366
     12         16           0       14.145560    0.650608   -0.061134
     13          6           0       11.524631   -0.039212    0.284216
     14          6           0       10.956218    1.243107    0.604864
     15          6           0        9.687132    1.503727    0.432342
     16          6           0        8.750626    0.512963    0.068167
     17          6           0        9.275069   -0.790547   -0.276930
     18          9           0        8.424270   -1.754904   -0.712042
     19          6           0       10.645235   -1.033786   -0.137984
     20          6           0        7.327212    0.823513   -0.161568
     21          7           0        6.900419    2.041053   -0.448394
     22          6           0        5.521378    2.091548   -0.526653
     23          6           0        4.827723    0.884953   -0.252661
     24         16           0        6.034780   -0.271223    0.219600
     25          6           0        3.417257    0.565336   -0.228163
     26          6           0        2.957106   -0.765245   -0.528337
     27          6           0        1.623603   -0.971912   -0.547126
     28          6           0        0.613758   -0.031835   -0.335513
     29          6           0        1.159883    1.324641   -0.089384
     30          9           0        0.302181    2.392848    0.088794
     31          6           0        2.471723    1.571387   -0.119519
     32          6           0       -0.798356   -0.397782   -0.387120
     33          7           0       -1.217817   -1.491957   -0.845993
     34          6           0       -2.581284   -1.568350   -0.725903
     35          6           0       -3.285587   -0.444538   -0.267508
     36         16           0       -2.111039    0.702666    0.128306
     37          6           0       -4.661697   -0.235108   -0.139120
     38          6           0       -5.239460    1.034903   -0.407419
     39          6           0       -6.598688    1.244276   -0.323177
     40          6           0       -7.499930    0.293750    0.214831
     41          6           0       -6.873859   -0.933656    0.472278
     42          9           0       -7.606703   -1.917921    1.012607
     43          6           0       -5.570370   -1.211537    0.372098
     44          6           0       -8.866461    0.545308    0.364884
     45          7           0       -9.387749    1.789578    0.678590
     46          6           0      -10.791924    1.732030    0.732741
     47          6           0      -11.347137    0.589660    0.360082
     48         16           0      -10.071089   -0.587173   -0.017077
     49          6           0      -12.778674    0.217701    0.270676
     50          6           0      -13.234857   -1.089189    0.566979
     51          6           0      -14.655791   -1.386661    0.428185
     52          6           0      -15.592805   -0.337984    0.019454
     53          6           0      -15.064916    0.862027   -0.290959
     54          9           0      -15.813959    1.886930   -0.816837
     55          6           0      -13.665096    1.180993   -0.262611
     56          6           0      -16.942834   -0.750035   -0.048855
     57          7           0      -17.358913   -1.960691   -0.192785
     58          6           0      -18.790535   -1.984202   -0.175768
     59          6           0      -19.415263   -0.843987   -0.094118
     60         16           0      -18.262134    0.407238    0.019477
     61          1           0       20.567517    0.465993   -0.495359
     62          1           0       19.120555    2.263354    0.275133
     63          1           0       16.749193    1.904835    0.647677
     64          1           0       19.603663   -1.857547   -0.835617
     65          1           0       12.992952   -2.284315    1.523079
     66          1           0       11.621036    2.030071    0.919782
     67          1           0        9.280621    2.565071    0.644518
     68          1           0       10.940957   -2.084867   -0.351486
     69          1           0        5.044012    2.990120   -0.836537
     70          1           0        3.612472   -1.515998   -0.667524
     71          1           0        1.240214   -2.054870   -0.683498
     72          1           0        2.801448    2.572883    0.136558
     73          1           0       -3.108750   -2.461817   -1.139326
     74          1           0       -4.603575    1.825692   -0.816835
     75          1           0       -7.029579    2.283621   -0.502495
     76          1           0       -5.117190   -2.212791    0.637886
     77          1           0      -11.247809    2.623745    1.065165
     78          1           0      -12.588066   -1.850527    0.848302
     79          1           0      -14.987582   -2.307570    0.657500
     80          1           0      -13.375774    2.158991   -0.461604
     81          1           0      -19.319005   -2.955181   -0.282091
     82          1           0      -20.503228   -0.564919   -0.129519
 ---------------------------------------------------------------------
 Rotational constants (GHZ):           0.3281926           0.0041777           0.0041371
 Leave Link  202 at Fri Jul 24 12:28:10 2020, MaxMem=  4026531840 cpu:               0.1 elap:               0.0
 (Enter /opt/ohpc/pub/libs/gaussian/g16-A.03/sandybridge/g16/l301.exe)
 Standard basis: CC-pVDZ (5D, 7F)
 Ernie: Thresh=  0.10000D-02 Tol=  0.10000D-05 Strict=F.
 Ernie:  160 primitive shells out of 1570 were deleted.
 There are  1030 symmetry adapted cartesian basis functions of A   symmetry.
 There are   970 symmetry adapted basis functions of A   symmetry.
   970 basis functions,  2324 primitive gaussians,  1030 cartesian basis functions
   226 alpha electrons      226 beta electrons
       nuclear repulsion energy      7319.1499860762 Hartrees.
 IExCor=32609 DFT=T Ex+Corr=LC-wPBE ExCW=0 ScaHFX=  1.000000
 ScaDFX=  1.000000  0.000000  1.000000  1.000000 ScalE2=  1.000000  1.000000
 IRadAn=      5 IRanWt=     -1 IRanGd=            0 ICorTp=0 IEmpDi=  4
 HFx  wShort=  0.000000 wLong=  0.050500 cFull=  0.000000 cShort=  0.000000 cLong=  1.000000
 DFx  wShort=  0.000000 wLong=  0.050500 cFull=  0.000000 cShort=  0.000000 cLong=  1.000000
 NAtoms=   82 NActive=   82 NUniq=   82 SFac= 1.00D+00 NAtFMM=   60 NAOKFM=T Big=T
 Integral buffers will be    131072 words long.
 Raffenetti 2 integral format.
 Two-electron integral symmetry is turned on.
 Leave Link  301 at Fri Jul 24 12:28:10 2020, MaxMem=  4026531840 cpu:               0.4 elap:               0.1
 (Enter /opt/ohpc/pub/libs/gaussian/g16-A.03/sandybridge/g16/l302.exe)
 NPDir=0 NMtPBC=     1 NCelOv=     1 NCel=       1 NClECP=     1 NCelD=      1
         NCelK=      1 NCelE2=     1 NClLst=     1 CellRange=     0.0.
 One-electron integrals computed using PRISM.
 One-electron integral symmetry used in STVInt
 NBasis=   970 RedAO= T EigKep=  3.07D-04  NBF=   970
 NBsUse=   970 1.00D-06 EigRej= -1.00D+00 NBFU=   970
 Precomputing XC quadrature grid using
 IXCGrd= 4 IRadAn=           5 IRanWt=          -1 IRanGd=           0 AccXCQ= 0.00D+00.
 Generated NRdTot=       0 NPtTot=           0 NUsed=           0 NTot=          32
 NSgBfM=   582   581   581   582   582 MxSgAt=    82 MxSgA2=    71.
 Leave Link  302 at Fri Jul 24 12:28:13 2020, MaxMem=  4026531840 cpu:              24.0 elap:               3.0
 (Enter /opt/ohpc/pub/libs/gaussian/g16-A.03/sandybridge/g16/l303.exe)
 DipDrv:  MaxL=1.
 Leave Link  303 at Fri Jul 24 12:28:13 2020, MaxMem=  4026531840 cpu:               1.6 elap:               0.2
 (Enter /opt/ohpc/pub/libs/gaussian/g16-A.03/sandybridge/g16/l401.exe)
 ExpMin= 1.22D-01 ExpMax= 1.11D+05 ExpMxC= 1.07D+03 IAcc=3 IRadAn=         5 AccDes= 0.00D+00
 Harris functional with IExCor=32609 and IRadAn=       5 diagonalized for initial guess.
 HarFok:  IExCor=32609 AccDes= 0.00D+00 IRadAn=         5 IDoV= 1 UseB2=F ITyADJ=14
 ICtDFT=  3500011 ScaDFX=  1.000000  1.000000  1.000000  1.000000
 FoFCou: FMM=F IPFlag=           0 FMFlag=      100000 FMFlg1=        2001
         NFxFlg=           0 DoJE=T BraDBF=F KetDBF=T FulRan=T
         wScrn=  0.000000 ICntrl=       500 IOpCl=  0 I1Cent=   200000004 NGrid=           0
         NMat0=    1 NMatS0=      1 NMatT0=    0 NMatD0=    1 NMtDS0=    0 NMtDT0=    0
 Petite list used in FoFCou.
 Harris En= -4488.95266015507    
 JPrj=0 DoOrth=F DoCkMO=F.
 Initial guess <Sx>= 0.0000 <Sy>= 0.0000 <Sz>= 0.0000 <S**2>=-0.0000 S=-0.0000
 Leave Link  401 at Fri Jul 24 12:28:23 2020, MaxMem=  4026531840 cpu:              78.9 elap:               9.9
 (Enter /opt/ohpc/pub/libs/gaussian/g16-A.03/sandybridge/g16/l502.exe)
 Integral symmetry usage will be decided dynamically.
 UHF open shell SCF:
 Using DIIS extrapolation, IDIIS=  1040.
 NGot=  4026531840 LenX=  4024391664 LenY=  4023329734
 Requested convergence on RMS density matrix=1.00D-08 within 128 cycles.
 Requested convergence on MAX density matrix=1.00D-06.
 Requested convergence on             energy=1.00D-06.
 No special actions if energy rises.
 Fock matrices will be formed incrementally for  20 cycles.
 Integral accuracy reduced to 1.0D-05 until final iterations.

 Cycle   1  Pass 0  IDiag  1:
 FoFJK:  IHMeth= 1 ICntrl=       0 DoSepK=T KAlg= 0 I1Cent=           0 FoldK=F
 IRaf=         1 NMat=       1 IRICut=       1 DoRegI=T DoRafI=F ISym2E= 0 IDoP0=0 IntGTp=1.
 FoFCou: FMM=T IPFlag=           0 FMFlag=      100000 FMFlg1=        2001
         NFxFlg=           0 DoJE=T BraDBF=F KetDBF=F FulRan=T
         wScrn=  0.000000 ICntrl=       500 IOpCl=  0 I1Cent=           0 NGrid=           0
         NMat0=    1 NMatS0=      1 NMatT0=    0 NMatD0=    1 NMtDS0=    0 NMtDT0=    0
 Symmetry not used in FoFCou.
 FMM levels:  10  Number of levels for PrismC:   9
 E= -4487.69760660852    
 DIIS: error= 1.67D-02 at cycle   1 NSaved=   1.
 NSaved= 1 IEnMin= 1 EnMin= -4487.69760660852     IErMin= 1 ErrMin= 1.67D-02
 ErrMax= 1.67D-02  0.00D+00 EMaxC= 1.00D-01 BMatC= 3.68D+00 BMatP= 3.68D+00
 IDIUse=3 WtCom= 8.33D-01 WtEn= 1.67D-01
 Coeff-Com:  0.100D+01
 Coeff-En:   0.100D+01
 Coeff:      0.100D+01
 Gap=     0.144 Goal=   None    Shift=    0.000
 Gap=     0.144 Goal=   None    Shift=    0.000
 GapD=    0.144 DampG=1.000 DampE=0.500 DampFc=0.5000 IDamp=-1.
 Damping current iteration by 5.00D-01
 RMSDP=3.65D-03 MaxDP=2.04D-01              OVMax= 2.94D-01

 Cycle   2  Pass 0  IDiag  1:
 RMSU=  1.82D-03    CP:  9.94D-01
 E= -4487.77345977829     Delta-E=       -0.075853169765 Rises=F Damp=T
 DIIS: error= 9.67D-03 at cycle   2 NSaved=   2.
 NSaved= 2 IEnMin= 2 EnMin= -4487.77345977829     IErMin= 2 ErrMin= 9.67D-03
 ErrMax= 9.67D-03  0.00D+00 EMaxC= 1.00D-01 BMatC= 9.79D-01 BMatP= 3.68D+00
 IDIUse=3 WtCom= 9.03D-01 WtEn= 9.67D-02
 Coeff-Com:  0.308D+00 0.692D+00
 Coeff-En:   0.471D+00 0.529D+00
 Coeff:      0.323D+00 0.677D+00
 Gap=     0.128 Goal=   None    Shift=    0.000
 Gap=     0.128 Goal=   None    Shift=    0.000
 RMSDP=1.29D-03 MaxDP=7.65D-02 DE=-7.59D-02 OVMax= 2.73D-01

 Cycle   3  Pass 0  IDiag  1:
 RMSU=  9.99D-04    CP:  9.92D-01  5.56D-01
 E= -4488.60137856498     Delta-E=       -0.827918786694 Rises=F Damp=F
 DIIS: error= 6.16D-03 at cycle   3 NSaved=   3.
 NSaved= 3 IEnMin= 3 EnMin= -4488.60137856498     IErMin= 3 ErrMin= 6.16D-03
 ErrMax= 6.16D-03  0.00D+00 EMaxC= 1.00D-01 BMatC= 6.70D-01 BMatP= 9.79D-01
 IDIUse=3 WtCom= 9.38D-01 WtEn= 6.16D-02
 Coeff-Com:  0.149D+00 0.447D+00 0.405D+00
 Coeff-En:   0.000D+00 0.000D+00 0.100D+01
 Coeff:      0.140D+00 0.419D+00 0.441D+00
 Gap=     0.125 Goal=   None    Shift=    0.000
 Gap=     0.125 Goal=   None    Shift=    0.000
 RMSDP=5.58D-04 MaxDP=6.00D-02 DE=-8.28D-01 OVMax= 7.81D-02

 Cycle   4  Pass 0  IDiag  1:
 RMSU=  3.95D-04    CP:  9.95D-01  6.42D-01  6.39D-01
 E= -4488.75321016623     Delta-E=       -0.151831601252 Rises=F Damp=F
 DIIS: error= 2.59D-03 at cycle   4 NSaved=   4.
 NSaved= 4 IEnMin= 4 EnMin= -4488.75321016623     IErMin= 4 ErrMin= 2.59D-03
 ErrMax= 2.59D-03  0.00D+00 EMaxC= 1.00D-01 BMatC= 6.36D-02 BMatP= 6.70D-01
 IDIUse=3 WtCom= 9.74D-01 WtEn= 2.59D-02
 Coeff-Com:  0.407D-01 0.142D+00 0.252D+00 0.565D+00
 Coeff-En:   0.000D+00 0.000D+00 0.646D-01 0.935D+00
 Coeff:      0.397D-01 0.138D+00 0.247D+00 0.575D+00
 Gap=     0.126 Goal=   None    Shift=    0.000
 Gap=     0.126 Goal=   None    Shift=    0.000
 RMSDP=1.89D-04 MaxDP=2.37D-02 DE=-1.52D-01 OVMax= 2.34D-02

 Cycle   5  Pass 0  IDiag  1:
 RMSU=  1.28D-04    CP:  9.94D-01  6.23D-01  6.53D-01  6.64D-01
 E= -4488.76601627209     Delta-E=       -0.012806105860 Rises=F Damp=F
 DIIS: error= 1.11D-03 at cycle   5 NSaved=   5.
 NSaved= 5 IEnMin= 5 EnMin= -4488.76601627209     IErMin= 5 ErrMin= 1.11D-03
 ErrMax= 1.11D-03  0.00D+00 EMaxC= 1.00D-01 BMatC= 1.01D-02 BMatP= 6.36D-02
 IDIUse=3 WtCom= 9.89D-01 WtEn= 1.11D-02
 Coeff-Com:  0.974D-02 0.358D-01 0.101D+00 0.358D+00 0.495D+00
 Coeff-En:   0.000D+00 0.000D+00 0.000D+00 0.121D+00 0.879D+00
 Coeff:      0.963D-02 0.354D-01 0.998D-01 0.356D+00 0.500D+00
 Gap=     0.126 Goal=   None    Shift=    0.000
 Gap=     0.126 Goal=   None    Shift=    0.000
 RMSDP=7.70D-05 MaxDP=9.66D-03 DE=-1.28D-02 OVMax= 1.17D-02

 Cycle   6  Pass 0  IDiag  1:
 RMSU=  4.93D-05    CP:  9.94D-01  6.28D-01  6.70D-01  7.35D-01  6.25D-01
 E= -4488.76801084711     Delta-E=       -0.001994575015 Rises=F Damp=F
 DIIS: error= 3.56D-04 at cycle   6 NSaved=   6.
 NSaved= 6 IEnMin= 6 EnMin= -4488.76801084711     IErMin= 6 ErrMin= 3.56D-04
 ErrMax= 3.56D-04  0.00D+00 EMaxC= 1.00D-01 BMatC= 1.45D-03 BMatP= 1.01D-02
 IDIUse=3 WtCom= 9.96D-01 WtEn= 3.56D-03
 Coeff-Com:  0.121D-02 0.101D-02 0.264D-01 0.146D+00 0.323D+00 0.502D+00
 Coeff-En:   0.000D+00 0.000D+00 0.000D+00 0.000D+00 0.123D+00 0.877D+00
 Coeff:      0.121D-02 0.101D-02 0.263D-01 0.145D+00 0.323D+00 0.504D+00
 Gap=     0.127 Goal=   None    Shift=    0.000
 Gap=     0.127 Goal=   None    Shift=    0.000
 RMSDP=3.64D-05 MaxDP=3.08D-03 DE=-1.99D-03 OVMax= 4.99D-03

 Cycle   7  Pass 0  IDiag  1:
 RMSU=  2.94D-05    CP:  9.94D-01  6.25D-01  6.72D-01  7.41D-01  7.04D-01
                    CP:  6.40D-01
 E= -4488.76832429076     Delta-E=       -0.000313443648 Rises=F Damp=F
 DIIS: error= 1.35D-04 at cycle   7 NSaved=   7.
 NSaved= 7 IEnMin= 7 EnMin= -4488.76832429076     IErMin= 7 ErrMin= 1.35D-04
 ErrMax= 1.35D-04  0.00D+00 EMaxC= 1.00D-01 BMatC= 2.45D-04 BMatP= 1.45D-03
 IDIUse=3 WtCom= 9.99D-01 WtEn= 1.35D-03
 Coeff-Com:  0.778D-05-0.377D-02 0.647D-02 0.578D-01 0.161D+00 0.340D+00
 Coeff-Com:  0.438D+00
 Coeff-En:   0.000D+00 0.000D+00 0.000D+00 0.000D+00 0.000D+00 0.117D+00
 Coeff-En:   0.883D+00
 Coeff:      0.777D-05-0.376D-02 0.646D-02 0.577D-01 0.161D+00 0.340D+00
 Coeff:      0.438D+00
 Gap=     0.127 Goal=   None    Shift=    0.000
 Gap=     0.127 Goal=   None    Shift=    0.000
 RMSDP=2.29D-05 MaxDP=9.47D-04 DE=-3.13D-04 OVMax= 1.69D-03

 Cycle   8  Pass 0  IDiag  1:
 RMSU=  2.15D-05    CP:  9.94D-01  6.25D-01  6.71D-01  7.43D-01  7.14D-01
                    CP:  7.92D-01  9.95D-01
 E= -4488.76837668130     Delta-E=       -0.000052390538 Rises=F Damp=F
 DIIS: error= 1.32D-04 at cycle   8 NSaved=   8.
 NSaved= 8 IEnMin= 8 EnMin= -4488.76837668130     IErMin= 8 ErrMin= 1.32D-04
 ErrMax= 1.32D-04  0.00D+00 EMaxC= 1.00D-01 BMatC= 4.31D-05 BMatP= 2.45D-04
 IDIUse=3 WtCom= 9.99D-01 WtEn= 1.32D-03
 Coeff-Com:  0.430D-04-0.285D-02 0.352D-02 0.336D-01 0.967D-01 0.212D+00
 Coeff-Com:  0.314D+00 0.343D+00
 Coeff-En:   0.000D+00 0.000D+00 0.000D+00 0.000D+00 0.000D+00 0.000D+00
 Coeff-En:   0.000D+00 0.100D+01
 Coeff:      0.429D-04-0.285D-02 0.351D-02 0.335D-01 0.966D-01 0.212D+00
 Coeff:      0.313D+00 0.344D+00
 Gap=     0.127 Goal=   None    Shift=    0.000
 Gap=     0.127 Goal=   None    Shift=    0.000
 RMSDP=2.01D-05 MaxDP=6.27D-04 DE=-5.24D-05 OVMax= 2.78D-04

 Cycle   9  Pass 0  IDiag  1:
 RMSU=  1.51D-05    CP:  9.94D-01  6.24D-01  6.71D-01  7.44D-01  7.24D-01
                    CP:  8.41D-01  1.36D+00  1.35D+00
 E= -4488.76838875129     Delta-E=       -0.000012069990 Rises=F Damp=F
 DIIS: error= 2.03D-04 at cycle   9 NSaved=   9.
 NSaved= 9 IEnMin= 9 EnMin= -4488.76838875129     IErMin= 8 ErrMin= 1.32D-04
 ErrMax= 2.03D-04  0.00D+00 EMaxC= 1.00D-01 BMatC= 5.62D-05 BMatP= 4.31D-05
 IDIUse=3 WtCom= 9.99D-01 WtEn= 1.32D-03
 Coeff-Com:  0.105D-04-0.329D-02 0.335D-02 0.350D-01 0.103D+00 0.233D+00
 Coeff-Com:  0.366D+00 0.565D+00-0.302D+00
 Coeff-En:   0.000D+00 0.000D+00 0.000D+00 0.000D+00 0.000D+00 0.000D+00
 Coeff-En:   0.000D+00 0.000D+00 0.100D+01
 Coeff:      0.105D-04-0.329D-02 0.335D-02 0.349D-01 0.103D+00 0.232D+00
 Coeff:      0.365D+00 0.564D+00-0.300D+00
 Gap=     0.127 Goal=   None    Shift=    0.000
 Gap=     0.127 Goal=   None    Shift=    0.000
 RMSDP=1.86D-05 MaxDP=6.46D-04 DE=-1.21D-05 OVMax= 7.47D-05

 Cycle  10  Pass 0  IDiag  1:
 RMSU=  1.29D-05    CP:  9.94D-01  6.24D-01  6.71D-01  7.43D-01  7.19D-01
                    CP:  7.86D-01  1.17D+00  8.28D-01  7.28D-01
 E= -4488.76838806520     Delta-E=        0.000000686083 Rises=F Damp=F
 DIIS: error= 1.47D-04 at cycle  10 NSaved=  10.
 NSaved=10 IEnMin= 9 EnMin= -4488.76838875129     IErMin= 8 ErrMin= 1.32D-04
 ErrMax= 1.47D-04  0.00D+00 EMaxC= 1.00D-01 BMatC= 5.05D-05 BMatP= 4.31D-05
 IDIUse=3 WtCom= 9.99D-01 WtEn= 1.32D-03
 Rare condition: small coef for last iteration:  0.000D+00
 Coeff-Com:  0.220D-04-0.306D-02 0.257D-02 0.284D-01 0.858D-01 0.198D+00
 Coeff-Com:  0.330D+00 0.636D+00-0.643D+00 0.366D+00
 Coeff-En:   0.000D+00 0.000D+00 0.000D+00 0.000D+00 0.000D+00 0.000D+00
 Coeff-En:   0.000D+00 0.000D+00 0.000D+00 0.100D+01
 Coeff:      0.220D-04-0.306D-02 0.257D-02 0.284D-01 0.858D-01 0.198D+00
 Coeff:      0.330D+00 0.636D+00-0.643D+00 0.366D+00
 Gap=     0.127 Goal=   None    Shift=    0.000
 Gap=     0.127 Goal=   None    Shift=    0.000
 RMSDP=2.03D-05 MaxDP=1.01D-03 DE= 6.86D-07 OVMax= 5.30D-05

 Cycle  11  Pass 0  IDiag  1:
 RMSU=  1.57D-05    CP:  9.94D-01  6.25D-01  6.71D-01  7.45D-01  7.12D-01
                    CP:  7.85D-01  1.06D+00  6.89D-01 -6.36D-02  8.47D-01
 E= -4488.76838520813     Delta-E=        0.000002857072 Rises=F Damp=F
 DIIS: error= 1.17D-04 at cycle  11 NSaved=  11.
 NSaved=11 IEnMin= 9 EnMin= -4488.76838875129     IErMin=11 ErrMin= 1.17D-04
 ErrMax= 1.17D-04  0.00D+00 EMaxC= 1.00D-01 BMatC= 2.99D-05 BMatP= 4.31D-05
 IDIUse=3 WtCom= 9.99D-01 WtEn= 1.17D-03
 Rare condition: small coef for last iteration:  0.000D+00
 Coeff-Com:  0.265D-04-0.298D-02 0.253D-02 0.277D-01 0.834D-01 0.192D+00
 Coeff-Com:  0.320D+00 0.613D+00-0.626D+00 0.335D+00 0.565D-01
 Coeff-En:   0.000D+00 0.000D+00 0.000D+00 0.000D+00 0.000D+00 0.000D+00
 Coeff-En:   0.000D+00 0.000D+00 0.000D+00 0.000D+00 0.100D+01
 Coeff:      0.265D-04-0.298D-02 0.253D-02 0.277D-01 0.834D-01 0.192D+00
 Coeff:      0.320D+00 0.613D+00-0.626D+00 0.335D+00 0.565D-01
 Gap=     0.127 Goal=   None    Shift=    0.000
 Gap=     0.127 Goal=   None    Shift=    0.000
 RMSDP=2.47D-06 MaxDP=9.25D-05 DE= 2.86D-06 OVMax= 1.10D-05

 Initial convergence to 1.0D-05 achieved.  Increase integral accuracy.
 Cycle  12  Pass 1  IDiag  1:
 E= -4488.76754123072     Delta-E=        0.000843977406 Rises=F Damp=F
 DIIS: error= 2.70D-04 at cycle   1 NSaved=   1.
 NSaved= 1 IEnMin= 1 EnMin= -4488.76754123072     IErMin= 1 ErrMin= 2.70D-04
 ErrMax= 2.70D-04  0.00D+00 EMaxC= 1.00D-01 BMatC= 1.95D-04 BMatP= 1.95D-04
 IDIUse=3 WtCom= 9.97D-01 WtEn= 2.70D-03
 Coeff-Com:  0.100D+01
 Coeff-En:   0.100D+01
 Coeff:      0.100D+01
 Gap=     0.127 Goal=   None    Shift=    0.000
 Gap=     0.127 Goal=   None    Shift=    0.000
 RMSDP=2.47D-06 MaxDP=9.25D-05 DE= 8.44D-04 OVMax= 5.64D-04

 Cycle  13  Pass 1  IDiag  1:
 RMSU=  1.77D-04    CP:  9.99D-01
 E= -4488.76758395180     Delta-E=       -0.000042721071 Rises=F Damp=F
 DIIS: error= 3.11D-05 at cycle   2 NSaved=   2.
 NSaved= 2 IEnMin= 2 EnMin= -4488.76758395180     IErMin= 2 ErrMin= 3.11D-05
 ErrMax= 3.11D-05  0.00D+00 EMaxC= 1.00D-01 BMatC= 7.09D-06 BMatP= 1.95D-04
 IDIUse=1 WtCom= 1.00D+00 WtEn= 0.00D+00
 Coeff-Com:  0.304D-01 0.970D+00
 Coeff:      0.304D-01 0.970D+00
 Gap=     0.127 Goal=   None    Shift=    0.000
 Gap=     0.127 Goal=   None    Shift=    0.000
 RMSDP=7.39D-06 MaxDP=5.06D-04 DE=-4.27D-05 OVMax= 7.36D-04

 Cycle  14  Pass 1  IDiag  1:
 RMSU=  5.26D-06    CP:  9.99D-01  1.03D+00
 E= -4488.76757611288     Delta-E=        0.000007838913 Rises=F Damp=F
 DIIS: error= 7.32D-05 at cycle   3 NSaved=   3.
 NSaved= 3 IEnMin= 2 EnMin= -4488.76758395180     IErMin= 2 ErrMin= 3.11D-05
 ErrMax= 7.32D-05  0.00D+00 EMaxC= 1.00D-01 BMatC= 3.67D-05 BMatP= 7.09D-06
 IDIUse=1 WtCom= 1.00D+00 WtEn= 0.00D+00
 Coeff-Com: -0.143D-01 0.705D+00 0.309D+00
 Coeff:     -0.143D-01 0.705D+00 0.309D+00
 Gap=     0.127 Goal=   None    Shift=    0.000
 Gap=     0.127 Goal=   None    Shift=    0.000
 RMSDP=3.59D-06 MaxDP=3.81D-04 DE= 7.84D-06 OVMax= 5.31D-04

 Cycle  15  Pass 1  IDiag  1:
 RMSU=  1.15D-06    CP:  9.99D-01  1.03D+00  3.59D-01
 E= -4488.76758590127     Delta-E=       -0.000009788386 Rises=F Damp=F
 DIIS: error= 6.57D-06 at cycle   4 NSaved=   4.
 NSaved= 4 IEnMin= 4 EnMin= -4488.76758590127     IErMin= 4 ErrMin= 6.57D-06
 ErrMax= 6.57D-06  0.00D+00 EMaxC= 1.00D-01 BMatC= 2.36D-07 BMatP= 7.09D-06
 IDIUse=1 WtCom= 1.00D+00 WtEn= 0.00D+00
 Coeff-Com: -0.933D-02 0.425D+00 0.191D+00 0.394D+00
 Coeff:     -0.933D-02 0.425D+00 0.191D+00 0.394D+00
 Gap=     0.127 Goal=   None    Shift=    0.000
 Gap=     0.127 Goal=   None    Shift=    0.000
 RMSDP=2.86D-07 MaxDP=2.57D-05 DE=-9.79D-06 OVMax= 3.36D-05

 Cycle  16  Pass 1  IDiag  1:
 RMSU=  2.74D-07    CP:  9.99D-01  1.03D+00  3.62D-01  9.37D-01
[...]
    22 C(13)  Bbb     0.0000     0.000     0.000     0.000 -0.3140 -0.5939  0.7408
              Bcc     0.0000     0.000     0.000     0.000  0.3081  0.6743  0.6712
 
              Baa    -0.0000    -0.000    -0.000    -0.000  0.3391  0.9326  0.1235
    23 C(13)  Bbb     0.0000     0.000     0.000     0.000  0.9235 -0.3550  0.1452
              Bcc     0.0000     0.000     0.000     0.000 -0.1793 -0.0648  0.9817
 
              Baa    -0.0000    -0.000    -0.000    -0.000  0.9486 -0.2871  0.1334
    24 S(33)  Bbb    -0.0000    -0.000    -0.000    -0.000 -0.1572 -0.0614  0.9857
              Bcc     0.0000     0.000     0.000     0.000  0.2748  0.9559  0.1034
 
              Baa    -0.0000    -0.000    -0.000    -0.000  0.0550 -0.5920  0.8041
    25 C(13)  Bbb    -0.0000    -0.000    -0.000    -0.000 -0.1116  0.7966  0.5941
              Bcc     0.0000     0.000     0.000     0.000  0.9922  0.1224  0.0222
 
              Baa    -0.0000    -0.000    -0.000    -0.000  0.9530 -0.2839 -0.1062
    26 C(13)  Bbb    -0.0000    -0.000    -0.000    -0.000  0.3022  0.9169  0.2607
              Bcc     0.0000     0.000     0.000     0.000  0.0234 -0.2805  0.9596
 
              Baa    -0.0000    -0.000    -0.000    -0.000 -0.1506 -0.2652  0.9524
    27 C(13)  Bbb    -0.0000    -0.000    -0.000    -0.000  0.9882 -0.0674  0.1375
              Bcc     0.0000     0.000     0.000     0.000  0.0278  0.9618  0.2722
 
              Baa    -0.0000    -0.000    -0.000    -0.000 -0.2636  0.9626  0.0619
    28 C(13)  Bbb    -0.0000    -0.000    -0.000    -0.000 -0.0162 -0.0685  0.9975
              Bcc     0.0000     0.000     0.000     0.000  0.9645  0.2620  0.0336
 
              Baa    -0.0000    -0.000    -0.000    -0.000  0.9325 -0.3567 -0.0566
    29 C(13)  Bbb     0.0000     0.000     0.000     0.000  0.3575  0.9339  0.0053
              Bcc     0.0000     0.000     0.000     0.000  0.0509 -0.0252  0.9984
 
              Baa    -0.0000    -0.000    -0.000    -0.000 -0.6558  0.7049  0.2702
    30 F(19)  Bbb    -0.0000    -0.000    -0.000    -0.000 -0.0009 -0.3586  0.9335
              Bcc     0.0000     0.000     0.000     0.000  0.7549  0.6120  0.2358
 
              Baa    -0.0000    -0.000    -0.000    -0.000  0.9040  0.4184  0.0877
    31 C(13)  Bbb     0.0000     0.000     0.000     0.000 -0.4272  0.8767  0.2212
              Bcc     0.0000     0.000     0.000     0.000  0.0156 -0.2374  0.9713
 
              Baa    -0.0000    -0.000    -0.000    -0.000 -0.0308  0.8577  0.5132
    32 C(13)  Bbb     0.0000     0.000     0.000     0.000  0.8903  0.2569 -0.3759
              Bcc     0.0000     0.000     0.000     0.000  0.4543 -0.4453  0.7716
 
              Baa    -0.0000    -0.000    -0.000    -0.000  0.6690  0.3212  0.6703
    33 N(14)  Bbb    -0.0000    -0.000    -0.000    -0.000  0.3398  0.6699 -0.6602
              Bcc     0.0000     0.000     0.000     0.000 -0.6610  0.6694  0.3390
 
              Baa    -0.0000    -0.000    -0.000    -0.000  0.8801  0.4581  0.1252
    34 C(13)  Bbb    -0.0000    -0.000    -0.000    -0.000 -0.4405  0.6890  0.5755
              Bcc     0.0000     0.000     0.000     0.000  0.1774 -0.5616  0.8081
 
              Baa    -0.0000    -0.000    -0.000    -0.000  0.9376  0.2833 -0.2017
    35 C(13)  Bbb     0.0000     0.000     0.000     0.000  0.1674  0.1408  0.9758
              Bcc     0.0000     0.000     0.000     0.000 -0.3048  0.9487 -0.0846
 
              Baa    -0.0000    -0.000    -0.000    -0.000  0.3001  0.8125  0.4997
    36 S(33)  Bbb    -0.0000    -0.000    -0.000    -0.000 -0.1895 -0.4626  0.8661
              Bcc     0.0000     0.000     0.000     0.000  0.9349 -0.3546  0.0151
 
              Baa    -0.0000    -0.000    -0.000    -0.000  0.0463 -0.0478  0.9978
    37 C(13)  Bbb     0.0000     0.000     0.000     0.000  0.9855 -0.1613 -0.0535
              Bcc     0.0000     0.000     0.000     0.000  0.1635  0.9857  0.0397
 
              Baa    -0.0000    -0.000    -0.000    -0.000 -0.3331 -0.0814  0.9394
    38 C(13)  Bbb    -0.0000    -0.000    -0.000    -0.000  0.9099  0.2337  0.3429
              Bcc     0.0000     0.000     0.000     0.000 -0.2474  0.9689 -0.0038
 
              Baa    -0.0000    -0.000    -0.000    -0.000  0.0018  0.0376  0.9993
    39 C(13)  Bbb    -0.0000    -0.000    -0.000    -0.000 -0.6294  0.7766 -0.0281
              Bcc     0.0000     0.000     0.000     0.000  0.7771  0.6289 -0.0251
 
              Baa    -0.0000    -0.000    -0.000    -0.000  0.9812 -0.1923 -0.0156
    40 C(13)  Bbb    -0.0000    -0.000    -0.000    -0.000  0.0243  0.0430  0.9988
              Bcc     0.0000     0.000     0.000     0.000  0.1914  0.9804 -0.0469
 
              Baa    -0.0000    -0.000    -0.000    -0.000  0.0275 -0.0075  0.9996
    41 C(13)  Bbb    -0.0000    -0.000    -0.000    -0.000 -0.1268  0.9919  0.0109
              Bcc     0.0000     0.000     0.000     0.000  0.9916  0.1270 -0.0263
 
              Baa    -0.0000    -0.000    -0.000    -0.000  0.0471  0.0478  0.9977
    42 F(19)  Bbb    -0.0000    -0.000    -0.000    -0.000  0.3493  0.9350 -0.0612
              Bcc     0.0000     0.000     0.000     0.000  0.9358 -0.3514 -0.0273
 
              Baa    -0.0000    -0.000    -0.000    -0.000  0.0938  0.9954  0.0185
    43 C(13)  Bbb     0.0000     0.000     0.000     0.000  0.0353 -0.0219  0.9991
              Bcc     0.0000     0.000     0.000     0.000  0.9950 -0.0930 -0.0372
 
              Baa    -0.0000    -0.000    -0.000    -0.000  0.0375  0.0231  0.9990
    44 C(13)  Bbb    -0.0000    -0.000    -0.000    -0.000  0.3600  0.9323 -0.0351
              Bcc     0.0000     0.000     0.000     0.000  0.9322 -0.3609 -0.0266
 
              Baa    -0.0000    -0.000    -0.000    -0.000  0.6909  0.7191  0.0739
    45 N(14)  Bbb    -0.0000    -0.000    -0.000    -0.000 -0.0367 -0.0672  0.9971
              Bcc     0.0000     0.000     0.000     0.000  0.7220 -0.6916 -0.0201
 
              Baa    -0.0000    -0.000    -0.000    -0.000  0.8407  0.5413  0.0155
    46 C(13)  Bbb    -0.0000    -0.000    -0.000    -0.000 -0.5403  0.8364  0.0921
              Bcc     0.0000     0.000     0.000     0.000  0.0369 -0.0858  0.9956
 
              Baa    -0.0000    -0.000    -0.000    -0.000  0.9472  0.3158  0.0559
    47 C(13)  Bbb     0.0000     0.000     0.000     0.000 -0.2288  0.7875 -0.5723
              Bcc     0.0000     0.000     0.000     0.000 -0.2248  0.5293  0.8181
 
              Baa    -0.0000    -0.000    -0.000    -0.000  0.9971 -0.0738 -0.0189
    48 S(33)  Bbb     0.0000     0.000     0.000     0.000  0.0071 -0.1568  0.9876
              Bcc     0.0000     0.000     0.000     0.000  0.0758  0.9849  0.1558
 
              Baa    -0.0000    -0.000    -0.000    -0.000  0.9823 -0.1738  0.0699
    49 C(13)  Bbb     0.0000     0.000     0.000     0.000  0.1656  0.9800  0.1101
              Bcc     0.0000     0.000     0.000     0.000 -0.0877 -0.0966  0.9915
 
              Baa    -0.0000    -0.000    -0.000    -0.000  0.7650 -0.6129  0.1980
    50 C(13)  Bbb    -0.0000    -0.000    -0.000    -0.000 -0.2259  0.0327  0.9736
              Bcc     0.0000     0.000     0.000     0.000  0.6032  0.7895  0.1134
 
              Baa    -0.0000    -0.000    -0.000    -0.000 -0.0700  0.9732 -0.2190
    51 C(13)  Bbb    -0.0000    -0.000    -0.000    -0.000  0.9968  0.0765  0.0215
              Bcc     0.0000     0.000     0.000     0.000 -0.0377  0.2168  0.9755
 
              Baa    -0.0000    -0.000    -0.000    -0.000 -0.3277  0.9162 -0.2306
    52 C(13)  Bbb     0.0000     0.000     0.000     0.000 -0.0578  0.2241  0.9728
              Bcc     0.0000     0.000     0.000     0.000  0.9430  0.3321 -0.0205
 
              Baa    -0.0000    -0.000    -0.000    -0.000  0.0353  0.1747  0.9840
    53 C(13)  Bbb     0.0000     0.000     0.000     0.000  0.9035 -0.4263  0.0433
              Bcc     0.0000     0.000     0.000     0.000  0.4271  0.8875 -0.1729
 
              Baa    -0.0000    -0.000    -0.000    -0.000 -0.4977  0.1872  0.8469
    54 F(19)  Bbb    -0.0000    -0.000    -0.000    -0.000  0.7137 -0.4665  0.5225
              Bcc     0.0000     0.000     0.000     0.000  0.4929  0.8645  0.0986
 
              Baa    -0.0000    -0.000    -0.000    -0.000 -0.2930  0.9293  0.2247
    55 C(13)  Bbb    -0.0000    -0.000    -0.000    -0.000 -0.0560 -0.2513  0.9663
              Bcc     0.0000     0.000     0.000     0.000  0.9545  0.2705  0.1257
 
              Baa    -0.0000    -0.000    -0.000    -0.000  0.0365  0.3056  0.9515
    56 C(13)  Bbb    -0.0000    -0.000    -0.000    -0.000  0.3376  0.8923 -0.2996
              Bcc     0.0000     0.000     0.000     0.000  0.9406 -0.3322  0.0706
 
              Baa    -0.0000    -0.000    -0.000    -0.000  0.1119  0.9407 -0.3202
    57 N(14)  Bbb    -0.0000    -0.000    -0.000    -0.000  0.0750  0.3133  0.9467
              Bcc     0.0000     0.000     0.000     0.000  0.9909 -0.1299 -0.0356
 
              Baa    -0.0000    -0.000    -0.000    -0.000  0.3835  0.8796 -0.2813
    58 C(13)  Bbb     0.0000     0.000     0.000     0.000  0.0448  0.2865  0.9570
              Bcc     0.0000     0.000     0.000     0.000  0.9224 -0.3796  0.0705
 
              Baa    -0.0000    -0.000    -0.000    -0.000  0.0857  0.4093  0.9084
    59 C(13)  Bbb     0.0000     0.000     0.000     0.000 -0.0421  0.9124 -0.4071
              Bcc     0.0000     0.000     0.000     0.000  0.9954  0.0034 -0.0954
 
              Baa    -0.0000    -0.000    -0.000    -0.000  0.1843  0.9597 -0.2122
    60 S(33)  Bbb    -0.0000    -0.000    -0.000    -0.000  0.0540  0.2057  0.9771
              Bcc     0.0000     0.000     0.000     0.000  0.9814 -0.1915 -0.0140
 
              Baa    -0.0000    -0.000    -0.000    -0.000  0.9804  0.1856 -0.0657
    61 H(1)   Bbb     0.0000     0.000     0.000     0.000  0.0869 -0.1088  0.9903
              Bcc     0.0000     0.000     0.000     0.000 -0.1767  0.9766  0.1228
 
              Baa    -0.0000    -0.000    -0.000    -0.000  0.6488  0.7594  0.0487
    62 H(1)   Bbb     0.0000     0.000     0.000     0.000  0.7563 -0.6365 -0.1515
              Bcc     0.0000     0.000     0.000     0.000  0.0841 -0.1351  0.9873
 
              Baa    -0.0000    -0.000    -0.000    -0.000 -0.0595 -0.2622  0.9632
    63 H(1)   Bbb    -0.0000    -0.000    -0.000    -0.000  0.7144  0.6627  0.2246
              Bcc     0.0000     0.000     0.000     0.000 -0.6972  0.7015  0.1479
 
              Baa    -0.0000    -0.000    -0.000    -0.000  0.8939  0.4415 -0.0774
    64 H(1)   Bbb     0.0000     0.000     0.000     0.000 -0.4006  0.8644  0.3038
              Bcc     0.0000     0.000     0.000     0.000  0.2010 -0.2406  0.9496
 
              Baa    -0.0000    -0.000    -0.000    -0.000  0.4304  0.8792 -0.2043
    65 H(1)   Bbb     0.0000     0.000     0.000     0.000 -0.2087  0.3171  0.9251
              Bcc     0.0000     0.000     0.000     0.000  0.8782 -0.3556  0.3200
 
              Baa    -0.0000    -0.000    -0.000    -0.000  0.6174  0.7831  0.0754
    66 H(1)   Bbb     0.0000     0.000     0.000     0.000  0.7212 -0.6017  0.3434
              Bcc     0.0000     0.000     0.000     0.000 -0.3143  0.1576  0.9362
 
              Baa    -0.0000    -0.000    -0.000    -0.000 -0.0924  0.9956  0.0179
    67 H(1)   Bbb     0.0000     0.000     0.000     0.000  0.9935  0.0909  0.0681
              Bcc     0.0000     0.000     0.000     0.000 -0.0661 -0.0241  0.9975
 
              Baa    -0.0000    -0.000    -0.000    -0.000  0.9392  0.3383  0.0587
    68 H(1)   Bbb    -0.0000    -0.000    -0.000    -0.000 -0.0100 -0.1441  0.9895
              Bcc     0.0000     0.000     0.000     0.000 -0.3433  0.9299  0.1319
 
              Baa    -0.0000    -0.000    -0.000    -0.000 -0.4356  0.8742  0.2146
    69 H(1)   Bbb    -0.0000    -0.000    -0.000    -0.000 -0.0224 -0.2489  0.9683
              Bcc     0.0000     0.000     0.000     0.000  0.8999  0.4170  0.1280
 
              Baa    -0.0000    -0.000    -0.000    -0.000 -0.4349  0.8676  0.2411
    70 H(1)   Bbb     0.0000     0.000     0.000     0.000  0.7846  0.2338  0.5742
              Bcc     0.0000     0.000     0.000     0.000 -0.4418 -0.4389  0.7824
 
              Baa    -0.0000    -0.000    -0.000    -0.000  0.8968 -0.4320 -0.0957
    71 H(1)   Bbb    -0.0000    -0.000    -0.000    -0.000  0.1139  0.0164  0.9934
              Bcc     0.0000     0.000     0.000     0.000  0.4276  0.9017 -0.0640
 
              Baa    -0.0000    -0.000    -0.000    -0.000 -0.4146  0.8998 -0.1362
    72 H(1)   Bbb    -0.0000    -0.000    -0.000    -0.000 -0.1205  0.0941  0.9882
              Bcc     0.0000     0.000     0.000     0.000  0.9020  0.4261  0.0694
 
              Baa    -0.0000    -0.000    -0.000    -0.000 -0.0360 -0.1961  0.9799
    73 H(1)   Bbb    -0.0000    -0.000    -0.000    -0.000  0.7449 -0.6589 -0.1045
              Bcc     0.0000     0.000     0.000     0.000  0.6662  0.7262  0.1698
 
              Baa    -0.0000    -0.000    -0.000    -0.000  0.0961 -0.0423  0.9945
    74 H(1)   Bbb    -0.0000    -0.000    -0.000    -0.000 -0.5622  0.8222  0.0893
              Bcc     0.0000     0.000     0.000     0.000  0.8214  0.5677 -0.0553
 
              Baa    -0.0000    -0.000    -0.000    -0.000  0.0202 -0.0246  0.9995
    75 H(1)   Bbb    -0.0000    -0.000    -0.000    -0.000  0.8611  0.5085 -0.0049
              Bcc     0.0000     0.000     0.000     0.000 -0.5081  0.8607  0.0315
 
              Baa    -0.0000    -0.000    -0.000    -0.000  0.1088 -0.1712  0.9792
    76 H(1)   Bbb     0.0000     0.000     0.000     0.000 -0.2031  0.9604  0.1905
              Bcc     0.0000     0.000     0.000     0.000  0.9731  0.2196 -0.0697
 
              Baa    -0.0000    -0.000    -0.000    -0.000 -0.6497  0.7509 -0.1186
    77 H(1)   Bbb     0.0000     0.000     0.000     0.000 -0.2416 -0.0560  0.9688
              Bcc     0.0000     0.000     0.000     0.000  0.7208  0.6581  0.2178
 
              Baa    -0.0000    -0.000    -0.000    -0.000 -0.4294  0.8839 -0.1851
    78 H(1)   Bbb     0.0000     0.000     0.000     0.000  0.9031  0.4215 -0.0825
              Bcc     0.0000     0.000     0.000     0.000 -0.0051  0.2026  0.9792
 
              Baa    -0.0000    -0.000    -0.000    -0.000  0.7279  0.5601 -0.3955
    79 H(1)   Bbb    -0.0000    -0.000    -0.000    -0.000  0.2249  0.3498  0.9094
              Bcc     0.0000     0.000     0.000     0.000 -0.6478  0.7509 -0.1286
 
              Baa    -0.0000    -0.000    -0.000    -0.000 -0.2743 -0.0209  0.9614
    80 H(1)   Bbb    -0.0000    -0.000    -0.000    -0.000  0.7786  0.5820  0.2348
              Bcc     0.0000     0.000     0.000     0.000 -0.5645  0.8129 -0.1433
 
              Baa    -0.0000    -0.000    -0.000    -0.000  0.3623  0.9158 -0.1734
    81 H(1)   Bbb     0.0000     0.000     0.000     0.000  0.0085  0.1827  0.9831
              Bcc     0.0000     0.000     0.000     0.000  0.9320 -0.3576  0.0584
 
              Baa    -0.0000    -0.000    -0.000    -0.000 -0.2467  0.9592 -0.1380
    82 H(1)   Bbb     0.0000     0.000     0.000     0.000  0.1131  0.1700  0.9789
              Bcc     0.0000     0.000     0.000     0.000  0.9625  0.2259 -0.1504
 

 ---------------------------------------------------------------------------------

 No NMR shielding tensors so no spin-rotation constants.
 Leave Link  601 at Fri Jul 24 16:19:49 2020, MaxMem=  4026531840 cpu:              12.8 elap:               1.7
 (Enter /opt/ohpc/pub/libs/gaussian/g16-A.03/sandybridge/g16/l9999.exe)

 Test job not archived.
 1\1\GINC-SKYLAKE017\FOpt\ULC-wPBE\CC-pVDZ\C45H22F5N5S5\RDU230\24-Jul-2
 020\0\\#P uLC-wPBE/cc-pVDZ iop(3/107=0050500000, 3/108=0050500000) opt
 \\H22 C45 S5 N5 F5\\0,1\C,19.691665363,0.6971434454,-0.0656722505\C,18
 .7018663568,1.6787830804,0.107923832\C,17.3584421652,1.3043254839,0.19
 60749388\C,16.9526030596,-0.0501754129,0.1102390235\C,17.9774532066,-1
 .0122478985,-0.0659749002\F,17.6676295363,-2.3198400816,-0.1755304909\
 C,19.3255371946,-0.6521370866,-0.1529080734\C,15.5397362197,-0.4296507
 072,0.1937040016\N,15.0753350509,-1.6367355884,0.4624629701\C,13.71196
 67242,-1.6520956794,0.4731444859\C,13.0535476046,-0.4537405358,0.20805
 32542\S,14.2628960578,0.7817059843,-0.0870408804\C,11.6181481248,-0.18
 14786133,0.1619024573\C,11.10037366,1.1390121282,0.1980804274\C,9.7297
 475532,1.3785906426,0.1615850457\C,8.7909856176,0.3185910414,0.0902973
 514\C,9.3289217423,-0.9856570981,0.0555351209\F,8.4777121808,-2.046833
 9598,-0.0217616978\C,10.6932931883,-1.2495378765,0.0841471467\C,7.3630
 946616,0.6231084342,0.0547921024\N,6.9000417274,1.8664413376,0.0864559
 29\C,5.539923226,1.8886548523,0.0448510877\C,4.8830188342,0.6612705883
 ,-0.0220809678\S,6.0925746056,-0.6092550469,-0.0300512801\C,3.44891384
 18,0.3869610645,-0.0832852435\C,2.9420481286,-0.896130015,-0.415853505
 3\C,1.572924289,-1.1389526516,-0.4757068977\C,0.6239582722,-0.11920536
 91,-0.2115014383\C,1.1507393766,1.148114712,0.1171150333\F,0.289609021
 7,2.1684702476,0.3899683963\C,2.5131654881,1.4131814027,0.188626463\C,
 -0.8018442052,-0.4251758452,-0.2890131245\N,-1.2541148428,-1.632873029
 9,-0.6022173909\C,-2.6146892156,-1.665134577,-0.6083629019\C,-3.282821
 5661,-0.481471753,-0.3002104178\S,-2.0840739731,0.7580632793,0.0218513
 021\C,-4.7203206525,-0.225466745,-0.2374837706\C,-5.2485382984,1.09062
 99734,-0.1871754526\C,-6.6208763332,1.3168587519,-0.1349559314\C,-7.55
 20019923,0.2476799658,-0.1325378142\C,-7.0040337725,-1.051829036,-0.18
 28553612\F,-7.8468484991,-2.1226743698,-0.1753425973\C,-5.6377803114,-
 1.3028232429,-0.2298045721\C,-8.9821608388,0.5387733003,-0.0778025727\
 N,-9.4543197066,1.7778811141,-0.0296066759\C,-10.8149042287,1.78736347
 12,0.0133711997\C,-11.4625087259,0.5536133718,0.0013594261\S,-10.24401
 21119,-0.7057838085,-0.0726140271\C,-12.8952093992,0.2651769446,0.0448
 652941\C,-13.3929641688,-1.0313774331,0.3335998981\C,-14.7611172621,-1
 .2862522576,0.3779378231\C,-15.7163450692,-0.2668117233,0.1412473385\C
 ,-15.1984835002,1.0137474462,-0.1436870462\F,-16.0658422663,2.03607194
 97,-0.3892122187\C,-13.8372949352,1.2918459359,-0.1997243733\C,-17.143
 033506,-0.5867631892,0.200602218\N,-17.5876652585,-1.8041820181,0.4709
 381039\C,-18.9561622054,-1.8448883483,0.4686562296\C,-19.5997032329,-0
 .6547289277,0.1951840784\S,-18.4355894009,0.5997742689,-0.07749189\H,2
 0.7517674116,0.9797362207,-0.1313171223\H,18.9787600209,2.7391311694,0
 .1843260208\H,16.5899419533,2.0755605739,0.3547927174\H,20.0685068227,
 -1.4486643642,-0.2938305373\H,13.1979831612,-2.592753717,0.7119907601\
 H,11.7923816694,1.9903677111,0.2694044032\H,9.3307460623,2.4010055356,
 0.1918872376\H,11.0185931488,-2.2960538403,0.0268921124\H,5.029165934,
 2.8607455426,0.0471680946\H,3.6410501588,-1.71401547,-0.6424066244\H,1
 .1831513225,-2.131909568,-0.7356031129\H,2.8269560992,2.4252705324,0.4
 740354864\H,-3.1178399893,-2.6051020964,-0.8713358625\H,-4.564234727,1
 .9511092618,-0.201533435\H,-7.0274661156,2.3360794068,-0.0984330597\H,
 -5.3059916548,-2.348775458,-0.24379532\H,-11.3334898934,2.7533308733,0
 .0754654216\H,-12.6883782345,-1.8500599933,0.5392754457\H,-15.14498765
 63,-2.289797579,0.6040151888\H,-13.5293915037,2.3142412908,-0.45337366
 61\H,-19.4647462998,-2.7951953182,0.6783475226\H,-20.6746602911,-0.451
 923007,0.1401761145\\Version=EM64L-G16RevA.03\State=1-A\HF=-4488.95004
 62\S2=0.\S2-1=0.\S2A=0.\RMSD=6.131e-09\RMSF=3.097e-06\Dipole=1.0105444
 ,0.6668,-0.0493502\Quadrupole=47.9907964,-15.6743516,-32.3164448,21.80
 2311,-1.8343468,0.7235019\PG=C01 [X(C45H22F5N5S5)]\\@


 Just remember, when you're over the hill, you begin to pick up speed.
 -- Charles Schulz
 Job cpu time:       1 days  6 hours 15 minutes 44.8 seconds.
 Elapsed time:       0 days  3 hours 51 minutes 38.0 seconds.
 File lengths (MBytes):  RWF=   1084 Int=      0 D2E=      0 Chk=     96 Scr=      8
 Normal termination of Gaussian 16 at Fri Jul 24 16:19:49 2020.
