 Entering Gaussian System, Link 0=g16
 Input=mols_66_7_12_c-c-cF-cOC_opt_0.gjf
 Output=mols_66_7_12_c-c-cF-cOC_opt_0.log
 Initial command:
 /opt/ohpc/pub/libs/gaussian/g16-A.03/sandybridge/g16/l1.exe "/mnt/gpfs2_4m/scratch/rdu230/ondemand/projects/dihedral_energies/7trial/wtuning/mols_66_7_12_c-c-cF-cOC/Gau-345099.inp" -scrdir="/mnt/gpfs2_4m/scratch/rdu230/ondemand/projects/dihedral_energies/7trial/wtuning/mols_66_7_12_c-c-cF-cOC/"
 Entering Link 1 = /opt/ohpc/pub/libs/gaussian/g16-A.03/sandybridge/g16/l1.exe PID=    345100.
  
 Copyright (c) 1988,1990,1992,1993,1995,1998,2003,2009,2016,
            Gaussian, Inc.  All Rights Reserved.
  
 This is part of the Gaussian(R) 16 program.  It is based on
 the Gaussian(R) 09 system (copyright 2009, Gaussian, Inc.),
 the Gaussian(R) 03 system (copyright 2003, Gaussian, Inc.),
 the Gaussian(R) 98 system (copyright 1998, Gaussian, Inc.),
 the Gaussian(R) 94 system (copyright 1995, Gaussian, Inc.),
 the Gaussian 92(TM) system (copyright 1992, Gaussian, Inc.),
 the Gaussian 90(TM) system (copyright 1990, Gaussian, Inc.),
 the Gaussian 88(TM) system (copyright 1988, Gaussian, Inc.),
 the Gaussian 86(TM) system (copyright 1986, Carnegie Mellon
 University), and the Gaussian 82(TM) system (copyright 1983,
 Carnegie Mellon University). Gaussian is a federally registered
 trademark of Gaussian, Inc.
  
 This software contains proprietary and confidential information,
 including trade secrets, belonging to Gaussian, Inc.
  
 This software is provided under written license and may be
 used, copied, transmitted, or stored only in accord with that
 written license.
  
 The following legend is applicable only to US Government
 contracts under FAR:
  
                    RESTRICTED RIGHTS LEGEND
  
 Use, reproduction and disclosure by the US Government is
 subject to restrictions as set forth in subparagraphs (a)
 and (c) of the Commercial Computer Software - Restricted
 Rights clause in FAR 52.227-19.
  
 Gaussian, Inc.
 340 Quinnipiac St., Bldg. 40, Wallingford CT 06492
  
  
 ---------------------------------------------------------------
 Warning -- This program may not be used in any manner that
 competes with the business of Gaussian, Inc. or will provide
 assistance to any competitor of Gaussian, Inc.  The licensee
 of this program is prohibited from giving any competitor of
 Gaussian, Inc. access to this program.  By using this program,
 the user acknowledges that Gaussian, Inc. is engaged in the
 business of creating and licensing software in the field of
 computational chemistry and represents and warrants to the
 licensee that it is not a competitor of Gaussian, Inc. and that
 it will not use this program in any manner prohibited above.
 ---------------------------------------------------------------
  

 Cite this work as:
 Gaussian 16, Revision A.03,
 M. J. Frisch, G. W. Trucks, H. B. Schlegel, G. E. Scuseria, 
 M. A. Robb, J. R. Cheeseman, G. Scalmani, V. Barone, 
 G. A. Petersson, H. Nakatsuji, X. Li, M. Caricato, A. V. Marenich, 
 J. Bloino, B. G. Janesko, R. Gomperts, B. Mennucci, H. P. Hratchian, 
 J. V. Ortiz, A. F. Izmaylov, J. L. Sonnenberg, D. Williams-Young, 
 F. Ding, F. Lipparini, F. Egidi, J. Goings, B. Peng, A. Petrone, 
 T. Henderson, D. Ranasinghe, V. G. Zakrzewski, J. Gao, N. Rega, 
 G. Zheng, W. Liang, M. Hada, M. Ehara, K. Toyota, R. Fukuda, 
 J. Hasegawa, M. Ishida, T. Nakajima, Y. Honda, O. Kitao, H. Nakai, 
 T. Vreven, K. Throssell, J. A. Montgomery, Jr., J. E. Peralta, 
 F. Ogliaro, M. J. Bearpark, J. J. Heyd, E. N. Brothers, K. N. Kudin, 
 V. N. Staroverov, T. A. Keith, R. Kobayashi, J. Normand, 
 K. Raghavachari, A. P. Rendell, J. C. Burant, S. S. Iyengar, 
 J. Tomasi, M. Cossi, J. M. Millam, M. Klene, C. Adamo, R. Cammi, 
 J. W. Ochterski, R. L. Martin, K. Morokuma, O. Farkas, 
 J. B. Foresman, and D. J. Fox, Gaussian, Inc., Wallingford CT, 2016.
 
 ******************************************
 Gaussian 16:  EM64L-G16RevA.03 25-Dec-2016
                24-Jul-2020 
 ******************************************
 %mem=30GB
 %nproc=8
 Will use up to    8 processors via shared memory.
 ---------------------------------------------------------------
 #P uLC-wPBE/cc-pVDZ iop(3/107=0398000000, 3/108=0398000000) opt
 ---------------------------------------------------------------
 1/18=20,19=15,26=3,38=1/1,3;
 2/9=110,12=2,17=6,18=5,40=1/2;
 3/5=16,11=2,25=1,30=1,71=1,74=-41,107=398000000,108=398000000,116=2/1,2,3;
 4//1;
 5/5=2,38=5/2;
 6/7=2,8=2,9=2,10=2,28=1/1;
 7//1,2,3,16;
 1/18=20,19=15,26=3/3(2);
 2/9=110/2;
 99//99;
 2/9=110/2;
 3/5=16,11=2,25=1,30=1,71=1,74=-41,107=398000000,108=398000000,116=2/1,2,3;
 4/5=5,16=3,69=1/1;
 5/5=2,38=5/2;
 7//1,2,3,16;
 1/18=20,19=15,26=3/3(-5);
 2/9=110/2;
 6/7=2,8=2,9=2,10=2,19=2,28=1/1;
 99/9=1/99;
 Leave Link    1 at Fri Jul 24 22:31:51 2020, MaxMem=  4026531840 cpu:               0.9 elap:               0.1
 (Enter /opt/ohpc/pub/libs/gaussian/g16-A.03/sandybridge/g16/l101.exe)
 -------------
 H65 C91 O7 F7
 -------------
 Symbolic Z-matrix:
 Charge =  0 Multiplicity = 1
 C                    -28.84322   3.1746    1.62063 
 C                    -28.32273   3.32936   0.37321 
 C                    -27.05643   3.02829   0.10983 
 F                    -26.56047   3.25512  -1.16622 
 C                    -26.20893   2.54911   1.03096 
 C                    -26.66647   2.3257    2.38392 
 C                    -28.01385   2.67921   2.64223 
 C                    -24.73458   2.19345   0.74432 
 C                    -23.87663   3.24301   0.26207 
 C                    -22.56353   3.04268  -0.04335 
 C                    -21.98579   1.78455   0.20613 
 C                    -22.8399   0.73836   0.73847 
 C                    -24.15379   0.98799   0.97514 
 O                    -24.98493  -0.01847   1.42579 
 C                    -24.64853  -1.34369   0.99804 
 C                    -20.51982   1.60527   0.02453 
 C                    -19.68864   1.19684   1.12534 
 C                    -18.36206   0.98316   0.92748 
 F                    -17.6265   0.59984   2.01536 
 C                    -17.80103   1.10928  -0.3045 
 C                    -18.58458   1.45956  -1.34424 
 C                    -19.93199   1.71896  -1.23557 
 C                    -16.33922   0.77367  -0.43403 
 C                    -15.40131   1.50985   0.26614 
 C                    -14.01459   1.24029   0.15991 
 C                    -13.56276   0.27211  -0.64015 
 C                    -14.46714  -0.43298  -1.40024 
 C                    -15.84683  -0.22191  -1.28118 
 O                    -16.80874  -0.93129  -1.95372 
 C                    -16.3554  -1.88871  -2.92089 
 C                    -12.13126  -0.00094  -0.74348 
 C                    -11.36406   0.03118  -1.94085 
 C                    -10.06429  -0.30053  -2.00224 
 F                    -9.35947  -0.1809   -3.15678 
 C                    -9.30614  -0.63523  -0.86057 
 C                    -10.05158  -0.64788   0.42747 
 C                    -11.38504  -0.36984   0.47256 
 C                    -7.8835   -0.83496  -0.86737 
 C                    -7.01997   0.19242  -1.11941 
 C                    -5.6313   -0.02366  -1.07002 
 C                    -5.00978  -1.21718  -0.68377 
 C                    -5.9478   -2.28578  -0.41101 
 C                    -7.29886  -2.16818  -0.50077 
 O                    -8.2637   -3.09773  -0.29563 
 C                    -7.76321  -4.44847  -0.35018 
 C                    -3.63253  -1.42575  -0.53101 
 C                    -2.68175  -1.06112  -1.61695 
 C                    -1.34987  -1.30243  -1.4469 
 F                    -0.58134  -0.9053   -2.50007 
 C                    -0.72816  -1.75168  -0.22482 
 C                    -1.66333  -2.06087   0.7407 
 C                    -3.0135   -1.89049   0.63289 
 C                     0.7273   -1.86856  -0.11908 
 C                     1.48371  -0.71958  -0.30203 
 C                     2.91411  -0.85345  -0.19674 
 C                     3.54505  -2.03768   0.24353 
 C                     2.67565  -3.16503   0.39945 
 C                     1.36117  -3.10954   0.30689 
 O                     0.53015  -4.16891   0.43357 
 C                     1.09028  -5.49607   0.67562 
 C                     4.98281  -2.10485   0.27147 
 C                     5.78871  -1.55556  -0.71863 
 C                     7.19025  -1.56516  -0.61658 
 F                     7.87879  -1.06894  -1.57632 
 C                     7.83645  -2.08682   0.52053 
 C                     7.01422  -2.66014   1.58278 
 C                     5.64977  -2.66221   1.45124 
 C                     9.32094  -1.95966   0.67869 
 C                     10.16027  -2.5992   -0.32431 
 C                     11.53296  -2.46044  -0.25325 
 C                     12.11907  -1.62401   0.72506 
 C                     11.34631  -1.15074   1.70816 
 C                     9.91683  -1.32752   1.73449 
 O                     9.15332  -0.72176   2.68675 
 C                     9.66195   0.02405   3.70904 
 C                     13.63304  -1.34098   0.6625 
 C                     14.10993  -0.68422  -0.45849 
 C                     15.43715  -0.37908  -0.48726 
 F                     15.89369   0.22586  -1.66652 
 C                     16.29642  -0.60507   0.56045 
 C                     15.77595  -1.28412   1.69423 
 C                     14.49801  -1.65844   1.7021 
 C                     17.73618  -0.13889   0.45489 
 C                     17.97768   1.18277   0.5692 
 C                     19.27322   1.67754   0.5337 
 C                     20.40075   0.85689   0.33256 
 C                     20.09341  -0.54561   0.22591 
 C                     18.78739  -1.09965   0.33712 
 O                     18.5082  -2.40274   0.17255 
 C                     19.49718  -3.31661   0.00741 
 C                     21.81863   1.31237   0.26286 
 C                     22.56558   0.98429  -0.82019 
 C                     23.91434   1.59243  -0.96284 
 F                     24.61498   1.22533  -1.98425 
 C                     24.37745   2.48008   0.00476 
 C                     23.54821   2.7156    1.12977 
 C                     22.25396   2.19163   1.20609 
 C                     25.78116   2.98722  -0.1327 
 C                     26.82672   2.20038  -0.18477 
 C                     28.1548   2.72693  -0.31024 
 C                     28.34564   4.00776  -0.42098 
 C                     27.28486   4.9309   -0.4119 
 C                     25.97799   4.46462  -0.24027 
 O                     24.81827   5.23188  -0.22144 
 C                     24.93889   6.57489  -0.64311 
 H                    -29.92008   3.41167   1.92008 
 H                    -28.96442   3.79082  -0.39902 
 H                    -25.98883   1.91235   3.12706 
 H                    -28.39603   2.41827   3.62265 
 H                    -24.33059   4.25194   0.12176 
 H                    -21.94819   3.85321  -0.30977 
 H                    -22.39425  -0.17061   0.90115 
 H                    -25.51362  -2.00071   1.2539 
 H                    -24.318   -1.41955   0.01013 
 H                    -23.85342  -1.6812    1.72815 
 H                    -20.19352   1.06088   2.16802 
 H                    -18.16845   1.61471  -2.38008 
 H                    -20.52484   2.05202  -2.00545 
 H                    -15.68156   2.31378   0.89331 
 H                    -13.27866   1.92318   0.73623 
 H                    -14.11307  -1.3281   -2.0393 
 H                    -17.24169  -2.24279  -3.44849 
 H                    -15.85365  -2.68831  -2.4762 
 H                    -15.74942  -1.47087  -3.69894 
 H                    -11.86499   0.28592  -2.90048 
 H                    -9.51721  -0.85449   1.29807 
 H                    -11.91645  -0.46363   1.40918 
 H                    -7.38962   1.16713  -1.40859 
 H                    -4.89211   0.83937  -1.2788 
 H                    -5.49344  -3.31191  -0.21869 
 H                    -8.62804  -5.09687  -0.28883 
 H                    -7.20242  -4.65967  -1.27792 
 H                    -7.09699  -4.6842    0.60734 
 H                    -3.05064  -0.74379  -2.55022 
 H                    -1.24046  -2.51244   1.7307 
 H                    -3.64141  -2.20254   1.4832 
 H                     1.078     0.19606  -0.62119 
 H                     3.48093   0.07232  -0.3726 
 H                     3.24782  -4.10798   0.71214 
 H                     0.3009   -6.18118   0.71656 
 H                     1.59048  -5.44145   1.65256 
 H                     1.70174  -5.70795  -0.15832 
 H                     5.35513  -1.16502  -1.59352 
 H                     7.46209  -3.0491    2.50294 
 H                     5.07157  -3.00693   2.31702 
 H                     9.67523  -3.12087  -1.0572 
 H                     12.12308  -2.89294  -1.05305 
 H                     11.85784  -0.58579   2.5009 
 H                     8.90979   0.32053   4.40266 
 H                     10.23457   0.85865   3.34411 
 H                     10.35954  -0.54873   4.3714 
 H                     13.44037  -0.48996  -1.34179 
 H                     16.41644  -1.50609   2.52311 
 H                     14.08799  -2.1339    2.66827 
 H                     17.19085   1.90973   0.67792 
 H                     19.52221   2.75139   0.6352 
 H                     21.01474  -1.26773   0.11949 
 H                     19.07935  -4.34562  -0.1261 
 H                     20.04713  -3.12673  -1.01072 
 H                     20.22126  -3.36863   0.84532 
 H                     22.23992   0.31744  -1.62824 
 H                     23.99444   3.37786   1.87446 
 H                     21.68563   2.41593   2.08458 
 H                     26.73955   1.04699  -0.11275 
 H                     29.04161   1.97028  -0.37435 
 H                     29.315    4.42913  -0.53135 
 H                     27.49914   5.96988  -0.43764 
 H                     25.41249   6.51908  -1.67385 
 H                     25.54639   7.128     0.04732 
 H                     23.99336   6.94546  -0.73374 
 
 ITRead=  0  0  0  0  0  0  0  0  0  0  0  0  0  0  0  0  0  0  0  0
 ITRead=  0  0  0  0  0  0  0  0  0  0  0  0  0  0  0  0  0  0  0  0
 ITRead=  0  0  0  0  0  0  0  0  0  0  0  0  0  0  0  0  0  0  0  0
 ITRead=  0  0  0  0  0  0  0  0  0  0  0  0  0  0  0  0  0  0  0  0
 ITRead=  0  0  0  0  0  0  0  0  0  0  0  0  0  0  0  0  0  0  0  0
 ITRead=  0  0  0  0  0  0  0  0  0  0  0  0  0  0  0  0  0  0  0  0
 ITRead=  0  0  0  0  0  0  0  0  0  0  0  0  0  0  0  0  0  0  0  0
 ITRead=  0  0  0  0  0  0  0  0  0  0  0  0  0  0  0  0  0  0  0  0
 ITRead=  0  0  0  0  0  0  0  0  0  0
 MicOpt= -1 -1 -1 -1 -1 -1 -1 -1 -1 -1 -1 -1 -1 -1 -1 -1 -1 -1 -1 -1
 MicOpt= -1 -1 -1 -1 -1 -1 -1 -1 -1 -1 -1 -1 -1 -1 -1 -1 -1 -1 -1 -1
 MicOpt= -1 -1 -1 -1 -1 -1 -1 -1 -1 -1 -1 -1 -1 -1 -1 -1 -1 -1 -1 -1
 MicOpt= -1 -1 -1 -1 -1 -1 -1 -1 -1 -1 -1 -1 -1 -1 -1 -1 -1 -1 -1 -1
 MicOpt= -1 -1 -1 -1 -1 -1 -1 -1 -1 -1 -1 -1 -1 -1 -1 -1 -1 -1 -1 -1
 MicOpt= -1 -1 -1 -1 -1 -1 -1 -1 -1 -1 -1 -1 -1 -1 -1 -1 -1 -1 -1 -1
 MicOpt= -1 -1 -1 -1 -1 -1 -1 -1 -1 -1 -1 -1 -1 -1 -1 -1 -1 -1 -1 -1
 MicOpt= -1 -1 -1 -1 -1 -1 -1 -1 -1 -1 -1 -1 -1 -1 -1 -1 -1 -1 -1 -1
 MicOpt= -1 -1 -1 -1 -1 -1 -1 -1 -1 -1
 NAtoms=    170 NQM=      170 NQMF=       0 NMMI=      0 NMMIF=      0
                NMic=       0 NMicF=      0.
                    Isotopes and Nuclear Properties:
 (Nuclear quadrupole moments (NQMom) in fm**2, nuclear magnetic moments (NMagM)
  in nuclear magnetons)

  Atom         1           2           3           4           5           6           7           8           9          10
 IAtWgt=          12          12          12          19          12          12          12          12          12          12
 AtmWgt=  12.0000000  12.0000000  12.0000000  18.9984033  12.0000000  12.0000000  12.0000000  12.0000000  12.0000000  12.0000000
 NucSpn=           0           0           0           1           0           0           0           0           0           0
 AtZEff=  -0.0000000  -0.0000000  -0.0000000  -0.0000000  -0.0000000  -0.0000000  -0.0000000  -0.0000000  -0.0000000  -0.0000000
 NQMom=    0.0000000   0.0000000   0.0000000   0.0000000   0.0000000   0.0000000   0.0000000   0.0000000   0.0000000   0.0000000
 NMagM=    0.0000000   0.0000000   0.0000000   2.6288670   0.0000000   0.0000000   0.0000000   0.0000000   0.0000000   0.0000000
 AtZNuc=   6.0000000   6.0000000   6.0000000   9.0000000   6.0000000   6.0000000   6.0000000   6.0000000   6.0000000   6.0000000

  Atom        11          12          13          14          15          16          17          18          19          20
 IAtWgt=          12          12          12          16          12          12          12          12          19          12
 AtmWgt=  12.0000000  12.0000000  12.0000000  15.9949146  12.0000000  12.0000000  12.0000000  12.0000000  18.9984033  12.0000000
 NucSpn=           0           0           0           0           0           0           0           0           1           0
 AtZEff=  -0.0000000  -0.0000000  -0.0000000  -0.0000000  -0.0000000  -0.0000000  -0.0000000  -0.0000000  -0.0000000  -0.0000000
 NQMom=    0.0000000   0.0000000   0.0000000   0.0000000   0.0000000   0.0000000   0.0000000   0.0000000   0.0000000   0.0000000
 NMagM=    0.0000000   0.0000000   0.0000000   0.0000000   0.0000000   0.0000000   0.0000000   0.0000000   2.6288670   0.0000000
 AtZNuc=   6.0000000   6.0000000   6.0000000   8.0000000   6.0000000   6.0000000   6.0000000   6.0000000   9.0000000   6.0000000

  Atom        21          22          23          24          25          26          27          28          29          30
 IAtWgt=          12          12          12          12          12          12          12          12          16          12
 AtmWgt=  12.0000000  12.0000000  12.0000000  12.0000000  12.0000000  12.0000000  12.0000000  12.0000000  15.9949146  12.0000000
 NucSpn=           0           0           0           0           0           0           0           0           0           0
 AtZEff=  -0.0000000  -0.0000000  -0.0000000  -0.0000000  -0.0000000  -0.0000000  -0.0000000  -0.0000000  -0.0000000  -0.0000000
 NQMom=    0.0000000   0.0000000   0.0000000   0.0000000   0.0000000   0.0000000   0.0000000   0.0000000   0.0000000   0.0000000
 NMagM=    0.0000000   0.0000000   0.0000000   0.0000000   0.0000000   0.0000000   0.0000000   0.0000000   0.0000000   0.0000000
 AtZNuc=   6.0000000   6.0000000   6.0000000   6.0000000   6.0000000   6.0000000   6.0000000   6.0000000   8.0000000   6.0000000

  Atom        31          32          33          34          35          36          37          38          39          40
 IAtWgt=          12          12          12          19          12          12          12          12          12          12
 AtmWgt=  12.0000000  12.0000000  12.0000000  18.9984033  12.0000000  12.0000000  12.0000000  12.0000000  12.0000000  12.0000000
 NucSpn=           0           0           0           1           0           0           0           0           0           0
 AtZEff=  -0.0000000  -0.0000000  -0.0000000  -0.0000000  -0.0000000  -0.0000000  -0.0000000  -0.0000000  -0.0000000  -0.0000000
 NQMom=    0.0000000   0.0000000   0.0000000   0.0000000   0.0000000   0.0000000   0.0000000   0.0000000   0.0000000   0.0000000
 NMagM=    0.0000000   0.0000000   0.0000000   2.6288670   0.0000000   0.0000000   0.0000000   0.0000000   0.0000000   0.0000000
 AtZNuc=   6.0000000   6.0000000   6.0000000   9.0000000   6.0000000   6.0000000   6.0000000   6.0000000   6.0000000   6.0000000

  Atom        41          42          43          44          45          46          47          48          49          50
 IAtWgt=          12          12          12          16          12          12          12          12          19          12
 AtmWgt=  12.0000000  12.0000000  12.0000000  15.9949146  12.0000000  12.0000000  12.0000000  12.0000000  18.9984033  12.0000000
 NucSpn=           0           0           0           0           0           0           0           0           1           0
 AtZEff=  -0.0000000  -0.0000000  -0.0000000  -0.0000000  -0.0000000  -0.0000000  -0.0000000  -0.0000000  -0.0000000  -0.0000000
 NQMom=    0.0000000   0.0000000   0.0000000   0.0000000   0.0000000   0.0000000   0.0000000   0.0000000   0.0000000   0.0000000
 NMagM=    0.0000000   0.0000000   0.0000000   0.0000000   0.0000000   0.0000000   0.0000000   0.0000000   2.6288670   0.0000000
 AtZNuc=   6.0000000   6.0000000   6.0000000   8.0000000   6.0000000   6.0000000   6.0000000   6.0000000   9.0000000   6.0000000

  Atom        51          52          53          54          55          56          57          58          59          60
 IAtWgt=          12          12          12          12          12          12          12          12          16          12
 AtmWgt=  12.0000000  12.0000000  12.0000000  12.0000000  12.0000000  12.0000000  12.0000000  12.0000000  15.9949146  12.0000000
 NucSpn=           0           0           0           0           0           0           0           0           0           0
 AtZEff=  -0.0000000  -0.0000000  -0.0000000  -0.0000000  -0.0000000  -0.0000000  -0.0000000  -0.0000000  -0.0000000  -0.0000000
 NQMom=    0.0000000   0.0000000   0.0000000   0.0000000   0.0000000   0.0000000   0.0000000   0.0000000   0.0000000   0.0000000
 NMagM=    0.0000000   0.0000000   0.0000000   0.0000000   0.0000000   0.0000000   0.0000000   0.0000000   0.0000000   0.0000000
 AtZNuc=   6.0000000   6.0000000   6.0000000   6.0000000   6.0000000   6.0000000   6.0000000   6.0000000   8.0000000   6.0000000

  Atom        61          62          63          64          65          66          67          68          69          70
 IAtWgt=          12          12          12          19          12          12          12          12          12          12
 AtmWgt=  12.0000000  12.0000000  12.0000000  18.9984033  12.0000000  12.0000000  12.0000000  12.0000000  12.0000000  12.0000000
 NucSpn=           0           0           0           1           0           0           0           0           0           0
 AtZEff=  -0.0000000  -0.0000000  -0.0000000  -0.0000000  -0.0000000  -0.0000000  -0.0000000  -0.0000000  -0.0000000  -0.0000000
 NQMom=    0.0000000   0.0000000   0.0000000   0.0000000   0.0000000   0.0000000   0.0000000   0.0000000   0.0000000   0.0000000
 NMagM=    0.0000000   0.0000000   0.0000000   2.6288670   0.0000000   0.0000000   0.0000000   0.0000000   0.0000000   0.0000000
 AtZNuc=   6.0000000   6.0000000   6.0000000   9.0000000   6.0000000   6.0000000   6.0000000   6.0000000   6.0000000   6.0000000

  Atom        71          72          73          74          75          76          77          78          79          80
 IAtWgt=          12          12          12          16          12          12          12          12          19          12
 AtmWgt=  12.0000000  12.0000000  12.0000000  15.9949146  12.0000000  12.0000000  12.0000000  12.0000000  18.9984033  12.0000000
 NucSpn=           0           0           0           0           0           0           0           0           1           0
 AtZEff=  -0.0000000  -0.0000000  -0.0000000  -0.0000000  -0.0000000  -0.0000000  -0.0000000  -0.0000000  -0.0000000  -0.0000000
 NQMom=    0.0000000   0.0000000   0.0000000   0.0000000   0.0000000   0.0000000   0.0000000   0.0000000   0.0000000   0.0000000
 NMagM=    0.0000000   0.0000000   0.0000000   0.0000000   0.0000000   0.0000000   0.0000000   0.0000000   2.6288670   0.0000000
 AtZNuc=   6.0000000   6.0000000   6.0000000   8.0000000   6.0000000   6.0000000   6.0000000   6.0000000   9.0000000   6.0000000

  Atom        81          82          83          84          85          86          87          88          89          90
 IAtWgt=          12          12          12          12          12          12          12          12          16          12
 AtmWgt=  12.0000000  12.0000000  12.0000000  12.0000000  12.0000000  12.0000000  12.0000000  12.0000000  15.9949146  12.0000000
 NucSpn=           0           0           0           0           0           0           0           0           0           0
 AtZEff=  -0.0000000  -0.0000000  -0.0000000  -0.0000000  -0.0000000  -0.0000000  -0.0000000  -0.0000000  -0.0000000  -0.0000000
 NQMom=    0.0000000   0.0000000   0.0000000   0.0000000   0.0000000   0.0000000   0.0000000   0.0000000   0.0000000   0.0000000
 NMagM=    0.0000000   0.0000000   0.0000000   0.0000000   0.0000000   0.0000000   0.0000000   0.0000000   0.0000000   0.0000000
 AtZNuc=   6.0000000   6.0000000   6.0000000   6.0000000   6.0000000   6.0000000   6.0000000   6.0000000   8.0000000   6.0000000

  Atom        91          92          93          94          95          96          97          98          99         100
 IAtWgt=          12          12          12          19          12          12          12          12          12          12
 AtmWgt=  12.0000000  12.0000000  12.0000000  18.9984033  12.0000000  12.0000000  12.0000000  12.0000000  12.0000000  12.0000000
 NucSpn=           0           0           0           1           0           0           0           0           0           0
 AtZEff=  -0.0000000  -0.0000000  -0.0000000  -0.0000000  -0.0000000  -0.0000000  -0.0000000  -0.0000000  -0.0000000  -0.0000000
 NQMom=    0.0000000   0.0000000   0.0000000   0.0000000   0.0000000   0.0000000   0.0000000   0.0000000   0.0000000   0.0000000
 NMagM=    0.0000000   0.0000000   0.0000000   2.6288670   0.0000000   0.0000000   0.0000000   0.0000000   0.0000000   0.0000000
 AtZNuc=   6.0000000   6.0000000   6.0000000   9.0000000   6.0000000   6.0000000   6.0000000   6.0000000   6.0000000   6.0000000

  Atom       101         102         103         104         105         106         107         108         109         110
 IAtWgt=          12          12          12          16          12           1           1           1           1           1
 AtmWgt=  12.0000000  12.0000000  12.0000000  15.9949146  12.0000000   1.0078250   1.0078250   1.0078250   1.0078250   1.0078250
 NucSpn=           0           0           0           0           0           1           1           1           1           1
 AtZEff=  -0.0000000  -0.0000000  -0.0000000  -0.0000000  -0.0000000  -0.0000000  -0.0000000  -0.0000000  -0.0000000  -0.0000000
 NQMom=    0.0000000   0.0000000   0.0000000   0.0000000   0.0000000   0.0000000   0.0000000   0.0000000   0.0000000   0.0000000
 NMagM=    0.0000000   0.0000000   0.0000000   0.0000000   0.0000000   2.7928460   2.7928460   2.7928460   2.7928460   2.7928460
 AtZNuc=   6.0000000   6.0000000   6.0000000   8.0000000   6.0000000   1.0000000   1.0000000   1.0000000   1.0000000   1.0000000

  Atom       111         112         113         114         115         116         117         118         119         120
 IAtWgt=           1           1           1           1           1           1           1           1           1           1
 AtmWgt=   1.0078250   1.0078250   1.0078250   1.0078250   1.0078250   1.0078250   1.0078250   1.0078250   1.0078250   1.0078250
 NucSpn=           1           1           1           1           1           1           1           1           1           1
 AtZEff=  -0.0000000  -0.0000000  -0.0000000  -0.0000000  -0.0000000  -0.0000000  -0.0000000  -0.0000000  -0.0000000  -0.0000000
 NQMom=    0.0000000   0.0000000   0.0000000   0.0000000   0.0000000   0.0000000   0.0000000   0.0000000   0.0000000   0.0000000
 NMagM=    2.7928460   2.7928460   2.7928460   2.7928460   2.7928460   2.7928460   2.7928460   2.7928460   2.7928460   2.7928460
 AtZNuc=   1.0000000   1.0000000   1.0000000   1.0000000   1.0000000   1.0000000   1.0000000   1.0000000   1.0000000   1.0000000

  Atom       121         122         123         124         125         126         127         128         129         130
 IAtWgt=           1           1           1           1           1           1           1           1           1           1
 AtmWgt=   1.0078250   1.0078250   1.0078250   1.0078250   1.0078250   1.0078250   1.0078250   1.0078250   1.0078250   1.0078250
 NucSpn=           1           1           1           1           1           1           1           1           1           1
 AtZEff=  -0.0000000  -0.0000000  -0.0000000  -0.0000000  -0.0000000  -0.0000000  -0.0000000  -0.0000000  -0.0000000  -0.0000000
 NQMom=    0.0000000   0.0000000   0.0000000   0.0000000   0.0000000   0.0000000   0.0000000   0.0000000   0.0000000   0.0000000
 NMagM=    2.7928460   2.7928460   2.7928460   2.7928460   2.7928460   2.7928460   2.7928460   2.7928460   2.7928460   2.7928460
 AtZNuc=   1.0000000   1.0000000   1.0000000   1.0000000   1.0000000   1.0000000   1.0000000   1.0000000   1.0000000   1.0000000

  Atom       131         132         133         134         135         136         137         138         139         140
 IAtWgt=           1           1           1           1           1           1           1           1           1           1
 AtmWgt=   1.0078250   1.0078250   1.0078250   1.0078250   1.0078250   1.0078250   1.0078250   1.0078250   1.0078250   1.0078250
 NucSpn=           1           1           1           1           1           1           1           1           1           1
 AtZEff=  -0.0000000  -0.0000000  -0.0000000  -0.0000000  -0.0000000  -0.0000000  -0.0000000  -0.0000000  -0.0000000  -0.0000000
 NQMom=    0.0000000   0.0000000   0.0000000   0.0000000   0.0000000   0.0000000   0.0000000   0.0000000   0.0000000   0.0000000
 NMagM=    2.7928460   2.7928460   2.7928460   2.7928460   2.7928460   2.7928460   2.7928460   2.7928460   2.7928460   2.7928460
 AtZNuc=   1.0000000   1.0000000   1.0000000   1.0000000   1.0000000   1.0000000   1.0000000   1.0000000   1.0000000   1.0000000

  Atom       141         142         143         144         145         146         147         148         149         150
 IAtWgt=           1           1           1           1           1           1           1           1           1           1
 AtmWgt=   1.0078250   1.0078250   1.0078250   1.0078250   1.0078250   1.0078250   1.0078250   1.0078250   1.0078250   1.0078250
 NucSpn=           1           1           1           1           1           1           1           1           1           1
 AtZEff=  -0.0000000  -0.0000000  -0.0000000  -0.0000000  -0.0000000  -0.0000000  -0.0000000  -0.0000000  -0.0000000  -0.0000000
 NQMom=    0.0000000   0.0000000   0.0000000   0.0000000   0.0000000   0.0000000   0.0000000   0.0000000   0.0000000   0.0000000
 NMagM=    2.7928460   2.7928460   2.7928460   2.7928460   2.7928460   2.7928460   2.7928460   2.7928460   2.7928460   2.7928460
 AtZNuc=   1.0000000   1.0000000   1.0000000   1.0000000   1.0000000   1.0000000   1.0000000   1.0000000   1.0000000   1.0000000

  Atom       151         152         153         154         155         156         157         158         159         160
 IAtWgt=           1           1           1           1           1           1           1           1           1           1
 AtmWgt=   1.0078250   1.0078250   1.0078250   1.0078250   1.0078250   1.0078250   1.0078250   1.0078250   1.0078250   1.0078250
 NucSpn=           1           1           1           1           1           1           1           1           1           1
 AtZEff=  -0.0000000  -0.0000000  -0.0000000  -0.0000000  -0.0000000  -0.0000000  -0.0000000  -0.0000000  -0.0000000  -0.0000000
 NQMom=    0.0000000   0.0000000   0.0000000   0.0000000   0.0000000   0.0000000   0.0000000   0.0000000   0.0000000   0.0000000
 NMagM=    2.7928460   2.7928460   2.7928460   2.7928460   2.7928460   2.7928460   2.7928460   2.7928460   2.7928460   2.7928460
 AtZNuc=   1.0000000   1.0000000   1.0000000   1.0000000   1.0000000   1.0000000   1.0000000   1.0000000   1.0000000   1.0000000

  Atom       161         162         163         164         165         166         167         168         169         170
 IAtWgt=           1           1           1           1           1           1           1           1           1           1
 AtmWgt=   1.0078250   1.0078250   1.0078250   1.0078250   1.0078250   1.0078250   1.0078250   1.0078250   1.0078250   1.0078250
 NucSpn=           1           1           1           1           1           1           1           1           1           1
 AtZEff=  -0.0000000  -0.0000000  -0.0000000  -0.0000000  -0.0000000  -0.0000000  -0.0000000  -0.0000000  -0.0000000  -0.0000000
 NQMom=    0.0000000   0.0000000   0.0000000   0.0000000   0.0000000   0.0000000   0.0000000   0.0000000   0.0000000   0.0000000
 NMagM=    2.7928460   2.7928460   2.7928460   2.7928460   2.7928460   2.7928460   2.7928460   2.7928460   2.7928460   2.7928460
 AtZNuc=   1.0000000   1.0000000   1.0000000   1.0000000   1.0000000   1.0000000   1.0000000   1.0000000   1.0000000   1.0000000
 Leave Link  101 at Fri Jul 24 22:31:52 2020, MaxMem=  4026531840 cpu:               3.6 elap:               0.5
 (Enter /opt/ohpc/pub/libs/gaussian/g16-A.03/sandybridge/g16/l103.exe)

 GradGradGradGradGradGradGradGradGradGradGradGradGradGradGradGradGradGrad
 Berny optimization.
 Initialization pass.
                           ----------------------------
                           !    Initial Parameters    !
                           ! (Angstroms and Degrees)  !
 --------------------------                            --------------------------
 ! Name  Definition              Value          Derivative Info.                !
 --------------------------------------------------------------------------------
 ! R1    R(1,2)                  1.3605         estimate D2E/DX2                !
 ! R2    R(1,7)                  1.406          estimate D2E/DX2                !
 ! R3    R(1,106)                1.1426         estimate D2E/DX2                !
 ! R4    R(2,3)                  1.328          estimate D2E/DX2                !
 ! R5    R(2,107)                1.105          estimate D2E/DX2                !
 ! R6    R(3,4)                  1.3877         estimate D2E/DX2                !
 ! R7    R(3,5)                  1.3403         estimate D2E/DX2                !
 ! R8    R(5,6)                  1.4456         estimate D2E/DX2                !
 ! R9    R(5,8)                  1.5435         estimate D2E/DX2                !
 ! R10   R(6,7)                  1.4167         estimate D2E/DX2                !
 ! R11   R(6,108)                1.0873         estimate D2E/DX2                !
 ! R12   R(7,109)                1.0841         estimate D2E/DX2                !
 ! R13   R(8,9)                  1.4388         estimate D2E/DX2                !
 ! R14   R(8,13)                 1.3578         estimate D2E/DX2                !
 ! R15   R(9,10)                 1.363          estimate D2E/DX2                !
 ! R16   R(9,110)                1.1152         estimate D2E/DX2                !
 ! R17   R(10,11)                1.4067         estimate D2E/DX2                !
 ! R18   R(10,111)               1.0519         estimate D2E/DX2                !
 ! R19   R(11,12)                1.4517         estimate D2E/DX2                !
 ! R20   R(11,16)                1.488          estimate D2E/DX2                !
 ! R21   R(12,13)                1.3582         estimate D2E/DX2                !
 ! R22   R(12,112)               1.0253         estimate D2E/DX2                !
 ! R23   R(13,14)                1.3809         estimate D2E/DX2                !
 ! R24   R(14,15)                1.4326         estimate D2E/DX2                !
 ! R25   R(15,113)               1.116          estimate D2E/DX2                !
 ! R26   R(15,114)               1.0445         estimate D2E/DX2                !
 ! R27   R(15,115)               1.131          estimate D2E/DX2                !
 ! R28   R(16,17)                1.4386         estimate D2E/DX2                !
 ! R29   R(16,22)                1.3951         estimate D2E/DX2                !
 ! R30   R(17,18)                1.3582         estimate D2E/DX2                !
 ! R31   R(17,116)               1.1664         estimate D2E/DX2                !
 ! R32   R(18,19)                1.368          estimate D2E/DX2                !
 ! R33   R(18,20)                1.3596         estimate D2E/DX2                !
 ! R34   R(20,21)                1.3482         estimate D2E/DX2                !
 ! R35   R(20,23)                1.5054         estimate D2E/DX2                !
 ! R36   R(21,22)                1.3764         estimate D2E/DX2                !
 ! R37   R(21,117)               1.127          estimate D2E/DX2                !
 ! R38   R(22,118)               1.0272         estimate D2E/DX2                !
 ! R39   R(23,24)                1.3827         estimate D2E/DX2                !
 ! R40   R(23,28)                1.3969         estimate D2E/DX2                !
 ! R41   R(24,25)                1.4167         estimate D2E/DX2                !
 ! R42   R(24,119)               1.0574         estimate D2E/DX2                !
 ! R43   R(25,26)                1.3348         estimate D2E/DX2                !
 ! R44   R(25,120)               1.1576         estimate D2E/DX2                !
 ! R45   R(26,27)                1.3758         estimate D2E/DX2                !
 ! R46   R(26,31)                1.461          estimate D2E/DX2                !
 ! R47   R(27,28)                1.4008         estimate D2E/DX2                !
 ! R48   R(27,121)               1.1554         estimate D2E/DX2                !
 ! R49   R(28,29)                1.3714         estimate D2E/DX2                !
 ! R50   R(29,30)                1.4344         estimate D2E/DX2                !
 ! R51   R(30,122)               1.0905         estimate D2E/DX2                !
 ! R52   R(30,123)               1.0435         estimate D2E/DX2                !
 ! R53   R(30,124)               1.0711         estimate D2E/DX2                !
 ! R54   R(31,32)                1.4224         estimate D2E/DX2                !
 ! R55   R(31,37)                1.4737         estimate D2E/DX2                !
 ! R56   R(32,33)                1.3428         estimate D2E/DX2                !
 ! R57   R(32,125)               1.1121         estimate D2E/DX2                !
 ! R58   R(33,34)                1.358          estimate D2E/DX2                !
 ! R59   R(33,35)                1.4108         estimate D2E/DX2                !
 ! R60   R(35,36)                1.4882         estimate D2E/DX2                !
 ! R61   R(35,38)                1.4366         estimate D2E/DX2                !
 ! R62   R(36,37)                1.3629         estimate D2E/DX2                !
 ! R63   R(36,126)               1.0422         estimate D2E/DX2                !
 ! R64   R(37,127)               1.081          estimate D2E/DX2                !
 ! R65   R(38,39)                1.3655         estimate D2E/DX2                !
 ! R66   R(38,43)                1.5012         estimate D2E/DX2                !
 ! R67   R(39,40)                1.4063         estimate D2E/DX2                !
 ! R68   R(39,128)               1.0818         estimate D2E/DX2                !
 ! R69   R(40,41)                1.4            estimate D2E/DX2                !
 ! R70   R(40,129)               1.1553         estimate D2E/DX2                !
 ! R71   R(41,42)                1.4478         estimate D2E/DX2                !
 ! R72   R(41,46)                1.4013         estimate D2E/DX2                !
 ! R73   R(42,43)                1.3591         estimate D2E/DX2                !
 ! R74   R(42,130)               1.1386         estimate D2E/DX2                !
 ! R75   R(43,44)                1.3554         estimate D2E/DX2                !
 ! R76   R(44,45)                1.4415         estimate D2E/DX2                !
 ! R77   R(45,131)               1.0827         estimate D2E/DX2                !
 ! R78   R(45,132)               1.1044         estimate D2E/DX2                !
 ! R79   R(45,133)               1.1901         estimate D2E/DX2                !
 ! R80   R(46,47)                1.4887         estimate D2E/DX2                !
 ! R81   R(46,52)                1.3978         estimate D2E/DX2                !
 ! R82   R(47,48)                1.3642         estimate D2E/DX2                !
 ! R83   R(47,134)               1.0525         estimate D2E/DX2                !
 ! R84   R(48,49)                1.3629         estimate D2E/DX2                !
 ! R85   R(48,50)                1.4428         estimate D2E/DX2                !
 ! R86   R(50,51)                1.3793         estimate D2E/DX2                !
 ! R87   R(50,53)                1.464          estimate D2E/DX2                !
 ! R88   R(51,52)                1.3651         estimate D2E/DX2                !
 ! R89   R(51,135)               1.1674         estimate D2E/DX2                !
 ! R90   R(52,136)               1.1021         estimate D2E/DX2                !
 ! R91   R(53,54)                1.3877         estimate D2E/DX2                !
 ! R92   R(53,58)                1.4571         estimate D2E/DX2                !
 ! R93   R(54,55)                1.4405         estimate D2E/DX2                !
 ! R94   R(54,137)               1.0511         estimate D2E/DX2                !
 ! R95   R(55,56)                1.4122         estimate D2E/DX2                !
 ! R96   R(55,138)               1.0997         estimate D2E/DX2                !
 ! R97   R(56,57)                1.4322         estimate D2E/DX2                !
 ! R98   R(56,61)                1.4396         estimate D2E/DX2                !
 ! R99   R(57,58)                1.3189         estimate D2E/DX2                !
 ! R100  R(57,139)               1.1464         estimate D2E/DX2                !
 ! R101  R(58,59)                1.3524         estimate D2E/DX2                !
 ! R102  R(59,60)                1.4607         estimate D2E/DX2                !
 ! R103  R(60,140)               1.046          estimate D2E/DX2                !
 ! R104  R(60,141)               1.0989         estimate D2E/DX2                !
 ! R105  R(60,142)               1.0556         estimate D2E/DX2                !
 ! R106  R(61,62)                1.3898         estimate D2E/DX2                !
 ! R107  R(61,67)                1.4654         estimate D2E/DX2                !
 ! R108  R(62,63)                1.4053         estimate D2E/DX2                !
 ! R109  R(62,143)               1.0516         estimate D2E/DX2                !
 ! R110  R(63,64)                1.2812         estimate D2E/DX2                !
 ! R111  R(63,65)                1.4081         estimate D2E/DX2                !
 ! R112  R(65,66)                1.4605         estimate D2E/DX2                !
 ! R113  R(65,68)                1.4983         estimate D2E/DX2                !
 ! R114  R(66,67)                1.3708         estimate D2E/DX2                !
 ! R115  R(66,144)               1.0948         estimate D2E/DX2                !
 ! R116  R(67,145)               1.0967         estimate D2E/DX2                !
 ! R117  R(68,69)                1.4559         estimate D2E/DX2                !
 ! R118  R(68,73)                1.3673         estimate D2E/DX2                !
 ! R119  R(69,70)                1.3815         estimate D2E/DX2                !
 ! R120  R(69,146)               1.022          estimate D2E/DX2                !
 ! R121  R(70,71)                1.4143         estimate D2E/DX2                !
 ! R122  R(70,147)               1.084          estimate D2E/DX2                !
 ! R123  R(71,72)                1.337          estimate D2E/DX2                !
 ! R124  R(71,76)                1.5415         estimate D2E/DX2                !
 ! R125  R(72,73)                1.4406         estimate D2E/DX2                !
 ! R126  R(72,148)               1.0997         estimate D2E/DX2                !
 ! R127  R(73,74)                1.3626         estimate D2E/DX2                !
 ! R128  R(74,75)                1.3638         estimate D2E/DX2                !
 ! R129  R(75,149)               1.0652         estimate D2E/DX2                !
 ! R130  R(75,150)               1.0759         estimate D2E/DX2                !
 ! R131  R(75,151)               1.1196         estimate D2E/DX2                !
 ! R132  R(76,77)                1.384          estimate D2E/DX2                !
 ! R133  R(76,82)                1.3891         estimate D2E/DX2                !
 ! R134  R(77,78)                1.3622         estimate D2E/DX2                !
 ! R135  R(77,152)               1.1253         estimate D2E/DX2                !
 ! R136  R(78,79)                1.4018         estimate D2E/DX2                !
 ! R137  R(78,80)                1.3737         estimate D2E/DX2                !
 ! R138  R(80,81)                1.4204         estimate D2E/DX2                !
 ! R139  R(80,83)                1.517          estimate D2E/DX2                !
 ! R140  R(81,82)                1.3317         estimate D2E/DX2                !
 ! R141  R(81,153)               1.0708         estimate D2E/DX2                !
 ! R142  R(82,154)               1.1522         estimate D2E/DX2                !
 ! R143  R(83,84)                1.3484         estimate D2E/DX2                !
 ! R144  R(83,88)                1.429          estimate D2E/DX2                !
 ! R145  R(84,85)                1.3873         estimate D2E/DX2                !
 ! R146  R(84,155)               1.0768         estimate D2E/DX2                !
 ! R147  R(85,86)                1.409          estimate D2E/DX2                !
 ! R148  R(85,156)               1.107          estimate D2E/DX2                !
 ! R149  R(86,87)                1.4397         estimate D2E/DX2                !
 ! R150  R(86,91)                1.4909         estimate D2E/DX2                !
 ! R151  R(87,88)                1.423          estimate D2E/DX2                !
 ! R152  R(87,157)               1.1754         estimate D2E/DX2                !
 ! R153  R(88,89)                1.3428         estimate D2E/DX2                !
 ! R154  R(89,90)                1.3566         estimate D2E/DX2                !
 ! R155  R(90,158)               1.1186         estimate D2E/DX2                !
 ! R156  R(90,159)               1.1726         estimate D2E/DX2                !
 ! R157  R(90,160)               1.1086         estimate D2E/DX2                !
 ! R158  R(91,92)                1.3559         estimate D2E/DX2                !
 ! R159  R(91,97)                1.361          estimate D2E/DX2                !
 ! R160  R(92,93)                1.4864         estimate D2E/DX2                !
 ! R161  R(92,161)               1.0971         estimate D2E/DX2                !
 ! R162  R(93,94)                1.2919         estimate D2E/DX2                !
 ! R163  R(93,95)                1.3924         estimate D2E/DX2                !
 ! R164  R(95,96)                1.4173         estimate D2E/DX2                !
 ! R165  R(95,98)                1.4988         estimate D2E/DX2                !
 ! R166  R(96,97)                1.3984         estimate D2E/DX2                !
 ! R167  R(96,162)               1.0919         estimate D2E/DX2                !
 ! R168  R(97,163)               1.0701         estimate D2E/DX2                !
 ! R169  R(98,99)                1.3096         estimate D2E/DX2                !
 ! R170  R(98,103)               1.4943         estimate D2E/DX2                !
 ! R171  R(99,100)               1.4342         estimate D2E/DX2                !
 ! R172  R(99,164)               1.1589         estimate D2E/DX2                !
 ! R173  R(100,101)              1.2997         estimate D2E/DX2                !
 ! R174  R(100,165)              1.1675         estimate D2E/DX2                !
 ! R175  R(101,102)              1.4062         estimate D2E/DX2                !
 ! R176  R(101,166)              1.0627         estimate D2E/DX2                !
 ! R177  R(102,103)              1.3981         estimate D2E/DX2                !
 ! R178  R(102,167)              1.0612         estimate D2E/DX2                !
 ! R179  R(103,104)              1.3907         estimate D2E/DX2                !
 ! R180  R(104,105)              1.4128         estimate D2E/DX2                !
 ! R181  R(105,168)              1.1357         estimate D2E/DX2                !
 ! R182  R(105,169)              1.0732         estimate D2E/DX2                !
 ! R183  R(105,170)              1.0196         estimate D2E/DX2                !
 ! A1    A(2,1,7)              118.7252         estimate D2E/DX2                !
 ! A2    A(2,1,106)            125.2584         estimate D2E/DX2                !
 ! A3    A(7,1,106)            116.0157         estimate D2E/DX2                !
 ! A4    A(1,2,3)              121.3905         estimate D2E/DX2                !
 ! A5    A(1,2,107)            117.7822         estimate D2E/DX2                !
 ! A6    A(3,2,107)            120.6508         estimate D2E/DX2                !
 ! A7    A(2,3,4)              119.0853         estimate D2E/DX2                !
 ! A8    A(2,3,5)              123.2099         estimate D2E/DX2                !
 ! A9    A(4,3,5)              117.6725         estimate D2E/DX2                !
 ! A10   A(3,5,6)              119.8903         estimate D2E/DX2                !
 ! A11   A(3,5,8)              123.9698         estimate D2E/DX2                !
 ! A12   A(6,5,8)              116.1375         estimate D2E/DX2                !
 ! A13   A(5,6,7)              115.6642         estimate D2E/DX2                !
 ! A14   A(5,6,108)            120.076          estimate D2E/DX2                !
 ! A15   A(7,6,108)            124.2598         estimate D2E/DX2                !
 ! A16   A(1,7,6)              121.0931         estimate D2E/DX2                !
 ! A17   A(1,7,109)            122.2715         estimate D2E/DX2                !
 ! A18   A(6,7,109)            116.1093         estimate D2E/DX2                !
 ! A19   A(5,8,9)              117.6282         estimate D2E/DX2                !
 ! A20   A(5,8,13)             125.5606         estimate D2E/DX2                !
 ! A21   A(9,8,13)             116.7133         estimate D2E/DX2                !
 ! A22   A(8,9,10)             122.8446         estimate D2E/DX2                !
 ! A23   A(8,9,110)            117.3473         estimate D2E/DX2                !
 ! A24   A(10,9,110)           119.7984         estimate D2E/DX2                !
 ! A25   A(9,10,11)            119.1689         estimate D2E/DX2                !
 ! A26   A(9,10,111)           120.4684         estimate D2E/DX2                !
 ! A27   A(11,10,111)          119.5899         estimate D2E/DX2                !
 ! A28   A(10,11,12)           117.9007         estimate D2E/DX2                !
 ! A29   A(10,11,16)           119.3882         estimate D2E/DX2                !
 ! A30   A(12,11,16)           122.5176         estimate D2E/DX2                !
 ! A31   A(11,12,13)           120.0405         estimate D2E/DX2                !
 ! A32   A(11,12,112)          116.1898         estimate D2E/DX2                !
 ! A33   A(13,12,112)          123.7634         estimate D2E/DX2                !
 ! A34   A(8,13,12)            123.1841         estimate D2E/DX2                !
 ! A35   A(8,13,14)            116.4294         estimate D2E/DX2                !
 ! A36   A(12,13,14)           120.3426         estimate D2E/DX2                !
 ! A37   A(13,14,15)           115.8138         estimate D2E/DX2                !
 ! A38   A(14,15,113)          107.1048         estimate D2E/DX2                !
 ! A39   A(14,15,114)          115.0812         estimate D2E/DX2                !
 ! A40   A(14,15,115)          104.3815         estimate D2E/DX2                !
 ! A41   A(113,15,114)         114.7954         estimate D2E/DX2                !
 ! A42   A(113,15,115)         102.7831         estimate D2E/DX2                !
 ! A43   A(114,15,115)         111.4949         estimate D2E/DX2                !
 ! A44   A(11,16,17)           120.6668         estimate D2E/DX2                !
 ! A45   A(11,16,22)           121.0321         estimate D2E/DX2                !
 ! A46   A(17,16,22)           118.0897         estimate D2E/DX2                !
 ! A47   A(16,17,18)           119.837          estimate D2E/DX2                !
 ! A48   A(16,17,116)          117.8421         estimate D2E/DX2                !
 ! A49   A(18,17,116)          122.3209         estimate D2E/DX2                !
 ! A50   A(17,18,19)           116.9627         estimate D2E/DX2                !
 ! A51   A(17,18,20)           121.364          estimate D2E/DX2                !
 ! A52   A(19,18,20)           121.6488         estimate D2E/DX2                !
 ! A53   A(18,20,21)           118.8878         estimate D2E/DX2                !
 ! A54   A(18,20,23)           117.2574         estimate D2E/DX2                !
 ! A55   A(21,20,23)           123.7725         estimate D2E/DX2                !
 ! A56   A(20,21,22)           123.8479         estimate D2E/DX2                !
 ! A57   A(20,21,117)          122.0036         estimate D2E/DX2                !
 ! A58   A(22,21,117)          114.0829         estimate D2E/DX2                !
 ! A59   A(16,22,21)           117.9312         estimate D2E/DX2                !
 ! A60   A(16,22,118)          117.4007         estimate D2E/DX2                !
 ! A61   A(21,22,118)          124.5354         estimate D2E/DX2                !
 ! A62   A(20,23,24)           119.7624         estimate D2E/DX2                !
 ! A63   A(20,23,28)           123.5971         estimate D2E/DX2                !
 ! A64   A(24,23,28)           116.5804         estimate D2E/DX2                !
 ! A65   A(23,24,25)           121.6483         estimate D2E/DX2                !
 ! A66   A(23,24,119)          121.6908         estimate D2E/DX2                !
 ! A67   A(25,24,119)          116.6511         estimate D2E/DX2                !
 ! A68   A(24,25,26)           120.9518         estimate D2E/DX2                !
 ! A69   A(24,25,120)          118.2108         estimate D2E/DX2                !
 ! A70   A(26,25,120)          120.7371         estimate D2E/DX2                !
 ! A71   A(25,26,27)           118.7099         estimate D2E/DX2                !
 ! A72   A(25,26,31)           120.6402         estimate D2E/DX2                !
 ! A73   A(27,26,31)           120.6127         estimate D2E/DX2                !
 ! A74   A(26,27,28)           121.5512         estimate D2E/DX2                !
 ! A75   A(26,27,121)          120.0776         estimate D2E/DX2                !
 ! A76   A(28,27,121)          117.7468         estimate D2E/DX2                !
 ! A77   A(23,28,27)           120.4054         estimate D2E/DX2                !
 ! A78   A(23,28,29)           114.7605         estimate D2E/DX2                !
 ! A79   A(27,28,29)           124.8336         estimate D2E/DX2                !
 ! A80   A(28,29,30)           117.0158         estimate D2E/DX2                !
 ! A81   A(29,30,122)          106.6232         estimate D2E/DX2                !
 ! A82   A(29,30,123)          112.0912         estimate D2E/DX2                !
 ! A83   A(29,30,124)          114.0931         estimate D2E/DX2                !
 ! A84   A(122,30,123)         110.3751         estimate D2E/DX2                !
 ! A85   A(122,30,124)         103.5937         estimate D2E/DX2                !
 ! A86   A(123,30,124)         109.6614         estimate D2E/DX2                !
 ! A87   A(26,31,32)           125.7181         estimate D2E/DX2                !
 ! A88   A(26,31,37)           118.9851         estimate D2E/DX2                !
 ! A89   A(32,31,37)           115.2868         estimate D2E/DX2                !
 ! A90   A(31,32,33)           123.7086         estimate D2E/DX2                !
 ! A91   A(31,32,125)          119.2489         estimate D2E/DX2                !
 ! A92   A(33,32,125)          116.9446         estimate D2E/DX2                !
 ! A93   A(32,33,34)           121.2987         estimate D2E/DX2                !
 ! A94   A(32,33,35)           122.8048         estimate D2E/DX2                !
 ! A95   A(34,33,35)           115.4679         estimate D2E/DX2                !
 ! A96   A(33,35,36)           115.673          estimate D2E/DX2                !
 ! A97   A(33,35,38)           124.1483         estimate D2E/DX2                !
 ! A98   A(36,35,38)           119.9289         estimate D2E/DX2                !
 ! A99   A(35,36,37)           121.129          estimate D2E/DX2                !
 ! A100  A(35,36,126)          117.894          estimate D2E/DX2                !
 ! A101  A(37,36,126)          120.9621         estimate D2E/DX2                !
 ! A102  A(31,37,36)           121.2794         estimate D2E/DX2                !
 ! A103  A(31,37,127)          119.1944         estimate D2E/DX2                !
 ! A104  A(36,37,127)          119.4701         estimate D2E/DX2                !
 ! A105  A(35,38,39)           121.4994         estimate D2E/DX2                !
 ! A106  A(35,38,43)           120.5289         estimate D2E/DX2                !
 ! A107  A(39,38,43)           117.8373         estimate D2E/DX2                !
 ! A108  A(38,39,40)           120.1575         estimate D2E/DX2                !
 ! A109  A(38,39,128)          120.7397         estimate D2E/DX2                !
 ! A110  A(40,39,128)          119.0286         estimate D2E/DX2                !
 ! A111  A(39,40,41)           125.3859         estimate D2E/DX2                !
 ! A112  A(39,40,129)          120.7096         estimate D2E/DX2                !
 ! A113  A(41,40,129)          113.7431         estimate D2E/DX2                !
 ! A114  A(40,41,42)           113.177          estimate D2E/DX2                !
 ! A115  A(40,41,46)           126.391          estimate D2E/DX2                !
 ! A116  A(42,41,46)           120.4225         estimate D2E/DX2                !
 ! A117  A(41,42,43)           124.5922         estimate D2E/DX2                !
 ! A118  A(41,42,130)          116.0057         estimate D2E/DX2                !
 ! A119  A(43,42,130)          119.066          estimate D2E/DX2                !
 ! A120  A(38,43,42)           118.6919         estimate D2E/DX2                !
 ! A121  A(38,43,44)           111.6416         estimate D2E/DX2                !
 ! A122  A(42,43,44)           129.6647         estimate D2E/DX2                !
 ! A123  A(43,44,45)           112.9386         estimate D2E/DX2                !
 ! A124  A(44,45,131)          106.3613         estimate D2E/DX2                !
 ! A125  A(44,45,132)          112.7846         estimate D2E/DX2                !
 ! A126  A(44,45,133)          110.4584         estimate D2E/DX2                !
 ! A127  A(131,45,132)         109.7967         estimate D2E/DX2                !
 ! A128  A(131,45,133)         106.4371         estimate D2E/DX2                !
 ! A129  A(132,45,133)         110.7158         estimate D2E/DX2                !
 ! A130  A(41,46,47)           120.7794         estimate D2E/DX2                !
 ! A131  A(41,46,52)           125.1357         estimate D2E/DX2                !
 ! A132  A(47,46,52)           113.9528         estimate D2E/DX2                !
 ! A133  A(46,47,48)           119.2936         estimate D2E/DX2                !
 ! A134  A(46,47,134)          119.7897         estimate D2E/DX2                !
 ! A135  A(48,47,134)          120.4006         estimate D2E/DX2                !
 ! A136  A(47,48,49)           113.7449         estimate D2E/DX2                !
 ! A137  A(47,48,50)           125.5446         estimate D2E/DX2                !
 ! A138  A(49,48,50)           120.1489         estimate D2E/DX2                !
 ! A139  A(48,50,51)           111.75           estimate D2E/DX2                !
 ! A140  A(48,50,53)           120.9589         estimate D2E/DX2                !
 ! A141  A(51,50,53)           127.2734         estimate D2E/DX2                !
 ! A142  A(50,51,52)           125.9675         estimate D2E/DX2                !
 ! A143  A(50,51,135)          115.77           estimate D2E/DX2                !
 ! A144  A(52,51,135)          118.262          estimate D2E/DX2                !
 ! A145  A(46,52,51)           123.0422         estimate D2E/DX2                !
 ! A146  A(46,52,136)          118.9628         estimate D2E/DX2                !
 ! A147  A(51,52,136)          117.8539         estimate D2E/DX2                !
 ! A148  A(50,53,54)           117.7932         estimate D2E/DX2                !
 ! A149  A(50,53,58)           121.4387         estimate D2E/DX2                !
 ! A150  A(54,53,58)           120.4351         estimate D2E/DX2                !
 ! A151  A(53,54,55)           117.0435         estimate D2E/DX2                !
 ! A152  A(53,54,137)          123.4276         estimate D2E/DX2                !
 ! A153  A(55,54,137)          119.1057         estimate D2E/DX2                !
 ! A154  A(54,55,56)           122.9814         estimate D2E/DX2                !
 ! A155  A(54,55,138)          114.9546         estimate D2E/DX2                !
 ! A156  A(56,55,138)          121.7039         estimate D2E/DX2                !
 ! A157  A(55,56,57)           115.0122         estimate D2E/DX2                !
 ! A158  A(55,56,61)           119.4317         estimate D2E/DX2                !
 ! A159  A(57,56,61)           124.5721         estimate D2E/DX2                !
 ! A160  A(56,57,58)           124.3512         estimate D2E/DX2                !
 ! A161  A(56,57,139)          111.9731         estimate D2E/DX2                !
 ! A162  A(58,57,139)          123.4465         estimate D2E/DX2                !
 ! A163  A(53,58,57)           119.3337         estimate D2E/DX2                !
 ! A164  A(53,58,59)           115.291          estimate D2E/DX2                !
 ! A165  A(57,58,59)           124.9524         estimate D2E/DX2                !
 ! A166  A(58,59,60)           119.4468         estimate D2E/DX2                !
 ! A167  A(59,60,140)          108.1916         estimate D2E/DX2                !
 ! A168  A(59,60,141)          106.0634         estimate D2E/DX2                !
 ! A169  A(59,60,142)          105.8778         estimate D2E/DX2                !
 ! A170  A(140,60,141)         109.9535         estimate D2E/DX2                !
 ! A171  A(140,60,142)         109.6694         estimate D2E/DX2                !
 ! A172  A(141,60,142)         116.6572         estimate D2E/DX2                !
 ! A173  A(56,61,62)           123.1523         estimate D2E/DX2                !
 ! A174  A(56,61,67)           119.2053         estimate D2E/DX2                !
 ! A175  A(62,61,67)           117.3843         estimate D2E/DX2                !
 ! A176  A(61,62,63)           121.5936         estimate D2E/DX2                !
 ! A177  A(61,62,143)          120.0246         estimate D2E/DX2                !
 ! A178  A(63,62,143)          118.3042         estimate D2E/DX2                !
 ! A179  A(62,63,64)           118.6165         estimate D2E/DX2                !
 ! A180  A(62,63,65)           121.257          estimate D2E/DX2                !
 ! A181  A(64,63,65)           120.1189         estimate D2E/DX2                !
 ! A182  A(63,65,66)           118.3207         estimate D2E/DX2                !
 ! A183  A(63,65,68)           120.5635         estimate D2E/DX2                !
 ! A184  A(66,65,68)           120.9524         estimate D2E/DX2                !
 ! A185  A(65,66,67)           119.4176         estimate D2E/DX2                !
 ! A186  A(65,66,144)          121.3626         estimate D2E/DX2                !
 ! A187  A(67,66,144)          119.1643         estimate D2E/DX2                !
 ! A188  A(61,67,66)           121.9872         estimate D2E/DX2                !
 ! A189  A(61,67,145)          121.0087         estimate D2E/DX2                !
 ! A190  A(66,67,145)          116.7124         estimate D2E/DX2                !
 ! A191  A(65,68,69)           117.4645         estimate D2E/DX2                !
 ! A192  A(65,68,73)           123.5431         estimate D2E/DX2                !
 ! A193  A(69,68,73)           118.9368         estimate D2E/DX2                !
 ! A194  A(68,69,70)           119.5559         estimate D2E/DX2                !
 ! A195  A(68,69,146)          116.4014         estimate D2E/DX2                !
 ! A196  A(70,69,146)          124.0362         estimate D2E/DX2                !
 ! A197  A(69,70,71)           120.4483         estimate D2E/DX2                !
 ! A198  A(69,70,147)          117.5743         estimate D2E/DX2                !
 ! A199  A(71,70,147)          121.3823         estimate D2E/DX2                !
 ! A200  A(70,71,72)           118.5837         estimate D2E/DX2                !
 ! A201  A(70,71,76)           119.1795         estimate D2E/DX2                !
 ! A202  A(72,71,76)           122.1748         estimate D2E/DX2                !
 ! A203  A(71,72,73)           122.9225         estimate D2E/DX2                !
 ! A204  A(71,72,148)          116.2995         estimate D2E/DX2                !
 ! A205  A(73,72,148)          120.76           estimate D2E/DX2                !
 ! A206  A(68,73,72)           118.3648         estimate D2E/DX2                !
 ! A207  A(68,73,74)           120.0651         estimate D2E/DX2                !
 ! A208  A(72,73,74)           120.9456         estimate D2E/DX2                !
 ! A209  A(73,74,75)           123.9162         estimate D2E/DX2                !
 ! A210  A(74,75,149)          112.1447         estimate D2E/DX2                !
 ! A211  A(74,75,150)          111.6191         estimate D2E/DX2                !
 ! A212  A(74,75,151)          113.3328         estimate D2E/DX2                !
 ! A213  A(149,75,150)         112.3797         estimate D2E/DX2                !
 ! A214  A(149,75,151)         101.3687         estimate D2E/DX2                !
 ! A215  A(150,75,151)         105.4208         estimate D2E/DX2                !
 ! A216  A(71,76,77)           117.2864         estimate D2E/DX2                !
 ! A217  A(71,76,82)           122.6309         estimate D2E/DX2                !
 ! A218  A(77,76,82)           120.0037         estimate D2E/DX2                !
 ! A219  A(76,77,78)           117.3329         estimate D2E/DX2                !
 ! A220  A(76,77,152)          120.8435         estimate D2E/DX2                !
 ! A221  A(78,77,152)          121.6345         estimate D2E/DX2                !
 ! A222  A(77,78,79)           115.58           estimate D2E/DX2                !
 ! A223  A(77,78,80)           123.8148         estimate D2E/DX2                !
 ! A224  A(79,78,80)           120.5889         estimate D2E/DX2                !
 ! A225  A(78,80,81)           117.2727         estimate D2E/DX2                !
 ! A226  A(78,80,83)           119.3424         estimate D2E/DX2                !
 ! A227  A(81,80,83)           123.3828         estimate D2E/DX2                !
 ! A228  A(80,81,82)           119.3906         estimate D2E/DX2                !
 ! A229  A(80,81,153)          119.8561         estimate D2E/DX2                !
 ! A230  A(82,81,153)          120.7428         estimate D2E/DX2                !
 ! A231  A(76,82,81)           121.93           estimate D2E/DX2                !
 ! A232  A(76,82,154)          120.0169         estimate D2E/DX2                !
 ! A233  A(81,82,154)          117.5442         estimate D2E/DX2                !
 ! A234  A(80,83,84)           117.7291         estimate D2E/DX2                !
 ! A235  A(80,83,88)           119.8213         estimate D2E/DX2                !
 ! A236  A(84,83,88)           122.2921         estimate D2E/DX2                !
 ! A237  A(83,84,85)           120.976          estimate D2E/DX2                !
 ! A238  A(83,84,155)          122.6451         estimate D2E/DX2                !
 ! A239  A(85,84,155)          116.3736         estimate D2E/DX2                !
 ! A240  A(84,85,86)           122.9056         estimate D2E/DX2                !
 ! A241  A(84,85,156)          123.6199         estimate D2E/DX2                !
 ! A242  A(86,85,156)          113.459          estimate D2E/DX2                !
 ! A243  A(85,86,87)           114.0243         estimate D2E/DX2                !
 ! A244  A(85,86,91)           126.1421         estimate D2E/DX2                !
 ! A245  A(87,86,91)           119.8128         estimate D2E/DX2                !
 ! A246  A(86,87,88)           124.7079         estimate D2E/DX2                !
 ! A247  A(86,87,157)          115.9664         estimate D2E/DX2                !
 ! A248  A(88,87,157)          119.1608         estimate D2E/DX2                !
 ! A249  A(83,88,87)           114.8237         estimate D2E/DX2                !
 ! A250  A(83,88,89)           120.6379         estimate D2E/DX2                !
 ! A251  A(87,88,89)           123.9914         estimate D2E/DX2                !
 ! A252  A(88,89,90)           121.1349         estimate D2E/DX2                !
 ! A253  A(89,90,158)          111.2168         estimate D2E/DX2                !
 ! A254  A(89,90,159)          109.785          estimate D2E/DX2                !
 ! A255  A(89,90,160)          114.5654         estimate D2E/DX2                !
 ! A256  A(158,90,159)         102.7389         estimate D2E/DX2                !
 ! A257  A(158,90,160)         106.9177         estimate D2E/DX2                !
 ! A258  A(159,90,160)         110.947          estimate D2E/DX2                !
 ! A259  A(86,91,92)           119.1651         estimate D2E/DX2                !
 ! A260  A(86,91,97)           117.981          estimate D2E/DX2                !
 ! A261  A(92,91,97)           122.2541         estimate D2E/DX2                !
 ! A262  A(91,92,93)           118.5245         estimate D2E/DX2                !
 ! A263  A(91,92,161)          124.878          estimate D2E/DX2                !
 ! A264  A(93,92,161)          116.5735         estimate D2E/DX2                !
 ! A265  A(92,93,94)           116.8555         estimate D2E/DX2                !
 ! A266  A(92,93,95)           119.7326         estimate D2E/DX2                !
 ! A267  A(94,93,95)           123.3823         estimate D2E/DX2                !
 ! A268  A(93,95,96)           117.578          estimate D2E/DX2                !
 ! A269  A(93,95,98)           117.6118         estimate D2E/DX2                !
 ! A270  A(96,95,98)           124.369          estimate D2E/DX2                !
 ! A271  A(95,96,97)           121.5048         estimate D2E/DX2                !
 ! A272  A(95,96,162)          113.7678         estimate D2E/DX2                !
 ! A273  A(97,96,162)          124.6305         estimate D2E/DX2                !
 ! A274  A(91,97,96)           120.0196         estimate D2E/DX2                !
 ! A275  A(91,97,163)          122.31           estimate D2E/DX2                !
 ! A276  A(96,97,163)          117.2472         estimate D2E/DX2                !
 ! A277  A(95,98,99)           123.2349         estimate D2E/DX2                !
 ! A278  A(95,98,103)          117.6767         estimate D2E/DX2                !
 ! A279  A(99,98,103)          119.078          estimate D2E/DX2                !
 ! A280  A(98,99,100)          121.4814         estimate D2E/DX2                !
 ! A281  A(98,99,164)          122.3735         estimate D2E/DX2                !
 ! A282  A(100,99,164)         116.1352         estimate D2E/DX2                !
 ! A283  A(99,100,101)         120.3478         estimate D2E/DX2                !
 ! A284  A(99,100,165)         118.0509         estimate D2E/DX2                !
 ! A285  A(101,100,165)        121.4985         estimate D2E/DX2                !
 ! A286  A(100,101,102)        122.3862         estimate D2E/DX2                !
 ! A287  A(100,101,166)        122.2441         estimate D2E/DX2                !
 ! A288  A(102,101,166)        115.3685         estimate D2E/DX2                !
 ! A289  A(101,102,103)        119.1406         estimate D2E/DX2                !
 ! A290  A(101,102,167)        119.358          estimate D2E/DX2                !
 ! A291  A(103,102,167)        121.2152         estimate D2E/DX2                !
 ! A292  A(98,103,102)         117.4952         estimate D2E/DX2                !
 ! A293  A(98,103,104)         115.7632         estimate D2E/DX2                !
 ! A294  A(102,103,104)        126.6661         estimate D2E/DX2                !
 ! A295  A(103,104,105)        116.6941         estimate D2E/DX2                !
 ! A296  A(104,105,168)        105.0558         estimate D2E/DX2                !
 ! A297  A(104,105,169)        110.2578         estimate D2E/DX2                !
 ! A298  A(104,105,170)        107.0291         estimate D2E/DX2                !
 ! A299  A(168,105,169)        111.9105         estimate D2E/DX2                !
 ! A300  A(168,105,170)        108.8994         estimate D2E/DX2                !
 ! A301  A(169,105,170)        113.2556         estimate D2E/DX2                !
 ! D1    D(7,1,2,3)             -0.2719         estimate D2E/DX2                !
 ! D2    D(7,1,2,107)         -175.4723         estimate D2E/DX2                !
 ! D3    D(106,1,2,3)         -179.9712         estimate D2E/DX2                !
 ! D4    D(106,1,2,107)          4.8283         estimate D2E/DX2                !
 ! D5    D(2,1,7,6)             -0.9532         estimate D2E/DX2                !
 ! D6    D(2,1,7,109)         -172.3085         estimate D2E/DX2                !
 ! D7    D(106,1,7,6)          178.7736         estimate D2E/DX2                !
 ! D8    D(106,1,7,109)          7.4183         estimate D2E/DX2                !
 ! D9    D(1,2,3,4)           -177.4368         estimate D2E/DX2                !
 ! D10   D(1,2,3,5)              0.4479         estimate D2E/DX2                !
 ! D11   D(107,2,3,4)           -2.373          estimate D2E/DX2                !
 ! D12   D(107,2,3,5)          175.5117         estimate D2E/DX2                !
 ! D13   D(2,3,5,6)              0.5944         estimate D2E/DX2                !
 ! D14   D(2,3,5,8)            179.9975         estimate D2E/DX2                !
 ! D15   D(4,3,5,6)            178.5071         estimate D2E/DX2                !
 ! D16   D(4,3,5,8)             -2.0898         estimate D2E/DX2                !
 ! D17   D(3,5,6,7)             -1.6998         estimate D2E/DX2                !
 ! D18   D(3,5,6,108)          178.3805         estimate D2E/DX2                !
 ! D19   D(8,5,6,7)            178.8516         estimate D2E/DX2                !
 ! D20   D(8,5,6,108)           -1.0681         estimate D2E/DX2                !
 ! D21   D(3,5,8,9)             59.474          estimate D2E/DX2                !
 ! D22   D(3,5,8,13)          -124.2537         estimate D2E/DX2                !
 ! D23   D(6,5,8,9)           -121.1024         estimate D2E/DX2                !
 ! D24   D(6,5,8,13)            55.1699         estimate D2E/DX2                !
 ! D25   D(5,6,7,1)              1.876          estimate D2E/DX2                !
 ! D26   D(5,6,7,109)          173.7396         estimate D2E/DX2                !
 ! D27   D(108,6,7,1)         -178.2081         estimate D2E/DX2                !
 ! D28   D(108,6,7,109)         -6.3445         estimate D2E/DX2                !
 ! D29   D(5,8,9,10)          -179.0154         estimate D2E/DX2                !
 ! D30   D(5,8,9,110)           -0.1508         estimate D2E/DX2                !
 ! D31   D(13,8,9,10)            4.379          estimate D2E/DX2                !
 ! D32   D(13,8,9,110)        -176.7564         estimate D2E/DX2                !
 ! D33   D(5,8,13,12)         -178.1189         estimate D2E/DX2                !
 ! D34   D(5,8,13,14)            4.2878         estimate D2E/DX2                !
 ! D35   D(9,8,13,12)           -1.8162         estimate D2E/DX2                !
 ! D36   D(9,8,13,14)         -179.4094         estimate D2E/DX2                !
 ! D37   D(8,9,10,11)           -4.5539         estimate D2E/DX2                !
 ! D38   D(8,9,10,111)        -174.4451         estimate D2E/DX2                !
 ! D39   D(110,9,10,11)        176.6082         estimate D2E/DX2                !
 ! D40   D(110,9,10,111)         6.717          estimate D2E/DX2                !
 ! D41   D(9,10,11,12)           2.1441         estimate D2E/DX2                !
 ! D42   D(9,10,11,16)        -172.9285         estimate D2E/DX2                !
 ! D43   D(111,10,11,12)       172.1254         estimate D2E/DX2                !
 ! D44   D(111,10,11,16)        -2.9472         estimate D2E/DX2                !
 ! D45   D(10,11,12,13)          0.2629         estimate D2E/DX2                !
 ! D46   D(10,11,12,112)       179.3809         estimate D2E/DX2                !
 ! D47   D(16,11,12,13)        175.1709         estimate D2E/DX2                !
 ! D48   D(16,11,12,112)        -5.711          estimate D2E/DX2                !
 ! D49   D(10,11,16,17)        120.168          estimate D2E/DX2                !
 ! D50   D(10,11,16,22)        -65.2147         estimate D2E/DX2                !
 ! D51   D(12,11,16,17)        -54.6672         estimate D2E/DX2                !
 ! D52   D(12,11,16,22)        119.9502         estimate D2E/DX2                !
 ! D53   D(11,12,13,8)          -0.3548         estimate D2E/DX2                !
 ! D54   D(11,12,13,14)        177.1478         estimate D2E/DX2                !
 ! D55   D(112,12,13,8)       -179.4028         estimate D2E/DX2                !
 ! D56   D(112,12,13,14)        -1.9002         estimate D2E/DX2                !
 ! D57   D(8,13,14,15)         147.1345         estimate D2E/DX2                !
 ! D58   D(12,13,14,15)        -30.5316         estimate D2E/DX2                !
 ! D59   D(13,14,15,113)      -168.2556         estimate D2E/DX2                !
 ! D60   D(13,14,15,114)       -39.3162         estimate D2E/DX2                !
 ! D61   D(13,14,15,115)        83.2086         estimate D2E/DX2                !
 ! D62   D(11,16,17,18)        177.203          estimate D2E/DX2                !
 ! D63   D(11,16,17,116)        -2.774          estimate D2E/DX2                !
 ! D64   D(22,16,17,18)          2.4306         estimate D2E/DX2                !
 ! D65   D(22,16,17,116)      -177.5464         estimate D2E/DX2                !
 ! D66   D(11,16,22,21)       -176.0552         estimate D2E/DX2                !
 ! D67   D(11,16,22,118)         7.9402         estimate D2E/DX2                !
 ! D68   D(17,16,22,21)         -1.3029         estimate D2E/DX2                !
 ! D69   D(17,16,22,118)      -177.3075         estimate D2E/DX2                !
 ! D70   D(16,17,18,19)        179.8373         estimate D2E/DX2                !
 ! D71   D(16,17,18,20)         -1.9368         estimate D2E/DX2                !
 ! D72   D(116,17,18,19)        -0.1868         estimate D2E/DX2                !
 ! D73   D(116,17,18,20)       178.0391         estimate D2E/DX2                !
 ! D74   D(17,18,20,21)          0.2829         estimate D2E/DX2                !
 ! D75   D(17,18,20,23)       -176.5456         estimate D2E/DX2                !
 ! D76   D(19,18,20,21)        178.4253         estimate D2E/DX2                !
 ! D77   D(19,18,20,23)          1.5968         estimate D2E/DX2                !
 ! D78   D(18,20,21,22)          0.9059         estimate D2E/DX2                !
 ! D79   D(18,20,21,117)       177.7826         estimate D2E/DX2                !
 ! D80   D(23,20,21,22)        177.514          estimate D2E/DX2                !
 ! D81   D(23,20,21,117)        -5.6093         estimate D2E/DX2                !
[...]
  Beta virt. eigenvalues --    3.69698   3.69953   3.70115   3.70283   3.70354
  Beta virt. eigenvalues --    3.70392   3.72407   3.72828   3.73175   3.73694
  Beta virt. eigenvalues --    3.74293   3.74835   3.75220   3.76360   3.87915
  Beta virt. eigenvalues --    3.87915   3.87980   3.88009   3.88021   3.88027
  Beta virt. eigenvalues --    3.88100   4.10965   4.10999   4.11023   4.11082
  Beta virt. eigenvalues --    4.11106   4.11141   4.11174   4.31605   4.31683
  Beta virt. eigenvalues --    4.31771   4.31842   4.31948   4.32059   4.32072
          Condensed to atoms (all electrons):
          Atomic-Atomic Spin Densities.
 Mulliken charges and spin densities:
               1          2
     1  C    0.009290  -0.000000
     2  C   -0.009517   0.000000
     3  C    0.098331  -0.000000
     4  F   -0.132064   0.000000
     5  C   -0.059616   0.000000
     6  C    0.037929   0.000000
     7  C    0.003063   0.000000
     8  C   -0.034972  -0.000000
     9  C    0.046416   0.000000
    10  C   -0.010493  -0.000000
    11  C    0.000993   0.000000
    12  C   -0.048361   0.000000
    13  C    0.119263   0.000000
    14  O   -0.251140  -0.000000
    15  C    0.044873   0.000000
    16  C    0.001465  -0.000000
    17  C   -0.011644  -0.000000
    18  C    0.107594   0.000000
    19  F   -0.131778  -0.000000
    20  C   -0.055667  -0.000000
    21  C    0.050657   0.000000
    22  C   -0.001246   0.000000
    23  C   -0.035696   0.000000
    24  C    0.044341  -0.000000
    25  C   -0.010325   0.000000
    26  C    0.001240   0.000000
    27  C   -0.047894  -0.000000
    28  C    0.118388   0.000000
    29  O   -0.251821  -0.000000
    30  C    0.044686  -0.000000
    31  C    0.001521   0.000000
    32  C   -0.011664  -0.000000
    33  C    0.107922   0.000000
    34  F   -0.131089  -0.000000
    35  C   -0.055731  -0.000000
    36  C    0.050622   0.000000
    37  C   -0.001439  -0.000000
    38  C   -0.035430   0.000000
    39  C    0.044491  -0.000000
    40  C   -0.009881   0.000000
    41  C    0.000804  -0.000000
    42  C   -0.047882   0.000000
    43  C    0.118028  -0.000000
    44  O   -0.251866   0.000000
    45  C    0.045060   0.000000
    46  C    0.002701   0.000000
    47  C   -0.008482  -0.000000
    48  C    0.106171  -0.000000
    49  F   -0.130041   0.000000
    50  C   -0.052783  -0.000000
    51  C    0.049221  -0.000000
    52  C   -0.003896   0.000000
    53  C   -0.035020  -0.000000
    54  C    0.044302   0.000000
    55  C   -0.009258  -0.000000
    56  C    0.000678   0.000000
    57  C   -0.047417  -0.000000
    58  C    0.117629   0.000000
    59  O   -0.252566  -0.000000
    60  C    0.045339  -0.000000
    61  C    0.000678   0.000000
    62  C   -0.008254  -0.000000
    63  C    0.108728  -0.000000
    64  F   -0.129923   0.000000
    65  C   -0.055647   0.000000
    66  C    0.050281   0.000000
    67  C   -0.004086  -0.000000
    68  C   -0.035679   0.000000
    69  C    0.044064   0.000000
    70  C   -0.009598  -0.000000
    71  C    0.000809  -0.000000
    72  C   -0.047574   0.000000
    73  C    0.118063  -0.000000
    74  O   -0.252087   0.000000
    75  C    0.045037  -0.000000
    76  C    0.000833   0.000000
    77  C   -0.008498   0.000000
    78  C    0.108898   0.000000
    79  F   -0.129889   0.000000
    80  C   -0.056345  -0.000000
    81  C    0.050353   0.000000
    82  C   -0.004261  -0.000000
    83  C   -0.038652   0.000000
    84  C    0.045242   0.000000
    85  C   -0.010119  -0.000000
    86  C   -0.000432  -0.000000
    87  C   -0.047512   0.000000
    88  C    0.120518  -0.000000
    89  O   -0.252339   0.000000
    90  C    0.044782   0.000000
    91  C    0.003553   0.000000
    92  C   -0.012063   0.000000
    93  C    0.107322  -0.000000
    94  F   -0.130989  -0.000000
    95  C   -0.052241   0.000000
    96  C    0.050854  -0.000000
    97  C   -0.001582  -0.000000
    98  C   -0.044672  -0.000000
    99  C    0.032044   0.000000
   100  C   -0.000280  -0.000000
   101  C    0.009250   0.000000
   102  C   -0.056500  -0.000000
   103  C    0.109225  -0.000000
   104  O   -0.251063   0.000000
   105  C    0.042930   0.000000
   106  H    0.010321  -0.000000
   107  H    0.018180   0.000000
   108  H    0.001122   0.000000
   109  H    0.004468   0.000000
   110  H    0.000569   0.000000
   111  H   -0.004439  -0.000000
   112  H    0.002584   0.000000
   113  H    0.062624  -0.000000
   114  H    0.054226   0.000000
   115  H    0.048834   0.000000
   116  H    0.009215   0.000000
   117  H    0.001991   0.000000
   118  H   -0.000213   0.000000
   119  H    0.000868   0.000000
   120  H   -0.004386  -0.000000
   121  H    0.002931  -0.000000
   122  H    0.063263   0.000000
   123  H    0.054090   0.000000
   124  H    0.049520   0.000000
   125  H    0.009708  -0.000000
   126  H    0.001515   0.000000
   127  H   -0.000674  -0.000000
   128  H    0.001395   0.000000
   129  H   -0.003932   0.000000
   130  H    0.001718   0.000000
   131  H    0.062947  -0.000000
   132  H    0.054073  -0.000000
   133  H    0.048247   0.000000
   134  H    0.014130  -0.000000
   135  H    0.000413  -0.000000
   136  H   -0.005034   0.000000
   137  H    0.001537   0.000000
   138  H   -0.003108  -0.000000
   139  H    0.001605  -0.000000
   140  H    0.061468   0.000000
   141  H    0.048282   0.000000
   142  H    0.054844   0.000000
   143  H    0.014181  -0.000000
   144  H    0.000522  -0.000000
   145  H   -0.005144  -0.000000
   146  H    0.001358  -0.000000
   147  H   -0.003238  -0.000000
   148  H    0.001723   0.000000
   149  H    0.062961  -0.000000
   150  H    0.054696  -0.000000
   151  H    0.048026  -0.000000
   152  H    0.014050  -0.000000
   153  H    0.001011   0.000000
   154  H   -0.005117  -0.000000
   155  H    0.001011   0.000000
   156  H   -0.003825  -0.000000
   157  H    0.001591  -0.000000
   158  H    0.062906   0.000000
   159  H    0.051638   0.000000
   160  H    0.051694  -0.000000
   161  H    0.010341   0.000000
   162  H    0.001289   0.000000
   163  H   -0.002339  -0.000000
   164  H   -0.000810   0.000000
   165  H    0.001041   0.000000
   166  H    0.005104  -0.000000
   167  H    0.006986  -0.000000
   168  H    0.051810  -0.000000
   169  H    0.049076  -0.000000
   170  H    0.063048  -0.000000
 Sum of Mulliken charges =  -0.00000  -0.00000
 Mulliken charges and spin densities with hydrogens summed into heavy atoms:
               1          2
     1  C    0.019612  -0.000000
     2  C    0.008664   0.000000
     3  C    0.098331  -0.000000
     4  F   -0.132064   0.000000
     5  C   -0.059616   0.000000
     6  C    0.039051   0.000000
     7  C    0.007530   0.000000
     8  C   -0.034972  -0.000000
     9  C    0.046985   0.000000
    10  C   -0.014932  -0.000000
    11  C    0.000993   0.000000
    12  C   -0.045777   0.000000
    13  C    0.119263   0.000000
    14  O   -0.251140  -0.000000
    15  C    0.210558   0.000000
    16  C    0.001465  -0.000000
    17  C   -0.002429  -0.000000
    18  C    0.107594   0.000000
    19  F   -0.131778  -0.000000
    20  C   -0.055667  -0.000000
    21  C    0.052648   0.000000
    22  C   -0.001459   0.000000
    23  C   -0.035696   0.000000
    24  C    0.045209   0.000000
    25  C   -0.014711   0.000000
    26  C    0.001240   0.000000
    27  C   -0.044964  -0.000000
    28  C    0.118388   0.000000
    29  O   -0.251821  -0.000000
    30  C    0.211559  -0.000000
    31  C    0.001521   0.000000
    32  C   -0.001956  -0.000000
    33  C    0.107922   0.000000
    34  F   -0.131089  -0.000000
    35  C   -0.055731  -0.000000
    36  C    0.052137   0.000000
    37  C   -0.002114  -0.000000
    38  C   -0.035430   0.000000
    39  C    0.045886  -0.000000
    40  C   -0.013813   0.000000
    41  C    0.000804  -0.000000
    42  C   -0.046164   0.000000
    43  C    0.118028  -0.000000
    44  O   -0.251866   0.000000
    45  C    0.210327   0.000000
    46  C    0.002701   0.000000
    47  C    0.005648  -0.000000
    48  C    0.106171  -0.000000
    49  F   -0.130041   0.000000
    50  C   -0.052783  -0.000000
    51  C    0.049634  -0.000000
    52  C   -0.008931   0.000000
    53  C   -0.035020  -0.000000
    54  C    0.045839   0.000000
    55  C   -0.012366  -0.000000
    56  C    0.000678   0.000000
    57  C   -0.045812  -0.000000
    58  C    0.117629   0.000000
    59  O   -0.252566  -0.000000
    60  C    0.209934   0.000000
    61  C    0.000678   0.000000
    62  C    0.005927  -0.000000
    63  C    0.108728  -0.000000
    64  F   -0.129923   0.000000
    65  C   -0.055647   0.000000
    66  C    0.050803   0.000000
    67  C   -0.009230  -0.000000
    68  C   -0.035679   0.000000
    69  C    0.045422   0.000000
    70  C   -0.012836  -0.000000
    71  C    0.000809  -0.000000
    72  C   -0.045852   0.000000
    73  C    0.118063  -0.000000
    74  O   -0.252087   0.000000
    75  C    0.210719  -0.000000
    76  C    0.000833   0.000000
    77  C    0.005552   0.000000
    78  C    0.108898   0.000000
    79  F   -0.129889   0.000000
    80  C   -0.056345  -0.000000
    81  C    0.051364   0.000000
    82  C   -0.009378  -0.000000
    83  C   -0.038652   0.000000
    84  C    0.046253   0.000000
    85  C   -0.013944  -0.000000
    86  C   -0.000432  -0.000000
    87  C   -0.045922   0.000000
    88  C    0.120518  -0.000000
    89  O   -0.252339   0.000000
    90  C    0.211020   0.000000
    91  C    0.003553   0.000000
    92  C   -0.001722   0.000000
    93  C    0.107322  -0.000000
    94  F   -0.130989  -0.000000
    95  C   -0.052241   0.000000
    96  C    0.052143  -0.000000
    97  C   -0.003922  -0.000000
    98  C   -0.044672  -0.000000
    99  C    0.031234   0.000000
   100  C    0.000761   0.000000
   101  C    0.014354   0.000000
   102  C   -0.049514  -0.000000
   103  C    0.109225  -0.000000
   104  O   -0.251063   0.000000
   105  C    0.206864   0.000000
 Electronic spatial extent (au):  <R**2>=         801019.8956
 Charge=              0.0000 electrons
 Dipole moment (field-independent basis, Debye):
    X=              2.7476    Y=             -6.4393    Z=              1.7418  Tot=              7.2144
 Quadrupole moment (field-independent basis, Debye-Ang):
   XX=           -488.1755   YY=           -538.7773   ZZ=           -578.2684
   XY=             38.7957   XZ=             57.9955   YZ=              5.9642
 Traceless Quadrupole moment (field-independent basis, Debye-Ang):
   XX=             46.8982   YY=             -3.7036   ZZ=            -43.1947
   XY=             38.7957   XZ=             57.9955   YZ=              5.9642
 Octapole moment (field-independent basis, Debye-Ang**2):
  XXX=           2401.7189  YYY=            -64.9270  ZZZ=            -62.9618  XYY=            217.2498
  XXY=           -359.4194  XXZ=            925.6952  XZZ=            -59.1963  YZZ=            -19.4600
  YYZ=            -26.3976  XYZ=            201.2110
 Hexadecapole moment (field-independent basis, Debye-Ang**3):
 XXXX=        -906858.8476 YYYY=          -6690.9868 ZZZZ=          -3692.6258 XXXY=          46400.0311
 XXXZ=          18187.9673 YYYX=           1425.2741 YYYZ=            129.6430 ZZZX=           1021.3061
 ZZZY=           -137.9211 XXYY=        -162578.5696 XXZZ=        -179440.7716 YYZZ=          -1820.3914
 XXYZ=           3183.4763 YYXZ=            389.1041 ZZXY=            193.1335
 N-N= 1.433815968363D+04 E-N=-3.971205912054D+04  KE= 4.698881876783D+03
 Leave Link  601 at Sat Jul 25 07:10:54 2020, MaxMem=  4026531840 cpu:              15.4 elap:               2.1
 (Enter /opt/ohpc/pub/libs/gaussian/g16-A.03/sandybridge/g16/l9999.exe)

 Test job not archived.
 1\1\GINC-SKYLAKE036\FOpt\ULC-wPBE\CC-pVDZ\C91H65F7O7\RDU230\25-Jul-202
 0\0\\#P uLC-wPBE/cc-pVDZ iop(3/107=0398000000, 3/108=0398000000) opt\\
 H65 C91 O7 F7\\0,1\C,-29.517030683,1.1433128759,0.168419587\C,-28.8046
 974047,1.494089439,-0.9684345104\C,-27.4280678931,1.3510440042,-0.9687
 356956\F,-26.7587552478,1.69952111,-2.0826645447\C,-26.7184516688,0.86
 63798013,0.1255234473\C,-27.4639883872,0.5175687845,1.2536428543\C,-28
 .8438890978,0.6551483927,1.2825442431\C,-25.2373866402,0.7570261214,0.
 0909360349\C,-24.4540743872,1.8428250059,-0.2813606195\C,-23.067629205
 7,1.7722931703,-0.3112142805\C,-22.4256094057,0.5884247736,0.034658425
 7\C,-23.1963243596,-0.5157841244,0.4063149667\C,-24.5846545869,-0.4398
 193205,0.4352551222\O,-25.3821846723,-1.4820570967,0.7747478262\C,-24.
 778261138,-2.7167020983,1.0764240616\C,-20.9440823339,0.4895719438,0.0
 108849626\C,-20.2582812998,-0.1670849687,1.0295184514\C,-18.8784774784
 ,-0.2463351526,0.990422088\F,-18.2612321684,-0.8829728555,2.0026804001
 \C,-18.1144878967,0.3029615934,-0.0337325189\C,-18.8197995477,0.952936
 185,-1.0484687797\C,-20.2015390535,1.0511936355,-1.030025358\C,-16.632
 1152539,0.220369417,-0.0211852537\C,-15.9091073789,0.6041110074,1.1021
 147972\C,-14.5221811554,0.548265154,1.1371716047\C,-13.8176146327,0.09
 48919732,0.0274468387\C,-14.527007467,-0.3004465117,-1.109154437\C,-15
 .9160950863,-0.2421749373,-1.1397195317\O,-16.6555436189,-0.6253235918
 ,-2.2092068309\C,-15.9875837246,-1.1412746712,-3.3353839609\C,-12.3342
 383473,0.0271183526,0.0415178116\C,-11.5930782441,0.4270959973,-1.0674
 508798\C,-10.2125595937,0.3582370798,-1.0339794212\F,-9.5410005384,0.7
 649272842,-2.1266578315\C,-9.5012220796,-0.1010402302,0.0694152224\C,-
 10.2614547687,-0.5020534889,1.1697675022\C,-11.645304979,-0.4377350631
 ,1.1638271791\C,-8.0167979721,-0.130703129,0.0734655571\C,-7.283189328
 9,0.9947270685,-0.2830179894\C,-5.8947581963,0.9982254893,-0.277175826
 \C,-5.1991694337,-0.1485453674,0.0895631488\C,-5.9189668988,-1.2915123
 565,0.4457620363\C,-7.3095920332,-1.2900465586,0.4385409452\O,-8.05849
 89844,-2.3734079819,0.76051431\C,-7.397284436,-3.5738611993,1.07913942
 36\C,-3.7144488972,-0.1695727132,0.1061431129\C,-2.9878814049,0.429439
 01,-0.9196461732\C,-1.6058920726,0.4047795206,-0.8885260672\F,-0.94810
 78035,0.9896279924,-1.9055750321\C,-0.8788593143,-0.1982269126,0.13281
 79956\C,-1.6243756306,-0.7954442125,1.1509491436\C,-3.0097337664,-0.78
 25037937,1.144548824\C,0.6055212906,-0.1737214241,0.1415987005\C,1.296
 4038001,1.0196531929,-0.0335603504\C,2.6836317648,1.0740821805,-0.0192
 756737\C,3.4218782715,-0.0887140756,0.1711986105\C,2.7457004656,-1.298
 7967727,0.3436572079\C,1.3559950839,-1.3481244709,0.3286114541\O,0.648
 9186507,-2.4957123635,0.4766411044\C,1.3560463582,-3.7055316252,0.6035
 834103\C,4.9063784044,-0.0566174513,0.1928908818\C,5.6097232148,0.7151
 248834,-0.7282254037\C,6.9918416578,0.7341228837,-0.696185889\F,7.6270
 804102,1.4861975289,-1.6126393392\C,7.741032321,0.0120755318,0.2271455
 574\C,7.0183144163,-0.7502452128,1.146700838\C,5.6335531227,-0.7913317
 369,1.1319789079\C,9.2253857221,0.0384089391,0.2065720944\C,9.92348443
 4,-0.2035995371,-0.9707431739\C,11.3111411546,-0.1953249886,-1.0164740
 13\C,12.0421359467,0.0640919871,0.1375592671\C,11.3583046901,0.3151389
 556,1.329480563\C,9.9682803118,0.3054209858,1.3703366827\O,9.253263803
 3,0.5557649755,2.494717589\C,9.9497280358,0.8923438598,3.6702029678\C,
 13.5269345174,0.0771458069,0.1151818524\C,14.21227978,0.6809820957,-0.
 9357744726\C,15.5948577558,0.6865624659,-0.9418713063\F,16.2120365737,
 1.2911434788,-1.9727733361\C,16.3620915668,0.1074463028,0.0636895522\C
 ,15.6575360318,-0.4991046565,1.1051916533\C,14.2725096966,-0.513122798
 8,1.137983119\C,17.8455349782,0.1637808308,0.0324172055\C,18.505805104
 7,1.3718157842,-0.1591216033\C,19.8915338597,1.456534503,-0.17773593\C
 ,20.6594481637,0.3094046114,-0.0104001521\C,20.0138609893,-0.915214512
 5,0.1756944751\C,18.6256011967,-0.9942931863,0.1988243436\O,17.9476948
 046,-2.1540885748,0.3813506741\C,18.6823128112,-3.3498776756,0.4853782
 491\C,22.1428522636,0.3761153807,-0.0284351941\C,22.8907493641,-0.5901
 770309,-0.6963811646\C,24.2711687622,-0.5104465728,-0.700981281\F,24.9
 490887274,-1.4634891007,-1.3659507788\C,24.9756906499,0.5041649092,-0.
 0620146188\C,24.2090531601,1.4653615928,0.5992784655\C,22.8250538621,1
 .4069044885,0.6214601673\C,26.4608360869,0.5353694073,-0.0677043983\C,
 27.1917857252,-0.5846930564,0.3127621009\C,28.5817443708,-0.5792067052
 ,0.3287137476\C,29.256254532,0.569114065,-0.050100006\C,28.5533625602,
 1.7036116429,-0.4417530435\C,27.1611872325,1.6927880051,-0.452461319\O
 ,26.4056095229,2.7557720683,-0.8242800987\C,27.0618568605,3.9160386503
 ,-1.2741010213\H,-30.6026482687,1.252954862,0.1825901928\H,-29.2933953
 869,1.877571873,-1.8643246205\H,-26.9365253455,0.1297503681,2.12515669
 7\H,-29.3975974784,0.3794946942,2.1811368649\H,-24.9495733792,2.777063
 0191,-0.5481415108\H,-22.4838797982,2.6526082668,-0.5826051269\H,-22.6
 919475198,-1.4502719171,0.6475656333\H,-25.5971451354,-3.4098914013,1.
 2989117363\H,-24.2002466948,-3.1055236868,0.2227188903\H,-24.119138242
 9,-2.6449291559,1.9568725797\H,-20.7802429909,-0.6076791194,1.87944339
 98\H,-18.259123226,1.3857823637,-1.8767018053\H,-20.7172111474,1.55411
 10041,-1.8492777925\H,-16.4533347693,0.9674714005,1.9745499164\H,-13.9
 867396705,0.8832961422,2.0262205408\H,-13.9742355969,-0.6832133817,-1.
 9657563469\H,-16.7677082363,-1.3995277875,-4.0601239686\H,-15.41336477
 97,-2.0481933283,-3.0867500124\H,-15.3111285177,-0.3967579506,-3.78567
 50211\H,-12.0721150025,0.8186492801,-1.9653006231\H,-9.7427150341,-0.8
 808144746,2.0501881926\H,-12.2044002492,-0.7745820368,2.0378842385\H,-
 7.8204684357,1.9006049478,-0.5658925813\H,-5.3523883011,1.9079678305,-
 0.5374126886\H,-5.3712660653,-2.1967609633,0.7030961199\H,-8.183301962
 6,-4.3098989415,1.281713704\H,-6.7776288982,-3.9309893821,0.2409330873
 \H,-6.7656582814,-3.4667815264,1.9760234286\H,-3.4819316102,0.90171075
 ,-1.7691103065\H,-1.0925694528,-1.2750633016,1.9724833462\H,-3.5556903
 463,-1.2346474505,1.9739682969\H,0.725418262,1.9375901327,-0.177347892
 7\H,3.1914326176,2.0324808666,-0.1338701102\H,3.3271942349,-2.21171294
 88,0.462569741\H,0.5991986302,-4.4938440613,0.6836793492\H,1.985092151
 2,-3.7184435033,1.5085548697\H,1.9869990068,-3.9016362124,-0.278155421
 \H,5.0978704852,1.2964057005,-1.4955855178\H,7.5676766287,-1.318764775
 ,1.8968420253\H,5.1050215355,-1.385841814,1.8787483227\H,9.3583646468,
 -0.4133812782,-1.8795660644\H,11.8256312216,-0.4153040393,-1.952666035
 8\H,11.9330465607,0.5476197335,2.2246507303\H,9.1862736728,1.076726817
 9,4.4342245428\H,10.5530355824,1.8046965389,3.5374276973\H,10.60404724
 55,0.0717266873,4.0067799054\H,13.6852777407,1.1726943543,-1.753830038
 5\H,16.2217481149,-0.9780481654,1.9051577315\H,13.7590474049,-1.012595
 7993,1.9609871545\H,17.9113972913,2.2747393935,-0.3031214084\H,20.3754
 249831,2.4188290856,-0.3484938348\H,20.617372665,-1.8089954782,0.32656
 56399\H,17.9438998936,-4.1530150721,0.5869313181\H,19.2899470279,-3.53
 22257867,-0.4155234\H,19.3384704672,-3.3510339693,1.3708758446\H,22.41
 5293898,-1.4029009625,-1.2462820492\H,24.7234176033,2.2762981688,1.114
 7335884\H,22.2623384618,2.1626224225,1.1713104105\H,26.6503421285,-1.4
 849074742,0.6065150882\H,29.1298345414,-1.4705907588,0.6357490449\H,30
 .3475244622,0.5942223481,-0.0456302764\H,29.1024725123,2.5952242761,-0
 .7403884638\H,27.6841708954,3.712678193,-2.160481727\H,27.6898702905,4
 .3622498797,-0.4857779474\H,26.2731557165,4.6261931916,-1.5468415347\\
 Version=EM64L-G16RevA.03\State=1-A\HF=-4729.250164\S2=0.\S2-1=0.\S2A=0
 .\RMSD=2.379e-09\RMSF=1.372e-06\Dipole=1.0902062,-1.8326315,1.8733066\
 Quadrupole=34.4435605,-5.9690378,-28.4745228,46.8927945,22.6078412,-10
 .5682303\PG=C01 [X(C91H65F7O7)]\\@


 NATURE GIVES TO EVERY TIME AND SEASON SOME BEAUTY OF ITS OWN.

                                                    --DICKENS
 Job cpu time:       2 days 20 hours 14 minutes 45.3 seconds.
 Elapsed time:       0 days  8 hours 38 minutes 59.8 seconds.
 File lengths (MBytes):  RWF=   3552 Int=      0 D2E=      0 Chk=    320 Scr=      8
 Normal termination of Gaussian 16 at Sat Jul 25 07:10:54 2020.
