 Entering Gaussian System, Link 0=g16
 Input=mols_65_1_35_cF-cOC-COC_opt_0.gjf
 Output=mols_65_1_35_cF-cOC-COC_opt_0.log
 Initial command:
 /opt/ohpc/pub/libs/gaussian/g16-A.03/sandybridge/g16/l1.exe "/mnt/gpfs2_4m/scratch/rdu230/ondemand/projects/dihedral_energies/7trial/wtuning/mols_65_1_35_cF-cOC-COC/Gau-303654.inp" -scrdir="/mnt/gpfs2_4m/scratch/rdu230/ondemand/projects/dihedral_energies/7trial/wtuning/mols_65_1_35_cF-cOC-COC/"
 Entering Link 1 = /opt/ohpc/pub/libs/gaussian/g16-A.03/sandybridge/g16/l1.exe PID=    303655.
  
 Copyright (c) 1988,1990,1992,1993,1995,1998,2003,2009,2016,
            Gaussian, Inc.  All Rights Reserved.
  
 This is part of the Gaussian(R) 16 program.  It is based on
 the Gaussian(R) 09 system (copyright 2009, Gaussian, Inc.),
 the Gaussian(R) 03 system (copyright 2003, Gaussian, Inc.),
 the Gaussian(R) 98 system (copyright 1998, Gaussian, Inc.),
 the Gaussian(R) 94 system (copyright 1995, Gaussian, Inc.),
 the Gaussian 92(TM) system (copyright 1992, Gaussian, Inc.),
 the Gaussian 90(TM) system (copyright 1990, Gaussian, Inc.),
 the Gaussian 88(TM) system (copyright 1988, Gaussian, Inc.),
 the Gaussian 86(TM) system (copyright 1986, Carnegie Mellon
 University), and the Gaussian 82(TM) system (copyright 1983,
 Carnegie Mellon University). Gaussian is a federally registered
 trademark of Gaussian, Inc.
  
 This software contains proprietary and confidential information,
 including trade secrets, belonging to Gaussian, Inc.
  
 This software is provided under written license and may be
 used, copied, transmitted, or stored only in accord with that
 written license.
  
 The following legend is applicable only to US Government
 contracts under FAR:
  
                    RESTRICTED RIGHTS LEGEND
  
 Use, reproduction and disclosure by the US Government is
 subject to restrictions as set forth in subparagraphs (a)
 and (c) of the Commercial Computer Software - Restricted
 Rights clause in FAR 52.227-19.
  
 Gaussian, Inc.
 340 Quinnipiac St., Bldg. 40, Wallingford CT 06492
  
  
 ---------------------------------------------------------------
 Warning -- This program may not be used in any manner that
 competes with the business of Gaussian, Inc. or will provide
 assistance to any competitor of Gaussian, Inc.  The licensee
 of this program is prohibited from giving any competitor of
 Gaussian, Inc. access to this program.  By using this program,
 the user acknowledges that Gaussian, Inc. is engaged in the
 business of creating and licensing software in the field of
 computational chemistry and represents and warrants to the
 licensee that it is not a competitor of Gaussian, Inc. and that
 it will not use this program in any manner prohibited above.
 ---------------------------------------------------------------
  

 Cite this work as:
 Gaussian 16, Revision A.03,
 M. J. Frisch, G. W. Trucks, H. B. Schlegel, G. E. Scuseria, 
 M. A. Robb, J. R. Cheeseman, G. Scalmani, V. Barone, 
 G. A. Petersson, H. Nakatsuji, X. Li, M. Caricato, A. V. Marenich, 
 J. Bloino, B. G. Janesko, R. Gomperts, B. Mennucci, H. P. Hratchian, 
 J. V. Ortiz, A. F. Izmaylov, J. L. Sonnenberg, D. Williams-Young, 
 F. Ding, F. Lipparini, F. Egidi, J. Goings, B. Peng, A. Petrone, 
 T. Henderson, D. Ranasinghe, V. G. Zakrzewski, J. Gao, N. Rega, 
 G. Zheng, W. Liang, M. Hada, M. Ehara, K. Toyota, R. Fukuda, 
 J. Hasegawa, M. Ishida, T. Nakajima, Y. Honda, O. Kitao, H. Nakai, 
 T. Vreven, K. Throssell, J. A. Montgomery, Jr., J. E. Peralta, 
 F. Ogliaro, M. J. Bearpark, J. J. Heyd, E. N. Brothers, K. N. Kudin, 
 V. N. Staroverov, T. A. Keith, R. Kobayashi, J. Normand, 
 K. Raghavachari, A. P. Rendell, J. C. Burant, S. S. Iyengar, 
 J. Tomasi, M. Cossi, J. M. Millam, M. Klene, C. Adamo, R. Cammi, 
 J. W. Ochterski, R. L. Martin, K. Morokuma, O. Farkas, 
 J. B. Foresman, and D. J. Fox, Gaussian, Inc., Wallingford CT, 2016.
 
 ******************************************
 Gaussian 16:  EM64L-G16RevA.03 25-Dec-2016
                24-Jul-2020 
 ******************************************
 %mem=30GB
 %nproc=8
 Will use up to    8 processors via shared memory.
 ---------------------------------------------------------------
 #P uLC-wPBE/cc-pVDZ iop(3/107=0140200000, 3/108=0140200000) opt
 ---------------------------------------------------------------
 1/18=20,19=15,26=3,38=1/1,3;
 2/9=110,12=2,17=6,18=5,40=1/2;
 3/5=16,11=2,25=1,30=1,71=1,74=-41,107=140200000,108=140200000,116=2/1,2,3;
 4//1;
 5/5=2,38=5/2;
 6/7=2,8=2,9=2,10=2,28=1/1;
 7//1,2,3,16;
 1/18=20,19=15,26=3/3(2);
 2/9=110/2;
 99//99;
 2/9=110/2;
 3/5=16,11=2,25=1,30=1,71=1,74=-41,107=140200000,108=140200000,116=2/1,2,3;
 4/5=5,16=3,69=1/1;
 5/5=2,38=5/2;
 7//1,2,3,16;
 1/18=20,19=15,26=3/3(-5);
 2/9=110/2;
 6/7=2,8=2,9=2,10=2,19=2,28=1/1;
 99/9=1/99;
 Leave Link    1 at Fri Jul 24 20:16:04 2020, MaxMem=  4026531840 cpu:               1.8 elap:               0.3
 (Enter /opt/ohpc/pub/libs/gaussian/g16-A.03/sandybridge/g16/l101.exe)
 ----------------
 H11 C12 S1 O2 F1
 ----------------
 Symbolic Z-matrix:
 Charge =  0 Multiplicity = 1
 C                     3.39866  -1.04221   0.03593 
 C                     2.41632  -1.93595  -0.32004 
 C                     1.09464  -1.64658  -0.4828 
 F                     0.18291  -2.5399   -0.86103 
 C                     0.71577  -0.32038  -0.20704 
 C                     1.68816   0.68017   0.20415 
 O                     1.19377   1.92765   0.40557 
 C                     2.10339   2.85017   0.90493 
 C                     2.93828   0.24488   0.33854 
 C                    -0.73623   0.09292  -0.34767 
 C                    -1.77338  -0.09594   0.52524 
 O                    -1.56772  -0.69983   1.73875 
 C                    -2.66719  -0.85098   2.49138 
 C                    -3.05734   0.36886  -0.06152 
 C                    -2.89952   0.90485  -1.32557 
 S                    -1.19596   0.77746  -1.85045 
 H                     4.45126  -1.34198   0.22902 
 H                     2.71836  -3.04139  -0.58314 
 H                     1.5666    3.88318   1.07884 
 H                     2.89868   3.0813    0.10263 
 H                     2.50337   2.61484   1.87407 
 H                     3.73507   0.91878   0.66455 
 H                    -2.35606  -1.32825   3.44053 
 H                    -3.19421   0.05079   2.77115 
 H                    -3.40998  -1.52397   1.97757 
 H                    -3.96068   0.32558   0.48886 
 H                    -3.64332   1.3439   -1.97151 
 
 ITRead=  0  0  0  0  0  0  0  0  0  0  0  0  0  0  0  0  0  0  0  0
 ITRead=  0  0  0  0  0  0  0
 MicOpt= -1 -1 -1 -1 -1 -1 -1 -1 -1 -1 -1 -1 -1 -1 -1 -1 -1 -1 -1 -1
 MicOpt= -1 -1 -1 -1 -1 -1 -1
 NAtoms=     27 NQM=       27 NQMF=       0 NMMI=      0 NMMIF=      0
                NMic=       0 NMicF=      0.
                    Isotopes and Nuclear Properties:
 (Nuclear quadrupole moments (NQMom) in fm**2, nuclear magnetic moments (NMagM)
  in nuclear magnetons)

  Atom         1           2           3           4           5           6           7           8           9          10
 IAtWgt=          12          12          12          19          12          12          16          12          12          12
 AtmWgt=  12.0000000  12.0000000  12.0000000  18.9984033  12.0000000  12.0000000  15.9949146  12.0000000  12.0000000  12.0000000
 NucSpn=           0           0           0           1           0           0           0           0           0           0
 AtZEff=  -0.0000000  -0.0000000  -0.0000000  -0.0000000  -0.0000000  -0.0000000  -0.0000000  -0.0000000  -0.0000000  -0.0000000
 NQMom=    0.0000000   0.0000000   0.0000000   0.0000000   0.0000000   0.0000000   0.0000000   0.0000000   0.0000000   0.0000000
 NMagM=    0.0000000   0.0000000   0.0000000   2.6288670   0.0000000   0.0000000   0.0000000   0.0000000   0.0000000   0.0000000
 AtZNuc=   6.0000000   6.0000000   6.0000000   9.0000000   6.0000000   6.0000000   8.0000000   6.0000000   6.0000000   6.0000000

  Atom        11          12          13          14          15          16          17          18          19          20
 IAtWgt=          12          16          12          12          12          32           1           1           1           1
 AtmWgt=  12.0000000  15.9949146  12.0000000  12.0000000  12.0000000  31.9720718   1.0078250   1.0078250   1.0078250   1.0078250
 NucSpn=           0           0           0           0           0           0           1           1           1           1
 AtZEff=  -0.0000000  -0.0000000  -0.0000000  -0.0000000  -0.0000000  -0.0000000  -0.0000000  -0.0000000  -0.0000000  -0.0000000
 NQMom=    0.0000000   0.0000000   0.0000000   0.0000000   0.0000000   0.0000000   0.0000000   0.0000000   0.0000000   0.0000000
 NMagM=    0.0000000   0.0000000   0.0000000   0.0000000   0.0000000   0.0000000   2.7928460   2.7928460   2.7928460   2.7928460
 AtZNuc=   6.0000000   8.0000000   6.0000000   6.0000000   6.0000000  16.0000000   1.0000000   1.0000000   1.0000000   1.0000000

  Atom        21          22          23          24          25          26          27
 IAtWgt=           1           1           1           1           1           1           1
 AtmWgt=   1.0078250   1.0078250   1.0078250   1.0078250   1.0078250   1.0078250   1.0078250
 NucSpn=           1           1           1           1           1           1           1
 AtZEff=  -0.0000000  -0.0000000  -0.0000000  -0.0000000  -0.0000000  -0.0000000  -0.0000000
 NQMom=    0.0000000   0.0000000   0.0000000   0.0000000   0.0000000   0.0000000   0.0000000
 NMagM=    2.7928460   2.7928460   2.7928460   2.7928460   2.7928460   2.7928460   2.7928460
 AtZNuc=   1.0000000   1.0000000   1.0000000   1.0000000   1.0000000   1.0000000   1.0000000
 Leave Link  101 at Fri Jul 24 20:16:05 2020, MaxMem=  4026531840 cpu:               3.1 elap:               0.4
 (Enter /opt/ohpc/pub/libs/gaussian/g16-A.03/sandybridge/g16/l103.exe)

 GradGradGradGradGradGradGradGradGradGradGradGradGradGradGradGradGradGrad
 Berny optimization.
 Initialization pass.
                           ----------------------------
                           !    Initial Parameters    !
                           ! (Angstroms and Degrees)  !
 --------------------------                            --------------------------
 ! Name  Definition              Value          Derivative Info.                !
 --------------------------------------------------------------------------------
 ! R1    R(1,2)                  1.3749         estimate D2E/DX2                !
 ! R2    R(1,9)                  1.4            estimate D2E/DX2                !
 ! R3    R(1,17)                 1.1114         estimate D2E/DX2                !
 ! R4    R(2,3)                  1.3627         estimate D2E/DX2                !
 ! R5    R(2,18)                 1.1758         estimate D2E/DX2                !
 ! R6    R(3,4)                  1.3313         estimate D2E/DX2                !
 ! R7    R(3,5)                  1.4065         estimate D2E/DX2                !
 ! R8    R(5,6)                  1.4546         estimate D2E/DX2                !
 ! R9    R(5,10)                 1.5162         estimate D2E/DX2                !
 ! R10   R(6,7)                  1.3569         estimate D2E/DX2                !
 ! R11   R(6,9)                  1.3305         estimate D2E/DX2                !
 ! R12   R(7,8)                  1.3885         estimate D2E/DX2                !
 ! R13   R(8,19)                 1.1771         estimate D2E/DX2                !
 ! R14   R(8,20)                 1.1531         estimate D2E/DX2                !
 ! R15   R(8,21)                 1.0745         estimate D2E/DX2                !
 ! R16   R(9,22)                 1.0933         estimate D2E/DX2                !
 ! R17   R(10,11)                1.3687         estimate D2E/DX2                !
 ! R18   R(10,16)                1.7141         estimate D2E/DX2                !
 ! R19   R(11,12)                1.371          estimate D2E/DX2                !
 ! R20   R(11,14)                1.4862         estimate D2E/DX2                !
 ! R21   R(12,13)                1.3409         estimate D2E/DX2                !
 ! R22   R(13,23)                1.107          estimate D2E/DX2                !
 ! R23   R(13,24)                1.0813         estimate D2E/DX2                !
 ! R24   R(13,25)                1.1263         estimate D2E/DX2                !
 ! R25   R(14,15)                1.382          estimate D2E/DX2                !
 ! R26   R(14,26)                1.0587         estimate D2E/DX2                !
 ! R27   R(15,16)                1.7871         estimate D2E/DX2                !
 ! R28   R(15,27)                1.0785         estimate D2E/DX2                !
 ! A1    A(2,1,9)              114.7463         estimate D2E/DX2                !
 ! A2    A(2,1,17)             123.1155         estimate D2E/DX2                !
 ! A3    A(9,1,17)             121.4577         estimate D2E/DX2                !
 ! A4    A(1,2,3)              125.8607         estimate D2E/DX2                !
 ! A5    A(1,2,18)             119.0474         estimate D2E/DX2                !
 ! A6    A(3,2,18)             114.9653         estimate D2E/DX2                !
 ! A7    A(2,3,4)              123.7556         estimate D2E/DX2                !
 ! A8    A(2,3,5)              115.9794         estimate D2E/DX2                !
 ! A9    A(4,3,5)              120.2593         estimate D2E/DX2                !
 ! A10   A(3,5,6)              121.5962         estimate D2E/DX2                !
 ! A11   A(3,5,10)             119.7878         estimate D2E/DX2                !
 ! A12   A(6,5,10)             118.6145         estimate D2E/DX2                !
 ! A13   A(5,6,7)              115.5178         estimate D2E/DX2                !
 ! A14   A(5,6,9)              115.5703         estimate D2E/DX2                !
 ! A15   A(7,6,9)              128.9106         estimate D2E/DX2                !
 ! A16   A(6,7,8)              115.184          estimate D2E/DX2                !
 ! A17   A(7,8,19)             109.723          estimate D2E/DX2                !
 ! A18   A(7,8,20)             109.5594         estimate D2E/DX2                !
 ! A19   A(7,8,21)             115.0075         estimate D2E/DX2                !
 ! A20   A(19,8,20)            103.97           estimate D2E/DX2                !
 ! A21   A(19,8,21)            103.221          estimate D2E/DX2                !
 ! A22   A(20,8,21)            114.5014         estimate D2E/DX2                !
 ! A23   A(1,9,6)              126.0072         estimate D2E/DX2                !
 ! A24   A(1,9,22)             113.0459         estimate D2E/DX2                !
 ! A25   A(6,9,22)             120.8774         estimate D2E/DX2                !
 ! A26   A(5,10,11)            128.9693         estimate D2E/DX2                !
 ! A27   A(5,10,16)            116.5519         estimate D2E/DX2                !
 ! A28   A(11,10,16)           114.2681         estimate D2E/DX2                !
 ! A29   A(10,11,12)           120.7722         estimate D2E/DX2                !
 ! A30   A(10,11,14)           111.0812         estimate D2E/DX2                !
 ! A31   A(12,11,14)           128.0829         estimate D2E/DX2                !
 ! A32   A(11,12,13)           115.053          estimate D2E/DX2                !
 ! A33   A(12,13,23)           107.4203         estimate D2E/DX2                !
 ! A34   A(12,13,24)           116.7973         estimate D2E/DX2                !
 ! A35   A(12,13,25)           110.612          estimate D2E/DX2                !
 ! A36   A(23,13,24)           105.9437         estimate D2E/DX2                !
 ! A37   A(23,13,25)           108.5948         estimate D2E/DX2                !
 ! A38   A(24,13,25)           107.1517         estimate D2E/DX2                !
 ! A39   A(11,14,15)           112.5648         estimate D2E/DX2                !
 ! A40   A(11,14,26)           121.2727         estimate D2E/DX2                !
 ! A41   A(15,14,26)           126.0707         estimate D2E/DX2                !
 ! A42   A(14,15,16)           110.4775         estimate D2E/DX2                !
 ! A43   A(14,15,27)           128.8216         estimate D2E/DX2                !
 ! A44   A(16,15,27)           120.6976         estimate D2E/DX2                !
 ! A45   A(10,16,15)            91.526          estimate D2E/DX2                !
 ! D1    D(9,1,2,3)              4.6964         estimate D2E/DX2                !
 ! D2    D(9,1,2,18)          -179.6123         estimate D2E/DX2                !
 ! D3    D(17,1,2,3)           175.352          estimate D2E/DX2                !
 ! D4    D(17,1,2,18)           -8.9567         estimate D2E/DX2                !
 ! D5    D(2,1,9,6)             -5.8344         estimate D2E/DX2                !
 ! D6    D(2,1,9,22)           177.1973         estimate D2E/DX2                !
 ! D7    D(17,1,9,6)          -176.6607         estimate D2E/DX2                !
 ! D8    D(17,1,9,22)            6.3709         estimate D2E/DX2                !
 ! D9    D(1,2,3,4)            178.2853         estimate D2E/DX2                !
 ! D10   D(1,2,3,5)             -2.5774         estimate D2E/DX2                !
 ! D11   D(18,2,3,4)             2.44           estimate D2E/DX2                !
 ! D12   D(18,2,3,5)          -178.4227         estimate D2E/DX2                !
 ! D13   D(2,3,5,6)              1.0254         estimate D2E/DX2                !
 ! D14   D(2,3,5,10)          -179.4425         estimate D2E/DX2                !
 ! D15   D(4,3,5,6)           -179.805          estimate D2E/DX2                !
 ! D16   D(4,3,5,10)            -0.2728         estimate D2E/DX2                !
 ! D17   D(3,5,6,7)            178.4006         estimate D2E/DX2                !
 ! D18   D(3,5,6,9)             -1.9731         estimate D2E/DX2                !
 ! D19   D(10,5,6,7)            -1.1369         estimate D2E/DX2                !
 ! D20   D(10,5,6,9)           178.4894         estimate D2E/DX2                !
 ! D21   D(3,5,10,11)           80.326          estimate D2E/DX2                !
 ! D22   D(3,5,10,16)          -94.0494         estimate D2E/DX2                !
 ! D23   D(6,5,10,11)         -100.1279         estimate D2E/DX2                !
 ! D24   D(6,5,10,16)           85.4967         estimate D2E/DX2                !
 ! D25   D(5,6,7,8)            174.8397         estimate D2E/DX2                !
 ! D26   D(9,6,7,8)             -4.7271         estimate D2E/DX2                !
 ! D27   D(5,6,9,1)              4.5687         estimate D2E/DX2                !
 ! D28   D(5,6,9,22)          -178.6819         estimate D2E/DX2                !
 ! D29   D(7,6,9,1)           -175.8647         estimate D2E/DX2                !
 ! D30   D(7,6,9,22)             0.8847         estimate D2E/DX2                !
 ! D31   D(6,7,8,19)          -177.9674         estimate D2E/DX2                !
 ! D32   D(6,7,8,20)            68.4834         estimate D2E/DX2                !
 ! D33   D(6,7,8,21)           -62.1615         estimate D2E/DX2                !
 ! D34   D(5,10,11,12)           2.0569         estimate D2E/DX2                !
 ! D35   D(5,10,11,14)        -175.2666         estimate D2E/DX2                !
 ! D36   D(16,10,11,12)        176.5382         estimate D2E/DX2                !
 ! D37   D(16,10,11,14)         -0.7852         estimate D2E/DX2                !
 ! D38   D(5,10,16,15)         177.2069         estimate D2E/DX2                !
 ! D39   D(11,10,16,15)          2.0017         estimate D2E/DX2                !
 ! D40   D(10,11,12,13)       -178.7024         estimate D2E/DX2                !
 ! D41   D(14,11,12,13)         -1.8757         estimate D2E/DX2                !
 ! D42   D(10,11,14,15)         -1.3617         estimate D2E/DX2                !
 ! D43   D(10,11,14,26)       -178.0801         estimate D2E/DX2                !
 ! D44   D(12,11,14,15)       -178.4398         estimate D2E/DX2                !
 ! D45   D(12,11,14,26)          4.8417         estimate D2E/DX2                !
 ! D46   D(11,12,13,23)       -178.9127         estimate D2E/DX2                !
 ! D47   D(11,12,13,24)        -60.161          estimate D2E/DX2                !
 ! D48   D(11,12,13,25)         62.7233         estimate D2E/DX2                !
 ! D49   D(11,14,15,16)          2.764          estimate D2E/DX2                !
 ! D50   D(11,14,15,27)       -177.9057         estimate D2E/DX2                !
 ! D51   D(26,14,15,16)        179.2938         estimate D2E/DX2                !
 ! D52   D(26,14,15,27)         -1.3758         estimate D2E/DX2                !
 ! D53   D(14,15,16,10)         -2.7234         estimate D2E/DX2                !
 ! D54   D(27,15,16,10)        177.8833         estimate D2E/DX2                !
 --------------------------------------------------------------------------------
 Trust Radius=3.00D-01 FncErr=1.00D-07 GrdErr=1.00D-06 EigMax=2.50D+02 EigMin=1.00D-04
 Number of steps in this run=    137 maximum allowed number of steps=    162.
 GradGradGradGradGradGradGradGradGradGradGradGradGradGradGradGradGradGrad

 Leave Link  103 at Fri Jul 24 20:16:05 2020, MaxMem=  4026531840 cpu:               0.1 elap:               0.0
 (Enter /opt/ohpc/pub/libs/gaussian/g16-A.03/sandybridge/g16/l202.exe)
                          Input orientation:                          
 ---------------------------------------------------------------------
 Center     Atomic      Atomic             Coordinates (Angstroms)
 Number     Number       Type             X           Y           Z
 ---------------------------------------------------------------------
      1          6           0        3.398657   -1.042209    0.035931
      2          6           0        2.416320   -1.935952   -0.320042
      3          6           0        1.094637   -1.646576   -0.482795
      4          9           0        0.182910   -2.539897   -0.861026
      5          6           0        0.715766   -0.320384   -0.207036
      6          6           0        1.688159    0.680173    0.204146
      7          8           0        1.193768    1.927654    0.405565
      8          6           0        2.103391    2.850172    0.904934
      9          6           0        2.938279    0.244879    0.338536
     10          6           0       -0.736233    0.092922   -0.347669
     11          6           0       -1.773380   -0.095942    0.525241
     12          8           0       -1.567721   -0.699827    1.738753
     13          6           0       -2.667191   -0.850984    2.491376
     14          6           0       -3.057339    0.368860   -0.061521
     15          6           0       -2.899516    0.904845   -1.325570
     16         16           0       -1.195956    0.777455   -1.850454
     17          1           0        4.451261   -1.341983    0.229018
     18          1           0        2.718363   -3.041386   -0.583141
     19          1           0        1.566604    3.883182    1.078836
     20          1           0        2.898680    3.081304    0.102631
     21          1           0        2.503370    2.614844    1.874071
     22          1           0        3.735066    0.918784    0.664549
     23          1           0       -2.356055   -1.328253    3.440526
     24          1           0       -3.194209    0.050792    2.771154
     25          1           0       -3.409980   -1.523965    1.977572
     26          1           0       -3.960684    0.325584    0.488860
     27          1           0       -3.643316    1.343900   -1.971508
 ---------------------------------------------------------------------
                    Distance matrix (angstroms):
                    1          2          3          4          5
     1  C    0.000000
     2  C    1.374947   0.000000
     3  C    2.437795   1.362745   0.000000
     4  F    3.659048   2.376033   1.331288   0.000000
     5  C    2.788901   2.348343   1.406546   2.374421   0.000000
     6  C    2.433249   2.765701   2.497582   3.710690   1.454556
     7  O    3.717291   4.116867   3.684309   4.752378   2.378538
     8  C    4.193270   4.950300   4.812912   5.988297   3.635162
     9  C    1.400040   2.337133   2.766081   4.097070   2.357273
    10  C    4.304996   3.749091   2.529070   2.835506   1.516213
    11  C    5.280607   4.653356   3.412642   3.423700   2.604314
    12  O    5.261344   4.651798   3.594407   3.634476   3.023968
    13  C    6.546777   5.909595   4.861071   4.713184   4.359743
    14  C    6.609122   5.944740   4.634475   4.427108   3.838301
    15  C    6.731396   6.110591   4.813863   4.645794   3.977759
    16  S    5.289621   4.770039   3.604613   3.726267   2.749683
    17  H    1.111361   2.189806   3.444761   4.565305   3.897144
    18  H    2.200627   1.175770   2.142907   2.599468   3.399368
    19  H    5.357569   6.044932   5.765385   6.850811   4.477428
    20  H    4.154249   5.058081   5.094128   6.316798   4.053701
    21  H    4.189789   5.052866   5.069423   6.279860   4.017723
    22  H    2.086582   3.295152   3.856078   5.187260   3.378072
    23  H    6.692518   6.106286   5.234601   5.139822   4.874074
    24  H    7.220940   6.706764   5.644771   5.595474   4.929025
    25  H    7.096450   6.276507   5.134200   4.690268   4.821089
    26  H    7.499060   6.814327   5.512694   5.215606   4.771869
    27  H    7.701475   7.085475   5.797190   5.563906   4.988467
                    6          7          8          9         10
     6  C    0.000000
     7  O    1.356909   0.000000
     8  C    2.317848   1.388461   0.000000
     9  C    1.330542   2.424777   2.793814   0.000000
    10  C    2.554807   2.767401   4.151494   3.741124   0.000000
    11  C    3.561981   3.593498   4.883964   4.727658   1.368691
    12  O    3.854890   4.038176   5.174438   4.812184   2.381802
    13  C    5.152178   5.194077   6.242900   6.103845   3.560861
    14  C    4.763113   4.551914   5.807244   6.010229   2.354900
    15  C    4.841205   4.560476   5.812790   6.106116   2.509044
    16  S    3.542452   3.481862   4.772212   4.708207   1.714145
    17  H    3.424101   4.618761   4.852166   2.195277   5.413097
    18  H    3.940957   5.290868   6.107619   3.420145   4.670500
    19  H    3.322518   2.101521   1.177069   3.958129   4.658760
    20  H    2.690929   2.080722   1.153081   2.846494   4.727133
    21  H    2.682568   2.084178   1.074518   2.857227   4.668110
    22  H    2.111572   2.746468   2.539765   1.093299   4.658234
    23  H    5.555502   5.693256   6.616277   6.334592   4.358209
    24  H    5.551862   5.326628   6.275657   6.600205   3.971206
    25  H    5.830462   5.964845   7.119051   6.790850   3.894867
    26  H    5.667118   5.398328   6.581768   6.901072   3.339311
    27  H    5.796432   5.421128   6.600562   7.061271   3.557096
                   11         12         13         14         15
    11  C    0.000000
    12  O    1.370979   0.000000
    13  C    2.287941   1.340941   0.000000
    14  C    1.486231   2.569444   2.856137   0.000000
    15  C    2.386474   3.706579   4.207848   1.382030   0.000000
    16  S    2.596183   3.899100   4.864960   2.613805   1.787134
    17  H    6.355039   6.238574   7.485433   7.706521   7.842124
    18  H    5.484515   5.407828   6.576831   6.727600   6.905397
    19  H    5.224499   5.591373   6.506352   5.918760   5.881997
    20  H    5.665831   6.076396   7.221351   6.546637   6.355770
    21  H    5.240066   5.251584   6.255216   6.301781   6.507916
    22  H    5.602861   5.647421   6.888996   6.853201   6.926648
    23  H    3.218227   1.977984   1.107013   3.954279   5.291290
    24  H    2.661656   2.067545   1.081306   2.853760   4.195164
    25  H    2.612848   2.032279   1.126336   2.804468   4.131639
    26  H    2.227848   2.887901   2.658478   1.058690   2.180316
    27  H    3.435631   4.717091   5.068300   2.223088   1.078538
                   16         17         18         19         20
    16  S    0.000000
    17  H    6.380226   0.000000
    18  H    5.613512   2.559396   0.000000
    19  H    5.085078   6.028747   7.213762   0.000000
    20  H    5.088055   4.689557   6.163613   1.835868   0.000000
    21  H    5.561753   4.707118   6.170660   1.765959   1.873994
    22  H    5.537165   2.411159   4.274735   3.696149   2.385746
    23  H    5.811567   7.526853   6.698839   6.937138   7.628760
    24  H    5.087270   8.176521   7.468023   6.341648   7.309467
    25  H    4.985200   8.055412   6.812959   7.403469   8.032627
    26  H    3.649698   8.579576   7.556146   6.599658   7.402300
    27  H    2.514972   8.807863   7.850430   6.549490   7.079431
                   21         22         23         24         25
    21  H    0.000000
    22  H    2.420049   0.000000
    23  H    6.451031   7.060947   0.000000
    24  H    6.312014   7.294248   1.747091   0.000000
    25  H    7.218598   7.664381   1.813642   1.776567   0.000000
    26  H    6.995964   7.720578   3.744642   2.423192   2.437287
    27  H    7.361082   7.846658   6.171512   4.936261   4.886136
                   26         27
    26  H    0.000000
    27  H    2.681623   0.000000
 Stoichiometry    C12H11FO2S
 Framework group  C1[X(C12H11FO2S)]
 Deg. of freedom    75
 Full point group                 C1      NOp   1
 Largest Abelian subgroup         C1      NOp   1
 Largest concise Abelian subgroup C1      NOp   1
                         Standard orientation:                         
 ---------------------------------------------------------------------
 Center     Atomic      Atomic             Coordinates (Angstroms)
 Number     Number       Type             X           Y           Z
 ---------------------------------------------------------------------
      1          6           0        3.403350   -1.021064    0.046771
      2          6           0        2.428372   -1.919056   -0.318618
      3          6           0        1.105889   -1.636863   -0.487369
      4          9           0        0.201638   -2.533909   -0.874623
      5          6           0        0.717546   -0.314219   -0.207772
      6          6           0        1.681635    0.690275    0.213248
      7          8           0        1.178658    1.933854    0.417516
      8          6           0        2.079963    2.859537    0.926025
      9          6           0        2.933591    0.261868    0.352588
     10          6           0       -0.736116    0.091020   -0.354569
     11          6           0       -1.776890   -0.107981    0.511747
     12          8           0       -1.574277   -0.716091    1.723661
     13          6           0       -2.676937   -0.877217    2.469517
     14          6           0       -3.060375    0.351770   -0.080009
     15          6           0       -2.898833    0.894385   -1.340755
     16         16           0       -1.191680    0.779560   -1.856790
     17          1           0        4.456660   -1.315402    0.244323
     18          1           0        2.738493   -3.021465   -0.584991
     19          1           0        1.536031    3.888522    1.101583
     20          1           0        2.878245    3.099040    0.129168
     21          1           0        2.476018    2.622239    1.896292
     22          1           0        3.724511    0.939052    0.686009
     23          1           0       -2.368159   -1.356891    3.418225
     24          1           0       -3.210894    0.020118    2.750415
     25          1           0       -3.412835   -1.552307    1.948612
     26          1           0       -3.966454    0.300607    0.465177
     27          1           0       -3.641697    1.331889   -1.988818
 ---------------------------------------------------------------------
 Rotational constants (GHZ):           0.6333081           0.3853806           0.3458486
 Leave Link  202 at Fri Jul 24 20:16:05 2020, MaxMem=  4026531840 cpu:               0.1 elap:               0.0
 (Enter /opt/ohpc/pub/libs/gaussian/g16-A.03/sandybridge/g16/l301.exe)
 Standard basis: CC-pVDZ (5D, 7F)
 Ernie: Thresh=  0.10000D-02 Tol=  0.10000D-05 Strict=F.
 Ernie:  40 primitive shells out of 435 were deleted.
 There are   299 symmetry adapted cartesian basis functions of A   symmetry.
 There are   283 symmetry adapted basis functions of A   symmetry.
   283 basis functions,   643 primitive gaussians,   299 cartesian basis functions
    62 alpha electrons       62 beta electrons
       nuclear repulsion energy      1218.1553889106 Hartrees.
 IExCor=32609 DFT=T Ex+Corr=LC-wPBE ExCW=0 ScaHFX=  1.000000
 ScaDFX=  1.000000  0.000000  1.000000  1.000000 ScalE2=  1.000000  1.000000
 IRadAn=      5 IRanWt=     -1 IRanGd=            0 ICorTp=0 IEmpDi=  4
 HFx  wShort=  0.000000 wLong=  0.140200 cFull=  0.000000 cShort=  0.000000 cLong=  1.000000
 DFx  wShort=  0.000000 wLong=  0.140200 cFull=  0.000000 cShort=  0.000000 cLong=  1.000000
 NAtoms=   27 NActive=   27 NUniq=   27 SFac= 1.00D+00 NAtFMM=   60 NAOKFM=F Big=F
 Integral buffers will be    131072 words long.
 Raffenetti 2 integral format.
 Two-electron integral symmetry is turned on.
 Leave Link  301 at Fri Jul 24 20:16:05 2020, MaxMem=  4026531840 cpu:               0.5 elap:               0.1
 (Enter /opt/ohpc/pub/libs/gaussian/g16-A.03/sandybridge/g16/l302.exe)
 NPDir=0 NMtPBC=     1 NCelOv=     1 NCel=       1 NClECP=     1 NCelD=      1
         NCelK=      1 NCelE2=     1 NClLst=     1 CellRange=     0.0.
 One-electron integrals computed using PRISM.
 One-electron integral symmetry used in STVInt
 NBasis=   283 RedAO= T EigKep=  4.22D-04  NBF=   283
 NBsUse=   283 1.00D-06 EigRej= -1.00D+00 NBFU=   283
 Precomputing XC quadrature grid using
 IXCGrd= 4 IRadAn=           5 IRanWt=          -1 IRanGd=           0 AccXCQ= 0.00D+00.
 Generated NRdTot=       0 NPtTot=           0 NUsed=           0 NTot=          32
 NSgBfM=   298   298   298   298   298 MxSgAt=    27 MxSgA2=    27.
 Leave Link  302 at Fri Jul 24 20:16:06 2020, MaxMem=  4026531840 cpu:               2.8 elap:               0.4
 (Enter /opt/ohpc/pub/libs/gaussian/g16-A.03/sandybridge/g16/l303.exe)
 DipDrv:  MaxL=1.
 Leave Link  303 at Fri Jul 24 20:16:06 2020, MaxMem=  4026531840 cpu:               0.4 elap:               0.1
 (Enter /opt/ohpc/pub/libs/gaussian/g16-A.03/sandybridge/g16/l401.exe)
 ExpMin= 1.22D-01 ExpMax= 1.11D+05 ExpMxC= 1.07D+03 IAcc=3 IRadAn=         5 AccDes= 0.00D+00
 Harris functional with IExCor=32609 and IRadAn=       5 diagonalized for initial guess.
 HarFok:  IExCor=32609 AccDes= 0.00D+00 IRadAn=         5 IDoV= 1 UseB2=F ITyADJ=14
 ICtDFT=  3500011 ScaDFX=  1.000000  1.000000  1.000000  1.000000
 FoFCou: FMM=F IPFlag=           0 FMFlag=      100000 FMFlg1=           0
         NFxFlg=           0 DoJE=T BraDBF=F KetDBF=T FulRan=T
         wScrn=  0.000000 ICntrl=       500 IOpCl=  0 I1Cent=   200000004 NGrid=           0
         NMat0=    1 NMatS0=      1 NMatT0=    0 NMatD0=    1 NMtDS0=    0 NMtDT0=    0
 Petite list used in FoFCou.
 Harris En= -1111.58198239055    
 JPrj=0 DoOrth=F DoCkMO=F.
 Initial guess <Sx>= 0.0000 <Sy>= 0.0000 <Sz>= 0.0000 <S**2>=-0.0000 S=-0.0000
 Leave Link  401 at Fri Jul 24 20:16:08 2020, MaxMem=  4026531840 cpu:              16.3 elap:               2.1
 (Enter /opt/ohpc/pub/libs/gaussian/g16-A.03/sandybridge/g16/l502.exe)
 Integral symmetry usage will be decided dynamically.
 UHF open shell SCF:
 Using DIIS extrapolation, IDIIS=  1040.
 NGot=  4026531840 LenX=  4026347429 LenY=  4026257587
 Requested convergence on RMS density matrix=1.00D-08 within 128 cycles.
 Requested convergence on MAX density matrix=1.00D-06.
 Requested convergence on             energy=1.00D-06.
 No special actions if energy rises.
 Fock matrices will be formed incrementally for  20 cycles.
 Integral accuracy reduced to 1.0D-05 until final iterations.

 Cycle   1  Pass 0  IDiag  1:
 FoFJK:  IHMeth= 1 ICntrl=       0 DoSepK=T KAlg= 0 I1Cent=           0 FoldK=F
 IRaf=         1 NMat=       1 IRICut=       1 DoRegI=T DoRafI=F ISym2E= 0 IDoP0=0 IntGTp=1.
 FoFCou: FMM=F IPFlag=           0 FMFlag=      100000 FMFlg1=           0
         NFxFlg=           0 DoJE=T BraDBF=F KetDBF=F FulRan=T
         wScrn=  0.000000 ICntrl=       500 IOpCl=  0 I1Cent=           0 NGrid=           0
         NMat0=    1 NMatS0=      1 NMatT0=    0 NMatD0=    1 NMtDS0=    0 NMtDT0=    0
 Symmetry not used in FoFCou.
 E= -1111.22364920343    
 DIIS: error= 1.87D-02 at cycle   1 NSaved=   1.
 NSaved= 1 IEnMin= 1 EnMin= -1111.22364920343     IErMin= 1 ErrMin= 1.87D-02
 ErrMax= 1.87D-02  0.00D+00 EMaxC= 1.00D-01 BMatC= 1.07D+00 BMatP= 1.07D+00
 IDIUse=3 WtCom= 8.13D-01 WtEn= 1.87D-01
 Coeff-Com:  0.100D+01
 Coeff-En:   0.100D+01
 Coeff:      0.100D+01
 Gap=     0.335 Goal=   None    Shift=    0.000
 Gap=     0.335 Goal=   None    Shift=    0.000
 GapD=    0.335 DampG=1.000 DampE=0.500 DampFc=0.5000 IDamp=-1.
 Damping current iteration by 5.00D-01
 RMSDP=4.21D-03 MaxDP=1.46D-01              OVMax= 1.82D-01

 Cycle   2  Pass 0  IDiag  1:
 RMSU=  2.10D-03    CP:  9.93D-01
 E= -1111.35825312793     Delta-E=       -0.134603924507 Rises=F Damp=T
 DIIS: error= 4.77D-03 at cycle   2 NSaved=   2.
 NSaved= 2 IEnMin= 2 EnMin= -1111.35825312793     IErMin= 2 ErrMin= 4.77D-03
 ErrMax= 4.77D-03  0.00D+00 EMaxC= 1.00D-01 BMatC= 5.22D-02 BMatP= 1.07D+00
 IDIUse=3 WtCom= 9.52D-01 WtEn= 4.77D-02
 Coeff-Com:  0.776D-01 0.922D+00
 Coeff-En:   0.119D+00 0.881D+00
 Coeff:      0.795D-01 0.920D+00
 Gap=     0.329 Goal=   None    Shift=    0.000
 Gap=     0.329 Goal=   None    Shift=    0.000
 RMSDP=1.09D-03 MaxDP=3.44D-02 DE=-1.35D-01 OVMax= 1.35D-01

 Cycle   3  Pass 0  IDiag  1:
 RMSU=  1.09D-03    CP:  9.93D-01  9.73D-01
 E= -1111.51990260286     Delta-E=       -0.161649474921 Rises=F Damp=F
 DIIS: error= 3.20D-03 at cycle   3 NSaved=   3.
 NSaved= 3 IEnMin= 3 EnMin= -1111.51990260286     IErMin= 3 ErrMin= 3.20D-03
 ErrMax= 3.20D-03  0.00D+00 EMaxC= 1.00D-01 BMatC= 2.77D-02 BMatP= 5.22D-02
 IDIUse=3 WtCom= 9.68D-01 WtEn= 3.20D-02
 Coeff-Com:  0.129D-01 0.407D+00 0.580D+00
 Coeff-En:   0.000D+00 0.000D+00 0.100D+01
 Coeff:      0.125D-01 0.394D+00 0.593D+00
 Gap=     0.260 Goal=   None    Shift=    0.000
 Gap=     0.260 Goal=   None    Shift=    0.000
 RMSDP=4.56D-04 MaxDP=1.54D-02 DE=-1.62D-01 OVMax= 4.09D-02

 Cycle   4  Pass 0  IDiag  1:
 RMSU=  2.98D-04    CP:  9.93D-01  1.02D+00  6.96D-01
 E= -1111.52568308716     Delta-E=       -0.005780484300 Rises=F Damp=F
 DIIS: error= 1.94D-03 at cycle   4 NSaved=   4.
 NSaved= 4 IEnMin= 4 EnMin= -1111.52568308716     IErMin= 4 ErrMin= 1.94D-03
 ErrMax= 1.94D-03  0.00D+00 EMaxC= 1.00D-01 BMatC= 5.95D-03 BMatP= 2.77D-02
 IDIUse=3 WtCom= 9.81D-01 WtEn= 1.94D-02
 Coeff-Com:  0.431D-02 0.965D-01 0.327D+00 0.572D+00
 Coeff-En:   0.000D+00 0.000D+00 0.161D+00 0.839D+00
 Coeff:      0.422D-02 0.947D-01 0.324D+00 0.577D+00
 Gap=     0.262 Goal=   None    Shift=    0.000
 Gap=     0.262 Goal=   None    Shift=    0.000
 RMSDP=1.62D-04 MaxDP=8.02D-03 DE=-5.78D-03 OVMax= 1.49D-02

 Cycle   5  Pass 0  IDiag  1:
 RMSU=  9.81D-05    CP:  9.93D-01  1.01D+00  7.69D-01  6.67D-01
 E= -1111.52708031746     Delta-E=       -0.001397230303 Rises=F Damp=F
 DIIS: error= 3.63D-04 at cycle   5 NSaved=   5.
 NSaved= 5 IEnMin= 5 EnMin= -1111.52708031746     IErMin= 5 ErrMin= 3.63D-04
 ErrMax= 3.63D-04  0.00D+00 EMaxC= 1.00D-01 BMatC= 5.91D-04 BMatP= 5.95D-03
 IDIUse=3 WtCom= 9.96D-01 WtEn= 3.63D-03
 Coeff-Com:  0.360D-02 0.106D-01 0.120D+00 0.309D+00 0.557D+00
 Coeff-En:   0.000D+00 0.000D+00 0.000D+00 0.000D+00 0.100D+01
 Coeff:      0.358D-02 0.106D-01 0.120D+00 0.308D+00 0.558D+00
 Gap=     0.263 Goal=   None    Shift=    0.000
 Gap=     0.263 Goal=   None    Shift=    0.000
 RMSDP=5.44D-05 MaxDP=2.60D-03 DE=-1.40D-03 OVMax= 4.00D-03

 Cycle   6  Pass 0  IDiag  1:
 RMSU=  3.92D-05    CP:  9.93D-01  1.01D+00  7.81D-01  7.37D-01  7.19D-01
 E= -1111.52720988085     Delta-E=       -0.000129563387 Rises=F Damp=F
 DIIS: error= 1.43D-04 at cycle   6 NSaved=   6.
 NSaved= 6 IEnMin= 6 EnMin= -1111.52720988085     IErMin= 6 ErrMin= 1.43D-04
 ErrMax= 1.43D-04  0.00D+00 EMaxC= 1.00D-01 BMatC= 6.72D-05 BMatP= 5.91D-04
 IDIUse=3 WtCom= 9.99D-01 WtEn= 1.43D-03
 Coeff-Com:  0.233D-02-0.121D-01 0.110D-01 0.702D-01 0.280D+00 0.649D+00
 Coeff-En:   0.000D+00 0.000D+00 0.000D+00 0.000D+00 0.000D+00 0.100D+01
 Coeff:      0.233D-02-0.121D-01 0.110D-01 0.701D-01 0.280D+00 0.649D+00
 Gap=     0.263 Goal=   None    Shift=    0.000
 Gap=     0.263 Goal=   None    Shift=    0.000
 RMSDP=1.95D-05 MaxDP=6.47D-04 DE=-1.30D-04 OVMax= 1.92D-03

 Cycle   7  Pass 0  IDiag  1:
 RMSU=  1.40D-05    CP:  9.93D-01  1.01D+00  7.85D-01  7.40D-01  8.38D-01
                    CP:  8.54D-01
 E= -1111.52722686484     Delta-E=       -0.000016983997 Rises=F Damp=F
 DIIS: error= 5.22D-05 at cycle   7 NSaved=   7.
 NSaved= 7 IEnMin= 7 EnMin= -1111.52722686484     IErMin= 7 ErrMin= 5.22D-05
 ErrMax= 5.22D-05  0.00D+00 EMaxC= 1.00D-01 BMatC= 9.24D-06 BMatP= 6.72D-05
 IDIUse=1 WtCom= 1.00D+00 WtEn= 0.00D+00
 Coeff-Com:  0.104D-02-0.725D-02-0.464D-02 0.529D-02 0.776D-01 0.332D+00
 Coeff-Com:  0.596D+00
 Coeff:      0.104D-02-0.725D-02-0.464D-02 0.529D-02 0.776D-01 0.332D+00
 Coeff:      0.596D+00
 Gap=     0.262 Goal=   None    Shift=    0.000
 Gap=     0.262 Goal=   None    Shift=    0.000
 RMSDP=7.96D-06 MaxDP=3.57D-04 DE=-1.70D-05 OVMax= 7.70D-04

 Initial convergence to 1.0D-05 achieved.  Increase integral accuracy.
 Cycle   8  Pass 1  IDiag  1:
 E= -1111.52704219168     Delta-E=        0.000184673163 Rises=F Damp=F
 DIIS: error= 9.95D-05 at cycle   1 NSaved=   1.
 NSaved= 1 IEnMin= 1 EnMin= -1111.52704219168     IErMin= 1 ErrMin= 9.95D-05
 ErrMax= 9.95D-05  0.00D+00 EMaxC= 1.00D-01 BMatC= 3.93D-06 BMatP= 3.93D-06
 IDIUse=1 WtCom= 1.00D+00 WtEn= 0.00D+00
 Coeff-Com:  0.100D+01
 Coeff:      0.100D+01
 Gap=     0.263 Goal=   None    Shift=    0.000
 Gap=     0.263 Goal=   None    Shift=    0.000
 RMSDP=7.96D-06 MaxDP=3.57D-04 DE= 1.85D-04 OVMax= 4.86D-04

 Cycle   9  Pass 1  IDiag  1:
 RMSU=  4.67D-05    CP:  1.00D+00
 E= -1111.52704272870     Delta-E=       -0.000000537022 Rises=F Damp=F
 DIIS: error= 2.79D-05 at cycle   2 NSaved=   2.
 NSaved= 2 IEnMin= 2 EnMin= -1111.52704272870     IErMin= 2 ErrMin= 2.79D-05
 ErrMax= 2.79D-05  0.00D+00 EMaxC= 1.00D-01 BMatC= 1.93D-06 BMatP= 3.93D-06
 IDIUse=1 WtCom= 1.00D+00 WtEn= 0.00D+00
 Coeff-Com:  0.376D+00 0.624D+00
 Coeff:      0.376D+00 0.624D+00
 Gap=     0.263 Goal=   None    Shift=    0.000
 Gap=     0.263 Goal=   None    Shift=    0.000
 RMSDP=4.09D-06 MaxDP=2.48D-04 DE=-5.37D-07 OVMax= 3.75D-04

 Cycle  10  Pass 1  IDiag  1:
 RMSU=  3.93D-06    CP:  1.00D+00  1.02D+00
 E= -1111.52704300425     Delta-E=       -0.000000275551 Rises=F Damp=F
 DIIS: error= 1.92D-05 at cycle   3 NSaved=   3.
 NSaved= 3 IEnMin= 3 EnMin= -1111.52704300425     IErMin= 3 ErrMin= 1.92D-05
 ErrMax= 1.92D-05  0.00D+00 EMaxC= 1.00D-01 BMatC= 8.41D-07 BMatP= 1.93D-06
 IDIUse=1 WtCom= 1.00D+00 WtEn= 0.00D+00
 Coeff-Com: -0.433D-02 0.395D+00 0.609D+00
 Coeff:     -0.433D-02 0.395D+00 0.609D+00
 Gap=     0.262 Goal=   None    Shift=    0.000
 Gap=     0.262 Goal=   None    Shift=    0.000
 RMSDP=2.00D-06 MaxDP=1.00D-04 DE=-2.76D-07 OVMax= 1.74D-04

 Cycle  11  Pass 1  IDiag  1:
 RMSU=  9.43D-07    CP:  1.00D+00  1.05D+00  6.52D-01
 E= -1111.52704322003     Delta-E=       -0.000000215778 Rises=F Damp=F
 DIIS: error= 4.05D-06 at cycle   4 NSaved=   4.
 NSaved= 4 IEnMin= 4 EnMin= -1111.52704322003     IErMin= 4 ErrMin= 4.05D-06
 ErrMax= 4.05D-06  0.00D+00 EMaxC= 1.00D-01 BMatC= 6.11D-08 BMatP= 8.41D-07
 IDIUse=1 WtCom= 1.00D+00 WtEn= 0.00D+00
 Coeff-Com: -0.199D-01 0.212D+00 0.363D+00 0.445D+00
 Coeff:     -0.199D-01 0.212D+00 0.363D+00 0.445D+00
 Gap=     0.263 Goal=   None    Shift=    0.000
 Gap=     0.263 Goal=   None    Shift=    0.000
 RMSDP=4.76D-07 MaxDP=2.45D-05 DE=-2.16D-07 OVMax= 4.22D-05

 Cycle  12  Pass 1  IDiag  1:
 RMSU=  4.04D-07    CP:  1.00D+00  1.05D+00  6.84D-01  7.89D-01
 E= -1111.52704323464     Delta-E=       -0.000000014609 Rises=F Damp=F
 DIIS: error= 1.11D-06 at cycle   5 NSaved=   5.
 NSaved= 5 IEnMin= 5 EnMin= -1111.52704323464     IErMin= 5 ErrMin= 1.11D-06
 ErrMax= 1.11D-06  0.00D+00 EMaxC= 1.00D-01 BMatC= 1.82D-09 BMatP= 6.11D-08
 IDIUse=1 WtCom= 1.00D+00 WtEn= 0.00D+00
 Coeff-Com: -0.444D-02 0.657D-02 0.150D-01 0.988D-01 0.884D+00
 Coeff:     -0.444D-02 0.657D-02 0.150D-01 0.988D-01 0.884D+00
 Gap=     0.263 Goal=   None    Shift=    0.000
 Gap=     0.263 Goal=   None    Shift=    0.000
 RMSDP=2.08D-07 MaxDP=8.54D-06 DE=-1.46D-08 OVMax= 2.13D-05

 Cycle  13  Pass 1  IDiag  1:
 RMSU=  1.36D-07    CP:  1.00D+00  1.05D+00  6.86D-01  9.37D-01  1.16D+00
 E= -1111.52704323569     Delta-E=       -0.000000001046 Rises=F Damp=F
 DIIS: error= 6.47D-07 at cycle   6 NSaved=   6.
 NSaved= 6 IEnMin= 6 EnMin= -1111.52704323569     IErMin= 6 ErrMin= 6.47D-07
 ErrMax= 6.47D-07  0.00D+00 EMaxC= 1.00D-01 BMatC= 1.06D-09 BMatP= 1.82D-09
 IDIUse=1 WtCom= 1.00D+00 WtEn= 0.00D+00
 Coeff-Com:  0.290D-02-0.525D-01-0.895D-01-0.695D-01 0.534D+00 0.675D+00
 Coeff:      0.290D-02-0.525D-01-0.895D-01-0.695D-01 0.534D+00 0.675D+00
 Gap=     0.263 Goal=   None    Shift=    0.000
 Gap=     0.263 Goal=   None    Shift=    0.000
 RMSDP=1.14D-07 MaxDP=5.02D-06 DE=-1.05D-09 OVMax= 1.36D-05

 Cycle  14  Pass 1  IDiag  1:
 RMSU=  6.04D-08    CP:  1.00D+00  1.05D+00  6.92D-01  9.92D-01  1.34D+00
                    CP:  8.34D-01
 E= -1111.52704323614     Delta-E=       -0.000000000452 Rises=F Damp=F
 DIIS: error= 1.65D-07 at cycle   7 NSaved=   7.
 NSaved= 7 IEnMin= 7 EnMin= -1111.52704323614     IErMin= 7 ErrMin= 1.65D-07
 ErrMax= 1.65D-07  0.00D+00 EMaxC= 1.00D-01 BMatC= 8.21D-11 BMatP= 1.06D-09
 IDIUse=1 WtCom= 1.00D+00 WtEn= 0.00D+00
 Coeff-Com:  0.188D-02-0.286D-01-0.491D-01-0.463D-01 0.195D+00 0.341D+00
 Coeff-Com:  0.586D+00
 Coeff:      0.188D-02-0.286D-01-0.491D-01-0.463D-01 0.195D+00 0.341D+00
 Coeff:      0.586D+00
 Gap=     0.263 Goal=   None    Shift=    0.000
 Gap=     0.263 Goal=   None    Shift=    0.000
 RMSDP=2.82D-08 MaxDP=8.44D-07 DE=-4.52D-10 OVMax= 2.73D-06

 Cycle  15  Pass 1  IDiag  1:
 RMSU=  1.79D-08    CP:  1.00D+00  1.05D+00  6.93D-01  1.00D+00  1.37D+00
                    CP:  9.31D-01  9.43D-01
 E= -1111.52704323617     Delta-E=       -0.000000000037 Rises=F Damp=F
 DIIS: error= 5.14D-08 at cycle   8 NSaved=   8.
 NSaved= 8 IEnMin= 8 EnMin= -1111.52704323617     IErMin= 8 ErrMin= 5.14D-08
 ErrMax= 5.14D-08  0.00D+00 EMaxC= 1.00D-01 BMatC= 5.03D-12 BMatP= 8.21D-11
 IDIUse=1 WtCom= 1.00D+00 WtEn= 0.00D+00
 Coeff-Com:  0.267D-03-0.283D-02-0.518D-02-0.561D-02-0.228D-03 0.339D-01
 Coeff-Com:  0.211D+00 0.769D+00
 Coeff:      0.267D-03-0.283D-02-0.518D-02-0.561D-02-0.228D-03 0.339D-01
 Coeff:      0.211D+00 0.769D+00
 Gap=     0.263 Goal=   None    Shift=    0.000
 Gap=     0.263 Goal=   None    Shift=    0.000
 RMSDP=8.52D-09 MaxDP=2.66D-07 DE=-3.68D-11 OVMax= 8.70D-07

 SCF Done:  E(ULC-wPBE) =  -1111.52704324     A.U. after   15 cycles
            NFock= 15  Conv=0.85D-08     -V/T= 2.0046
 <Sx>= 0.0000 <Sy>= 0.0000 <Sz>= 0.0000 <S**2>=-0.0000 S=-0.0000
 <L.S>= 0.000000000000E+00
 KE= 1.106430395062D+03 PE=-5.050881215498D+03 EE= 1.614768388289D+03
 Annihilation of the first spin contaminant:
 S**2 before annihilation    -0.0000,   after    -0.0000
 Leave Link  502 at Fri Jul 24 20:17:49 2020, MaxMem=  4026531840 cpu:             809.0 elap:             101.5
 (Enter /opt/ohpc/pub/libs/gaussian/g16-A.03/sandybridge/g16/l601.exe)
 Copying SCF densities to generalized density rwf, IOpCl= 1 IROHF=0.

 **********************************************************************

            Population analysis using the SCF density.

 **********************************************************************

 Orbital symmetries:
 Alpha Orbitals:
       Occupied  (A) (A) (A) (A) (A) (A) (A) (A) (A) (A) (A) (A)
                 (A) (A) (A) (A) (A) (A) (A) (A) (A) (A) (A) (A)
                 (A) (A) (A) (A) (A) (A) (A) (A) (A) (A) (A) (A)
                 (A) (A) (A) (A) (A) (A) (A) (A) (A) (A) (A) (A)
                 (A) (A) (A) (A) (A) (A) (A) (A) (A) (A) (A) (A)
                 (A) (A)
       Virtual   (A) (A) (A) (A) (A) (A) (A) (A) (A) (A) (A) (A)
                 (A) (A) (A) (A) (A) (A) (A) (A) (A) (A) (A) (A)
                 (A) (A) (A) (A) (A) (A) (A) (A) (A) (A) (A) (A)
                 (A) (A) (A) (A) (A) (A) (A) (A) (A) (A) (A) (A)
                 (A) (A) (A) (A) (A) (A) (A) (A) (A) (A) (A) (A)
                 (A) (A) (A) (A) (A) (A) (A) (A) (A) (A) (A) (A)
                 (A) (A) (A) (A) (A) (A) (A) (A) (A) (A) (A) (A)
                 (A) (A) (A) (A) (A) (A) (A) (A) (A) (A) (A) (A)
                 (A) (A) (A) (A) (A) (A) (A) (A) (A) (A) (A) (A)
                 (A) (A) (A) (A) (A) (A) (A) (A) (A) (A) (A) (A)
                 (A) (A) (A) (A) (A) (A) (A) (A) (A) (A) (A) (A)
                 (A) (A) (A) (A) (A) (A) (A) (A) (A) (A) (A) (A)
                 (A) (A) (A) (A) (A) (A) (A) (A) (A) (A) (A) (A)
                 (A) (A) (A) (A) (A) (A) (A) (A) (A) (A) (A) (A)
                 (A) (A) (A) (A) (A) (A) (A) (A) (A) (A) (A) (A)
                 (A) (A) (A) (A) (A) (A) (A) (A) (A) (A) (A) (A)
                 (A) (A) (A) (A) (A) (A) (A) (A) (A) (A) (A) (A)
                 (A) (A) (A) (A) (A) (A) (A) (A) (A) (A) (A) (A)
                 (A) (A) (A) (A) (A)
 Beta  Orbitals:
       Occupied  (A) (A) (A) (A) (A) (A) (A) (A) (A) (A) (A) (A)
                 (A) (A) (A) (A) (A) (A) (A) (A) (A) (A) (A) (A)
                 (A) (A) (A) (A) (A) (A) (A) (A) (A) (A) (A) (A)
                 (A) (A) (A) (A) (A) (A) (A) (A) (A) (A) (A) (A)
                 (A) (A) (A) (A) (A) (A) (A) (A) (A) (A) (A) (A)
                 (A) (A)
       Virtual   (A) (A) (A) (A) (A) (A) (A) (A) (A) (A) (A) (A)
                 (A) (A) (A) (A) (A) (A) (A) (A) (A) (A) (A) (A)
                 (A) (A) (A) (A) (A) (A) (A) (A) (A) (A) (A) (A)
                 (A) (A) (A) (A) (A) (A) (A) (A) (A) (A) (A) (A)
                 (A) (A) (A) (A) (A) (A) (A) (A) (A) (A) (A) (A)
                 (A) (A) (A) (A) (A) (A) (A) (A) (A) (A) (A) (A)
                 (A) (A) (A) (A) (A) (A) (A) (A) (A) (A) (A) (A)
                 (A) (A) (A) (A) (A) (A) (A) (A) (A) (A) (A) (A)
                 (A) (A) (A) (A) (A) (A) (A) (A) (A) (A) (A) (A)
                 (A) (A) (A) (A) (A) (A) (A) (A) (A) (A) (A) (A)
                 (A) (A) (A) (A) (A) (A) (A) (A) (A) (A) (A) (A)
                 (A) (A) (A) (A) (A) (A) (A) (A) (A) (A) (A) (A)
                 (A) (A) (A) (A) (A) (A) (A) (A) (A) (A) (A) (A)
                 (A) (A) (A) (A) (A) (A) (A) (A) (A) (A) (A) (A)
                 (A) (A) (A) (A) (A) (A) (A) (A) (A) (A) (A) (A)
                 (A) (A) (A) (A) (A) (A) (A) (A) (A) (A) (A) (A)
                 (A) (A) (A) (A) (A) (A) (A) (A) (A) (A) (A) (A)
                 (A) (A) (A) (A) (A) (A) (A) (A) (A) (A) (A) (A)
                 (A) (A) (A) (A) (A)
 The electronic state is 1-A.
 Alpha  occ. eigenvalues --  -88.16890 -24.36781 -18.88612 -18.87406 -10.05522
 Alpha  occ. eigenvalues --  -10.03867 -10.03793 -10.02859 -10.01955 -10.00178
 Alpha  occ. eigenvalues --   -9.99469  -9.99398  -9.98947  -9.98199  -9.97965
 Alpha  occ. eigenvalues --   -9.97196  -7.77133  -5.79218  -5.78765  -5.78338
 Alpha  occ. eigenvalues --   -1.20711  -1.07688  -1.07398  -0.87899  -0.86302
 Alpha  occ. eigenvalues --   -0.78084  -0.76895  -0.75342  -0.73238  -0.70992
 Alpha  occ. eigenvalues --   -0.68404  -0.64334  -0.61855  -0.58824  -0.58055
 Alpha  occ. eigenvalues --   -0.57214  -0.54399  -0.53241  -0.52648  -0.50428
 Alpha  occ. eigenvalues --   -0.49526  -0.49181  -0.48534  -0.48008  -0.46512
 Alpha  occ. eigenvalues --   -0.45921  -0.43992  -0.42352  -0.41075  -0.40677
 Alpha  occ. eigenvalues --   -0.40532  -0.38871  -0.37620  -0.37334  -0.36328
 Alpha  occ. eigenvalues --   -0.35595  -0.35245  -0.34213  -0.28825  -0.28050
 Alpha  occ. eigenvalues --   -0.26890  -0.24391
 Alpha virt. eigenvalues --    0.01860   0.03269   0.05800   0.07497   0.09680
 Alpha virt. eigenvalues --    0.10801   0.11515   0.11922   0.14151   0.14651
 Alpha virt. eigenvalues --    0.15040   0.15281   0.16730   0.16821   0.17663
 Alpha virt. eigenvalues --    0.18464   0.19140   0.19669   0.19897   0.20485
 Alpha virt. eigenvalues --    0.21495   0.25190   0.28028   0.30432   0.31210
 Alpha virt. eigenvalues --    0.32574   0.33859   0.37115   0.39509   0.39974
 Alpha virt. eigenvalues --    0.40356   0.45177   0.46537   0.46860   0.47399
 Alpha virt. eigenvalues --    0.47957   0.48206   0.48873   0.49600   0.49655
 Alpha virt. eigenvalues --    0.50073   0.50878   0.51531   0.52069   0.52354
 Alpha virt. eigenvalues --    0.53192   0.53689   0.54327   0.54611   0.55550
 Alpha virt. eigenvalues --    0.56548   0.57425   0.57917   0.58897   0.60023
 Alpha virt. eigenvalues --    0.60279   0.61786   0.62005   0.63962   0.64313
 Alpha virt. eigenvalues --    0.64399   0.65154   0.66471   0.66505   0.67594
 Alpha virt. eigenvalues --    0.67898   0.68848   0.69798   0.70912   0.72178
 Alpha virt. eigenvalues --    0.72339   0.73950   0.74533   0.75545   0.76359
 Alpha virt. eigenvalues --    0.77770   0.79763   0.80339   0.81279   0.84608
 Alpha virt. eigenvalues --    0.86350   0.86873   0.89539   0.90865   0.91831
 Alpha virt. eigenvalues --    0.92768   0.92875   0.95619   0.96549   0.96704
 Alpha virt. eigenvalues --    0.98348   0.99060   1.00246   1.01257   1.01775
 Alpha virt. eigenvalues --    1.03016   1.04134   1.05727   1.07213   1.07950
 Alpha virt. eigenvalues --    1.09595   1.11524   1.12309   1.13153   1.16870
 Alpha virt. eigenvalues --    1.18644   1.19450   1.20471   1.21724   1.22427
 Alpha virt. eigenvalues --    1.23508   1.25742   1.28539   1.30080   1.30657
 Alpha virt. eigenvalues --    1.32799   1.33671   1.37192   1.37555   1.38976
 Alpha virt. eigenvalues --    1.40603   1.42065   1.42945   1.44208   1.46122
 Alpha virt. eigenvalues --    1.46865   1.49041   1.50697   1.51991   1.52283
 Alpha virt. eigenvalues --    1.53411   1.54382   1.55960   1.57514   1.57896
 Alpha virt. eigenvalues --    1.58791   1.59266   1.60463   1.61431   1.62925
 Alpha virt. eigenvalues --    1.63614   1.64421   1.64968   1.66005   1.67382
 Alpha virt. eigenvalues --    1.68346   1.68864   1.70533   1.70713   1.71533
 Alpha virt. eigenvalues --    1.72737   1.73549   1.74741   1.75437   1.76456
 Alpha virt. eigenvalues --    1.77094   1.78986   1.80997   1.84098   1.84816
 Alpha virt. eigenvalues --    1.87013   1.88075   1.89215   1.91069   1.92981
 Alpha virt. eigenvalues --    1.93619   1.93902   1.96838   1.97880   1.98878
 Alpha virt. eigenvalues --    2.00426   2.01683   2.02796   2.04312   2.06126
 Alpha virt. eigenvalues --    2.08264   2.09240   2.09781   2.10947   2.13362
 Alpha virt. eigenvalues --    2.18209   2.19856   2.20788   2.24057   2.25913
 Alpha virt. eigenvalues --    2.28472   2.29875   2.34599   2.35417   2.36731
 Alpha virt. eigenvalues --    2.38938   2.40286   2.42674   2.43424   2.44947
 Alpha virt. eigenvalues --    2.47547   2.49475   2.53456   2.55117   2.56698
 Alpha virt. eigenvalues --    2.59665   2.65242   2.74841   2.76085   2.88237
 Alpha virt. eigenvalues --    2.90464   2.98755   3.03708   3.04998   3.06779
 Alpha virt. eigenvalues --    3.07183   3.19285   3.35845   3.37423   3.43994
 Alpha virt. eigenvalues --    3.49594   3.55079   3.59219   3.75952   3.96792
 Alpha virt. eigenvalues --    4.18716
  Beta  occ. eigenvalues --  -88.16890 -24.36781 -18.88612 -18.87406 -10.05522
  Beta  occ. eigenvalues --  -10.03867 -10.03793 -10.02859 -10.01955 -10.00178
  Beta  occ. eigenvalues --   -9.99469  -9.99398  -9.98947  -9.98199  -9.97965
  Beta  occ. eigenvalues --   -9.97196  -7.77133  -5.79218  -5.78765  -5.78338
  Beta  occ. eigenvalues --   -1.20711  -1.07688  -1.07398  -0.87899  -0.86302
  Beta  occ. eigenvalues --   -0.78084  -0.76895  -0.75342  -0.73238  -0.70992
  Beta  occ. eigenvalues --   -0.68404  -0.64334  -0.61855  -0.58824  -0.58055
  Beta  occ. eigenvalues --   -0.57214  -0.54399  -0.53241  -0.52648  -0.50428
  Beta  occ. eigenvalues --   -0.49526  -0.49181  -0.48534  -0.48008  -0.46512
  Beta  occ. eigenvalues --   -0.45921  -0.43992  -0.42352  -0.41075  -0.40677
  Beta  occ. eigenvalues --   -0.40532  -0.38871  -0.37620  -0.37334  -0.36328
  Beta  occ. eigenvalues --   -0.35595  -0.35245  -0.34213  -0.28825  -0.28050
  Beta  occ. eigenvalues --   -0.26890  -0.24391
  Beta virt. eigenvalues --    0.01860   0.03269   0.05800   0.07497   0.09680
  Beta virt. eigenvalues --    0.10801   0.11515   0.11922   0.14151   0.14651
  Beta virt. eigenvalues --    0.15040   0.15281   0.16730   0.16821   0.17663
  Beta virt. eigenvalues --    0.18464   0.19140   0.19669   0.19897   0.20485
  Beta virt. eigenvalues --    0.21495   0.25190   0.28028   0.30432   0.31210
  Beta virt. eigenvalues --    0.32574   0.33859   0.37115   0.39509   0.39974
  Beta virt. eigenvalues --    0.40356   0.45177   0.46537   0.46860   0.47399
  Beta virt. eigenvalues --    0.47957   0.48206   0.48873   0.49600   0.49655
  Beta virt. eigenvalues --    0.50073   0.50878   0.51531   0.52069   0.52354
  Beta virt. eigenvalues --    0.53192   0.53689   0.54327   0.54611   0.55550
  Beta virt. eigenvalues --    0.56548   0.57425   0.57917   0.58897   0.60023
  Beta virt. eigenvalues --    0.60279   0.61786   0.62005   0.63962   0.64313
  Beta virt. eigenvalues --    0.64399   0.65154   0.66471   0.66505   0.67594
  Beta virt. eigenvalues --    0.67898   0.68848   0.69798   0.70912   0.72178
  Beta virt. eigenvalues --    0.72339   0.73950   0.74533   0.75545   0.76359
  Beta virt. eigenvalues --    0.77770   0.79763   0.80339   0.81279   0.84608
  Beta virt. eigenvalues --    0.86350   0.86873   0.89539   0.90865   0.91831
  Beta virt. eigenvalues --    0.92768   0.92875   0.95619   0.96549   0.96704
  Beta virt. eigenvalues --    0.98348   0.99060   1.00246   1.01257   1.01775
  Beta virt. eigenvalues --    1.03016   1.04134   1.05727   1.07213   1.07950
  Beta virt. eigenvalues --    1.09595   1.11524   1.12309   1.13153   1.16870
  Beta virt. eigenvalues --    1.18644   1.19450   1.20471   1.21724   1.22427
  Beta virt. eigenvalues --    1.23508   1.25742   1.28539   1.30080   1.30657
  Beta virt. eigenvalues --    1.32799   1.33671   1.37192   1.37555   1.38976
  Beta virt. eigenvalues --    1.40603   1.42065   1.42945   1.44208   1.46122
  Beta virt. eigenvalues --    1.46865   1.49041   1.50697   1.51991   1.52283
  Beta virt. eigenvalues --    1.53411   1.54382   1.55960   1.57514   1.57896
  Beta virt. eigenvalues --    1.58791   1.59266   1.60463   1.61431   1.62925
  Beta virt. eigenvalues --    1.63614   1.64421   1.64968   1.66005   1.67382
  Beta virt. eigenvalues --    1.68346   1.68864   1.70533   1.70713   1.71533
  Beta virt. eigenvalues --    1.72737   1.73549   1.74741   1.75437   1.76456
  Beta virt. eigenvalues --    1.77094   1.78986   1.80997   1.84098   1.84816
  Beta virt. eigenvalues --    1.87013   1.88075   1.89215   1.91069   1.92981
  Beta virt. eigenvalues --    1.93619   1.93902   1.96838   1.97880   1.98878
  Beta virt. eigenvalues --    2.00426   2.01683   2.02796   2.04312   2.06126
  Beta virt. eigenvalues --    2.08264   2.09240   2.09781   2.10947   2.13362
  Beta virt. eigenvalues --    2.18209   2.19856   2.20788   2.24057   2.25913
  Beta virt. eigenvalues --    2.28472   2.29875   2.34599   2.35417   2.36731
  Beta virt. eigenvalues --    2.38938   2.40286   2.42674   2.43424   2.44947
  Beta virt. eigenvalues --    2.47547   2.49475   2.53456   2.55117   2.56698
  Beta virt. eigenvalues --    2.59665   2.65242   2.74841   2.76085   2.88237
  Beta virt. eigenvalues --    2.90464   2.98755   3.03708   3.04998   3.06779
  Beta virt. eigenvalues --    3.07183   3.19285   3.35845   3.37423   3.43994
  Beta virt. eigenvalues --    3.49594   3.55079   3.59219   3.75952   3.96792
  Beta virt. eigenvalues --    4.18716
          Condensed to atoms (all electrons):
               1          2          3          4          5          6
     1  C    4.769529   0.441565   0.043140   0.003877  -0.080029   0.033119
     2  C    0.441565   5.054757   0.370424  -0.062042  -0.023503  -0.107550
     3  C    0.043140   0.370424   4.851067   0.486857   0.278302   0.051091
     4  F    0.003877  -0.062042   0.486857   8.739449  -0.087524   0.003921
     5  C   -0.080029  -0.023503   0.278302  -0.087524   5.652937   0.349629
     6  C    0.033119  -0.107550   0.051091   0.003921   0.349629   4.991520
     7  O    0.003507  -0.000055   0.001348  -0.000001  -0.081223   0.491482
     8  C    0.001233  -0.000085   0.000300   0.000000   0.009816  -0.087463
     9  C    0.451079   0.032060  -0.109405  -0.000474  -0.004089   0.277148
    10  C    0.000525   0.010225  -0.090136   0.004485   0.188467  -0.079465
    11  C   -0.000020   0.000363  -0.002705   0.000687  -0.046123  -0.001149
    12  O   -0.000005   0.000087   0.001408  -0.000128   0.008499  -0.000077
    13  C    0.000000   0.000001  -0.000048  -0.000023  -0.000135  -0.000005
    14  C   -0.000001   0.000020   0.000424   0.000077   0.009308   0.000022
    15  C    0.000000  -0.000001   0.000022  -0.000003   0.003674  -0.000040
    16  S   -0.000058  -0.000123  -0.003026  -0.000102  -0.056813  -0.002885
    17  H    0.389290  -0.048542   0.008771  -0.000025  -0.001196   0.011247
    18  H   -0.053161   0.344901  -0.032397   0.001113   0.015702   0.000162
    19  H   -0.000018  -0.000001   0.000025  -0.000000  -0.000036   0.003640
    20  H    0.000113  -0.000030  -0.000068   0.000000  -0.000457  -0.011533
    21  H    0.000108   0.000010  -0.000129   0.000000   0.000017  -0.010744
    22  H   -0.036844   0.011727   0.001032   0.000001   0.009002  -0.059773
    23  H   -0.000000  -0.000001   0.000002  -0.000001  -0.000069   0.000004
    24  H   -0.000000   0.000001   0.000009  -0.000000   0.000133  -0.000004
    25  H   -0.000000  -0.000000  -0.000009   0.000004   0.000074  -0.000003
    26  H    0.000000  -0.000000  -0.000001   0.000002  -0.000372   0.000009
    27  H   -0.000000  -0.000000   0.000000   0.000000  -0.000241   0.000001
               7          8          9         10         11         12
     1  C    0.003507   0.001233   0.451079   0.000525  -0.000020  -0.000005
     2  C   -0.000055  -0.000085   0.032060   0.010225   0.000363   0.000087
     3  C    0.001348   0.000300  -0.109405  -0.090136  -0.002705   0.001408
     4  F   -0.000001   0.000000  -0.000474   0.004485   0.000687  -0.000128
     5  C   -0.081223   0.009816  -0.004089   0.188467  -0.046123   0.008499
     6  C    0.491482  -0.087463   0.277148  -0.079465  -0.001149  -0.000077
     7  O    7.565088   0.365303  -0.077883   0.010280  -0.000248  -0.000047
     8  C    0.365303   4.528830  -0.004639  -0.000569   0.000018  -0.000006
     9  C   -0.077883  -0.004639   5.060296   0.013060   0.000206   0.000047
    10  C    0.010280  -0.000569   0.013060   5.463465   0.490351  -0.076308
    11  C   -0.000248   0.000018   0.000206   0.490351   4.830957   0.448331
    12  O   -0.000047  -0.000006   0.000047  -0.076308   0.448331   7.563398
    13  C   -0.000007  -0.000000  -0.000001   0.007680  -0.080222   0.393411
    14  C    0.000133  -0.000004   0.000021  -0.049139   0.357320  -0.059361
    15  C   -0.000021   0.000000  -0.000003  -0.073128  -0.020671   0.003597
    16  S    0.001084   0.000023  -0.000136   0.352407  -0.082371   0.002753
    17  H   -0.000048  -0.000008  -0.037897   0.000028   0.000001  -0.000000
    18  H    0.000004  -0.000001   0.010752  -0.000565  -0.000010   0.000003
    19  H   -0.018532   0.380858  -0.000861  -0.000083   0.000014  -0.000001
    20  H   -0.034805   0.378736   0.012645   0.000081  -0.000012  -0.000000
    21  H   -0.027595   0.384041   0.013046   0.000167   0.000015   0.000002
    22  H   -0.009003   0.009675   0.364738  -0.000644  -0.000003   0.000001
    23  H   -0.000000  -0.000000  -0.000000  -0.000679   0.004739  -0.022641
    24  H    0.000000   0.000001  -0.000000   0.000936  -0.006696  -0.031219
    25  H   -0.000000  -0.000000   0.000000   0.001393  -0.008733  -0.040196
    26  H    0.000003  -0.000000  -0.000000   0.008707  -0.041493  -0.004393
    27  H   -0.000001  -0.000000  -0.000000   0.000567   0.007836  -0.000046
              13         14         15         16         17         18
     1  C    0.000000  -0.000001   0.000000  -0.000058   0.389290  -0.053161
     2  C    0.000001   0.000020  -0.000001  -0.000123  -0.048542   0.344901
     3  C   -0.000048   0.000424   0.000022  -0.003026   0.008771  -0.032397
     4  F   -0.000023   0.000077  -0.000003  -0.000102  -0.000025   0.001113
     5  C   -0.000135   0.009308   0.003674  -0.056813  -0.001196   0.015702
     6  C   -0.000005   0.000022  -0.000040  -0.002885   0.011247   0.000162
     7  O   -0.000007   0.000133  -0.000021   0.001084  -0.000048   0.000004
     8  C   -0.000000  -0.000004   0.000000   0.000023  -0.000008  -0.000001
     9  C   -0.000001   0.000021  -0.000003  -0.000136  -0.037897   0.010752
    10  C    0.007680  -0.049139  -0.073128   0.352407   0.000028  -0.000565
    11  C   -0.080222   0.357320  -0.020671  -0.082371   0.000001  -0.000010
    12  O    0.393411  -0.059361   0.003597   0.002753  -0.000000   0.000003
    13  C    4.460833  -0.005512   0.000560  -0.000203  -0.000000   0.000000
    14  C   -0.005512   4.880609   0.527502  -0.088062   0.000000  -0.000000
    15  C    0.000560   0.527502   4.993165   0.346559   0.000000  -0.000000
    16  S   -0.000203  -0.088062   0.346559  15.398202  -0.000001   0.000012
    17  H   -0.000000   0.000000   0.000000  -0.000001   0.713030  -0.014347
    18  H    0.000000  -0.000000  -0.000000   0.000012  -0.014347   0.727720
    19  H   -0.000000  -0.000002  -0.000002   0.000026  -0.000000  -0.000000
    20  H   -0.000000   0.000001  -0.000000  -0.000008   0.000019   0.000000
    21  H    0.000000   0.000000   0.000000   0.000010   0.000001   0.000000
    22  H   -0.000000   0.000000  -0.000000   0.000009  -0.016906  -0.000423
    23  H    0.391400  -0.000256  -0.000023   0.000028   0.000000  -0.000000
    24  H    0.381165   0.008464  -0.000033  -0.000122  -0.000000   0.000000
    25  H    0.380140   0.011502  -0.000196  -0.000161   0.000000  -0.000000
    26  H    0.006755   0.392218  -0.054131   0.008021   0.000000   0.000000
    27  H    0.000010  -0.023943   0.394068  -0.038983  -0.000000   0.000000
              19         20         21         22         23         24
     1  C   -0.000018   0.000113   0.000108  -0.036844  -0.000000  -0.000000
     2  C   -0.000001  -0.000030   0.000010   0.011727  -0.000001   0.000001
     3  C    0.000025  -0.000068  -0.000129   0.001032   0.000002   0.000009
     4  F   -0.000000   0.000000   0.000000   0.000001  -0.000001  -0.000000
     5  C   -0.000036  -0.000457   0.000017   0.009002  -0.000069   0.000133
     6  C    0.003640  -0.011533  -0.010744  -0.059773   0.000004  -0.000004
     7  O   -0.018532  -0.034805  -0.027595  -0.009003  -0.000000   0.000000
     8  C    0.380858   0.378736   0.384041   0.009675  -0.000000   0.000001
     9  C   -0.000861   0.012645   0.013046   0.364738  -0.000000  -0.000000
    10  C   -0.000083   0.000081   0.000167  -0.000644  -0.000679   0.000936
    11  C    0.000014  -0.000012   0.000015  -0.000003   0.004739  -0.006696
    12  O   -0.000001  -0.000000   0.000002   0.000001  -0.022641  -0.031219
    13  C   -0.000000  -0.000000   0.000000  -0.000000   0.391400   0.381165
    14  C   -0.000002   0.000001   0.000000   0.000000  -0.000256   0.008464
    15  C   -0.000002  -0.000000   0.000000  -0.000000  -0.000023  -0.000033
    16  S    0.000026  -0.000008   0.000010   0.000009   0.000028  -0.000122
    17  H   -0.000000   0.000019   0.000001  -0.016906   0.000000  -0.000000
    18  H   -0.000000   0.000000   0.000000  -0.000423  -0.000000   0.000000
    19  H    0.647834  -0.029730  -0.034508  -0.000660  -0.000000   0.000000
    20  H   -0.029730   0.682984  -0.045661   0.002926  -0.000000  -0.000000
    21  H   -0.034508  -0.045661   0.678465   0.002697   0.000000  -0.000000
    22  H   -0.000660   0.002926   0.002697   0.751338  -0.000000  -0.000000
    23  H   -0.000000  -0.000000   0.000000  -0.000000   0.656783  -0.034963
    24  H    0.000000  -0.000000  -0.000000  -0.000000  -0.034963   0.723376
    25  H   -0.000000   0.000000   0.000000   0.000000  -0.027170  -0.061360
    26  H   -0.000000   0.000000  -0.000000   0.000000  -0.000453   0.001739
    27  H    0.000000  -0.000000   0.000000   0.000000   0.000000   0.000012
              25         26         27
     1  C   -0.000000   0.000000  -0.000000
     2  C   -0.000000  -0.000000  -0.000000
     3  C   -0.000009  -0.000001   0.000000
     4  F    0.000004   0.000002   0.000000
     5  C    0.000074  -0.000372  -0.000241
     6  C   -0.000003   0.000009   0.000001
     7  O   -0.000000   0.000003  -0.000001
     8  C   -0.000000  -0.000000  -0.000000
     9  C    0.000000  -0.000000  -0.000000
    10  C    0.001393   0.008707   0.000567
    11  C   -0.008733  -0.041493   0.007836
    12  O   -0.040196  -0.004393  -0.000046
    13  C    0.380140   0.006755   0.000010
    14  C    0.011502   0.392218  -0.023943
    15  C   -0.000196  -0.054131   0.394068
    16  S   -0.000161   0.008021  -0.038983
    17  H    0.000000   0.000000  -0.000000
    18  H   -0.000000   0.000000   0.000000
    19  H   -0.000000  -0.000000   0.000000
    20  H    0.000000   0.000000  -0.000000
    21  H    0.000000  -0.000000   0.000000
    22  H    0.000000   0.000000   0.000000
    23  H   -0.027170  -0.000453   0.000000
    24  H   -0.061360   0.001739   0.000012
    25  H    0.719745   0.002856   0.000008
    26  H    0.002856   0.716602  -0.008182
    27  H    0.000008  -0.008182   0.658174
          Atomic-Atomic Spin Densities.
               1          2          3          4          5          6
     1  C    0.000000  -0.000000   0.000000   0.000000  -0.000000   0.000000
     2  C   -0.000000   0.000000  -0.000000  -0.000000   0.000000  -0.000000
     3  C    0.000000  -0.000000   0.000000   0.000000   0.000000   0.000000
     4  F    0.000000  -0.000000   0.000000  -0.000000  -0.000000   0.000000
     5  C   -0.000000   0.000000   0.000000  -0.000000   0.000000  -0.000000
     6  C    0.000000  -0.000000   0.000000   0.000000  -0.000000  -0.000000
     7  O    0.000000  -0.000000  -0.000000  -0.000000  -0.000000   0.000000
     8  C   -0.000000  -0.000000   0.000000   0.000000   0.000000   0.000000
     9  C   -0.000000   0.000000  -0.000000  -0.000000   0.000000   0.000000
    10  C    0.000000   0.000000   0.000000   0.000000  -0.000000  -0.000000
    11  C    0.000000  -0.000000   0.000000  -0.000000  -0.000000   0.000000
    12  O   -0.000000   0.000000  -0.000000   0.000000   0.000000   0.000000
    13  C    0.000000   0.000000   0.000000   0.000000  -0.000000  -0.000000
    14  C   -0.000000   0.000000  -0.000000  -0.000000   0.000000   0.000000
    15  C   -0.000000   0.000000   0.000000   0.000000   0.000000  -0.000000
    16  S    0.000000  -0.000000   0.000000   0.000000  -0.000000   0.000000
    17  H    0.000000   0.000000   0.000000   0.000000  -0.000000  -0.000000
    18  H   -0.000000   0.000000  -0.000000  -0.000000  -0.000000  -0.000000
    19  H    0.000000   0.000000  -0.000000   0.000000  -0.000000  -0.000000
    20  H   -0.000000  -0.000000  -0.000000   0.000000  -0.000000   0.000000
    21  H   -0.000000  -0.000000   0.000000  -0.000000   0.000000   0.000000
    22  H   -0.000000   0.000000  -0.000000  -0.000000   0.000000   0.000000
    23  H    0.000000  -0.000000   0.000000  -0.000000  -0.000000   0.000000
    24  H    0.000000  -0.000000   0.000000   0.000000   0.000000   0.000000
    25  H   -0.000000   0.000000  -0.000000   0.000000   0.000000  -0.000000
    26  H    0.000000  -0.000000  -0.000000   0.000000  -0.000000   0.000000
    27  H    0.000000   0.000000   0.000000   0.000000  -0.000000  -0.000000
               7          8          9         10         11         12
     1  C    0.000000  -0.000000  -0.000000   0.000000   0.000000  -0.000000
     2  C   -0.000000  -0.000000   0.000000   0.000000  -0.000000   0.000000
     3  C   -0.000000   0.000000  -0.000000   0.000000   0.000000  -0.000000
     4  F   -0.000000   0.000000  -0.000000   0.000000  -0.000000   0.000000
     5  C   -0.000000   0.000000   0.000000  -0.000000  -0.000000   0.000000
     6  C    0.000000   0.000000   0.000000  -0.000000   0.000000   0.000000
     7  O   -0.000000  -0.000000   0.000000   0.000000   0.000000   0.000000
     8  C   -0.000000   0.000000  -0.000000  -0.000000  -0.000000  -0.000000
     9  C    0.000000  -0.000000   0.000000   0.000000  -0.000000   0.000000
    10  C    0.000000  -0.000000   0.000000   0.000000   0.000000   0.000000
    11  C    0.000000  -0.000000  -0.000000   0.000000  -0.000000  -0.000000
    12  O    0.000000  -0.000000   0.000000   0.000000  -0.000000   0.000000
    13  C    0.000000  -0.000000  -0.000000  -0.000000  -0.000000  -0.000000
    14  C   -0.000000   0.000000   0.000000   0.000000   0.000000   0.000000
    15  C    0.000000  -0.000000   0.000000   0.000000  -0.000000  -0.000000
    16  S   -0.000000  -0.000000  -0.000000  -0.000000   0.000000   0.000000
    17  H    0.000000   0.000000  -0.000000   0.000000   0.000000  -0.000000
    18  H    0.000000  -0.000000   0.000000  -0.000000   0.000000   0.000000
    19  H    0.000000   0.000000   0.000000   0.000000   0.000000  -0.000000
    20  H   -0.000000  -0.000000   0.000000   0.000000  -0.000000   0.000000
    21  H   -0.000000  -0.000000  -0.000000  -0.000000  -0.000000  -0.000000
    22  H   -0.000000   0.000000   0.000000  -0.000000  -0.000000   0.000000
    23  H    0.000000   0.000000  -0.000000   0.000000  -0.000000  -0.000000
    24  H    0.000000   0.000000  -0.000000   0.000000   0.000000  -0.000000
    25  H   -0.000000  -0.000000   0.000000  -0.000000  -0.000000   0.000000
    26  H   -0.000000  -0.000000   0.000000  -0.000000   0.000000   0.000000
    27  H    0.000000  -0.000000  -0.000000   0.000000  -0.000000  -0.000000
              13         14         15         16         17         18
     1  C    0.000000  -0.000000  -0.000000   0.000000   0.000000  -0.000000
     2  C    0.000000   0.000000   0.000000  -0.000000   0.000000   0.000000
     3  C    0.000000  -0.000000   0.000000   0.000000   0.000000  -0.000000
     4  F    0.000000  -0.000000   0.000000   0.000000   0.000000  -0.000000
     5  C   -0.000000   0.000000   0.000000  -0.000000  -0.000000  -0.000000
     6  C   -0.000000   0.000000  -0.000000   0.000000  -0.000000  -0.000000
     7  O    0.000000  -0.000000   0.000000  -0.000000   0.000000   0.000000
     8  C   -0.000000   0.000000  -0.000000  -0.000000   0.000000  -0.000000
     9  C   -0.000000   0.000000   0.000000  -0.000000  -0.000000   0.000000
    10  C   -0.000000   0.000000   0.000000  -0.000000   0.000000  -0.000000
    11  C   -0.000000   0.000000  -0.000000   0.000000   0.000000   0.000000
    12  O   -0.000000   0.000000  -0.000000   0.000000  -0.000000   0.000000
    13  C    0.000000  -0.000000  -0.000000   0.000000   0.000000  -0.000000
    14  C   -0.000000  -0.000000   0.000000  -0.000000  -0.000000   0.000000
    15  C   -0.000000   0.000000  -0.000000  -0.000000  -0.000000   0.000000
    16  S    0.000000  -0.000000  -0.000000   0.000000   0.000000  -0.000000
    17  H    0.000000  -0.000000  -0.000000   0.000000   0.000000  -0.000000
    18  H   -0.000000   0.000000   0.000000  -0.000000  -0.000000   0.000000
    19  H    0.000000  -0.000000  -0.000000  -0.000000   0.000000  -0.000000
    20  H   -0.000000  -0.000000   0.000000  -0.000000  -0.000000  -0.000000
    21  H   -0.000000   0.000000  -0.000000   0.000000  -0.000000  -0.000000
    22  H   -0.000000   0.000000   0.000000  -0.000000  -0.000000   0.000000
    23  H    0.000000  -0.000000  -0.000000   0.000000   0.000000  -0.000000
    24  H   -0.000000   0.000000  -0.000000  -0.000000   0.000000   0.000000
    25  H    0.000000  -0.000000   0.000000   0.000000  -0.000000   0.000000
    26  H    0.000000  -0.000000   0.000000  -0.000000   0.000000  -0.000000
    27  H   -0.000000   0.000000  -0.000000  -0.000000   0.000000  -0.000000
              19         20         21         22         23         24
     1  C    0.000000  -0.000000  -0.000000  -0.000000   0.000000   0.000000
     2  C    0.000000  -0.000000  -0.000000   0.000000  -0.000000  -0.000000
     3  C   -0.000000  -0.000000   0.000000  -0.000000   0.000000   0.000000
     4  F    0.000000   0.000000  -0.000000  -0.000000  -0.000000   0.000000
     5  C   -0.000000  -0.000000   0.000000   0.000000  -0.000000   0.000000
     6  C   -0.000000   0.000000   0.000000   0.000000   0.000000   0.000000
     7  O    0.000000  -0.000000  -0.000000  -0.000000   0.000000   0.000000
     8  C    0.000000  -0.000000  -0.000000   0.000000   0.000000   0.000000
     9  C    0.000000   0.000000  -0.000000   0.000000  -0.000000  -0.000000
    10  C    0.000000   0.000000  -0.000000  -0.000000   0.000000   0.000000
    11  C    0.000000  -0.000000  -0.000000  -0.000000  -0.000000   0.000000
    12  O   -0.000000   0.000000  -0.000000   0.000000  -0.000000  -0.000000
    13  C    0.000000  -0.000000  -0.000000  -0.000000   0.000000  -0.000000
    14  C   -0.000000  -0.000000   0.000000   0.000000  -0.000000   0.000000
    15  C   -0.000000   0.000000  -0.000000   0.000000  -0.000000  -0.000000
    16  S   -0.000000  -0.000000   0.000000  -0.000000   0.000000  -0.000000
    17  H    0.000000  -0.000000  -0.000000  -0.000000   0.000000   0.000000
    18  H   -0.000000  -0.000000  -0.000000   0.000000  -0.000000   0.000000
    19  H   -0.000000   0.000000   0.000000  -0.000000   0.000000   0.000000
    20  H    0.000000  -0.000000  -0.000000   0.000000  -0.000000   0.000000
    21  H    0.000000  -0.000000  -0.000000  -0.000000  -0.000000   0.000000
    22  H   -0.000000   0.000000  -0.000000   0.000000  -0.000000   0.000000
    23  H    0.000000  -0.000000  -0.000000  -0.000000  -0.000000   0.000000
    24  H    0.000000   0.000000   0.000000   0.000000   0.000000  -0.000000
    25  H   -0.000000  -0.000000  -0.000000   0.000000  -0.000000   0.000000
    26  H   -0.000000  -0.000000   0.000000  -0.000000   0.000000   0.000000
    27  H    0.000000   0.000000  -0.000000  -0.000000  -0.000000  -0.000000
              25         26         27
     1  C   -0.000000   0.000000   0.000000
     2  C    0.000000  -0.000000   0.000000
     3  C   -0.000000  -0.000000   0.000000
     4  F    0.000000   0.000000   0.000000
     5  C    0.000000  -0.000000  -0.000000
     6  C   -0.000000   0.000000  -0.000000
     7  O   -0.000000  -0.000000   0.000000
     8  C   -0.000000  -0.000000  -0.000000
     9  C    0.000000   0.000000  -0.000000
    10  C   -0.000000  -0.000000   0.000000
    11  C   -0.000000   0.000000  -0.000000
    12  O    0.000000   0.000000  -0.000000
    13  C    0.000000   0.000000  -0.000000
    14  C   -0.000000  -0.000000   0.000000
    15  C    0.000000   0.000000  -0.000000
    16  S    0.000000  -0.000000  -0.000000
    17  H   -0.000000   0.000000   0.000000
    18  H    0.000000  -0.000000  -0.000000
    19  H   -0.000000  -0.000000   0.000000
    20  H   -0.000000  -0.000000   0.000000
    21  H   -0.000000   0.000000  -0.000000
    22  H    0.000000  -0.000000  -0.000000
    23  H   -0.000000   0.000000  -0.000000
    24  H    0.000000   0.000000  -0.000000
    25  H    0.000000  -0.000000   0.000000
    26  H   -0.000000  -0.000000   0.000000
    27  H    0.000000   0.000000   0.000000
 Mulliken charges and spin densities:
               1          2
     1  C    0.033051  -0.000000
     2  C   -0.024206   0.000000
     3  C    0.143699  -0.000000
[...]
    23  H   -0.000000  -0.000000  -0.000000   0.000000   0.000000  -0.000000
    24  H    0.000000   0.000000   0.000000  -0.000000  -0.000000  -0.000000
    25  H    0.000000  -0.000000   0.000000  -0.000000   0.000000   0.000000
    26  H    0.000000   0.000000   0.000000  -0.000000  -0.000000  -0.000000
    27  H   -0.000000   0.000000  -0.000000   0.000000  -0.000000  -0.000000
              25         26         27
     1  C   -0.000000   0.000000   0.000000
     2  C   -0.000000   0.000000  -0.000000
     3  C   -0.000000  -0.000000   0.000000
     4  F    0.000000   0.000000   0.000000
     5  C   -0.000000  -0.000000   0.000000
     6  C    0.000000   0.000000  -0.000000
     7  O   -0.000000   0.000000  -0.000000
     8  C   -0.000000  -0.000000   0.000000
     9  C   -0.000000   0.000000  -0.000000
    10  C   -0.000000  -0.000000   0.000000
    11  C   -0.000000   0.000000  -0.000000
    12  O    0.000000   0.000000  -0.000000
    13  C    0.000000   0.000000   0.000000
    14  C   -0.000000  -0.000000   0.000000
    15  C    0.000000   0.000000  -0.000000
    16  S    0.000000  -0.000000  -0.000000
    17  H   -0.000000  -0.000000   0.000000
    18  H    0.000000  -0.000000  -0.000000
    19  H    0.000000   0.000000  -0.000000
    20  H   -0.000000   0.000000   0.000000
    21  H    0.000000   0.000000  -0.000000
    22  H   -0.000000  -0.000000   0.000000
    23  H    0.000000  -0.000000  -0.000000
    24  H    0.000000  -0.000000  -0.000000
    25  H   -0.000000   0.000000   0.000000
    26  H    0.000000  -0.000000   0.000000
    27  H    0.000000   0.000000   0.000000
 Mulliken charges and spin densities:
               1          2
     1  C    0.035684   0.000000
     2  C    0.011433  -0.000000
     3  C    0.103677  -0.000000
     4  F   -0.120539   0.000000
     5  C   -0.016987  -0.000000
     6  C    0.104647   0.000000
     7  O   -0.229159  -0.000000
     8  C    0.063229   0.000000
     9  C   -0.028712  -0.000000
    10  C   -0.184297   0.000000
    11  C    0.156058   0.000000
    12  O   -0.230022  -0.000000
    13  C    0.060396   0.000000
    14  C    0.018715  -0.000000
    15  C   -0.122979   0.000000
    16  S    0.165497  -0.000000
    17  H   -0.016915   0.000000
    18  H   -0.014583  -0.000000
    19  H    0.050926  -0.000000
    20  H    0.044156  -0.000000
    21  H    0.044808   0.000000
    22  H   -0.022431   0.000000
    23  H    0.047110   0.000000
    24  H    0.038846  -0.000000
    25  H    0.040951  -0.000000
    26  H   -0.014882  -0.000000
    27  H    0.015376   0.000000
 Sum of Mulliken charges =  -0.00000   0.00000
 Mulliken charges and spin densities with hydrogens summed into heavy atoms:
               1          2
     1  C    0.018768   0.000000
     2  C   -0.003150  -0.000000
     3  C    0.103677  -0.000000
     4  F   -0.120539   0.000000
     5  C   -0.016987  -0.000000
     6  C    0.104647   0.000000
     7  O   -0.229159  -0.000000
     8  C    0.203119   0.000000
     9  C   -0.051144  -0.000000
    10  C   -0.184297   0.000000
    11  C    0.156058   0.000000
    12  O   -0.230022  -0.000000
    13  C    0.187303   0.000000
    14  C    0.003833  -0.000000
    15  C   -0.107604   0.000000
    16  S    0.165497  -0.000000
 Electronic spatial extent (au):  <R**2>=           3808.9439
 Charge=             -0.0000 electrons
 Dipole moment (field-independent basis, Debye):
    X=              0.3189    Y=              0.8055    Z=              1.3554  Tot=              1.6086
 Quadrupole moment (field-independent basis, Debye-Ang):
   XX=            -78.2740   YY=            -91.0413   ZZ=           -100.3416
   XY=              3.9186   XZ=             -0.4542   YZ=             -0.5905
 Traceless Quadrupole moment (field-independent basis, Debye-Ang):
   XX=             11.6116   YY=             -1.1557   ZZ=            -10.4560
   XY=              3.9186   XZ=             -0.4542   YZ=             -0.5905
 Octapole moment (field-independent basis, Debye-Ang**2):
  XXX=            -13.1200  YYY=             -4.1449  ZZZ=              5.8280  XYY=              4.4618
  XXY=              0.8114  XXZ=             20.1863  XZZ=             -5.1283  YZZ=             -1.9125
  YYZ=              2.1863  XYZ=             19.3984
 Hexadecapole moment (field-independent basis, Debye-Ang**3):
 XXXX=          -2651.4536 YYYY=          -1550.8297 ZZZZ=           -459.4868 XXXY=             68.9051
 XXXZ=             -2.9339 YYYX=             40.4651 YYYZ=             14.7462 ZZZX=             -4.8919
 ZZZY=             12.5858 XXYY=           -649.9399 XXZZ=           -563.3205 YYZZ=           -339.7657
 XXYZ=             -5.6683 YYXZ=              7.3834 ZZXY=             35.3140
 N-N= 1.217747485763D+03 E-N=-5.050282048557D+03  KE= 1.106129287070D+03
                          Isotropic Fermi Contact Couplings
        Atom                 a.u.       MegaHertz       Gauss      10(-4) cm-1
     1  C(13)              0.00000       0.00000       0.00000       0.00000
     2  C(13)             -0.00000      -0.00000      -0.00000      -0.00000
     3  C(13)              0.00000       0.00000       0.00000       0.00000
     4  F(19)              0.00000       0.00000       0.00000       0.00000
     5  C(13)              0.00000       0.00000       0.00000       0.00000
     6  C(13)              0.00000       0.00000       0.00000       0.00000
     7  O(17)             -0.00000       0.00000       0.00000       0.00000
     8  C(13)             -0.00000      -0.00000      -0.00000      -0.00000
     9  C(13)              0.00000       0.00000       0.00000       0.00000
    10  C(13)              0.00000       0.00000       0.00000       0.00000
    11  C(13)             -0.00000      -0.00000      -0.00000      -0.00000
    12  O(17)             -0.00000       0.00000       0.00000       0.00000
    13  C(13)              0.00000       0.00000       0.00000       0.00000
    14  C(13)             -0.00000      -0.00000      -0.00000      -0.00000
    15  C(13)             -0.00000      -0.00000      -0.00000      -0.00000
    16  S(33)              0.00000       0.00000       0.00000       0.00000
    17  H(1)               0.00000       0.00000       0.00000       0.00000
    18  H(1)               0.00000       0.00000       0.00000       0.00000
    19  H(1)              -0.00000      -0.00000      -0.00000      -0.00000
    20  H(1)              -0.00000      -0.00000      -0.00000      -0.00000
    21  H(1)              -0.00000      -0.00000      -0.00000      -0.00000
    22  H(1)               0.00000       0.00000       0.00000       0.00000
    23  H(1)               0.00000       0.00000       0.00000       0.00000
    24  H(1)              -0.00000      -0.00000      -0.00000      -0.00000
    25  H(1)              -0.00000      -0.00000      -0.00000      -0.00000
    26  H(1)               0.00000       0.00000       0.00000       0.00000
    27  H(1)               0.00000       0.00000       0.00000       0.00000
 --------------------------------------------------------
       Center         ----  Spin Dipole Couplings  ----
                      3XX-RR        3YY-RR        3ZZ-RR
 --------------------------------------------------------
     1   Atom       -0.000000     -0.000000      0.000000
     2   Atom        0.000000     -0.000000     -0.000000
     3   Atom        0.000000     -0.000000      0.000000
     4   Atom       -0.000000      0.000000      0.000000
     5   Atom        0.000000     -0.000000      0.000000
     6   Atom       -0.000000      0.000000     -0.000000
     7   Atom       -0.000000      0.000000      0.000000
     8   Atom       -0.000000      0.000000      0.000000
     9   Atom        0.000000     -0.000000     -0.000000
    10   Atom        0.000000     -0.000000     -0.000000
    11   Atom        0.000000     -0.000000      0.000000
    12   Atom       -0.000000      0.000000      0.000000
    13   Atom       -0.000000     -0.000000      0.000000
    14   Atom       -0.000000      0.000000      0.000000
    15   Atom       -0.000000      0.000000     -0.000000
    16   Atom       -0.000000      0.000000      0.000000
    17   Atom       -0.000000      0.000000      0.000000
    18   Atom        0.000000      0.000000     -0.000000
    19   Atom       -0.000000      0.000000     -0.000000
    20   Atom        0.000000      0.000000     -0.000000
    21   Atom        0.000000      0.000000     -0.000000
    22   Atom       -0.000000      0.000000      0.000000
    23   Atom        0.000000     -0.000000     -0.000000
    24   Atom       -0.000000     -0.000000      0.000000
    25   Atom       -0.000000     -0.000000      0.000000
    26   Atom       -0.000000      0.000000      0.000000
    27   Atom        0.000000     -0.000000      0.000000
 --------------------------------------------------------
                        XY            XZ            YZ
 --------------------------------------------------------
     1   Atom        0.000000     -0.000000     -0.000000
     2   Atom       -0.000000     -0.000000     -0.000000
     3   Atom       -0.000000     -0.000000     -0.000000
     4   Atom        0.000000      0.000000     -0.000000
     5   Atom       -0.000000     -0.000000      0.000000
     6   Atom       -0.000000     -0.000000      0.000000
     7   Atom        0.000000      0.000000     -0.000000
     8   Atom       -0.000000     -0.000000     -0.000000
     9   Atom       -0.000000     -0.000000      0.000000
    10   Atom       -0.000000      0.000000     -0.000000
    11   Atom       -0.000000      0.000000      0.000000
    12   Atom       -0.000000      0.000000     -0.000000
    13   Atom       -0.000000     -0.000000      0.000000
    14   Atom       -0.000000      0.000000      0.000000
    15   Atom        0.000000     -0.000000     -0.000000
    16   Atom       -0.000000     -0.000000     -0.000000
    17   Atom        0.000000     -0.000000      0.000000
    18   Atom       -0.000000      0.000000      0.000000
    19   Atom       -0.000000      0.000000     -0.000000
    20   Atom       -0.000000     -0.000000     -0.000000
    21   Atom        0.000000      0.000000      0.000000
    22   Atom        0.000000      0.000000      0.000000
    23   Atom       -0.000000     -0.000000      0.000000
    24   Atom       -0.000000     -0.000000      0.000000
    25   Atom        0.000000      0.000000      0.000000
    26   Atom       -0.000000      0.000000     -0.000000
    27   Atom        0.000000      0.000000      0.000000
 --------------------------------------------------------


 ---------------------------------------------------------------------------------
              Anisotropic Spin Dipole Couplings in Principal Axis System
 ---------------------------------------------------------------------------------

       Atom             a.u.   MegaHertz   Gauss  10(-4) cm-1        Axes

              Baa    -0.0000    -0.000    -0.000    -0.000 -0.5988  0.8009  0.0039
     1 C(13)  Bbb     0.0000     0.000     0.000     0.000  0.7955  0.5941  0.1193
              Bcc     0.0000     0.000     0.000     0.000 -0.0933 -0.0745  0.9928
 
              Baa    -0.0000    -0.000    -0.000    -0.000  0.2151  0.8988  0.3820
     2 C(13)  Bbb    -0.0000    -0.000    -0.000    -0.000 -0.0265 -0.3857  0.9223
              Bcc     0.0000     0.000     0.000     0.000  0.9762 -0.2085 -0.0592
 
              Baa    -0.0000    -0.000    -0.000    -0.000  0.3143  0.8178  0.4820
     3 C(13)  Bbb     0.0000     0.000     0.000     0.000  0.7780 -0.5129  0.3629
              Bcc     0.0000     0.000     0.000     0.000 -0.5440 -0.2609  0.7975
 
              Baa    -0.0000    -0.000    -0.000    -0.000  0.9063 -0.1510 -0.3948
     4 F(19)  Bbb    -0.0000    -0.000    -0.000    -0.000  0.3914  0.6525  0.6489
              Bcc     0.0000     0.000     0.000     0.000 -0.1596  0.7426 -0.6504
 
              Baa    -0.0000    -0.000    -0.000    -0.000  0.5190  0.8534  0.0479
     5 C(13)  Bbb    -0.0000    -0.000    -0.000    -0.000  0.4260 -0.3068  0.8511
              Bcc     0.0000     0.000     0.000     0.000  0.7411 -0.4213 -0.5228
 
              Baa    -0.0000    -0.000    -0.000    -0.000  0.8391  0.0366  0.5428
     6 C(13)  Bbb     0.0000     0.000     0.000     0.000 -0.4539 -0.5027  0.7356
              Bcc     0.0000     0.000     0.000     0.000 -0.2998  0.8637  0.4052
 
              Baa    -0.0000     0.000     0.000     0.000  0.8738 -0.4020 -0.2738
     7 O(17)  Bbb     0.0000    -0.000    -0.000    -0.000  0.2615  0.8630 -0.4323
              Bcc     0.0000    -0.000    -0.000    -0.000  0.4101  0.3061  0.8591
 
              Baa    -0.0000    -0.000    -0.000    -0.000  0.9030  0.4148  0.1122
     8 C(13)  Bbb     0.0000     0.000     0.000     0.000 -0.1916  0.1551  0.9691
              Bcc     0.0000     0.000     0.000     0.000 -0.3846  0.8966 -0.2196
 
              Baa    -0.0000    -0.000    -0.000    -0.000 -0.1520 -0.6525  0.7424
     9 C(13)  Bbb    -0.0000    -0.000    -0.000    -0.000  0.4572  0.6195  0.6381
              Bcc     0.0000     0.000     0.000     0.000  0.8763 -0.4364 -0.2041
 
              Baa    -0.0000    -0.000    -0.000    -0.000  0.1312  0.8091  0.5729
    10 C(13)  Bbb    -0.0000    -0.000    -0.000    -0.000 -0.3741 -0.4947  0.7844
              Bcc     0.0000     0.000     0.000     0.000  0.9180 -0.3172  0.2378
 
              Baa    -0.0000    -0.000    -0.000    -0.000  0.3854  0.8512 -0.3563
    11 C(13)  Bbb     0.0000     0.000     0.000     0.000 -0.1746  0.4464  0.8776
              Bcc     0.0000     0.000     0.000     0.000  0.9061 -0.2760  0.3207
 
              Baa    -0.0000     0.000     0.000     0.000  0.8059  0.3557 -0.4732
    12 O(17)  Bbb     0.0000    -0.000    -0.000    -0.000 -0.1113  0.8762  0.4690
              Bcc     0.0000    -0.000    -0.000    -0.000  0.5814 -0.3253  0.7457
 
              Baa    -0.0000    -0.000    -0.000    -0.000  0.5319  0.7824 -0.3239
    13 C(13)  Bbb     0.0000     0.000     0.000     0.000  0.8022 -0.3431  0.4886
              Bcc     0.0000     0.000     0.000     0.000 -0.2711  0.5197  0.8102
 
              Baa    -0.0000    -0.000    -0.000    -0.000  0.9134  0.2725 -0.3025
    14 C(13)  Bbb     0.0000     0.000     0.000     0.000  0.3817 -0.3148  0.8690
              Bcc     0.0000     0.000     0.000     0.000 -0.1416  0.9092  0.3915
 
              Baa    -0.0000    -0.000    -0.000    -0.000  0.8019 -0.5935  0.0682
    15 C(13)  Bbb    -0.0000    -0.000    -0.000    -0.000  0.0336  0.1589  0.9867
              Bcc     0.0000     0.000     0.000     0.000  0.5965  0.7890 -0.1473
 
              Baa    -0.0000    -0.000    -0.000    -0.000  0.9995  0.0254  0.0186
    16 S(33)  Bbb    -0.0000    -0.000    -0.000    -0.000 -0.0303  0.6132  0.7894
              Bcc     0.0000     0.000     0.000     0.000 -0.0087  0.7895 -0.6136
 
              Baa    -0.0000    -0.000    -0.000    -0.000  0.9667 -0.1884  0.1731
    17 H(1)   Bbb     0.0000     0.000     0.000     0.000 -0.2337 -0.3748  0.8972
              Bcc     0.0000     0.000     0.000     0.000  0.1041  0.9078  0.4063
 
              Baa    -0.0000    -0.000    -0.000    -0.000 -0.2499 -0.3106  0.9171
    18 H(1)   Bbb    -0.0000    -0.000    -0.000    -0.000  0.5381  0.7429  0.3982
              Bcc     0.0000     0.000     0.000     0.000  0.8050 -0.5930  0.0185
 
              Baa    -0.0000    -0.000    -0.000    -0.000  0.7962  0.4226  0.4329
    19 H(1)   Bbb    -0.0000    -0.000    -0.000    -0.000 -0.4742 -0.0085  0.8804
              Bcc     0.0000     0.000     0.000     0.000 -0.3758  0.9063 -0.1936
 
              Baa    -0.0000    -0.000    -0.000    -0.000  0.2164  0.5252  0.8230
    20 H(1)   Bbb     0.0000     0.000     0.000     0.000  0.9321  0.1396 -0.3342
              Bcc     0.0000     0.000     0.000     0.000 -0.2904  0.8394 -0.4593
 
              Baa    -0.0000    -0.000    -0.000    -0.000 -0.3320 -0.4660  0.8201
    21 H(1)   Bbb     0.0000     0.000     0.000     0.000  0.7532 -0.6544 -0.0669
              Bcc     0.0000     0.000     0.000     0.000  0.5678  0.5955  0.5682
 
              Baa    -0.0000    -0.000    -0.000    -0.000  0.8972  0.2197 -0.3830
    22 H(1)   Bbb    -0.0000    -0.000    -0.000    -0.000  0.4296 -0.6347  0.6424
              Bcc     0.0000     0.000     0.000     0.000  0.1019  0.7409  0.6638
 
              Baa    -0.0000    -0.000    -0.000    -0.000  0.1186  0.7290 -0.6742
    23 H(1)   Bbb     0.0000     0.000     0.000     0.000  0.7910  0.3411  0.5080
              Bcc     0.0000     0.000     0.000     0.000  0.6002 -0.5935 -0.5362
 
              Baa    -0.0000    -0.000    -0.000    -0.000 -0.1190  0.9066 -0.4050
    24 H(1)   Bbb    -0.0000    -0.000    -0.000    -0.000  0.9656  0.2006  0.1652
              Bcc     0.0000     0.000     0.000     0.000 -0.2310  0.3714  0.8993
 
              Baa    -0.0000    -0.000    -0.000    -0.000 -0.3467  0.7875 -0.5096
    25 H(1)   Bbb    -0.0000    -0.000    -0.000    -0.000  0.8933  0.1114 -0.4355
              Bcc     0.0000     0.000     0.000     0.000  0.2862  0.6062  0.7421
 
              Baa    -0.0000    -0.000    -0.000    -0.000  0.9820  0.0627 -0.1783
    26 H(1)   Bbb     0.0000     0.000     0.000     0.000  0.0700  0.7555  0.6514
              Bcc     0.0000     0.000     0.000     0.000  0.1756 -0.6521  0.7375
 
              Baa    -0.0000    -0.000    -0.000    -0.000 -0.2169  0.9744 -0.0586
    27 H(1)   Bbb    -0.0000    -0.000    -0.000    -0.000  0.7428  0.1258 -0.6576
              Bcc     0.0000     0.000     0.000     0.000  0.6334  0.1862  0.7511
 

 ---------------------------------------------------------------------------------

 No NMR shielding tensors so no spin-rotation constants.
 Leave Link  601 at Fri Jul 24 20:45:19 2020, MaxMem=  4026531840 cpu:               2.3 elap:               0.3
 (Enter /opt/ohpc/pub/libs/gaussian/g16-A.03/sandybridge/g16/l9999.exe)

 Test job not archived.
 1\1\GINC-SKYLAKE032\FOpt\ULC-wPBE\CC-pVDZ\C12H11F1O2S1\RDU230\24-Jul-2
 020\0\\#P uLC-wPBE/cc-pVDZ iop(3/107=0140200000, 3/108=0140200000) opt
 \\H11 C12 S1 O2 F1\\0,1\C,3.3306137227,-1.0455139904,0.3410531853\C,2.
 300199153,-1.9723269062,0.1720506555\C,0.9987513792,-1.4927529036,-0.0
 003294577\F,0.0116622038,-2.3965782345,-0.2008683481\C,0.6682023295,-0
 .1263291878,0.0072766632\C,1.7472033927,0.7885259631,0.1694902503\O,1.
 3930932879,2.1076234876,0.1491103048\C,2.4261025169,3.0746544715,0.293
 3807239\C,3.065784754,0.3317551763,0.335292532\C,-0.7274459325,0.31411
 32104,-0.1491244153\C,-1.8444807576,-0.1553166863,0.5398493423\O,-1.69
 02230141,-1.0687441903,1.5414403542\C,-2.8835327223,-1.5760199191,2.12
 46557993\C,-3.0756265309,0.4350847335,0.103800728\C,-2.8803677728,1.35
 05446874,-0.9073527627\S,-1.2143893939,1.5129117242,-1.3279139603\H,4.
 3634201546,-1.395579836,0.4746795781\H,2.4775428737,-3.0546786973,0.15
 83259895\H,1.925502264,4.0574407631,0.2402439786\H,3.1769615328,3.0007
 779745,-0.5229658565\H,2.9441340398,2.9800954047,1.2722932515\H,3.8896
 69936,1.0424178321,0.4665885455\H,-2.5636372599,-2.3202212085,2.875579
 226\H,-3.4680851059,-0.7776744146,2.6330135397\H,-3.5308243388,-2.0748
 414134,1.3706445153\H,-4.0616487256,0.2023004765,0.5196804195\H,-3.634
 9309865,1.956323683,-1.418957782\\Version=EM64L-G16RevA.03\State=1-A\H
 F=-1111.5707311\S2=0.\S2-1=0.\S2A=0.\RMSD=5.819e-09\RMSF=1.002e-05\Dip
 ole=0.0828692,0.4758149,0.4089706\Quadrupole=7.6647005,-0.886998,-6.77
 77025,3.8005468,-1.5411402,-2.6623943\PG=C01 [X(C12H11F1O2S1)]\\@


 BULLDOZER: SOMEONE WHO SLEEPS THROUGH SPEECHES.
 Job cpu time:       0 days  3 hours 50 minutes 41.9 seconds.
 Elapsed time:       0 days  0 hours 29 minutes 13.5 seconds.
 File lengths (MBytes):  RWF=    148 Int=      0 D2E=      0 Chk=     16 Scr=      8
 Normal termination of Gaussian 16 at Fri Jul 24 20:45:19 2020.
