 Entering Gaussian System, Link 0=g16
 Input=mols_55_5_09_COC-COC_opt_0.gjf
 Output=mols_55_5_09_COC-COC_opt_0.log
 Initial command:
 /opt/ohpc/pub/libs/gaussian/g16-A.03/sandybridge/g16/l1.exe "/mnt/gpfs2_4m/scratch/rdu230/ondemand/projects/dihedral_energies/7trial/wtuning/mols_55_5_09_COC-COC/Gau-178421.inp" -scrdir="/mnt/gpfs2_4m/scratch/rdu230/ondemand/projects/dihedral_energies/7trial/wtuning/mols_55_5_09_COC-COC/"
 Entering Link 1 = /opt/ohpc/pub/libs/gaussian/g16-A.03/sandybridge/g16/l1.exe PID=    178422.
  
 Copyright (c) 1988,1990,1992,1993,1995,1998,2003,2009,2016,
            Gaussian, Inc.  All Rights Reserved.
  
 This is part of the Gaussian(R) 16 program.  It is based on
 the Gaussian(R) 09 system (copyright 2009, Gaussian, Inc.),
 the Gaussian(R) 03 system (copyright 2003, Gaussian, Inc.),
 the Gaussian(R) 98 system (copyright 1998, Gaussian, Inc.),
 the Gaussian(R) 94 system (copyright 1995, Gaussian, Inc.),
 the Gaussian 92(TM) system (copyright 1992, Gaussian, Inc.),
 the Gaussian 90(TM) system (copyright 1990, Gaussian, Inc.),
 the Gaussian 88(TM) system (copyright 1988, Gaussian, Inc.),
 the Gaussian 86(TM) system (copyright 1986, Carnegie Mellon
 University), and the Gaussian 82(TM) system (copyright 1983,
 Carnegie Mellon University). Gaussian is a federally registered
 trademark of Gaussian, Inc.
  
 This software contains proprietary and confidential information,
 including trade secrets, belonging to Gaussian, Inc.
  
 This software is provided under written license and may be
 used, copied, transmitted, or stored only in accord with that
 written license.
  
 The following legend is applicable only to US Government
 contracts under FAR:
  
                    RESTRICTED RIGHTS LEGEND
  
 Use, reproduction and disclosure by the US Government is
 subject to restrictions as set forth in subparagraphs (a)
 and (c) of the Commercial Computer Software - Restricted
 Rights clause in FAR 52.227-19.
  
 Gaussian, Inc.
 340 Quinnipiac St., Bldg. 40, Wallingford CT 06492
  
  
 ---------------------------------------------------------------
 Warning -- This program may not be used in any manner that
 competes with the business of Gaussian, Inc. or will provide
 assistance to any competitor of Gaussian, Inc.  The licensee
 of this program is prohibited from giving any competitor of
 Gaussian, Inc. access to this program.  By using this program,
 the user acknowledges that Gaussian, Inc. is engaged in the
 business of creating and licensing software in the field of
 computational chemistry and represents and warrants to the
 licensee that it is not a competitor of Gaussian, Inc. and that
 it will not use this program in any manner prohibited above.
 ---------------------------------------------------------------
  

 Cite this work as:
 Gaussian 16, Revision A.03,
 M. J. Frisch, G. W. Trucks, H. B. Schlegel, G. E. Scuseria, 
 M. A. Robb, J. R. Cheeseman, G. Scalmani, V. Barone, 
 G. A. Petersson, H. Nakatsuji, X. Li, M. Caricato, A. V. Marenich, 
 J. Bloino, B. G. Janesko, R. Gomperts, B. Mennucci, H. P. Hratchian, 
 J. V. Ortiz, A. F. Izmaylov, J. L. Sonnenberg, D. Williams-Young, 
 F. Ding, F. Lipparini, F. Egidi, J. Goings, B. Peng, A. Petrone, 
 T. Henderson, D. Ranasinghe, V. G. Zakrzewski, J. Gao, N. Rega, 
 G. Zheng, W. Liang, M. Hada, M. Ehara, K. Toyota, R. Fukuda, 
 J. Hasegawa, M. Ishida, T. Nakajima, Y. Honda, O. Kitao, H. Nakai, 
 T. Vreven, K. Throssell, J. A. Montgomery, Jr., J. E. Peralta, 
 F. Ogliaro, M. J. Bearpark, J. J. Heyd, E. N. Brothers, K. N. Kudin, 
 V. N. Staroverov, T. A. Keith, R. Kobayashi, J. Normand, 
 K. Raghavachari, A. P. Rendell, J. C. Burant, S. S. Iyengar, 
 J. Tomasi, M. Cossi, J. M. Millam, M. Klene, C. Adamo, R. Cammi, 
 J. W. Ochterski, R. L. Martin, K. Morokuma, O. Farkas, 
 J. B. Foresman, and D. J. Fox, Gaussian, Inc., Wallingford CT, 2016.
 
 ******************************************
 Gaussian 16:  EM64L-G16RevA.03 25-Dec-2016
                25-Jul-2020 
 ******************************************
 %mem=30GB
 %nproc=8
 Will use up to    8 processors via shared memory.
 ---------------------------------------------------------------
 #P uLC-wPBE/cc-pVDZ iop(3/107=0451900000, 3/108=0451900000) opt
 ---------------------------------------------------------------
 1/18=20,19=15,26=3,38=1/1,3;
 2/9=110,12=2,17=6,18=5,40=1/2;
 3/5=16,11=2,25=1,30=1,71=1,74=-41,107=451900000,108=451900000,116=2/1,2,3;
 4//1;
 5/5=2,38=5/2;
 6/7=2,8=2,9=2,10=2,28=1/1;
 7//1,2,3,16;
 1/18=20,19=15,26=3/3(2);
 2/9=110/2;
 99//99;
 2/9=110/2;
 3/5=16,11=2,25=1,30=1,71=1,74=-41,107=451900000,108=451900000,116=2/1,2,3;
 4/5=5,16=3,69=1/1;
 5/5=2,38=5/2;
 7//1,2,3,16;
 1/18=20,19=15,26=3/3(-5);
 2/9=110/2;
 6/7=2,8=2,9=2,10=2,19=2,28=1/1;
 99/9=1/99;
 Leave Link    1 at Sat Jul 25 14:14:18 2020, MaxMem=  4026531840 cpu:               0.8 elap:               0.1
 (Enter /opt/ohpc/pub/libs/gaussian/g16-A.03/sandybridge/g16/l101.exe)
 ---------------
 H42 C50 S10 O10
 ---------------
 Symbolic Z-matrix:
 Charge =  0 Multiplicity = 1
 C                     17.94377  -1.64121   1.08807 
 C                     18.07531  -0.30706   0.77775 
 C                     16.82319   0.23234   0.30904 
 O                     16.50807   1.46109  -0.10936 
 C                     17.63281   2.35872   0.03225 
 C                     15.77194  -0.77966   0.24601 
 S                     16.43201  -2.26804   0.76995 
 C                     14.38356  -0.59106  -0.15455 
 C                     13.79291  -1.10466  -1.23227 
 O                     14.44815  -1.9933   -2.07442 
 C                     13.65666  -2.64714  -3.01447 
 C                     12.36317  -0.80203  -1.25557 
 C                     11.99152   0.04855  -0.23048 
 S                     13.42848   0.39304   0.79822 
 C                     10.75047   0.60405   0.0779 
 C                     10.34061   1.46721   1.11101 
 C                     8.96811   1.77764   1.15309 
 O                     8.34718   2.44878   2.10665 
 C                     9.03756   3.58653   2.5402 
 C                     8.29796   1.16796   0.16825 
 S                     9.35815   0.28204  -0.83494 
 C                     6.80152   1.16781  -0.09351 
 C                     6.08192   2.30204  -0.15472 
 O                     6.56392   3.54129  -0.10566 
 C                     5.62371   4.53999   0.29725 
 C                     4.64305   1.90751  -0.33423 
 C                     4.44609   0.52563  -0.44561 
 S                     5.98304  -0.27452  -0.32405 
 C                     3.16669  -0.11574  -0.55419 
 C                     2.95837  -1.37458  -1.25083 
 C                     1.65788  -1.77407  -1.16793 
 O                     1.04074  -2.82881  -1.68378 
 C                     1.94104  -3.87883  -2.07039 
 C                     0.87622  -0.85279  -0.47006 
 S                     1.725     0.45288   0.0502 
 C                    -0.57419  -0.96867  -0.18562 
 C                    -1.20252  -2.01436   0.61279 
 O                    -0.47192  -2.96678   1.13985 
 C                    -1.15595  -4.07991   1.57671 
 C                    -2.56423  -1.80065   0.7123 
 C                    -3.05019  -0.63491   0.10132 
 S                    -1.67101   0.16971  -0.63714 
 C                    -4.38801  -0.06743   0.05348 
 C                    -4.81679   1.22207  -0.07184 
 C                    -6.14809   1.377     0.02268 
 O                    -6.87265   2.55964   0.03395 
 C                    -6.20937   3.7186   -0.2504 
 C                    -6.80149   0.1484    0.15947 
 S                    -5.72501  -1.09241   0.05404 
 C                    -8.23555  -0.0737    0.30413 
 C                    -8.88002  -1.02606   1.10347 
 O                    -8.16479  -1.84867   1.96692 
 C                    -8.83003  -2.90538   2.63996 
 C                    -10.28141  -1.00552   1.04357 
 C                    -10.7874  -0.03961   0.12724 
 S                    -9.43309   0.69449  -0.63932 
 C                    -12.0997   0.28872  -0.11488 
 C                    -12.61019   1.57412  -0.56252 
 C                    -14.03145   1.51404  -0.70824 
 O                    -14.82759   2.53429  -1.15913 
 C                    -14.14705   3.82521  -1.48742 
 C                    -14.55182   0.32911  -0.39507 
 S                    -13.40462  -0.82623   0.02976 
 C                    -16.02358   0.00303  -0.40771 
 C                    -16.78497  -0.58893   0.63089 
 O                    -16.24296  -0.67446   1.87358 
 C                    -17.06185  -1.3872    2.73985 
 C                    -18.09521  -0.76375   0.19249 
 C                    -18.33376  -0.46237  -1.16076 
 S                    -16.85979   0.10921  -1.87885 
 H                     18.68042  -2.33603   1.43219 
 H                     18.95154   0.18029   0.8448 
 H                     18.42831   2.11501  -0.59979 
 H                     17.28959   3.36959  -0.23351 
 H                     17.93336   2.43307   1.11371 
 H                     13.16305  -1.94073  -3.71376 
 H                     12.89827  -3.27382  -2.51632 
 H                     14.19994  -3.32463  -3.58156 
 H                     11.69424  -1.08169  -2.05185 
 H                     11.06695   1.84378   1.92097 
 H                     9.44941   4.18253   1.74386 
 H                     9.83676   3.32774   3.26982 
 H                     8.32202   4.22987   3.20236 
 H                     5.03589   4.25464   1.13281 
 H                     6.15909   5.47971   0.44536 
 H                     4.98437   4.77718  -0.57079 
 H                     3.90868   2.65707  -0.46075 
 H                     3.73788  -1.92537  -1.70987 
 H                     2.64793  -3.61575  -2.8896 
 H                     1.40264  -4.74523  -2.31216 
 H                     2.60175  -4.23496  -1.16924 
 H                    -1.84516  -4.49214   0.75595 
 H                    -1.83452  -3.87728   2.45623 
 H                    -0.51762  -4.84968   1.86105 
 H                    -3.27459  -2.42145   1.25056 
 H                    -4.03567   2.0584   -0.0558 
 H                    -6.91136   4.53173  -0.27905 
 H                    -5.42359   3.89037   0.46199 
 H                    -5.7288    3.59079  -1.29605 
 H                    -9.399    -3.51156   1.89745 
 H                    -8.0832   -3.53039   3.10188 
 H                    -9.54136  -2.46427   3.40246 
 H                    -10.9865  -1.53794   1.70554 
 H                    -11.94773   2.39968  -0.82976 
 H                    -13.62583   4.16263  -0.58694 
 H                    -13.42261   3.65755  -2.30301 
 H                    -14.90761   4.47315  -1.85119 
 H                    -17.89375  -0.84046   3.01547 
 H                    -16.4445  -1.54412   3.68654 
 H                    -17.30842  -2.41409   2.34204 
 H                    -18.93207  -1.22804   0.85395 
 H                    -19.24343  -0.61067  -1.65068 
 
 ITRead=  0  0  0  0  0  0  0  0  0  0  0  0  0  0  0  0  0  0  0  0
 ITRead=  0  0  0  0  0  0  0  0  0  0  0  0  0  0  0  0  0  0  0  0
 ITRead=  0  0  0  0  0  0  0  0  0  0  0  0  0  0  0  0  0  0  0  0
 ITRead=  0  0  0  0  0  0  0  0  0  0  0  0  0  0  0  0  0  0  0  0
 ITRead=  0  0  0  0  0  0  0  0  0  0  0  0  0  0  0  0  0  0  0  0
 ITRead=  0  0  0  0  0  0  0  0  0  0  0  0
 MicOpt= -1 -1 -1 -1 -1 -1 -1 -1 -1 -1 -1 -1 -1 -1 -1 -1 -1 -1 -1 -1
 MicOpt= -1 -1 -1 -1 -1 -1 -1 -1 -1 -1 -1 -1 -1 -1 -1 -1 -1 -1 -1 -1
 MicOpt= -1 -1 -1 -1 -1 -1 -1 -1 -1 -1 -1 -1 -1 -1 -1 -1 -1 -1 -1 -1
 MicOpt= -1 -1 -1 -1 -1 -1 -1 -1 -1 -1 -1 -1 -1 -1 -1 -1 -1 -1 -1 -1
 MicOpt= -1 -1 -1 -1 -1 -1 -1 -1 -1 -1 -1 -1 -1 -1 -1 -1 -1 -1 -1 -1
 MicOpt= -1 -1 -1 -1 -1 -1 -1 -1 -1 -1 -1 -1
 NAtoms=    112 NQM=      112 NQMF=       0 NMMI=      0 NMMIF=      0
                NMic=       0 NMicF=      0.
                    Isotopes and Nuclear Properties:
 (Nuclear quadrupole moments (NQMom) in fm**2, nuclear magnetic moments (NMagM)
  in nuclear magnetons)

  Atom         1           2           3           4           5           6           7           8           9          10
 IAtWgt=          12          12          12          16          12          12          32          12          12          16
 AtmWgt=  12.0000000  12.0000000  12.0000000  15.9949146  12.0000000  12.0000000  31.9720718  12.0000000  12.0000000  15.9949146
 NucSpn=           0           0           0           0           0           0           0           0           0           0
 AtZEff=  -0.0000000  -0.0000000  -0.0000000  -0.0000000  -0.0000000  -0.0000000  -0.0000000  -0.0000000  -0.0000000  -0.0000000
 NQMom=    0.0000000   0.0000000   0.0000000   0.0000000   0.0000000   0.0000000   0.0000000   0.0000000   0.0000000   0.0000000
 NMagM=    0.0000000   0.0000000   0.0000000   0.0000000   0.0000000   0.0000000   0.0000000   0.0000000   0.0000000   0.0000000
 AtZNuc=   6.0000000   6.0000000   6.0000000   8.0000000   6.0000000   6.0000000  16.0000000   6.0000000   6.0000000   8.0000000

  Atom        11          12          13          14          15          16          17          18          19          20
 IAtWgt=          12          12          12          32          12          12          12          16          12          12
 AtmWgt=  12.0000000  12.0000000  12.0000000  31.9720718  12.0000000  12.0000000  12.0000000  15.9949146  12.0000000  12.0000000
 NucSpn=           0           0           0           0           0           0           0           0           0           0
 AtZEff=  -0.0000000  -0.0000000  -0.0000000  -0.0000000  -0.0000000  -0.0000000  -0.0000000  -0.0000000  -0.0000000  -0.0000000
 NQMom=    0.0000000   0.0000000   0.0000000   0.0000000   0.0000000   0.0000000   0.0000000   0.0000000   0.0000000   0.0000000
 NMagM=    0.0000000   0.0000000   0.0000000   0.0000000   0.0000000   0.0000000   0.0000000   0.0000000   0.0000000   0.0000000
 AtZNuc=   6.0000000   6.0000000   6.0000000  16.0000000   6.0000000   6.0000000   6.0000000   8.0000000   6.0000000   6.0000000

  Atom        21          22          23          24          25          26          27          28          29          30
 IAtWgt=          32          12          12          16          12          12          12          32          12          12
 AtmWgt=  31.9720718  12.0000000  12.0000000  15.9949146  12.0000000  12.0000000  12.0000000  31.9720718  12.0000000  12.0000000
 NucSpn=           0           0           0           0           0           0           0           0           0           0
 AtZEff=  -0.0000000  -0.0000000  -0.0000000  -0.0000000  -0.0000000  -0.0000000  -0.0000000  -0.0000000  -0.0000000  -0.0000000
 NQMom=    0.0000000   0.0000000   0.0000000   0.0000000   0.0000000   0.0000000   0.0000000   0.0000000   0.0000000   0.0000000
 NMagM=    0.0000000   0.0000000   0.0000000   0.0000000   0.0000000   0.0000000   0.0000000   0.0000000   0.0000000   0.0000000
 AtZNuc=  16.0000000   6.0000000   6.0000000   8.0000000   6.0000000   6.0000000   6.0000000  16.0000000   6.0000000   6.0000000

  Atom        31          32          33          34          35          36          37          38          39          40
 IAtWgt=          12          16          12          12          32          12          12          16          12          12
 AtmWgt=  12.0000000  15.9949146  12.0000000  12.0000000  31.9720718  12.0000000  12.0000000  15.9949146  12.0000000  12.0000000
 NucSpn=           0           0           0           0           0           0           0           0           0           0
 AtZEff=  -0.0000000  -0.0000000  -0.0000000  -0.0000000  -0.0000000  -0.0000000  -0.0000000  -0.0000000  -0.0000000  -0.0000000
 NQMom=    0.0000000   0.0000000   0.0000000   0.0000000   0.0000000   0.0000000   0.0000000   0.0000000   0.0000000   0.0000000
 NMagM=    0.0000000   0.0000000   0.0000000   0.0000000   0.0000000   0.0000000   0.0000000   0.0000000   0.0000000   0.0000000
 AtZNuc=   6.0000000   8.0000000   6.0000000   6.0000000  16.0000000   6.0000000   6.0000000   8.0000000   6.0000000   6.0000000

  Atom        41          42          43          44          45          46          47          48          49          50
 IAtWgt=          12          32          12          12          12          16          12          12          32          12
 AtmWgt=  12.0000000  31.9720718  12.0000000  12.0000000  12.0000000  15.9949146  12.0000000  12.0000000  31.9720718  12.0000000
 NucSpn=           0           0           0           0           0           0           0           0           0           0
 AtZEff=  -0.0000000  -0.0000000  -0.0000000  -0.0000000  -0.0000000  -0.0000000  -0.0000000  -0.0000000  -0.0000000  -0.0000000
 NQMom=    0.0000000   0.0000000   0.0000000   0.0000000   0.0000000   0.0000000   0.0000000   0.0000000   0.0000000   0.0000000
 NMagM=    0.0000000   0.0000000   0.0000000   0.0000000   0.0000000   0.0000000   0.0000000   0.0000000   0.0000000   0.0000000
 AtZNuc=   6.0000000  16.0000000   6.0000000   6.0000000   6.0000000   8.0000000   6.0000000   6.0000000  16.0000000   6.0000000

  Atom        51          52          53          54          55          56          57          58          59          60
 IAtWgt=          12          16          12          12          12          32          12          12          12          16
 AtmWgt=  12.0000000  15.9949146  12.0000000  12.0000000  12.0000000  31.9720718  12.0000000  12.0000000  12.0000000  15.9949146
 NucSpn=           0           0           0           0           0           0           0           0           0           0
 AtZEff=  -0.0000000  -0.0000000  -0.0000000  -0.0000000  -0.0000000  -0.0000000  -0.0000000  -0.0000000  -0.0000000  -0.0000000
 NQMom=    0.0000000   0.0000000   0.0000000   0.0000000   0.0000000   0.0000000   0.0000000   0.0000000   0.0000000   0.0000000
 NMagM=    0.0000000   0.0000000   0.0000000   0.0000000   0.0000000   0.0000000   0.0000000   0.0000000   0.0000000   0.0000000
 AtZNuc=   6.0000000   8.0000000   6.0000000   6.0000000   6.0000000  16.0000000   6.0000000   6.0000000   6.0000000   8.0000000

  Atom        61          62          63          64          65          66          67          68          69          70
 IAtWgt=          12          12          32          12          12          16          12          12          12          32
 AtmWgt=  12.0000000  12.0000000  31.9720718  12.0000000  12.0000000  15.9949146  12.0000000  12.0000000  12.0000000  31.9720718
 NucSpn=           0           0           0           0           0           0           0           0           0           0
 AtZEff=  -0.0000000  -0.0000000  -0.0000000  -0.0000000  -0.0000000  -0.0000000  -0.0000000  -0.0000000  -0.0000000  -0.0000000
 NQMom=    0.0000000   0.0000000   0.0000000   0.0000000   0.0000000   0.0000000   0.0000000   0.0000000   0.0000000   0.0000000
 NMagM=    0.0000000   0.0000000   0.0000000   0.0000000   0.0000000   0.0000000   0.0000000   0.0000000   0.0000000   0.0000000
 AtZNuc=   6.0000000   6.0000000  16.0000000   6.0000000   6.0000000   8.0000000   6.0000000   6.0000000   6.0000000  16.0000000

  Atom        71          72          73          74          75          76          77          78          79          80
 IAtWgt=           1           1           1           1           1           1           1           1           1           1
 AtmWgt=   1.0078250   1.0078250   1.0078250   1.0078250   1.0078250   1.0078250   1.0078250   1.0078250   1.0078250   1.0078250
 NucSpn=           1           1           1           1           1           1           1           1           1           1
 AtZEff=  -0.0000000  -0.0000000  -0.0000000  -0.0000000  -0.0000000  -0.0000000  -0.0000000  -0.0000000  -0.0000000  -0.0000000
 NQMom=    0.0000000   0.0000000   0.0000000   0.0000000   0.0000000   0.0000000   0.0000000   0.0000000   0.0000000   0.0000000
 NMagM=    2.7928460   2.7928460   2.7928460   2.7928460   2.7928460   2.7928460   2.7928460   2.7928460   2.7928460   2.7928460
 AtZNuc=   1.0000000   1.0000000   1.0000000   1.0000000   1.0000000   1.0000000   1.0000000   1.0000000   1.0000000   1.0000000

  Atom        81          82          83          84          85          86          87          88          89          90
 IAtWgt=           1           1           1           1           1           1           1           1           1           1
 AtmWgt=   1.0078250   1.0078250   1.0078250   1.0078250   1.0078250   1.0078250   1.0078250   1.0078250   1.0078250   1.0078250
 NucSpn=           1           1           1           1           1           1           1           1           1           1
 AtZEff=  -0.0000000  -0.0000000  -0.0000000  -0.0000000  -0.0000000  -0.0000000  -0.0000000  -0.0000000  -0.0000000  -0.0000000
 NQMom=    0.0000000   0.0000000   0.0000000   0.0000000   0.0000000   0.0000000   0.0000000   0.0000000   0.0000000   0.0000000
 NMagM=    2.7928460   2.7928460   2.7928460   2.7928460   2.7928460   2.7928460   2.7928460   2.7928460   2.7928460   2.7928460
 AtZNuc=   1.0000000   1.0000000   1.0000000   1.0000000   1.0000000   1.0000000   1.0000000   1.0000000   1.0000000   1.0000000

  Atom        91          92          93          94          95          96          97          98          99         100
 IAtWgt=           1           1           1           1           1           1           1           1           1           1
 AtmWgt=   1.0078250   1.0078250   1.0078250   1.0078250   1.0078250   1.0078250   1.0078250   1.0078250   1.0078250   1.0078250
 NucSpn=           1           1           1           1           1           1           1           1           1           1
 AtZEff=  -0.0000000  -0.0000000  -0.0000000  -0.0000000  -0.0000000  -0.0000000  -0.0000000  -0.0000000  -0.0000000  -0.0000000
 NQMom=    0.0000000   0.0000000   0.0000000   0.0000000   0.0000000   0.0000000   0.0000000   0.0000000   0.0000000   0.0000000
 NMagM=    2.7928460   2.7928460   2.7928460   2.7928460   2.7928460   2.7928460   2.7928460   2.7928460   2.7928460   2.7928460
 AtZNuc=   1.0000000   1.0000000   1.0000000   1.0000000   1.0000000   1.0000000   1.0000000   1.0000000   1.0000000   1.0000000

  Atom       101         102         103         104         105         106         107         108         109         110
 IAtWgt=           1           1           1           1           1           1           1           1           1           1
 AtmWgt=   1.0078250   1.0078250   1.0078250   1.0078250   1.0078250   1.0078250   1.0078250   1.0078250   1.0078250   1.0078250
 NucSpn=           1           1           1           1           1           1           1           1           1           1
 AtZEff=  -0.0000000  -0.0000000  -0.0000000  -0.0000000  -0.0000000  -0.0000000  -0.0000000  -0.0000000  -0.0000000  -0.0000000
 NQMom=    0.0000000   0.0000000   0.0000000   0.0000000   0.0000000   0.0000000   0.0000000   0.0000000   0.0000000   0.0000000
 NMagM=    2.7928460   2.7928460   2.7928460   2.7928460   2.7928460   2.7928460   2.7928460   2.7928460   2.7928460   2.7928460
 AtZNuc=   1.0000000   1.0000000   1.0000000   1.0000000   1.0000000   1.0000000   1.0000000   1.0000000   1.0000000   1.0000000

  Atom       111         112
 IAtWgt=           1           1
 AtmWgt=   1.0078250   1.0078250
 NucSpn=           1           1
 AtZEff=  -0.0000000  -0.0000000
 NQMom=    0.0000000   0.0000000
 NMagM=    2.7928460   2.7928460
 AtZNuc=   1.0000000   1.0000000
 Leave Link  101 at Sat Jul 25 14:14:18 2020, MaxMem=  4026531840 cpu:               3.2 elap:               0.4
 (Enter /opt/ohpc/pub/libs/gaussian/g16-A.03/sandybridge/g16/l103.exe)

 GradGradGradGradGradGradGradGradGradGradGradGradGradGradGradGradGradGrad
 Berny optimization.
 Initialization pass.
                           ----------------------------
                           !    Initial Parameters    !
                           ! (Angstroms and Degrees)  !
 --------------------------                            --------------------------
 ! Name  Definition              Value          Derivative Info.                !
 --------------------------------------------------------------------------------
 ! R1    R(1,2)                  1.3761         estimate D2E/DX2                !
 ! R2    R(1,7)                  1.6672         estimate D2E/DX2                !
 ! R3    R(1,71)                 1.0695         estimate D2E/DX2                !
 ! R4    R(2,3)                  1.4417         estimate D2E/DX2                !
 ! R5    R(2,72)                 1.0049         estimate D2E/DX2                !
 ! R6    R(3,4)                  1.3357         estimate D2E/DX2                !
 ! R7    R(3,6)                  1.4606         estimate D2E/DX2                !
 ! R8    R(4,5)                  1.446          estimate D2E/DX2                !
 ! R9    R(5,73)                 1.0448         estimate D2E/DX2                !
 ! R10   R(5,74)                 1.1001         estimate D2E/DX2                !
 ! R11   R(5,75)                 1.1249         estimate D2E/DX2                !
 ! R12   R(6,7)                  1.7104         estimate D2E/DX2                !
 ! R13   R(6,8)                  1.4573         estimate D2E/DX2                !
 ! R14   R(8,9)                  1.332          estimate D2E/DX2                !
 ! R15   R(8,14)                 1.6698         estimate D2E/DX2                !
 ! R16   R(9,10)                 1.3886         estimate D2E/DX2                !
 ! R17   R(9,12)                 1.4616         estimate D2E/DX2                !
 ! R18   R(10,11)                1.392          estimate D2E/DX2                !
 ! R19   R(11,76)                1.1098         estimate D2E/DX2                !
 ! R20   R(11,77)                1.1027         estimate D2E/DX2                !
 ! R21   R(11,78)                1.0372         estimate D2E/DX2                !
 ! R22   R(12,13)                1.3829         estimate D2E/DX2                !
 ! R23   R(12,79)                1.0769         estimate D2E/DX2                !
 ! R24   R(13,14)                1.8005         estimate D2E/DX2                !
 ! R25   R(13,15)                1.3942         estimate D2E/DX2                !
 ! R26   R(15,16)                1.4072         estimate D2E/DX2                !
 ! R27   R(15,21)                1.6957         estimate D2E/DX2                !
 ! R28   R(16,17)                1.4078         estimate D2E/DX2                !
 ! R29   R(16,80)                1.1513         estimate D2E/DX2                !
 ! R30   R(17,18)                1.3211         estimate D2E/DX2                !
 ! R31   R(17,20)                1.3382         estimate D2E/DX2                !
 ! R32   R(18,19)                1.3997         estimate D2E/DX2                !
 ! R33   R(19,81)                1.0766         estimate D2E/DX2                !
 ! R34   R(19,82)                1.1127         estimate D2E/DX2                !
 ! R35   R(19,83)                1.1681         estimate D2E/DX2                !
 ! R36   R(20,21)                1.7074         estimate D2E/DX2                !
 ! R37   R(20,22)                1.5192         estimate D2E/DX2                !
 ! R38   R(22,23)                1.3446         estimate D2E/DX2                !
 ! R39   R(22,28)                1.6743         estimate D2E/DX2                !
 ! R40   R(23,24)                1.3306         estimate D2E/DX2                !
 ! R41   R(23,26)                1.5027         estimate D2E/DX2                !
 ! R42   R(24,25)                1.4296         estimate D2E/DX2                !
 ! R43   R(25,84)                1.0607         estimate D2E/DX2                !
 ! R44   R(25,85)                1.0916         estimate D2E/DX2                !
 ! R45   R(25,86)                1.1039         estimate D2E/DX2                !
 ! R46   R(26,27)                1.4003         estimate D2E/DX2                !
 ! R47   R(26,87)                1.057          estimate D2E/DX2                !
 ! R48   R(27,28)                1.737          estimate D2E/DX2                !
 ! R49   R(27,29)                1.4353         estimate D2E/DX2                !
 ! R50   R(29,30)                1.4537         estimate D2E/DX2                !
 ! R51   R(29,35)                1.6635         estimate D2E/DX2                !
 ! R52   R(30,31)                1.363          estimate D2E/DX2                !
 ! R53   R(30,88)                1.0591         estimate D2E/DX2                !
 ! R54   R(31,32)                1.3264         estimate D2E/DX2                !
 ! R55   R(31,34)                1.3953         estimate D2E/DX2                !
 ! R56   R(32,33)                1.4362         estimate D2E/DX2                !
 ! R57   R(33,89)                1.1136         estimate D2E/DX2                !
 ! R58   R(33,90)                1.0483         estimate D2E/DX2                !
 ! R59   R(33,91)                1.1728         estimate D2E/DX2                !
 ! R60   R(34,35)                1.6419         estimate D2E/DX2                !
 ! R61   R(34,36)                1.4826         estimate D2E/DX2                !
 ! R62   R(36,37)                1.458          estimate D2E/DX2                !
 ! R63   R(36,42)                1.644          estimate D2E/DX2                !
 ! R64   R(37,38)                1.311          estimate D2E/DX2                !
 ! R65   R(37,40)                1.382          estimate D2E/DX2                !
 ! R66   R(38,39)                1.3776         estimate D2E/DX2                !
 ! R67   R(39,92)                1.1483         estimate D2E/DX2                !
 ! R68   R(39,93)                1.1292         estimate D2E/DX2                !
 ! R69   R(39,94)                1.0396         estimate D2E/DX2                !
 ! R70   R(40,41)                1.403          estimate D2E/DX2                !
 ! R71   R(40,95)                1.0862         estimate D2E/DX2                !
 ! R72   R(41,42)                1.7592         estimate D2E/DX2                !
 ! R73   R(41,43)                1.454          estimate D2E/DX2                !
 ! R74   R(43,44)                1.3647         estimate D2E/DX2                !
 ! R75   R(43,49)                1.6847         estimate D2E/DX2                !
 ! R76   R(44,45)                1.3436         estimate D2E/DX2                !
 ! R77   R(44,96)                1.1445         estimate D2E/DX2                !
 ! R78   R(45,46)                1.387          estimate D2E/DX2                !
 ! R79   R(45,48)                1.3982         estimate D2E/DX2                !
 ! R80   R(46,47)                1.3653         estimate D2E/DX2                !
 ! R81   R(47,97)                1.0746         estimate D2E/DX2                !
 ! R82   R(47,98)                1.0745         estimate D2E/DX2                !
 ! R83   R(47,99)                1.1579         estimate D2E/DX2                !
 ! R84   R(48,49)                1.6461         estimate D2E/DX2                !
 ! R85   R(48,50)                1.4584         estimate D2E/DX2                !
 ! R86   R(50,51)                1.4005         estimate D2E/DX2                !
 ! R87   R(50,56)                1.7071         estimate D2E/DX2                !
 ! R88   R(51,52)                1.3906         estimate D2E/DX2                !
 ! R89   R(51,54)                1.4028         estimate D2E/DX2                !
 ! R90   R(52,53)                1.4185         estimate D2E/DX2                !
 ! R91   R(53,100)               1.1147         estimate D2E/DX2                !
 ! R92   R(53,101)               1.0779         estimate D2E/DX2                !
 ! R93   R(53,102)               1.1322         estimate D2E/DX2                !
 ! R94   R(54,55)                1.4243         estimate D2E/DX2                !
 ! R95   R(54,103)               1.104          estimate D2E/DX2                !
 ! R96   R(55,56)                1.7207         estimate D2E/DX2                !
 ! R97   R(55,57)                1.3742         estimate D2E/DX2                !
 ! R98   R(57,58)                1.4537         estimate D2E/DX2                !
 ! R99   R(57,63)                1.7225         estimate D2E/DX2                !
 ! R100  R(58,59)                1.43           estimate D2E/DX2                !
 ! R101  R(58,104)               1.0917         estimate D2E/DX2                !
 ! R102  R(59,60)                1.3704         estimate D2E/DX2                !
 ! R103  R(59,62)                1.3315         estimate D2E/DX2                !
 ! R104  R(60,61)                1.4958         estimate D2E/DX2                !
 ! R105  R(61,105)               1.0938         estimate D2E/DX2                !
 ! R106  R(61,106)               1.1037         estimate D2E/DX2                !
 ! R107  R(61,107)               1.0633         estimate D2E/DX2                !
 ! R108  R(62,63)                1.6827         estimate D2E/DX2                !
 ! R109  R(62,64)                1.5075         estimate D2E/DX2                !
 ! R110  R(64,65)                1.4173         estimate D2E/DX2                !
 ! R111  R(64,70)                1.6955         estimate D2E/DX2                !
 ! R112  R(65,66)                1.3584         estimate D2E/DX2                !
 ! R113  R(65,68)                1.3927         estimate D2E/DX2                !
 ! R114  R(66,67)                1.3889         estimate D2E/DX2                !
 ! R115  R(67,108)               1.0329         estimate D2E/DX2                !
 ! R116  R(67,109)               1.141          estimate D2E/DX2                !
 ! R117  R(67,110)               1.1285         estimate D2E/DX2                !
 ! R118  R(68,69)                1.4068         estimate D2E/DX2                !
 ! R119  R(68,111)               1.1634         estimate D2E/DX2                !
 ! R120  R(69,70)                1.7364         estimate D2E/DX2                !
 ! R121  R(69,112)               1.0438         estimate D2E/DX2                !
 ! A1    A(2,1,7)              114.0905         estimate D2E/DX2                !
 ! A2    A(2,1,71)             129.5381         estimate D2E/DX2                !
 ! A3    A(7,1,71)             116.212          estimate D2E/DX2                !
 ! A4    A(1,2,3)              110.6738         estimate D2E/DX2                !
 ! A5    A(1,2,72)             122.5821         estimate D2E/DX2                !
 ! A6    A(3,2,72)             126.6958         estimate D2E/DX2                !
 ! A7    A(2,3,4)              130.6106         estimate D2E/DX2                !
 ! A8    A(2,3,6)              112.3279         estimate D2E/DX2                !
 ! A9    A(4,3,6)              117.005          estimate D2E/DX2                !
 ! A10   A(3,4,5)              110.9085         estimate D2E/DX2                !
 ! A11   A(4,5,73)             112.8414         estimate D2E/DX2                !
 ! A12   A(4,5,74)             107.7031         estimate D2E/DX2                !
 ! A13   A(4,5,75)             110.0596         estimate D2E/DX2                !
 ! A14   A(73,5,74)            107.8022         estimate D2E/DX2                !
 ! A15   A(73,5,75)            113.1757         estimate D2E/DX2                !
 ! A16   A(74,5,75)            104.7652         estimate D2E/DX2                !
 ! A17   A(3,6,7)              108.1771         estimate D2E/DX2                !
 ! A18   A(3,6,8)              127.4394         estimate D2E/DX2                !
 ! A19   A(7,6,8)              124.3674         estimate D2E/DX2                !
 ! A20   A(1,7,6)               94.6581         estimate D2E/DX2                !
 ! A21   A(6,8,9)              126.5113         estimate D2E/DX2                !
 ! A22   A(6,8,14)             117.6685         estimate D2E/DX2                !
 ! A23   A(9,8,14)             115.803          estimate D2E/DX2                !
 ! A24   A(8,9,10)             121.8855         estimate D2E/DX2                !
 ! A25   A(8,9,12)             111.5207         estimate D2E/DX2                !
 ! A26   A(10,9,12)            125.7615         estimate D2E/DX2                !
 ! A27   A(9,10,11)            116.2221         estimate D2E/DX2                !
 ! A28   A(10,11,76)           112.2988         estimate D2E/DX2                !
 ! A29   A(10,11,77)           110.6655         estimate D2E/DX2                !
 ! A30   A(10,11,78)           112.2239         estimate D2E/DX2                !
 ! A31   A(76,11,77)           109.9064         estimate D2E/DX2                !
 ! A32   A(76,11,78)           107.7118         estimate D2E/DX2                !
 ! A33   A(77,11,78)           103.6521         estimate D2E/DX2                !
 ! A34   A(9,12,13)            112.2358         estimate D2E/DX2                !
 ! A35   A(9,12,79)            124.4462         estimate D2E/DX2                !
 ! A36   A(13,12,79)           122.7442         estimate D2E/DX2                !
 ! A37   A(12,13,14)           109.0693         estimate D2E/DX2                !
 ! A38   A(12,13,15)           130.4086         estimate D2E/DX2                !
 ! A39   A(14,13,15)           120.5179         estimate D2E/DX2                !
 ! A40   A(8,14,13)             91.0155         estimate D2E/DX2                !
 ! A41   A(13,15,16)           131.7601         estimate D2E/DX2                !
 ! A42   A(13,15,21)           122.4209         estimate D2E/DX2                !
 ! A43   A(16,15,21)           105.815          estimate D2E/DX2                !
 ! A44   A(15,16,17)           116.1772         estimate D2E/DX2                !
 ! A45   A(15,16,80)           122.2331         estimate D2E/DX2                !
 ! A46   A(17,16,80)           121.4619         estimate D2E/DX2                !
 ! A47   A(16,17,18)           126.2871         estimate D2E/DX2                !
 ! A48   A(16,17,20)           111.4547         estimate D2E/DX2                !
 ! A49   A(18,17,20)           121.8229         estimate D2E/DX2                !
 ! A50   A(17,18,19)           113.8726         estimate D2E/DX2                !
 ! A51   A(18,19,81)           114.1791         estimate D2E/DX2                !
 ! A52   A(18,19,82)           111.613          estimate D2E/DX2                !
 ! A53   A(18,19,83)           108.7329         estimate D2E/DX2                !
 ! A54   A(81,19,82)           109.818          estimate D2E/DX2                !
 ! A55   A(81,19,83)           110.4118         estimate D2E/DX2                !
 ! A56   A(82,19,83)           101.3248         estimate D2E/DX2                !
 ! A57   A(17,20,21)           110.9687         estimate D2E/DX2                !
 ! A58   A(17,20,22)           128.3272         estimate D2E/DX2                !
 ! A59   A(21,20,22)           120.6877         estimate D2E/DX2                !
 ! A60   A(15,21,20)            95.452          estimate D2E/DX2                !
 ! A61   A(20,22,23)           122.3387         estimate D2E/DX2                !
 ! A62   A(20,22,28)           120.3537         estimate D2E/DX2                !
 ! A63   A(23,22,28)           117.3073         estimate D2E/DX2                !
 ! A64   A(22,23,24)           126.1624         estimate D2E/DX2                !
 ! A65   A(22,23,26)           107.2414         estimate D2E/DX2                !
 ! A66   A(24,23,26)           126.5676         estimate D2E/DX2                !
 ! A67   A(23,24,25)           115.011          estimate D2E/DX2                !
 ! A68   A(24,25,84)           113.4866         estimate D2E/DX2                !
 ! A69   A(24,25,85)           108.4856         estimate D2E/DX2                !
 ! A70   A(24,25,86)           108.0232         estimate D2E/DX2                !
 ! A71   A(84,25,85)           113.3598         estimate D2E/DX2                !
 ! A72   A(84,25,86)           110.8717         estimate D2E/DX2                !
 ! A73   A(85,25,86)           101.8755         estimate D2E/DX2                !
 ! A74   A(23,26,27)           113.783          estimate D2E/DX2                !
 ! A75   A(23,26,87)           119.5632         estimate D2E/DX2                !
 ! A76   A(27,26,87)           126.3416         estimate D2E/DX2                !
 ! A77   A(26,27,28)           108.9394         estimate D2E/DX2                !
 ! A78   A(26,27,29)           124.9173         estimate D2E/DX2                !
 ! A79   A(28,27,29)           126.0275         estimate D2E/DX2                !
 ! A80   A(22,28,27)            92.5993         estimate D2E/DX2                !
 ! A81   A(27,29,30)           123.4318         estimate D2E/DX2                !
 ! A82   A(27,29,35)           126.322          estimate D2E/DX2                !
 ! A83   A(30,29,35)           110.2374         estimate D2E/DX2                !
 ! A84   A(29,30,31)           111.1859         estimate D2E/DX2                !
 ! A85   A(29,30,88)           123.542          estimate D2E/DX2                !
 ! A86   A(31,30,88)           125.1824         estimate D2E/DX2                !
 ! A87   A(30,31,32)           130.794          estimate D2E/DX2                !
 ! A88   A(30,31,34)           111.8029         estimate D2E/DX2                !
 ! A89   A(32,31,34)           117.3167         estimate D2E/DX2                !
 ! A90   A(31,32,33)           113.2284         estimate D2E/DX2                !
 ! A91   A(32,33,89)           115.04           estimate D2E/DX2                !
 ! A92   A(32,33,90)           110.1439         estimate D2E/DX2                !
 ! A93   A(32,33,91)           111.6129         estimate D2E/DX2                !
 ! A94   A(89,33,90)           110.5859         estimate D2E/DX2                !
 ! A95   A(89,33,91)           106.2244         estimate D2E/DX2                !
 ! A96   A(90,33,91)           102.4494         estimate D2E/DX2                !
 ! A97   A(31,34,35)           113.2009         estimate D2E/DX2                !
 ! A98   A(31,34,36)           126.3288         estimate D2E/DX2                !
 ! A99   A(35,34,36)           120.4703         estimate D2E/DX2                !
 ! A100  A(29,35,34)            93.5013         estimate D2E/DX2                !
 ! A101  A(34,36,37)           125.6428         estimate D2E/DX2                !
 ! A102  A(34,36,42)           123.0847         estimate D2E/DX2                !
 ! A103  A(37,36,42)           111.0694         estimate D2E/DX2                !
 ! A104  A(36,37,38)           120.0687         estimate D2E/DX2                !
 ! A105  A(36,37,40)           110.6809         estimate D2E/DX2                !
 ! A106  A(38,37,40)           129.2366         estimate D2E/DX2                !
 ! A107  A(37,38,39)           115.9636         estimate D2E/DX2                !
 ! A108  A(38,39,92)           111.1878         estimate D2E/DX2                !
 ! A109  A(38,39,93)           113.6022         estimate D2E/DX2                !
 ! A110  A(38,39,94)           112.3421         estimate D2E/DX2                !
 ! A111  A(92,39,93)           105.0974         estimate D2E/DX2                !
 ! A112  A(92,39,94)           107.3499         estimate D2E/DX2                !
 ! A113  A(93,39,94)           106.7865         estimate D2E/DX2                !
 ! A114  A(37,40,41)           116.004          estimate D2E/DX2                !
 ! A115  A(37,40,95)           126.2791         estimate D2E/DX2                !
 ! A116  A(41,40,95)           117.6574         estimate D2E/DX2                !
 ! A117  A(40,41,42)           106.9345         estimate D2E/DX2                !
 ! A118  A(40,41,43)           131.096          estimate D2E/DX2                !
 ! A119  A(42,41,43)           121.9385         estimate D2E/DX2                !
 ! A120  A(36,42,41)            95.224          estimate D2E/DX2                !
 ! A121  A(41,43,44)           131.369          estimate D2E/DX2                !
 ! A122  A(41,43,49)           119.5209         estimate D2E/DX2                !
 ! A123  A(44,43,49)           109.0001         estimate D2E/DX2                !
 ! A124  A(43,44,45)           114.4443         estimate D2E/DX2                !
 ! A125  A(43,44,96)           118.3435         estimate D2E/DX2                !
 ! A126  A(45,44,96)           126.2286         estimate D2E/DX2                !
 ! A127  A(44,45,46)           128.0607         estimate D2E/DX2                !
 ! A128  A(44,45,48)           111.6283         estimate D2E/DX2                !
 ! A129  A(46,45,48)           120.285          estimate D2E/DX2                !
 ! A130  A(45,46,47)           117.926          estimate D2E/DX2                !
 ! A131  A(46,47,97)           109.3003         estimate D2E/DX2                !
 ! A132  A(46,47,98)           110.6653         estimate D2E/DX2                !
 ! A133  A(46,47,99)           107.2191         estimate D2E/DX2                !
 ! A134  A(97,47,98)           111.9905         estimate D2E/DX2                !
 ! A135  A(97,47,99)           109.3038         estimate D2E/DX2                !
 ! A136  A(98,47,99)           108.2322         estimate D2E/DX2                !
 ! A137  A(45,48,49)           110.5165         estimate D2E/DX2                !
 ! A138  A(45,48,50)           127.0878         estimate D2E/DX2                !
 ! A139  A(49,48,50)           122.319          estimate D2E/DX2                !
 ! A140  A(43,49,48)            93.4632         estimate D2E/DX2                !
 ! A141  A(48,50,51)           127.7854         estimate D2E/DX2                !
 ! A142  A(48,50,56)           124.5032         estimate D2E/DX2                !
 ! A143  A(51,50,56)           107.3754         estimate D2E/DX2                !
 ! A144  A(50,51,52)           121.3313         estimate D2E/DX2                !
 ! A145  A(50,51,54)           115.1751         estimate D2E/DX2                !
 ! A146  A(52,51,54)           123.2973         estimate D2E/DX2                !
 ! A147  A(51,52,53)           119.6085         estimate D2E/DX2                !
 ! A148  A(52,53,100)          109.1738         estimate D2E/DX2                !
 ! A149  A(52,53,101)          108.0807         estimate D2E/DX2                !
 ! A150  A(52,53,102)          108.9008         estimate D2E/DX2                !
 ! A151  A(100,53,101)         108.8934         estimate D2E/DX2                !
 ! A152  A(100,53,102)         109.8641         estimate D2E/DX2                !
 ! A153  A(101,53,102)         111.8765         estimate D2E/DX2                !
 ! A154  A(51,54,55)           113.0971         estimate D2E/DX2                !
 ! A155  A(51,54,103)          127.2538         estimate D2E/DX2                !
 ! A156  A(55,54,103)          119.073          estimate D2E/DX2                !
 ! A157  A(54,55,56)           107.2373         estimate D2E/DX2                !
 ! A158  A(54,55,57)           127.9232         estimate D2E/DX2                !
 ! A159  A(56,55,57)           124.8332         estimate D2E/DX2                !
 ! A160  A(50,56,55)            96.5427         estimate D2E/DX2                !
 ! A161  A(55,57,58)           126.9307         estimate D2E/DX2                !
 ! A162  A(55,57,63)           123.6419         estimate D2E/DX2                !
 ! A163  A(58,57,63)           109.4007         estimate D2E/DX2                !
 ! A164  A(57,58,59)           110.0756         estimate D2E/DX2                !
 ! A165  A(57,58,104)          122.0698         estimate D2E/DX2                !
 ! A166  A(59,58,104)          127.585          estimate D2E/DX2                !
 ! A167  A(58,59,60)           125.4263         estimate D2E/DX2                !
 ! A168  A(58,59,62)           113.694          estimate D2E/DX2                !
 ! A169  A(60,59,62)           120.8551         estimate D2E/DX2                !
 ! A170  A(59,60,61)           116.7705         estimate D2E/DX2                !
 ! A171  A(60,61,105)          107.5989         estimate D2E/DX2                !
 ! A172  A(60,61,106)          109.2518         estimate D2E/DX2                !
 ! A173  A(60,61,107)          105.9959         estimate D2E/DX2                !
 ! A174  A(105,61,106)         110.0254         estimate D2E/DX2                !
 ! A175  A(105,61,107)         115.7547         estimate D2E/DX2                !
 ! A176  A(106,61,107)         108.0146         estimate D2E/DX2                !
 ! A177  A(59,62,63)           113.8259         estimate D2E/DX2                !
 ! A178  A(59,62,64)           124.8944         estimate D2E/DX2                !
 ! A179  A(63,62,64)           121.2795         estimate D2E/DX2                !
 ! A180  A(57,63,62)            92.9157         estimate D2E/DX2                !
 ! A181  A(62,64,65)           127.4928         estimate D2E/DX2                !
 ! A182  A(62,64,70)           118.374          estimate D2E/DX2                !
 ! A183  A(65,64,70)           113.3925         estimate D2E/DX2                !
 ! A184  A(64,65,66)           118.8359         estimate D2E/DX2                !
 ! A185  A(64,65,68)           109.0965         estimate D2E/DX2                !
 ! A186  A(66,65,68)           130.954          estimate D2E/DX2                !
 ! A187  A(65,66,67)           111.5696         estimate D2E/DX2                !
 ! A188  A(66,67,108)          111.6944         estimate D2E/DX2                !
 ! A189  A(66,67,109)          105.6083         estimate D2E/DX2                !
 ! A190  A(66,67,110)          112.081          estimate D2E/DX2                !
 ! A191  A(108,67,109)         106.6874         estimate D2E/DX2                !
 ! A192  A(108,67,110)         113.5618         estimate D2E/DX2                !
 ! A193  A(109,67,110)         106.5906         estimate D2E/DX2                !
 ! A194  A(65,68,69)           115.8149         estimate D2E/DX2                !
 ! A195  A(65,68,111)          123.222          estimate D2E/DX2                !
 ! A196  A(69,68,111)          120.6942         estimate D2E/DX2                !
 ! A197  A(68,69,70)           108.9292         estimate D2E/DX2                !
 ! A198  A(68,69,112)          124.6703         estimate D2E/DX2                !
 ! A199  A(70,69,112)          126.3317         estimate D2E/DX2                !
 ! A200  A(64,70,69)            92.2472         estimate D2E/DX2                !
 ! D1    D(7,1,2,3)              2.9197         estimate D2E/DX2                !
 ! D2    D(7,1,2,72)          -174.7063         estimate D2E/DX2                !
 ! D3    D(71,1,2,3)           178.0952         estimate D2E/DX2                !
 ! D4    D(71,1,2,72)            0.4693         estimate D2E/DX2                !
 ! D5    D(2,1,7,6)             -2.4965         estimate D2E/DX2                !
 ! D6    D(71,1,7,6)          -178.3507         estimate D2E/DX2                !
 ! D7    D(1,2,3,4)           -179.0526         estimate D2E/DX2                !
 ! D8    D(1,2,3,6)             -1.9186         estimate D2E/DX2                !
 ! D9    D(72,2,3,4)            -1.5475         estimate D2E/DX2                !
 ! D10   D(72,2,3,6)           175.5865         estimate D2E/DX2                !
 ! D11   D(2,3,4,5)             -3.9934         estimate D2E/DX2                !
 ! D12   D(6,3,4,5)            178.9823         estimate D2E/DX2                !
 ! D13   D(2,3,6,7)              0.173          estimate D2E/DX2                !
 ! D14   D(2,3,6,8)            178.7514         estimate D2E/DX2                !
 ! D15   D(4,3,6,7)            177.7313         estimate D2E/DX2                !
 ! D16   D(4,3,6,8)             -3.6903         estimate D2E/DX2                !
 ! D17   D(3,4,5,73)            66.5025         estimate D2E/DX2                !
 ! D18   D(3,4,5,74)          -174.6363         estimate D2E/DX2                !
 ! D19   D(3,4,5,75)           -60.9731         estimate D2E/DX2                !
 ! D20   D(3,6,7,1)              1.2498         estimate D2E/DX2                !
 ! D21   D(8,6,7,1)           -177.3828         estimate D2E/DX2                !
 ! D22   D(3,6,8,9)            113.9995         estimate D2E/DX2                !
 ! D23   D(3,6,8,14)           -64.4229         estimate D2E/DX2                !
 ! D24   D(7,6,8,9)            -67.6368         estimate D2E/DX2                !
 ! D25   D(7,6,8,14)           113.9408         estimate D2E/DX2                !
 ! D26   D(6,8,9,10)             4.8994         estimate D2E/DX2                !
 ! D27   D(6,8,9,12)           175.0152         estimate D2E/DX2                !
 ! D28   D(14,8,9,10)         -176.6525         estimate D2E/DX2                !
 ! D29   D(14,8,9,12)           -6.5368         estimate D2E/DX2                !
 ! D30   D(6,8,14,13)         -177.1646         estimate D2E/DX2                !
 ! D31   D(9,8,14,13)            4.2438         estimate D2E/DX2                !
 ! D32   D(8,9,10,11)          168.4442         estimate D2E/DX2                !
 ! D33   D(12,9,10,11)          -0.2061         estimate D2E/DX2                !
 ! D34   D(8,9,12,13)            5.875          estimate D2E/DX2                !
 ! D35   D(8,9,12,79)          177.3692         estimate D2E/DX2                !
 ! D36   D(10,9,12,13)         175.5272         estimate D2E/DX2                !
 ! D37   D(10,9,12,79)         -12.9786         estimate D2E/DX2                !
 ! D38   D(9,10,11,76)          60.9736         estimate D2E/DX2                !
 ! D39   D(9,10,11,77)         -62.256          estimate D2E/DX2                !
 ! D40   D(9,10,11,78)        -177.5085         estimate D2E/DX2                !
 ! D41   D(9,12,13,14)          -2.7581         estimate D2E/DX2                !
 ! D42   D(9,12,13,15)         178.0083         estimate D2E/DX2                !
 ! D43   D(79,12,13,14)       -174.4196         estimate D2E/DX2                !
 ! D44   D(79,12,13,15)          6.3467         estimate D2E/DX2                !
 ! D45   D(12,13,14,8)          -0.5964         estimate D2E/DX2                !
 ! D46   D(15,13,14,8)         178.7263         estimate D2E/DX2                !
 ! D47   D(12,13,15,16)        179.8512         estimate D2E/DX2                !
 ! D48   D(12,13,15,21)          0.6879         estimate D2E/DX2                !
 ! D49   D(14,13,15,16)          0.692          estimate D2E/DX2                !
 ! D50   D(14,13,15,21)       -178.4713         estimate D2E/DX2                !
 ! D51   D(13,15,16,17)       -176.9291         estimate D2E/DX2                !
 ! D52   D(13,15,16,80)         -0.9847         estimate D2E/DX2                !
 ! D53   D(21,15,16,17)          2.3368         estimate D2E/DX2                !
 ! D54   D(21,15,16,80)        178.2812         estimate D2E/DX2                !
 ! D55   D(13,15,21,20)        176.1945         estimate D2E/DX2                !
 ! D56   D(16,15,21,20)         -3.1568         estimate D2E/DX2                !
 ! D57   D(15,16,17,18)        172.569          estimate D2E/DX2                !
 ! D58   D(15,16,17,20)          0.0816         estimate D2E/DX2                !
 ! D59   D(80,16,17,18)         -3.4091         estimate D2E/DX2                !
 ! D60   D(80,16,17,20)       -175.8965         estimate D2E/DX2                !
 ! D61   D(16,17,18,19)         43.8139         estimate D2E/DX2                !
 ! D62   D(20,17,18,19)       -144.4198         estimate D2E/DX2                !
 ! D63   D(16,17,20,21)         -2.5142         estimate D2E/DX2                !
 ! D64   D(16,17,20,22)        175.9985         estimate D2E/DX2                !
 ! D65   D(18,17,20,21)       -175.3894         estimate D2E/DX2                !
 ! D66   D(18,17,20,22)          3.1234         estimate D2E/DX2                !
 ! D67   D(17,18,19,81)         44.1822         estimate D2E/DX2                !
 ! D68   D(17,18,19,82)        -81.1014         estimate D2E/DX2                !
 ! D69   D(17,18,19,83)        167.9583         estimate D2E/DX2                !
 ! D70   D(17,20,21,15)          3.44           estimate D2E/DX2                !
 ! D71   D(22,20,21,15)       -175.2033         estimate D2E/DX2                !
 ! D72   D(17,20,22,23)         51.2859         estimate D2E/DX2                !
 ! D73   D(17,20,22,28)       -128.9149         estimate D2E/DX2                !
 ! D74   D(21,20,22,23)       -130.329          estimate D2E/DX2                !
 ! D75   D(21,20,22,28)         49.4701         estimate D2E/DX2                !
 ! D76   D(20,22,23,24)          5.5637         estimate D2E/DX2                !
 ! D77   D(20,22,23,26)       -176.2806         estimate D2E/DX2                !
 ! D78   D(28,22,23,24)       -174.2413         estimate D2E/DX2                !
 ! D79   D(28,22,23,26)          3.9145         estimate D2E/DX2                !
 ! D80   D(20,22,28,27)        176.7902         estimate D2E/DX2                !
 ! D81   D(23,22,28,27)         -3.4007         estimate D2E/DX2                !
 ! D82   D(22,23,24,25)       -158.1196         estimate D2E/DX2                !
 ! D83   D(26,23,24,25)         24.0737         estimate D2E/DX2                !
 ! D84   D(22,23,26,27)         -2.5899         estimate D2E/DX2                !
 ! D85   D(22,23,26,87)       -176.5759         estimate D2E/DX2                !
 ! D86   D(24,23,26,27)        175.5562         estimate D2E/DX2                !
 ! D87   D(24,23,26,87)          1.5702         estimate D2E/DX2                !
 ! D88   D(23,24,25,84)         44.7024         estimate D2E/DX2                !
 ! D89   D(23,24,25,85)        171.6519         estimate D2E/DX2                !
 ! D90   D(23,24,25,86)        -78.6568         estimate D2E/DX2                !
 ! D91   D(23,26,27,28)          0.3346         estimate D2E/DX2                !
 ! D92   D(23,26,27,29)        176.6151         estimate D2E/DX2                !
 ! D93   D(87,26,27,28)        173.8385         estimate D2E/DX2                !
 ! D94   D(87,26,27,29)         -9.8811         estimate D2E/DX2                !
 ! D95   D(26,27,28,22)          1.5363         estimate D2E/DX2                !
 ! D96   D(29,27,28,22)       -174.6923         estimate D2E/DX2                !
 ! D97   D(26,27,29,30)        150.8201         estimate D2E/DX2                !
 ! D98   D(26,27,29,35)        -27.9915         estimate D2E/DX2                !
 ! D99   D(28,27,29,30)        -33.5313         estimate D2E/DX2                !
 ! D100  D(28,27,29,35)        147.6571         estimate D2E/DX2                !
 ! D101  D(27,29,30,31)        178.2872         estimate D2E/DX2                !
 ! D102  D(27,29,30,88)          1.574          estimate D2E/DX2                !
 ! D103  D(35,29,30,31)         -2.7334         estimate D2E/DX2                !
 ! D104  D(35,29,30,88)       -179.4465         estimate D2E/DX2                !
 ! D105  D(27,29,35,34)       -178.5851         estimate D2E/DX2                !
 ! D106  D(30,29,35,34)          2.4719         estimate D2E/DX2                !
 ! D107  D(29,30,31,32)        178.0248         estimate D2E/DX2                !
 ! D108  D(29,30,31,34)          1.5625         estimate D2E/DX2                !
 ! D109  D(88,30,31,32)         -5.327          estimate D2E/DX2                !
 ! D110  D(88,30,31,34)        178.2106         estimate D2E/DX2                !
 ! D111  D(30,31,32,33)         18.977          estimate D2E/DX2                !
 ! D112  D(34,31,32,33)       -164.7201         estimate D2E/DX2                !
 ! D113  D(30,31,34,35)          0.2829         estimate D2E/DX2                !
 ! D114  D(30,31,34,36)       -179.6704         estimate D2E/DX2                !
 ! D115  D(32,31,34,35)       -176.7033         estimate D2E/DX2                !
 ! D116  D(32,31,34,36)          3.3434         estimate D2E/DX2                !
 ! D117  D(31,32,33,89)        -64.0722         estimate D2E/DX2                !
 ! D118  D(31,32,33,90)        170.1436         estimate D2E/DX2                !
 ! D119  D(31,32,33,91)         57.0449         estimate D2E/DX2                !
 ! D120  D(31,34,35,29)         -1.6601         estimate D2E/DX2                !
 ! D121  D(36,34,35,29)        178.2963         estimate D2E/DX2                !
 ! D122  D(31,34,36,37)         62.387          estimate D2E/DX2                !
 ! D123  D(31,34,36,42)       -123.2609         estimate D2E/DX2                !
 ! D124  D(35,34,36,37)       -117.5632         estimate D2E/DX2                !
 ! D125  D(35,34,36,42)         56.7888         estimate D2E/DX2                !
 ! D126  D(34,36,37,38)         -0.6324         estimate D2E/DX2                !
 ! D127  D(34,36,37,40)        178.1347         estimate D2E/DX2                !
 ! D128  D(42,36,37,38)       -175.5627         estimate D2E/DX2                !
 ! D129  D(42,36,37,40)          3.2044         estimate D2E/DX2                !
 ! D130  D(34,36,42,41)       -177.4247         estimate D2E/DX2                !
 ! D131  D(37,36,42,41)         -2.3415         estimate D2E/DX2                !
 ! D132  D(36,37,38,39)       -163.9652         estimate D2E/DX2                !
 ! D133  D(40,37,38,39)         17.5241         estimate D2E/DX2                !
 ! D134  D(36,37,40,41)         -2.6281         estimate D2E/DX2                !
 ! D135  D(36,37,40,95)       -179.7409         estimate D2E/DX2                !
 ! D136  D(38,37,40,41)        175.9943         estimate D2E/DX2                !
 ! D137  D(38,37,40,95)         -1.1185         estimate D2E/DX2                !
 ! D138  D(37,38,39,92)         51.7246         estimate D2E/DX2                !
 ! D139  D(37,38,39,93)        -66.5836         estimate D2E/DX2                !
 ! D140  D(37,38,39,94)        172.0623         estimate D2E/DX2                !
 ! D141  D(37,40,41,42)          0.9206         estimate D2E/DX2                !
 ! D142  D(37,40,41,43)       -177.036          estimate D2E/DX2                !
 ! D143  D(95,40,41,42)        178.293          estimate D2E/DX2                !
 ! D144  D(95,40,41,43)          0.3364         estimate D2E/DX2                !
 ! D145  D(40,41,42,36)          0.8941         estimate D2E/DX2                !
 ! D146  D(43,41,42,36)        179.0796         estimate D2E/DX2                !
 ! D147  D(40,41,43,44)        152.0313         estimate D2E/DX2                !
 ! D148  D(40,41,43,49)        -32.2396         estimate D2E/DX2                !
 ! D149  D(42,41,43,44)        -25.6651         estimate D2E/DX2                !
 ! D150  D(42,41,43,49)        150.064          estimate D2E/DX2                !
 ! D151  D(41,43,44,45)       -175.2663         estimate D2E/DX2                !
 ! D152  D(41,43,44,96)         -5.9002         estimate D2E/DX2                !
 ! D153  D(49,43,44,45)          8.6638         estimate D2E/DX2                !
 ! D154  D(49,43,44,96)        178.0299         estimate D2E/DX2                !
 ! D155  D(41,43,49,48)        174.1444         estimate D2E/DX2                !
 ! D156  D(44,43,49,48)         -9.2443         estimate D2E/DX2                !
 ! D157  D(43,44,45,46)        174.9187         estimate D2E/DX2                !
 ! D158  D(43,44,45,48)         -3.2065         estimate D2E/DX2                !
 ! D159  D(96,44,45,46)          6.5338         estimate D2E/DX2                !
 ! D160  D(96,44,45,48)       -171.5915         estimate D2E/DX2                !
 ! D161  D(44,45,46,47)          9.1283         estimate D2E/DX2                !
 ! D162  D(48,45,46,47)       -172.8899         estimate D2E/DX2                !
 ! D163  D(44,45,48,49)         -3.9315         estimate D2E/DX2                !
 ! D164  D(44,45,48,50)        179.2216         estimate D2E/DX2                !
 ! D165  D(46,45,48,49)        177.7778         estimate D2E/DX2                !
 ! D166  D(46,45,48,50)          0.9309         estimate D2E/DX2                !
 ! D167  D(45,46,47,97)        175.5956         estimate D2E/DX2                !
 ! D168  D(45,46,47,98)        -60.6164         estimate D2E/DX2                !
 ! D169  D(45,46,47,99)         57.2213         estimate D2E/DX2                !
 ! D170  D(45,48,49,43)          7.5966         estimate D2E/DX2                !
 ! D171  D(50,48,49,43)       -175.3795         estimate D2E/DX2                !
 ! D172  D(45,48,50,51)       -142.3154         estimate D2E/DX2                !
 ! D173  D(45,48,50,56)         45.1971         estimate D2E/DX2                !
 ! D174  D(49,48,50,51)         41.1794         estimate D2E/DX2                !
 ! D175  D(49,48,50,56)       -131.3081         estimate D2E/DX2                !
 ! D176  D(48,50,51,52)          4.8155         estimate D2E/DX2                !
 ! D177  D(48,50,51,54)        179.8849         estimate D2E/DX2                !
 ! D178  D(56,50,51,52)        178.3333         estimate D2E/DX2                !
 ! D179  D(56,50,51,54)         -6.5973         estimate D2E/DX2                !
 ! D180  D(48,50,56,55)       -178.9996         estimate D2E/DX2                !
 ! D181  D(51,50,56,55)          7.2159         estimate D2E/DX2                !
 ! D182  D(50,51,52,53)       -172.5137         estimate D2E/DX2                !
 ! D183  D(54,51,52,53)         12.8262         estimate D2E/DX2                !
 ! D184  D(50,51,54,55)          2.3434         estimate D2E/DX2                !
 ! D185  D(50,51,54,103)      -168.7828         estimate D2E/DX2                !
 ! D186  D(52,51,54,55)        177.3043         estimate D2E/DX2                !
 ! D187  D(52,51,54,103)         6.1781         estimate D2E/DX2                !
 ! D188  D(51,52,53,100)        51.007          estimate D2E/DX2                !
 ! D189  D(51,52,53,101)       169.3116         estimate D2E/DX2                !
 ! D190  D(51,52,53,102)       -68.9471         estimate D2E/DX2                !
 ! D191  D(51,54,55,56)          3.0762         estimate D2E/DX2                !
 ! D192  D(51,54,55,57)       -176.0373         estimate D2E/DX2                !
 ! D193  D(103,54,55,56)       175.0003         estimate D2E/DX2                !
 ! D194  D(103,54,55,57)        -4.1132         estimate D2E/DX2                !
 ! D195  D(54,55,56,50)         -5.9925         estimate D2E/DX2                !
 ! D196  D(57,55,56,50)        173.1556         estimate D2E/DX2                !
 ! D197  D(54,55,57,58)        151.3238         estimate D2E/DX2                !
 ! D198  D(54,55,57,63)        -30.7565         estimate D2E/DX2                !
 ! D199  D(56,55,57,58)        -27.6447         estimate D2E/DX2                !
 ! D200  D(56,55,57,63)        150.2751         estimate D2E/DX2                !
 ! D201  D(55,57,58,59)        179.5772         estimate D2E/DX2                !
 ! D202  D(55,57,58,104)         5.1205         estimate D2E/DX2                !
 ! D203  D(63,57,58,59)          1.4132         estimate D2E/DX2                !
 ! D204  D(63,57,58,104)      -173.0435         estimate D2E/DX2                !
 ! D205  D(55,57,63,62)        179.3786         estimate D2E/DX2                !
 ! D206  D(58,57,63,62)         -2.3843         estimate D2E/DX2                !
 ! D207  D(57,58,59,60)       -177.5342         estimate D2E/DX2                !
 ! D208  D(57,58,59,62)          0.6614         estimate D2E/DX2                !
 ! D209  D(104,58,59,60)        -3.4632         estimate D2E/DX2                !
 ! D210  D(104,58,59,62)       174.7324         estimate D2E/DX2                !
 ! D211  D(58,59,60,61)         -1.7774         estimate D2E/DX2                !
 ! D212  D(62,59,60,61)       -179.8526         estimate D2E/DX2                !
 ! D213  D(58,59,62,63)         -2.5493         estimate D2E/DX2                !
 ! D214  D(58,59,62,64)        177.5791         estimate D2E/DX2                !
 ! D215  D(60,59,62,63)        175.7379         estimate D2E/DX2                !
 ! D216  D(60,59,62,64)         -4.1336         estimate D2E/DX2                !
 ! D217  D(59,60,61,105)       -57.7419         estimate D2E/DX2                !
 ! D218  D(59,60,61,106)        61.6849         estimate D2E/DX2                !
 ! D219  D(59,60,61,107)       177.8456         estimate D2E/DX2                !
 ! D220  D(59,62,63,57)          2.9065         estimate D2E/DX2                !
 ! D221  D(64,62,63,57)       -177.2168         estimate D2E/DX2                !
 ! D222  D(59,62,64,65)       -128.5746         estimate D2E/DX2                !
 ! D223  D(59,62,64,70)         61.9892         estimate D2E/DX2                !
 ! D224  D(63,62,64,65)         51.5629         estimate D2E/DX2                !
 ! D225  D(63,62,64,70)       -117.8733         estimate D2E/DX2                !
 ! D226  D(62,64,65,66)         13.0327         estimate D2E/DX2                !
 ! D227  D(62,64,65,68)       -177.7273         estimate D2E/DX2                !
 ! D228  D(70,64,65,66)       -177.0897         estimate D2E/DX2                !
 ! D229  D(70,64,65,68)         -7.8497         estimate D2E/DX2                !
 ! D230  D(62,64,70,69)        176.8496         estimate D2E/DX2                !
 ! D231  D(65,64,70,69)          5.9686         estimate D2E/DX2                !
 ! D232  D(64,65,66,67)       -174.4259         estimate D2E/DX2                !
 ! D233  D(68,65,66,67)         19.0831         estimate D2E/DX2                !
 ! D234  D(64,65,68,69)          6.1611         estimate D2E/DX2                !
 ! D235  D(64,65,68,111)      -179.7691         estimate D2E/DX2                !
 ! D236  D(66,65,68,69)        173.6546         estimate D2E/DX2                !
 ! D237  D(66,65,68,111)       -12.2756         estimate D2E/DX2                !
 ! D238  D(65,66,67,108)       -73.4271         estimate D2E/DX2                !
 ! D239  D(65,66,67,109)       170.9776         estimate D2E/DX2                !
 ! D240  D(65,66,67,110)        55.303          estimate D2E/DX2                !
 ! D241  D(65,68,69,70)         -1.9133         estimate D2E/DX2                !
 ! D242  D(65,68,69,112)       175.2293         estimate D2E/DX2                !
 ! D243  D(111,68,69,70)      -176.1447         estimate D2E/DX2                !
 ! D244  D(111,68,69,112)        0.9979         estimate D2E/DX2                !
 ! D245  D(68,69,70,64)         -2.3175         estimate D2E/DX2                !
 ! D246  D(112,69,70,64)      -179.4003         estimate D2E/DX2                !
 --------------------------------------------------------------------------------
 Trust Radius=3.00D-01 FncErr=1.00D-07 GrdErr=1.00D-06 EigMax=2.50D+02 EigMin=1.00D-04
 Number of steps in this run=    577 maximum allowed number of steps=    672.
 GradGradGradGradGradGradGradGradGradGradGradGradGradGradGradGradGradGrad

 Leave Link  103 at Sat Jul 25 14:14:18 2020, MaxMem=  4026531840 cpu:               0.2 elap:               0.1
 (Enter /opt/ohpc/pub/libs/gaussian/g16-A.03/sandybridge/g16/l202.exe)
 Stoichiometry    C50H42O10S10
 Framework group  C1[X(C50H42O10S10)]
 Deg. of freedom   330
 Full point group                 C1      NOp   1
 Largest Abelian subgroup         C1      NOp   1
 Largest concise Abelian subgroup C1      NOp   1
                         Standard orientation:                         
 ---------------------------------------------------------------------
 Center     Atomic      Atomic             Coordinates (Angstroms)
 Number     Number       Type             X           Y           Z
 ---------------------------------------------------------------------
      1          6           0       17.938390   -1.642477    1.087782
      2          6           0       18.069859   -0.307749    0.779948
      3          6           0       16.817691    0.232482    0.312333
      4          8           0       16.502496    1.461997   -0.103745
      5          6           0       17.627220    2.359402    0.039452
      6          6           0       15.766472   -0.779438    0.247487
      7         16           0       16.426636   -2.268770    0.768601
      8          6           0       14.378056   -0.590138   -0.152621
      9          6           0       13.787350   -1.101743   -1.231247
     10          8           0       14.442563   -1.988792   -2.075105
     11          6           0       13.651024   -2.640905   -3.016315
     12          6           0       12.357593   -0.799124   -1.253881
     13          6           0       11.985990    0.049531   -0.227183
     14         16           0       13.423015    0.392149    0.802053
     15          6           0       10.744945    0.604416    0.082321
     16          6           0       10.335125    1.465625    1.117071
     17          6           0        8.962617    1.775934    1.159831
     18          8           0        8.341736    2.445265    2.114681
     19          6           0        9.032106    3.582232    2.550303
     20          6           0        8.292423    1.168065    0.173901
     21         16           0        9.352569    0.284062   -0.831022
     22          6           0        6.795959    1.168357   -0.087754
     23          6           0        6.076318    2.302668   -0.146793
     24          8           0        6.558279    3.541840   -0.095453
     25          6           0        5.618065    4.539762    0.309382
     26          6           0        4.637453    1.908426   -0.326936
     27          6           0        4.440529    0.526755   -0.440883
     28         16           0        5.977513   -0.273570   -0.320931
     29          6           0        3.161144   -0.114458   -0.550568
     30          6           0        2.952811   -1.371999   -1.249540
     31          6           0        1.652344   -1.771696   -1.167300
     32          8           0        1.035207   -2.825485   -1.685072
     33          6           0        1.935517   -3.874756   -2.073700
     34          6           0        0.870706   -0.851746   -0.467653
     35         16           0        1.719473    0.452986    0.054978
     36          6           0       -0.579678   -0.968203   -0.183330
     37          6           0       -1.207921   -2.015400    0.613175
     38          8           0       -0.477250   -2.968777    1.138402
     39          6           0       -1.161206   -4.082753    1.573233
     40          6           0       -2.569627   -1.801923    0.713178
     41          6           0       -3.055673   -0.635070    0.104411
     42         16           0       -1.676575    0.170978   -0.632638
     43          6           0       -4.393512   -0.067542    0.057724
     44          6           0       -4.822344    1.222175   -0.065157
     45          6           0       -6.153650    1.376880    0.029751
     46          8           0       -6.878247    2.559468    0.043279
     47          6           0       -6.215029    3.718982   -0.238958
     48          6           0       -6.806997    0.148008    0.164289
     49         16           0       -5.730478   -1.092565    0.056473
     50          6           0       -8.241041   -0.074413    0.308640
     51          6           0       -8.885422   -1.028287    1.106248
     52          8           0       -8.170101   -1.852478    1.968105
     53          6           0       -8.835256   -2.910473    2.639221
     54          6           0      -10.286816   -1.007683    1.046483
     55          6           0      -10.792901   -0.040085    0.131993
     56         16           0       -9.438670    0.695496   -0.633287
     57          6           0      -12.105225    0.288648   -0.109413
     58          6           0      -12.615797    1.574864   -0.554623
     59          6           0      -14.037062    1.515008   -0.700355
     60          8           0      -14.833268    2.536071   -1.149282
     61          6           0      -14.152804    3.827627   -1.475212
     62          6           0      -14.557372    0.329476   -0.389353
     63         16           0      -13.410098   -0.826613    0.033229
     64          6           0      -16.029119    0.003370   -0.402499
     65          6           0      -16.790417   -0.590547    0.635050
     66          8           0      -16.248315   -0.678382    1.877533
     67          6           0      -17.067119   -1.392762    2.742529
     68          6           0      -18.100684   -0.764596    0.196412
     69          6           0      -18.339341   -0.460702   -1.156250
     70         16           0      -16.865436    0.112268   -1.873382
     71          1           0       18.675096   -2.337914    1.430555
     72          1           0       18.946087    0.179500    0.847846
     73          1           0       18.422679    2.116895   -0.593092
     74          1           0       17.283948    3.370758   -0.224393
     75          1           0       17.927842    2.431746    1.121031
     76          1           0       13.157342   -1.933205   -3.714252
     77          1           0       12.892694   -3.268532   -2.519282
     78          1           0       14.194285   -3.317315   -3.584712
     79          1           0       11.688618   -1.077317   -2.050642
     80          1           0       11.061514    1.840709    1.927678
     81          1           0        9.443882    4.179736    1.755046
     82          1           0        9.831364    3.322108    3.279386
     83          1           0        8.316592    4.224315    3.213718
     84          1           0        5.030312    4.252824    1.144446
     85          1           0        6.153426    5.479218    0.459209
     86          1           0        4.978655    4.778546   -0.558163
     87          1           0        3.903044    2.658199   -0.452009
     88          1           0        3.732310   -1.921908   -1.709663
     89          1           0        2.642336   -3.610126   -2.892475
     90          1           0        1.397126   -4.740718   -2.317047
     91          1           0        2.596296   -4.232548   -1.173261
     92          1           0       -1.850459   -4.493469    0.751756
     93          1           0       -1.839727   -3.881786    2.453185
     94          1           0       -0.522828   -4.853025    1.856093
     95          1           0       -3.279926   -2.423760    1.250330
     96          1           0       -4.041252    2.058496   -0.047610
     97          1           0       -6.917053    4.532145   -0.266039
     98          1           0       -5.429200    3.889445    0.473695
     99          1           0       -5.734527    3.593144   -1.284879
    100          1           0       -9.404252   -3.515285    1.895619
    101          1           0       -8.088366   -3.536311    3.099921
    102          1           0       -9.546545   -2.470807    3.402598
    103          1           0      -10.991838   -1.541364    1.707510
    104          1           0      -11.953387    2.400950   -0.820364
    105          1           0      -13.631527    4.163386   -0.574141
    106          1           0      -13.428409    3.661517   -2.291163
    107          1           0      -14.913411    4.476221   -1.837719
    108          1           0      -17.899016   -0.846569    3.019228
    109          1           0      -16.449700   -1.551432    3.688884
    110          1           0      -17.313677   -2.418915    2.342824
    111          1           0      -18.937482   -1.230151    0.857066
    112          1           0      -19.249041   -0.608112   -1.646383
 ---------------------------------------------------------------------
 Rotational constants (GHZ):           0.1001303           0.0037147           0.0036547
[...]
  Beta virt. eigenvalues --    1.53563   1.53619   1.53898   1.54213   1.54366
  Beta virt. eigenvalues --    1.54681   1.54946   1.55116   1.55187   1.55799
  Beta virt. eigenvalues --    1.55980   1.56151   1.56378   1.56464   1.56952
  Beta virt. eigenvalues --    1.57031   1.57420   1.57552   1.58474   1.59792
  Beta virt. eigenvalues --    1.59923   1.60994   1.61216   1.61661   1.61911
  Beta virt. eigenvalues --    1.62320   1.62619   1.62927   1.63125   1.63520
  Beta virt. eigenvalues --    1.64293   1.65333   1.65391   1.65625   1.66074
  Beta virt. eigenvalues --    1.66193   1.66337   1.66402   1.66407   1.66757
  Beta virt. eigenvalues --    1.67037   1.67132   1.67476   1.67822   1.68042
  Beta virt. eigenvalues --    1.68130   1.68514   1.68731   1.68897   1.68976
  Beta virt. eigenvalues --    1.69218   1.69448   1.69872   1.70106   1.70628
  Beta virt. eigenvalues --    1.71150   1.71377   1.71848   1.72260   1.72300
  Beta virt. eigenvalues --    1.72420   1.72437   1.72508   1.72651   1.72940
  Beta virt. eigenvalues --    1.73217   1.73708   1.74033   1.74258   1.75121
  Beta virt. eigenvalues --    1.75308   1.75505   1.75700   1.76002   1.76206
  Beta virt. eigenvalues --    1.76739   1.77039   1.77626   1.77927   1.78092
  Beta virt. eigenvalues --    1.78332   1.78421   1.78824   1.79079   1.79388
  Beta virt. eigenvalues --    1.79454   1.79513   1.79809   1.79862   1.80026
  Beta virt. eigenvalues --    1.80149   1.80269   1.80491   1.80577   1.80665
  Beta virt. eigenvalues --    1.80713   1.80846   1.81048   1.81277   1.81728
  Beta virt. eigenvalues --    1.81812   1.81962   1.82318   1.82457   1.82497
  Beta virt. eigenvalues --    1.82619   1.82720   1.82911   1.83322   1.83370
  Beta virt. eigenvalues --    1.83531   1.83729   1.83813   1.84178   1.84426
  Beta virt. eigenvalues --    1.84756   1.85090   1.85334   1.85666   1.85863
  Beta virt. eigenvalues --    1.86487   1.86560   1.86824   1.86980   1.87446
  Beta virt. eigenvalues --    1.87729   1.88291   1.88944   1.89219   1.89494
  Beta virt. eigenvalues --    1.90165   1.90381   1.91588   1.91946   1.92249
  Beta virt. eigenvalues --    1.92594   1.92778   1.93529   1.93646   1.94102
  Beta virt. eigenvalues --    1.94837   1.95327   1.95706   1.96013   1.96418
  Beta virt. eigenvalues --    1.96521   1.96699   1.96889   1.96970   1.97587
  Beta virt. eigenvalues --    1.97682   1.98095   1.98650   1.98876   1.99390
  Beta virt. eigenvalues --    2.00142   2.00628   2.01171   2.01840   2.02163
  Beta virt. eigenvalues --    2.02218   2.02420   2.03038   2.03139   2.03482
  Beta virt. eigenvalues --    2.04183   2.04324   2.05281   2.05451   2.05681
  Beta virt. eigenvalues --    2.05796   2.05824   2.05990   2.06890   2.06987
  Beta virt. eigenvalues --    2.07286   2.07570   2.08016   2.08450   2.08576
  Beta virt. eigenvalues --    2.09104   2.09228   2.09670   2.10534   2.11301
  Beta virt. eigenvalues --    2.11592   2.12400   2.12609   2.12776   2.13030
  Beta virt. eigenvalues --    2.13168   2.13778   2.13806   2.14841   2.14935
  Beta virt. eigenvalues --    2.15004   2.15740   2.16664   2.16710   2.17966
  Beta virt. eigenvalues --    2.18011   2.18313   2.19318   2.20154   2.20210
  Beta virt. eigenvalues --    2.20555   2.20661   2.20733   2.20920   2.21047
  Beta virt. eigenvalues --    2.21366   2.21403   2.21660   2.21935   2.22077
  Beta virt. eigenvalues --    2.22281   2.22612   2.22727   2.22909   2.23253
  Beta virt. eigenvalues --    2.23519   2.23577   2.23812   2.24324   2.24573
  Beta virt. eigenvalues --    2.24847   2.25173   2.25415   2.25877   2.26307
  Beta virt. eigenvalues --    2.26365   2.26636   2.27107   2.27337   2.27633
  Beta virt. eigenvalues --    2.28031   2.28672   2.28735   2.28866   2.29127
  Beta virt. eigenvalues --    2.29410   2.29921   2.31567   2.31950   2.33027
  Beta virt. eigenvalues --    2.33331   2.33712   2.34357   2.34943   2.35618
  Beta virt. eigenvalues --    2.36883   2.37646   2.38640   2.38905   2.39474
  Beta virt. eigenvalues --    2.40915   2.41425   2.42025   2.42980   2.43340
  Beta virt. eigenvalues --    2.43982   2.44294   2.44963   2.45851   2.45904
  Beta virt. eigenvalues --    2.46467   2.47054   2.49105   2.50260   2.52047
  Beta virt. eigenvalues --    2.52132   2.52831   2.53178   2.53207   2.53262
  Beta virt. eigenvalues --    2.53304   2.53459   2.53519   2.53548   2.53563
  Beta virt. eigenvalues --    2.53745   2.53782   2.55948   2.56475   2.57456
  Beta virt. eigenvalues --    2.57779   2.58023   2.58135   2.58656   2.58761
  Beta virt. eigenvalues --    2.58831   2.59297   2.59358   2.59370   2.59839
  Beta virt. eigenvalues --    2.60105   2.60142   2.60353   2.60515   2.60651
  Beta virt. eigenvalues --    2.60842   2.61069   2.61133   2.61427   2.61509
  Beta virt. eigenvalues --    2.61929   2.62680   2.63438   2.63981   2.64070
  Beta virt. eigenvalues --    2.65318   2.65759   2.66010   2.66206   2.67889
  Beta virt. eigenvalues --    2.67997   2.68536   2.68699   2.69774   2.69930
  Beta virt. eigenvalues --    2.70094   2.70920   2.71687   2.73261   2.73454
  Beta virt. eigenvalues --    2.77985   2.78876   2.79237   2.79560   3.01855
  Beta virt. eigenvalues --    3.01915   3.01970   3.03082   3.03144   3.03212
  Beta virt. eigenvalues --    3.03705   3.04023   3.04105   3.04167   3.07615
  Beta virt. eigenvalues --    3.08399   3.08954   3.09294   3.09537   3.10421
  Beta virt. eigenvalues --    3.11032   3.11724   3.14259   3.14302   3.16223
  Beta virt. eigenvalues --    3.16309   3.16366   3.17249   3.17342   3.17406
  Beta virt. eigenvalues --    3.17713   3.17733   3.17968   3.18121   3.18617
  Beta virt. eigenvalues --    3.18771   3.18799   3.18903   3.18925   3.19813
  Beta virt. eigenvalues --    3.19847   3.19927   3.21445   3.21694   3.49413
  Beta virt. eigenvalues --    3.49462   3.49589   3.50308   3.50341   3.53536
  Beta virt. eigenvalues --    3.53569   3.53773   3.53910   3.54178   3.58540
  Beta virt. eigenvalues --    3.58716   3.58774   3.59562   3.59593   3.59741
  Beta virt. eigenvalues --    3.59852   3.60052   3.61088   3.61389
          Condensed to atoms (all electrons):
          Atomic-Atomic Spin Densities.
 Mulliken charges and spin densities:
               1          2
     1  C   -0.149804   0.000000
     2  C   -0.000057  -0.000000
     3  C    0.137550   0.000000
     4  O   -0.273655  -0.000000
     5  C    0.039085   0.000000
     6  C   -0.171490  -0.000000
     7  S    0.183808  -0.000000
     8  C   -0.151113   0.000000
     9  C    0.156797   0.000000
    10  O   -0.274000   0.000000
    11  C    0.038348   0.000000
    12  C   -0.004613  -0.000000
    13  C   -0.140324  -0.000000
    14  S    0.187793  -0.000000
    15  C   -0.126223   0.000000
    16  C   -0.027015  -0.000000
    17  C    0.193453  -0.000000
    18  O   -0.244782   0.000000
    19  C    0.032872   0.000000
    20  C   -0.201877   0.000000
    21  S    0.179304   0.000000
    22  C   -0.200502  -0.000000
    23  C    0.190764   0.000000
    24  O   -0.244810   0.000000
    25  C    0.032488   0.000000
    26  C   -0.025239  -0.000000
    27  C   -0.129503   0.000000
    28  S    0.185132   0.000000
    29  C   -0.129415   0.000000
    30  C   -0.024732  -0.000000
    31  C    0.191077   0.000000
    32  O   -0.244641  -0.000000
    33  C    0.032307  -0.000000
    34  C   -0.199929   0.000000
    35  S    0.182657  -0.000000
    36  C   -0.200951  -0.000000
    37  C    0.192152   0.000000
    38  O   -0.244743  -0.000000
    39  C    0.032702   0.000000
    40  C   -0.026894  -0.000000
    41  C   -0.127627   0.000000
    42  S    0.180734  -0.000000
    43  C   -0.138237  -0.000000
    44  C   -0.002896   0.000000
    45  C    0.153101   0.000000
    46  O   -0.274229  -0.000000
    47  C    0.039071  -0.000000
    48  C   -0.158576   0.000000
    49  S    0.189059  -0.000000
    50  C   -0.160199  -0.000000
    51  C    0.154389   0.000000
    52  O   -0.274674  -0.000000
    53  C    0.039506   0.000000
    54  C   -0.005047  -0.000000
    55  C   -0.135053   0.000000
    56  S    0.187287  -0.000000
    57  C   -0.137536  -0.000000
    58  C   -0.006755   0.000000
    59  C    0.157631  -0.000000
    60  O   -0.274083   0.000000
    61  C    0.038786  -0.000000
    62  C   -0.151819   0.000000
    63  S    0.185670  -0.000000
    64  C   -0.171094  -0.000000
    65  C    0.137116   0.000000
    66  O   -0.273591  -0.000000
    67  C    0.039197   0.000000
    68  C   -0.000050  -0.000000
    69  C   -0.150084  -0.000000
    70  S    0.183178  -0.000000
    71  H    0.045054   0.000000
    72  H    0.016162  -0.000000
    73  H    0.051845  -0.000000
    74  H    0.066035  -0.000000
    75  H    0.052770  -0.000000
    76  H    0.054222  -0.000000
    77  H    0.053947  -0.000000
    78  H    0.067073   0.000000
    79  H    0.021184  -0.000000
    80  H    0.023438   0.000000
    81  H    0.051888  -0.000000
    82  H    0.050685   0.000000
    83  H    0.063579  -0.000000
    84  H    0.052040  -0.000000
    85  H    0.063627   0.000000
    86  H    0.051115   0.000000
    87  H    0.022842  -0.000000
    88  H    0.023648   0.000000
    89  H    0.051445   0.000000
    90  H    0.063744  -0.000000
    91  H    0.052445   0.000000
    92  H    0.051265  -0.000000
    93  H    0.051469  -0.000000
    94  H    0.063872  -0.000000
    95  H    0.023618   0.000000
    96  H    0.020248   0.000000
    97  H    0.066356   0.000000
    98  H    0.053885   0.000000
    99  H    0.054944   0.000000
   100  H    0.054280  -0.000000
   101  H    0.066060  -0.000000
   102  H    0.054160  -0.000000
   103  H    0.020673  -0.000000
   104  H    0.020584   0.000000
   105  H    0.053880   0.000000
   106  H    0.053266  -0.000000
   107  H    0.066777   0.000000
   108  H    0.051639  -0.000000
   109  H    0.065697  -0.000000
   110  H    0.052643  -0.000000
   111  H    0.015961  -0.000000
   112  H    0.044789  -0.000000
 Sum of Mulliken charges =  -0.00000  -0.00000
 Mulliken charges and spin densities with hydrogens summed into heavy atoms:
               1          2
     1  C   -0.104750   0.000000
     2  C    0.016105  -0.000000
     3  C    0.137550   0.000000
     4  O   -0.273655  -0.000000
     5  C    0.209735   0.000000
     6  C   -0.171490  -0.000000
     7  S    0.183808  -0.000000
     8  C   -0.151113   0.000000
     9  C    0.156797   0.000000
    10  O   -0.274000   0.000000
    11  C    0.213590   0.000000
    12  C    0.016570  -0.000000
    13  C   -0.140324  -0.000000
    14  S    0.187793  -0.000000
    15  C   -0.126223   0.000000
    16  C   -0.003577   0.000000
    17  C    0.193453  -0.000000
    18  O   -0.244782   0.000000
    19  C    0.199025   0.000000
    20  C   -0.201877   0.000000
    21  S    0.179304   0.000000
    22  C   -0.200502  -0.000000
    23  C    0.190764   0.000000
    24  O   -0.244810   0.000000
    25  C    0.199270   0.000000
    26  C   -0.002396  -0.000000
    27  C   -0.129503   0.000000
    28  S    0.185132   0.000000
    29  C   -0.129415   0.000000
    30  C   -0.001083  -0.000000
    31  C    0.191077   0.000000
    32  O   -0.244641  -0.000000
    33  C    0.199940  -0.000000
    34  C   -0.199929   0.000000
    35  S    0.182657  -0.000000
    36  C   -0.200951  -0.000000
    37  C    0.192152   0.000000
    38  O   -0.244743  -0.000000
    39  C    0.199308  -0.000000
    40  C   -0.003276  -0.000000
    41  C   -0.127627   0.000000
    42  S    0.180734  -0.000000
    43  C   -0.138237  -0.000000
    44  C    0.017352   0.000000
    45  C    0.153101   0.000000
    46  O   -0.274229  -0.000000
    47  C    0.214255   0.000000
    48  C   -0.158576   0.000000
    49  S    0.189059  -0.000000
    50  C   -0.160199  -0.000000
    51  C    0.154389   0.000000
    52  O   -0.274674  -0.000000
    53  C    0.214006   0.000000
    54  C    0.015626  -0.000000
    55  C   -0.135053   0.000000
    56  S    0.187287  -0.000000
    57  C   -0.137536  -0.000000
    58  C    0.013829   0.000000
    59  C    0.157631  -0.000000
    60  O   -0.274083   0.000000
    61  C    0.212708  -0.000000
    62  C   -0.151819   0.000000
    63  S    0.185670  -0.000000
    64  C   -0.171094  -0.000000
    65  C    0.137116   0.000000
    66  O   -0.273591  -0.000000
    67  C    0.209176   0.000000
    68  C    0.015911  -0.000000
    69  C   -0.105295  -0.000000
    70  S    0.183178  -0.000000
 Electronic spatial extent (au):  <R**2>=         260546.4606
 Charge=             -0.0000 electrons
 Dipole moment (field-independent basis, Debye):
    X=              0.0759    Y=             -0.0653    Z=              1.1658  Tot=              1.1700
 Quadrupole moment (field-independent basis, Debye-Ang):
   XX=           -371.9162   YY=           -396.4676   ZZ=           -452.0090
   XY=             32.7793   XZ=             17.1039   YZ=              5.8623
 Traceless Quadrupole moment (field-independent basis, Debye-Ang):
   XX=             34.8814   YY=             10.3300   ZZ=            -45.2114
   XY=             32.7793   XZ=             17.1039   YZ=              5.8623
 Octapole moment (field-independent basis, Debye-Ang**2):
  XXX=            187.3415  YYY=             22.7879  ZZZ=              3.2674  XYY=           -303.2853
  XXY=           -248.8453  XXZ=            244.8103  XZZ=            278.1081  YZZ=            -41.8541
  YYZ=             43.0209  XYZ=            144.5318
 Hexadecapole moment (field-independent basis, Debye-Ang**3):
 XXXX=        -276637.1283 YYYY=          -8840.1834 ZZZZ=          -4130.0453 XXXY=           8344.3339
 XXXZ=          11426.4082 YYYX=            464.0126 YYYZ=            -36.2355 ZZZX=           -352.6153
 ZZZY=             86.9420 XXYY=         -51700.2031 XXZZ=         -53720.5438 YYZZ=          -2213.3646
 XXYZ=           3243.5332 YYXZ=            103.8874 ZZXY=            209.0572
 N-N= 1.161294826428D+04 E-N=-3.894090569185D+04  KE= 6.635936245933D+03
 Leave Link  601 at Sun Jul 26 04:20:48 2020, MaxMem=  4026531840 cpu:               9.3 elap:               1.3
 (Enter /opt/ohpc/pub/libs/gaussian/g16-A.03/sandybridge/g16/l9999.exe)

 Test job not archived.
 1\1\GINC-SKYLAKE033\FOpt\ULC-wPBE\CC-pVDZ\C50H42O10S10\RDU230\26-Jul-2
 020\0\\#P uLC-wPBE/cc-pVDZ iop(3/107=0451900000, 3/108=0451900000) opt
 \\H42 C50 S10 O10\\0,1\C,18.231700854,-1.1602424232,-0.9299675975\C,17
 .9638005967,-0.3817891986,0.1498601\C,16.5832880705,-0.0437773996,0.21
 87723242\O,15.9906126258,0.7169100774,1.1671887056\C,16.8006431972,1.2
 065834649,2.2044202175\C,15.8345994504,-0.5695956753,-0.8042783861\S,1
 6.8456490923,-1.4901467108,-1.8620753613\C,14.4063569797,-0.4104104812
 ,-1.0170186187\C,13.6533681031,-0.9445540203,-2.0328060769\O,14.242015
 6041,-1.7113157961,-2.9769849113\C,13.4222434118,-2.2357075992,-3.9903
 936878\C,12.2782894273,-0.5996625578,-1.969541037\C,11.9983807307,0.19
 59174859,-0.8971710475\S,13.3992090031,0.5152270677,0.0396039374\C,10.
 7074080766,0.7514885388,-0.5139805219\C,10.465295659,1.8926825456,0.19
 41859039\C,9.0743865045,2.1271120956,0.3926508981\O,8.5297688982,3.153
 1558646,1.072947996\C,9.4109677206,4.1116613024,1.5977289638\C,8.28092
 79312,1.1697204807,-0.1802384571\S,9.2471734818,-0.0363884033,-0.94813
 38386\C,6.8272155088,1.1065649536,-0.1798652206\C,5.9489913213,2.08119
 05758,-0.5717368236\O,6.3965713382,3.2561075176,-1.052693053\C,5.43180
 79963,4.2221726848,-1.37951333\C,4.5857236719,1.6893926123,-0.44290207
 71\C,4.4506774132,0.4189975222,0.0364583031\S,5.9760393129,-0.29235135
 14,0.3630445681\C,3.2164672081,-0.3181843921,0.2747981471\C,3.03608502
 6,-1.6706151403,0.2623665949\C,1.6847514443,-2.0429309446,0.514935953\
 O,1.1943337477,-3.2962204763,0.5266941174\C,2.1125749229,-4.3438884107
 ,0.3520746076\C,0.8620165668,-0.9685461034,0.7244851378\S,1.7537600223
 ,0.505047265,0.6249184184\C,-0.5650955571,-0.9851695408,1.0068734064\C
 ,-1.2144591522,-1.688535606,1.9858972564\O,-0.5265490929,-2.46016816,2
 .8479023166\C,-1.2704141194,-3.176982494,3.7985047253\C,-2.622380097,-
 1.4733642939,1.9883385999\C,-3.0200026955,-0.6022419514,1.0158032428\S
 ,-1.6898555618,-0.0669610874,0.0746693088\C,-4.3700911245,-0.133714964
 ,0.7353041034\C,-4.7401950631,1.0453045112,0.1564589475\C,-6.149530841
 2,1.1674108193,0.0503404825\O,-6.824031433,2.2176298432,-0.4675625815\
 C,-6.0673660848,3.2778893862,-0.9942829833\C,-6.8391419263,0.089080378
 6,0.5475717423\S,-5.7299661424,-1.0980878743,1.1386423191\C,-8.2782433
 311,-0.0884175749,0.5904992045\C,-8.9669163669,-1.1754187386,1.0693679
 643\O,-8.2913238889,-2.2312208689,1.5745184785\C,-9.0455276972,-3.3253
 988429,2.0305188598\C,-10.376940074,-1.0460718028,0.9812358915\C,-10.7
 490640318,0.1456044372,0.4295630794\S,-9.3887376049,1.101649791,0.0068
 157248\C,-12.0998533853,0.63167087,0.188102168\C,-12.5215060703,1.9280
 271937,0.1243821775\C,-13.9161774257,2.02368416,-0.119460307\O,-14.631
 4563483,3.1651582537,-0.2281452593\C,-13.9371350915,4.379868121,-0.102
 4594997\C,-14.5440621254,0.8087689809,-0.2362307768\S,-13.392479358,-0
 .4685968483,-0.0603909257\C,-15.9560713794,0.56849544,-0.4786514091\C,
 -16.5796475433,-0.6473920886,-0.6068729798\O,-15.8608915033,-1.7888858
 527,-0.5057714341\C,-16.5461468617,-3.0026280666,-0.6751392218\C,-17.9
 797741509,-0.5506328203,-0.8416476707\C,-18.3882712408,0.7435555226,-0
 .8860516699\S,-17.1106666791,1.8438700089,-0.6491505612\H,19.196014929
 7,-1.5623015911,-1.2252467737\H,18.7176596467,-0.0643943706,0.86373257
 59\H,17.5896469521,1.869663197,1.8209542965\H,16.1450364307,1.77942484
 51,2.8659685365\H,17.2598700501,0.3881181369,2.7774097125\H,12.9536853
 643,-1.4367512253,-4.5828641149\H,12.6403568819,-2.889132405,-3.577435
 7493\H,14.0733976534,-2.8260690889,-4.640680167\H,11.527575738,-0.9023
 845711,-2.6937099194\H,11.261479723,2.5423359765,0.5460273501\H,9.9919
 343193,4.6050349594,0.8049180123\H,10.1013276368,3.6708650572,2.331864
 8779\H,8.7911944257,4.8591880992,2.1006573475\H,4.8199952747,4.4946169
 107,-0.5072351624\H,5.9806209972,5.1054166549,-1.7178986852\H,4.773157
 301,3.8813735046,-2.191914329\H,3.7341572485,2.3025638755,-0.723615062
 1\H,3.8414972324,-2.3663533444,0.0451123403\H,2.5994815629,-4.29842589
 95,-0.6331734754\H,1.5388540365,-5.2723942744,0.4191136017\H,2.8825111
 431,-4.3425196523,1.1372907327\H,-1.9786396625,-3.869186283,3.32024983
 85\H,-1.8201174534,-2.5063275118,4.4751964516\H,-0.5496077333,-3.75483
 77886,4.3835998949\H,-3.3163229303,-1.9122140115,2.6994289372\H,-4.025
 3622373,1.8002802425,-0.1575337208\H,-6.7839850713,4.0081667884,-1.379
 7058746\H,-5.4504899455,3.7557934665,-0.2196925943\H,-5.4215934346,2.9
 404907205,-1.8175926663\H,-9.6513764137,-3.7602578037,1.2227270513\H,-
 8.3275183995,-4.072535328,2.3793626328\H,-9.701854014,-3.0416661012,2.
 8657293923\H,-11.0923409683,-1.7851233195,1.3296611464\H,-11.856656956
 5,2.7740476339,0.271714335\H,-13.4716215893,4.4768289075,0.8889191695\
 H,-13.1654566727,4.4842840195,-0.8786787269\H,-14.6780091413,5.1742244
 9,-0.2272337047\H,-17.3220510427,-3.1381693537,0.0922666599\H,-15.8013
 396324,-3.7964973328,-0.5718238687\H,-17.0049278162,-3.070523014,-1.67
 21533776\H,-18.6480235916,-1.3964409966,-0.9710139448\H,-19.3979847117
 ,1.1071385691,-1.0504045436\\Version=EM64L-G16RevA.03\State=1-A\HF=-66
 61.8031321\S2=0.\S2-1=0.\S2A=0.\RMSD=7.820e-09\RMSF=1.039e-06\Dipole=0
 .0395898,0.0480277,0.4561053\Quadrupole=26.6322836,7.6282998,-34.26058
 34,25.9090134,7.376855,-3.0007043\PG=C01 [X(C50H42O10S10)]\\@


 TRUTH, IN SCIENCE, CAN BE DEFINED AS THE WORKING HYPOTHESIS 
 BEST FITTED TO OPEN THE WAY TO THE NEXT BETTER ONE.

                              -- KONRAD LORENZ
 Job cpu time:       4 days 14 hours 56 minutes 31.8 seconds.
 Elapsed time:       0 days 14 hours  6 minutes 23.3 seconds.
 File lengths (MBytes):  RWF=   1704 Int=      0 D2E=      0 Chk=    152 Scr=      8
 Normal termination of Gaussian 16 at Sun Jul 26 04:20:48 2020.
