 Entering Gaussian System, Link 0=g16
 Input=mols_66_5_16_c-n-cOC-cOC_opt_0.gjf
 Output=mols_66_5_16_c-n-cOC-cOC_opt_0.log
 Initial command:
 /opt/ohpc/pub/libs/gaussian/g16-A.03/sandybridge/g16/l1.exe "/mnt/gpfs2_4m/scratch/rdu230/ondemand/projects/dihedral_energies/7trial/wtuning/redos_512cycles/mols_66_5_16_c-n-cOC-cOC/Gau-348804.inp" -scrdir="/mnt/gpfs2_4m/scratch/rdu230/ondemand/projects/dihedral_energies/7trial/wtuning/redos_512cycles/mols_66_5_16_c-n-cOC-cOC/"
 Entering Link 1 = /opt/ohpc/pub/libs/gaussian/g16-A.03/sandybridge/g16/l1.exe PID=    348806.
  
 Copyright (c) 1988,1990,1992,1993,1995,1998,2003,2009,2016,
            Gaussian, Inc.  All Rights Reserved.
  
 This is part of the Gaussian(R) 16 program.  It is based on
 the Gaussian(R) 09 system (copyright 2009, Gaussian, Inc.),
 the Gaussian(R) 03 system (copyright 2003, Gaussian, Inc.),
 the Gaussian(R) 98 system (copyright 1998, Gaussian, Inc.),
 the Gaussian(R) 94 system (copyright 1995, Gaussian, Inc.),
 the Gaussian 92(TM) system (copyright 1992, Gaussian, Inc.),
 the Gaussian 90(TM) system (copyright 1990, Gaussian, Inc.),
 the Gaussian 88(TM) system (copyright 1988, Gaussian, Inc.),
 the Gaussian 86(TM) system (copyright 1986, Carnegie Mellon
 University), and the Gaussian 82(TM) system (copyright 1983,
 Carnegie Mellon University). Gaussian is a federally registered
 trademark of Gaussian, Inc.
  
 This software contains proprietary and confidential information,
 including trade secrets, belonging to Gaussian, Inc.
  
 This software is provided under written license and may be
 used, copied, transmitted, or stored only in accord with that
 written license.
  
 The following legend is applicable only to US Government
 contracts under FAR:
  
                    RESTRICTED RIGHTS LEGEND
  
 Use, reproduction and disclosure by the US Government is
 subject to restrictions as set forth in subparagraphs (a)
 and (c) of the Commercial Computer Software - Restricted
 Rights clause in FAR 52.227-19.
  
 Gaussian, Inc.
 340 Quinnipiac St., Bldg. 40, Wallingford CT 06492
  
  
 ---------------------------------------------------------------
 Warning -- This program may not be used in any manner that
 competes with the business of Gaussian, Inc. or will provide
 assistance to any competitor of Gaussian, Inc.  The licensee
 of this program is prohibited from giving any competitor of
 Gaussian, Inc. access to this program.  By using this program,
 the user acknowledges that Gaussian, Inc. is engaged in the
 business of creating and licensing software in the field of
 computational chemistry and represents and warrants to the
 licensee that it is not a competitor of Gaussian, Inc. and that
 it will not use this program in any manner prohibited above.
 ---------------------------------------------------------------
  

 Cite this work as:
 Gaussian 16, Revision A.03,
 M. J. Frisch, G. W. Trucks, H. B. Schlegel, G. E. Scuseria, 
 M. A. Robb, J. R. Cheeseman, G. Scalmani, V. Barone, 
 G. A. Petersson, H. Nakatsuji, X. Li, M. Caricato, A. V. Marenich, 
 J. Bloino, B. G. Janesko, R. Gomperts, B. Mennucci, H. P. Hratchian, 
 J. V. Ortiz, A. F. Izmaylov, J. L. Sonnenberg, D. Williams-Young, 
 F. Ding, F. Lipparini, F. Egidi, J. Goings, B. Peng, A. Petrone, 
 T. Henderson, D. Ranasinghe, V. G. Zakrzewski, J. Gao, N. Rega, 
 G. Zheng, W. Liang, M. Hada, M. Ehara, K. Toyota, R. Fukuda, 
 J. Hasegawa, M. Ishida, T. Nakajima, Y. Honda, O. Kitao, H. Nakai, 
 T. Vreven, K. Throssell, J. A. Montgomery, Jr., J. E. Peralta, 
 F. Ogliaro, M. J. Bearpark, J. J. Heyd, E. N. Brothers, K. N. Kudin, 
 V. N. Staroverov, T. A. Keith, R. Kobayashi, J. Normand, 
 K. Raghavachari, A. P. Rendell, J. C. Burant, S. S. Iyengar, 
 J. Tomasi, M. Cossi, J. M. Millam, M. Klene, C. Adamo, R. Cammi, 
 J. W. Ochterski, R. L. Martin, K. Morokuma, O. Farkas, 
 J. B. Foresman, and D. J. Fox, Gaussian, Inc., Wallingford CT, 2016.
 
 ******************************************
 Gaussian 16:  EM64L-G16RevA.03 25-Dec-2016
                26-Jul-2020 
 ******************************************
 %mem=30GB
 %nproc=8
 Will use up to    8 processors via shared memory.
 ---------------------------------------------------------------
 #P uLC-wPBE/cc-pVDZ iop(3/107=0086900000, 3/108=0086900000) opt
 ---------------------------------------------------------------
 1/18=20,19=15,26=3,38=1/1,3;
 2/9=110,12=2,17=6,18=5,40=1/2;
 3/5=16,11=2,25=1,30=1,71=1,74=-41,107=86900000,108=86900000,116=2/1,2,3;
 4//1;
 5/5=2,38=5/2;
 6/7=2,8=2,9=2,10=2,28=1/1;
 7//1,2,3,16;
 1/18=20,19=15,26=3/3(2);
 2/9=110/2;
 99//99;
 2/9=110/2;
 3/5=16,11=2,25=1,30=1,71=1,74=-41,107=86900000,108=86900000,116=2/1,2,3;
 4/5=5,16=3,69=1/1;
 5/5=2,38=5/2;
 7//1,2,3,16;
 1/18=20,19=15,26=3/3(-5);
 2/9=110/2;
 6/7=2,8=2,9=2,10=2,19=2,28=1/1;
 99/9=1/99;
 Leave Link    1 at Sun Jul 26 12:21:37 2020, MaxMem=  4026531840 cpu:               1.0 elap:               0.1
 (Enter /opt/ohpc/pub/libs/gaussian/g16-A.03/sandybridge/g16/l101.exe)
 --------------
 H57 C65 N5 O10
 --------------
 Symbolic Z-matrix:
 Charge =  0 Multiplicity = 1
 C                    -20.14044  -2.41583   0.06268 
 C                    -19.79051  -1.11603  -0.48389 
 C                    -18.52312  -0.79564  -0.5107 
 O                    -18.00093   0.34689  -1.03887 
 C                    -18.99709   1.31693  -1.60596 
 C                    -17.5717  -1.69528   0.0309 
 N                    -17.88701  -2.90077   0.5623 
 C                    -19.1373  -3.21397   0.57757 
 C                    -16.07367  -1.35857  -0.01257 
 C                    -15.35632  -1.70808  -1.13011 
 C                    -13.97526  -1.44685  -1.17482 
 C                    -13.28703  -0.92372  -0.02471 
 C                    -14.10108  -0.63832   1.10708 
 C                    -15.40538  -0.84655   1.12638 
 O                    -16.22716  -0.53317   2.21384 
 C                    -15.56484  -0.62841   3.50693 
 C                    -11.87524  -0.56249  -0.02706 
 C                    -10.91732  -1.51223  -0.50367 
 C                    -9.592    -1.26388  -0.45481 
 O                    -8.55363  -2.193    -0.86479 
 C                    -8.98272  -3.00433  -1.98416 
 C                    -9.18439  -0.01589  -0.01997 
 N                    -10.04701   0.97326   0.39492 
 C                    -11.2894   0.65885   0.36672 
 C                    -7.7695    0.35914   0.03403 
 C                    -6.91172  -0.10903   1.03758 
 C                    -5.50299   0.16378   1.11375 
 C                    -4.98258   0.9435    0.13621 
 C                    -5.77086   1.53334  -0.81111 
 C                    -7.15723   1.19553  -0.883 
 O                    -7.81903   1.67961  -1.95367 
 C                    -8.32455   3.04793  -1.67984 
 C                    -3.44233   1.14392   0.1567 
 C                    -2.92482   2.4597    0.27666 
 C                    -1.54603   2.63835   0.2459 
 O                    -0.89107   3.80578   0.3548 
 C                    -1.60374   4.95751   0.38365 
 C                    -0.71476   1.47893   0.14494 
 N                    -1.25706   0.15111   0.08526 
 C                    -2.5965    0.04709   0.12784 
 C                     0.72628   1.46967   0.22819 
 C                     1.4637    1.57781   1.39359 
 C                     2.78248   1.4916    1.52108 
 C                     3.53629   1.21015   0.37179 
 C                     2.942     1.08083  -0.88604 
 C                     1.54146   1.22457  -0.99575 
 O                     0.74324   1.12479  -2.14668 
 C                     1.41192   0.557    -3.24159 
 C                     4.99167   0.97132   0.39618 
 C                     5.60099   0.17387   1.45829 
 C                     7.01943  -0.07622   1.46612 
 O                     7.55168  -0.87135   2.37114 
 C                     6.99017  -0.98193   3.64215 
 C                     7.76878   0.49389   0.451 
 N                     7.23761   1.39433  -0.51609 
 C                     5.90857   1.57224  -0.54149 
 C                     9.22992   0.36216   0.3306 
 C                     9.73289  -0.86629  -0.25611 
 C                     11.08537  -1.08883  -0.23897 
 C                     12.04848  -0.17268   0.24532 
 C                     11.54657   0.9781    0.73792 
 C                     10.16236   1.22035   0.852 
 O                     9.72023   2.46148   1.45515 
 C                     9.69624   3.51781   0.55827 
 C                     13.47056  -0.42158   0.11641 
 C                     14.30971   0.27681  -0.7541 
 C                     15.69809  -0.05397  -0.73123 
 O                     16.52996   0.59564  -1.61538 
 C                     16.06481   1.15172  -2.7746 
 C                     16.15173  -1.01935   0.06395 
 N                     15.3188  -1.67839   0.99581 
 C                     14.02141  -1.36685   1.01037 
 C                     17.58361  -1.37895   0.16071 
 C                     18.47248  -0.7944    1.06454 
 C                     19.79154  -1.13225   1.14708 
 C                     20.33499  -2.1233    0.18945 
 C                     19.46782  -2.70365  -0.73869 
 C                     18.13432  -2.38724  -0.75349 
 O                     17.31705  -2.95229  -1.65081 
 C                     16.87812  -4.32409  -1.16904 
 H                    -21.24307  -2.71633   0.1659 
 H                    -20.61499  -0.45986  -0.81553 
 H                    -19.49374   0.89294  -2.43623 
 H                    -19.66259   1.7032   -0.82192 
 H                    -18.38929   2.12925  -1.94116 
 H                    -19.40282  -4.14419   0.95187 
 H                    -15.81121  -2.14556  -2.00264 
 H                    -13.36708  -1.6816   -2.05072 
 H                    -13.5687  -0.12577   1.97611 
 H                    -16.38686  -0.57295   4.26796 
 H                    -15.05271   0.29001   3.62633 
 H                    -14.93844  -1.49116   3.61328 
 H                    -11.25596  -2.51361  -0.73538 
 H                    -8.06838  -3.45528  -2.38531 
 H                    -9.63622  -3.76838  -1.66454 
 H                    -9.36355  -2.31289  -2.80311 
 H                    -11.95284   1.45341   0.65908 
 H                    -7.34104  -0.76423   1.80551 
 H                    -4.94927  -0.35416   1.93289 
 H                    -5.31138   2.16355  -1.66619 
 H                    -7.4002    3.71168  -1.73578 
 H                    -8.7372    3.16532  -0.65538 
 H                    -9.0199    3.2922   -2.43828 
 H                    -3.60262   3.34166   0.28876 
 H                    -2.27007   5.01111   1.35087 
 H                    -2.25058   5.07898  -0.5376 
 H                    -1.00989   5.84572   0.44749 
 H                    -2.9916   -0.95794  -0.00769 
 H                     0.89561   1.79475   2.32391 
 H                     3.31594   1.63366   2.45237 
 H                     3.48029   0.8868   -1.83405 
 H                     1.89615  -0.47547  -3.03161 
 H                     2.27018   1.24146  -3.65038 
 H                     0.67281   0.43932  -4.05062 
 H                     4.93049  -0.35522   2.15612 
 H                     6.71934  -0.01578   4.00368 
 H                     6.08352  -1.65629   3.4902 
 H                     7.66211  -1.43238   4.30339 
 H                     5.55337   2.23676  -1.32731 
 H                     8.99162  -1.59224  -0.63343 
 H                     11.42172  -2.04866  -0.68287 
 H                     12.2635   1.7636    1.19522 
 H                     9.1717    3.30879  -0.38486 
 H                     10.73236   3.77408   0.30601 
 H                     9.21358   4.38061   0.98281 
 H                     13.83938   0.96608  -1.37596 
 H                     15.45166   0.35213  -3.30439 
 H                     15.50193   2.07369  -2.57082 
 H                     16.88677   1.34305  -3.39471 
 H                     13.4103  -1.97214   1.72975 
 H                     18.08441  -0.12612   1.77044 
 H                     20.4537  -0.64861   1.82178 
 H                     21.3522  -2.34291   0.28543 
 H                     19.83049  -3.4474   -1.35407 
 H                     17.75843  -5.01218  -1.3195 
 H                     16.05554  -4.60328  -1.87871 
 H                     16.48748  -4.28801  -0.15704 
 
 ITRead=  0  0  0  0  0  0  0  0  0  0  0  0  0  0  0  0  0  0  0  0
 ITRead=  0  0  0  0  0  0  0  0  0  0  0  0  0  0  0  0  0  0  0  0
 ITRead=  0  0  0  0  0  0  0  0  0  0  0  0  0  0  0  0  0  0  0  0
 ITRead=  0  0  0  0  0  0  0  0  0  0  0  0  0  0  0  0  0  0  0  0
 ITRead=  0  0  0  0  0  0  0  0  0  0  0  0  0  0  0  0  0  0  0  0
 ITRead=  0  0  0  0  0  0  0  0  0  0  0  0  0  0  0  0  0  0  0  0
 ITRead=  0  0  0  0  0  0  0  0  0  0  0  0  0  0  0  0  0
 MicOpt= -1 -1 -1 -1 -1 -1 -1 -1 -1 -1 -1 -1 -1 -1 -1 -1 -1 -1 -1 -1
 MicOpt= -1 -1 -1 -1 -1 -1 -1 -1 -1 -1 -1 -1 -1 -1 -1 -1 -1 -1 -1 -1
 MicOpt= -1 -1 -1 -1 -1 -1 -1 -1 -1 -1 -1 -1 -1 -1 -1 -1 -1 -1 -1 -1
 MicOpt= -1 -1 -1 -1 -1 -1 -1 -1 -1 -1 -1 -1 -1 -1 -1 -1 -1 -1 -1 -1
 MicOpt= -1 -1 -1 -1 -1 -1 -1 -1 -1 -1 -1 -1 -1 -1 -1 -1 -1 -1 -1 -1
 MicOpt= -1 -1 -1 -1 -1 -1 -1 -1 -1 -1 -1 -1 -1 -1 -1 -1 -1 -1 -1 -1
 MicOpt= -1 -1 -1 -1 -1 -1 -1 -1 -1 -1 -1 -1 -1 -1 -1 -1 -1
 NAtoms=    137 NQM=      137 NQMF=       0 NMMI=      0 NMMIF=      0
                NMic=       0 NMicF=      0.
                    Isotopes and Nuclear Properties:
 (Nuclear quadrupole moments (NQMom) in fm**2, nuclear magnetic moments (NMagM)
  in nuclear magnetons)

  Atom         1           2           3           4           5           6           7           8           9          10
 IAtWgt=          12          12          12          16          12          12          14          12          12          12
 AtmWgt=  12.0000000  12.0000000  12.0000000  15.9949146  12.0000000  12.0000000  14.0030740  12.0000000  12.0000000  12.0000000
 NucSpn=           0           0           0           0           0           0           2           0           0           0
 AtZEff=  -0.0000000  -0.0000000  -0.0000000  -0.0000000  -0.0000000  -0.0000000  -0.0000000  -0.0000000  -0.0000000  -0.0000000
 NQMom=    0.0000000   0.0000000   0.0000000   0.0000000   0.0000000   0.0000000   2.0440000   0.0000000   0.0000000   0.0000000
 NMagM=    0.0000000   0.0000000   0.0000000   0.0000000   0.0000000   0.0000000   0.4037610   0.0000000   0.0000000   0.0000000
 AtZNuc=   6.0000000   6.0000000   6.0000000   8.0000000   6.0000000   6.0000000   7.0000000   6.0000000   6.0000000   6.0000000

  Atom        11          12          13          14          15          16          17          18          19          20
 IAtWgt=          12          12          12          12          16          12          12          12          12          16
 AtmWgt=  12.0000000  12.0000000  12.0000000  12.0000000  15.9949146  12.0000000  12.0000000  12.0000000  12.0000000  15.9949146
 NucSpn=           0           0           0           0           0           0           0           0           0           0
 AtZEff=  -0.0000000  -0.0000000  -0.0000000  -0.0000000  -0.0000000  -0.0000000  -0.0000000  -0.0000000  -0.0000000  -0.0000000
 NQMom=    0.0000000   0.0000000   0.0000000   0.0000000   0.0000000   0.0000000   0.0000000   0.0000000   0.0000000   0.0000000
 NMagM=    0.0000000   0.0000000   0.0000000   0.0000000   0.0000000   0.0000000   0.0000000   0.0000000   0.0000000   0.0000000
 AtZNuc=   6.0000000   6.0000000   6.0000000   6.0000000   8.0000000   6.0000000   6.0000000   6.0000000   6.0000000   8.0000000

  Atom        21          22          23          24          25          26          27          28          29          30
 IAtWgt=          12          12          14          12          12          12          12          12          12          12
 AtmWgt=  12.0000000  12.0000000  14.0030740  12.0000000  12.0000000  12.0000000  12.0000000  12.0000000  12.0000000  12.0000000
 NucSpn=           0           0           2           0           0           0           0           0           0           0
 AtZEff=  -0.0000000  -0.0000000  -0.0000000  -0.0000000  -0.0000000  -0.0000000  -0.0000000  -0.0000000  -0.0000000  -0.0000000
 NQMom=    0.0000000   0.0000000   2.0440000   0.0000000   0.0000000   0.0000000   0.0000000   0.0000000   0.0000000   0.0000000
 NMagM=    0.0000000   0.0000000   0.4037610   0.0000000   0.0000000   0.0000000   0.0000000   0.0000000   0.0000000   0.0000000
 AtZNuc=   6.0000000   6.0000000   7.0000000   6.0000000   6.0000000   6.0000000   6.0000000   6.0000000   6.0000000   6.0000000

  Atom        31          32          33          34          35          36          37          38          39          40
 IAtWgt=          16          12          12          12          12          16          12          12          14          12
 AtmWgt=  15.9949146  12.0000000  12.0000000  12.0000000  12.0000000  15.9949146  12.0000000  12.0000000  14.0030740  12.0000000
 NucSpn=           0           0           0           0           0           0           0           0           2           0
 AtZEff=  -0.0000000  -0.0000000  -0.0000000  -0.0000000  -0.0000000  -0.0000000  -0.0000000  -0.0000000  -0.0000000  -0.0000000
 NQMom=    0.0000000   0.0000000   0.0000000   0.0000000   0.0000000   0.0000000   0.0000000   0.0000000   2.0440000   0.0000000
 NMagM=    0.0000000   0.0000000   0.0000000   0.0000000   0.0000000   0.0000000   0.0000000   0.0000000   0.4037610   0.0000000
 AtZNuc=   8.0000000   6.0000000   6.0000000   6.0000000   6.0000000   8.0000000   6.0000000   6.0000000   7.0000000   6.0000000

  Atom        41          42          43          44          45          46          47          48          49          50
 IAtWgt=          12          12          12          12          12          12          16          12          12          12
 AtmWgt=  12.0000000  12.0000000  12.0000000  12.0000000  12.0000000  12.0000000  15.9949146  12.0000000  12.0000000  12.0000000
 NucSpn=           0           0           0           0           0           0           0           0           0           0
 AtZEff=  -0.0000000  -0.0000000  -0.0000000  -0.0000000  -0.0000000  -0.0000000  -0.0000000  -0.0000000  -0.0000000  -0.0000000
 NQMom=    0.0000000   0.0000000   0.0000000   0.0000000   0.0000000   0.0000000   0.0000000   0.0000000   0.0000000   0.0000000
 NMagM=    0.0000000   0.0000000   0.0000000   0.0000000   0.0000000   0.0000000   0.0000000   0.0000000   0.0000000   0.0000000
 AtZNuc=   6.0000000   6.0000000   6.0000000   6.0000000   6.0000000   6.0000000   8.0000000   6.0000000   6.0000000   6.0000000

  Atom        51          52          53          54          55          56          57          58          59          60
 IAtWgt=          12          16          12          12          14          12          12          12          12          12
 AtmWgt=  12.0000000  15.9949146  12.0000000  12.0000000  14.0030740  12.0000000  12.0000000  12.0000000  12.0000000  12.0000000
 NucSpn=           0           0           0           0           2           0           0           0           0           0
 AtZEff=  -0.0000000  -0.0000000  -0.0000000  -0.0000000  -0.0000000  -0.0000000  -0.0000000  -0.0000000  -0.0000000  -0.0000000
 NQMom=    0.0000000   0.0000000   0.0000000   0.0000000   2.0440000   0.0000000   0.0000000   0.0000000   0.0000000   0.0000000
 NMagM=    0.0000000   0.0000000   0.0000000   0.0000000   0.4037610   0.0000000   0.0000000   0.0000000   0.0000000   0.0000000
 AtZNuc=   6.0000000   8.0000000   6.0000000   6.0000000   7.0000000   6.0000000   6.0000000   6.0000000   6.0000000   6.0000000

  Atom        61          62          63          64          65          66          67          68          69          70
 IAtWgt=          12          12          16          12          12          12          12          16          12          12
 AtmWgt=  12.0000000  12.0000000  15.9949146  12.0000000  12.0000000  12.0000000  12.0000000  15.9949146  12.0000000  12.0000000
 NucSpn=           0           0           0           0           0           0           0           0           0           0
 AtZEff=  -0.0000000  -0.0000000  -0.0000000  -0.0000000  -0.0000000  -0.0000000  -0.0000000  -0.0000000  -0.0000000  -0.0000000
 NQMom=    0.0000000   0.0000000   0.0000000   0.0000000   0.0000000   0.0000000   0.0000000   0.0000000   0.0000000   0.0000000
 NMagM=    0.0000000   0.0000000   0.0000000   0.0000000   0.0000000   0.0000000   0.0000000   0.0000000   0.0000000   0.0000000
 AtZNuc=   6.0000000   6.0000000   8.0000000   6.0000000   6.0000000   6.0000000   6.0000000   8.0000000   6.0000000   6.0000000

  Atom        71          72          73          74          75          76          77          78          79          80
 IAtWgt=          14          12          12          12          12          12          12          12          16          12
 AtmWgt=  14.0030740  12.0000000  12.0000000  12.0000000  12.0000000  12.0000000  12.0000000  12.0000000  15.9949146  12.0000000
 NucSpn=           2           0           0           0           0           0           0           0           0           0
 AtZEff=  -0.0000000  -0.0000000  -0.0000000  -0.0000000  -0.0000000  -0.0000000  -0.0000000  -0.0000000  -0.0000000  -0.0000000
 NQMom=    2.0440000   0.0000000   0.0000000   0.0000000   0.0000000   0.0000000   0.0000000   0.0000000   0.0000000   0.0000000
 NMagM=    0.4037610   0.0000000   0.0000000   0.0000000   0.0000000   0.0000000   0.0000000   0.0000000   0.0000000   0.0000000
 AtZNuc=   7.0000000   6.0000000   6.0000000   6.0000000   6.0000000   6.0000000   6.0000000   6.0000000   8.0000000   6.0000000

  Atom        81          82          83          84          85          86          87          88          89          90
 IAtWgt=           1           1           1           1           1           1           1           1           1           1
 AtmWgt=   1.0078250   1.0078250   1.0078250   1.0078250   1.0078250   1.0078250   1.0078250   1.0078250   1.0078250   1.0078250
 NucSpn=           1           1           1           1           1           1           1           1           1           1
 AtZEff=  -0.0000000  -0.0000000  -0.0000000  -0.0000000  -0.0000000  -0.0000000  -0.0000000  -0.0000000  -0.0000000  -0.0000000
 NQMom=    0.0000000   0.0000000   0.0000000   0.0000000   0.0000000   0.0000000   0.0000000   0.0000000   0.0000000   0.0000000
 NMagM=    2.7928460   2.7928460   2.7928460   2.7928460   2.7928460   2.7928460   2.7928460   2.7928460   2.7928460   2.7928460
 AtZNuc=   1.0000000   1.0000000   1.0000000   1.0000000   1.0000000   1.0000000   1.0000000   1.0000000   1.0000000   1.0000000

  Atom        91          92          93          94          95          96          97          98          99         100
 IAtWgt=           1           1           1           1           1           1           1           1           1           1
 AtmWgt=   1.0078250   1.0078250   1.0078250   1.0078250   1.0078250   1.0078250   1.0078250   1.0078250   1.0078250   1.0078250
 NucSpn=           1           1           1           1           1           1           1           1           1           1
 AtZEff=  -0.0000000  -0.0000000  -0.0000000  -0.0000000  -0.0000000  -0.0000000  -0.0000000  -0.0000000  -0.0000000  -0.0000000
 NQMom=    0.0000000   0.0000000   0.0000000   0.0000000   0.0000000   0.0000000   0.0000000   0.0000000   0.0000000   0.0000000
 NMagM=    2.7928460   2.7928460   2.7928460   2.7928460   2.7928460   2.7928460   2.7928460   2.7928460   2.7928460   2.7928460
 AtZNuc=   1.0000000   1.0000000   1.0000000   1.0000000   1.0000000   1.0000000   1.0000000   1.0000000   1.0000000   1.0000000

  Atom       101         102         103         104         105         106         107         108         109         110
 IAtWgt=           1           1           1           1           1           1           1           1           1           1
 AtmWgt=   1.0078250   1.0078250   1.0078250   1.0078250   1.0078250   1.0078250   1.0078250   1.0078250   1.0078250   1.0078250
 NucSpn=           1           1           1           1           1           1           1           1           1           1
 AtZEff=  -0.0000000  -0.0000000  -0.0000000  -0.0000000  -0.0000000  -0.0000000  -0.0000000  -0.0000000  -0.0000000  -0.0000000
 NQMom=    0.0000000   0.0000000   0.0000000   0.0000000   0.0000000   0.0000000   0.0000000   0.0000000   0.0000000   0.0000000
 NMagM=    2.7928460   2.7928460   2.7928460   2.7928460   2.7928460   2.7928460   2.7928460   2.7928460   2.7928460   2.7928460
 AtZNuc=   1.0000000   1.0000000   1.0000000   1.0000000   1.0000000   1.0000000   1.0000000   1.0000000   1.0000000   1.0000000

  Atom       111         112         113         114         115         116         117         118         119         120
 IAtWgt=           1           1           1           1           1           1           1           1           1           1
 AtmWgt=   1.0078250   1.0078250   1.0078250   1.0078250   1.0078250   1.0078250   1.0078250   1.0078250   1.0078250   1.0078250
 NucSpn=           1           1           1           1           1           1           1           1           1           1
 AtZEff=  -0.0000000  -0.0000000  -0.0000000  -0.0000000  -0.0000000  -0.0000000  -0.0000000  -0.0000000  -0.0000000  -0.0000000
 NQMom=    0.0000000   0.0000000   0.0000000   0.0000000   0.0000000   0.0000000   0.0000000   0.0000000   0.0000000   0.0000000
 NMagM=    2.7928460   2.7928460   2.7928460   2.7928460   2.7928460   2.7928460   2.7928460   2.7928460   2.7928460   2.7928460
 AtZNuc=   1.0000000   1.0000000   1.0000000   1.0000000   1.0000000   1.0000000   1.0000000   1.0000000   1.0000000   1.0000000

  Atom       121         122         123         124         125         126         127         128         129         130
 IAtWgt=           1           1           1           1           1           1           1           1           1           1
 AtmWgt=   1.0078250   1.0078250   1.0078250   1.0078250   1.0078250   1.0078250   1.0078250   1.0078250   1.0078250   1.0078250
 NucSpn=           1           1           1           1           1           1           1           1           1           1
 AtZEff=  -0.0000000  -0.0000000  -0.0000000  -0.0000000  -0.0000000  -0.0000000  -0.0000000  -0.0000000  -0.0000000  -0.0000000
 NQMom=    0.0000000   0.0000000   0.0000000   0.0000000   0.0000000   0.0000000   0.0000000   0.0000000   0.0000000   0.0000000
 NMagM=    2.7928460   2.7928460   2.7928460   2.7928460   2.7928460   2.7928460   2.7928460   2.7928460   2.7928460   2.7928460
 AtZNuc=   1.0000000   1.0000000   1.0000000   1.0000000   1.0000000   1.0000000   1.0000000   1.0000000   1.0000000   1.0000000

  Atom       131         132         133         134         135         136         137
 IAtWgt=           1           1           1           1           1           1           1
 AtmWgt=   1.0078250   1.0078250   1.0078250   1.0078250   1.0078250   1.0078250   1.0078250
 NucSpn=           1           1           1           1           1           1           1
 AtZEff=  -0.0000000  -0.0000000  -0.0000000  -0.0000000  -0.0000000  -0.0000000  -0.0000000
 NQMom=    0.0000000   0.0000000   0.0000000   0.0000000   0.0000000   0.0000000   0.0000000
 NMagM=    2.7928460   2.7928460   2.7928460   2.7928460   2.7928460   2.7928460   2.7928460
 AtZNuc=   1.0000000   1.0000000   1.0000000   1.0000000   1.0000000   1.0000000   1.0000000
 Leave Link  101 at Sun Jul 26 12:21:37 2020, MaxMem=  4026531840 cpu:               4.5 elap:               0.7
 (Enter /opt/ohpc/pub/libs/gaussian/g16-A.03/sandybridge/g16/l103.exe)

 GradGradGradGradGradGradGradGradGradGradGradGradGradGradGradGradGradGrad
 Berny optimization.
 Initialization pass.
                           ----------------------------
                           !    Initial Parameters    !
                           ! (Angstroms and Degrees)  !
 --------------------------                            --------------------------
 ! Name  Definition              Value          Derivative Info.                !
 --------------------------------------------------------------------------------
 ! R1    R(1,2)                  1.4528         estimate D2E/DX2                !
 ! R2    R(1,8)                  1.3815         estimate D2E/DX2                !
 ! R3    R(1,81)                 1.1475         estimate D2E/DX2                !
 ! R4    R(2,3)                  1.3075         estimate D2E/DX2                !
 ! R5    R(2,82)                 1.1047         estimate D2E/DX2                !
 ! R6    R(3,4)                  1.3627         estimate D2E/DX2                !
 ! R7    R(3,6)                  1.417          estimate D2E/DX2                !
 ! R8    R(4,5)                  1.5016         estimate D2E/DX2                !
 ! R9    R(5,83)                 1.0563         estimate D2E/DX2                !
 ! R10   R(5,84)                 1.0985         estimate D2E/DX2                !
 ! R11   R(5,85)                 1.0685         estimate D2E/DX2                !
 ! R12   R(6,7)                  1.3546         estimate D2E/DX2                !
 ! R13   R(6,9)                  1.536          estimate D2E/DX2                !
 ! R14   R(7,8)                  1.289          estimate D2E/DX2                !
 ! R15   R(8,86)                 1.0373         estimate D2E/DX2                !
 ! R16   R(9,10)                 1.3732         estimate D2E/DX2                !
 ! R17   R(9,14)                 1.4163         estimate D2E/DX2                !
 ! R18   R(10,11)                1.4063         estimate D2E/DX2                !
 ! R19   R(10,87)                1.0769         estimate D2E/DX2                !
 ! R20   R(11,12)                1.4388         estimate D2E/DX2                !
 ! R21   R(11,88)                1.0919         estimate D2E/DX2                !
 ! R22   R(12,13)                1.4231         estimate D2E/DX2                !
 ! R23   R(12,17)                1.4573         estimate D2E/DX2                !
 ! R24   R(13,14)                1.321          estimate D2E/DX2                !
 ! R25   R(13,89)                1.1408         estimate D2E/DX2                !
 ! R26   R(14,15)                1.3986         estimate D2E/DX2                !
 ! R27   R(15,16)                1.456          estimate D2E/DX2                !
 ! R28   R(16,90)                1.1216         estimate D2E/DX2                !
 ! R29   R(16,91)                1.0583         estimate D2E/DX2                !
 ! R30   R(16,92)                1.0715         estimate D2E/DX2                !
 ! R31   R(17,18)                1.4307         estimate D2E/DX2                !
 ! R32   R(17,24)                1.4106         estimate D2E/DX2                !
 ! R33   R(18,19)                1.3493         estimate D2E/DX2                !
 ! R34   R(18,93)                1.0822         estimate D2E/DX2                !
 ! R35   R(19,20)                1.4524         estimate D2E/DX2                !
 ! R36   R(19,22)                1.383          estimate D2E/DX2                !
 ! R37   R(20,21)                1.4475         estimate D2E/DX2                !
 ! R38   R(21,94)                1.0956         estimate D2E/DX2                !
 ! R39   R(21,95)                1.055          estimate D2E/DX2                !
 ! R40   R(21,96)                1.1375         estimate D2E/DX2                !
 ! R41   R(22,23)                1.3765         estimate D2E/DX2                !
 ! R42   R(22,25)                1.4647         estimate D2E/DX2                !
 ! R43   R(23,24)                1.2819         estimate D2E/DX2                !
 ! R44   R(24,97)                1.0756         estimate D2E/DX2                !
 ! R45   R(25,26)                1.4007         estimate D2E/DX2                !
 ! R46   R(25,30)                1.384          estimate D2E/DX2                !
 ! R47   R(26,27)                1.4369         estimate D2E/DX2                !
 ! R48   R(26,98)                1.097          estimate D2E/DX2                !
 ! R49   R(27,28)                1.3544         estimate D2E/DX2                !
 ! R50   R(27,99)                1.1162         estimate D2E/DX2                !
 ! R51   R(28,29)                1.3663         estimate D2E/DX2                !
 ! R52   R(28,33)                1.5534         estimate D2E/DX2                !
 ! R53   R(29,30)                1.4287         estimate D2E/DX2                !
 ! R54   R(29,100)               1.1573         estimate D2E/DX2                !
 ! R55   R(30,31)                1.3486         estimate D2E/DX2                !
 ! R56   R(31,32)                1.4842         estimate D2E/DX2                !
 ! R57   R(32,101)               1.1394         estimate D2E/DX2                !
 ! R58   R(32,102)               1.1107         estimate D2E/DX2                !
 ! R59   R(32,103)               1.0576         estimate D2E/DX2                !
 ! R60   R(33,34)                1.419          estimate D2E/DX2                !
 ! R61   R(33,40)                1.3854         estimate D2E/DX2                !
 ! R62   R(34,35)                1.3907         estimate D2E/DX2                !
 ! R63   R(34,104)               1.1124         estimate D2E/DX2                !
 ! R64   R(35,36)                1.343          estimate D2E/DX2                !
 ! R65   R(35,38)                1.4302         estimate D2E/DX2                !
 ! R66   R(36,37)                1.3547         estimate D2E/DX2                !
 ! R67   R(37,105)               1.1757         estimate D2E/DX2                !
 ! R68   R(37,106)               1.1322         estimate D2E/DX2                !
 ! R69   R(37,107)               1.0703         estimate D2E/DX2                !
 ! R70   R(38,39)                1.4355         estimate D2E/DX2                !
 ! R71   R(38,41)                1.4435         estimate D2E/DX2                !
 ! R72   R(39,40)                1.3441         estimate D2E/DX2                !
 ! R73   R(40,108)               1.0884         estimate D2E/DX2                !
 ! R74   R(41,42)                1.3833         estimate D2E/DX2                !
 ! R75   R(41,46)                1.4908         estimate D2E/DX2                !
 ! R76   R(42,43)                1.3277         estimate D2E/DX2                !
 ! R77   R(42,109)               1.1114         estimate D2E/DX2                !
 ! R78   R(43,44)                1.403          estimate D2E/DX2                !
 ! R79   R(43,110)               1.0826         estimate D2E/DX2                !
 ! R80   R(44,45)                1.3972         estimate D2E/DX2                !
 ! R81   R(44,49)                1.475          estimate D2E/DX2                !
 ! R82   R(45,46)                1.4122         estimate D2E/DX2                !
 ! R83   R(45,111)               1.1073         estimate D2E/DX2                !
 ! R84   R(46,47)                1.4042         estimate D2E/DX2                !
 ! R85   R(47,48)                1.403          estimate D2E/DX2                !
 ! R86   R(48,112)               1.1596         estimate D2E/DX2                !
 ! R87   R(48,113)               1.1714         estimate D2E/DX2                !
 ! R88   R(48,114)               1.1021         estimate D2E/DX2                !
 ! R89   R(49,50)                1.4613         estimate D2E/DX2                !
 ! R90   R(49,56)                1.4426         estimate D2E/DX2                !
 ! R91   R(50,51)                1.4403         estimate D2E/DX2                !
 ! R92   R(50,115)               1.1029         estimate D2E/DX2                !
 ! R93   R(51,52)                1.317          estimate D2E/DX2                !
 ! R94   R(51,54)                1.3846         estimate D2E/DX2                !
 ! R95   R(52,53)                1.3939         estimate D2E/DX2                !
 ! R96   R(53,116)               1.0665         estimate D2E/DX2                !
 ! R97   R(53,117)               1.1401         estimate D2E/DX2                !
 ! R98   R(53,118)               1.0448         estimate D2E/DX2                !
 ! R99   R(54,55)                1.4242         estimate D2E/DX2                !
 ! R100  R(54,57)                1.472          estimate D2E/DX2                !
 ! R101  R(55,56)                1.3411         estimate D2E/DX2                !
 ! R102  R(56,119)               1.0887         estimate D2E/DX2                !
 ! R103  R(57,58)                1.4513         estimate D2E/DX2                !
 ! R104  R(57,62)                1.3703         estimate D2E/DX2                !
 ! R105  R(58,59)                1.3708         estimate D2E/DX2                !
 ! R106  R(58,120)               1.104          estimate D2E/DX2                !
 ! R107  R(59,60)                1.4147         estimate D2E/DX2                !
 ! R108  R(59,121)               1.1097         estimate D2E/DX2                !
 ! R109  R(60,61)                1.3487         estimate D2E/DX2                !
 ! R110  R(60,65)                1.4494         estimate D2E/DX2                !
 ! R111  R(61,62)                1.4099         estimate D2E/DX2                !
 ! R112  R(61,122)               1.1576         estimate D2E/DX2                !
 ! R113  R(62,63)                1.449          estimate D2E/DX2                !
 ! R114  R(63,64)                1.3859         estimate D2E/DX2                !
 ! R115  R(64,123)               1.0992         estimate D2E/DX2                !
 ! R116  R(64,124)               1.0967         estimate D2E/DX2                !
 ! R117  R(64,125)               1.0759         estimate D2E/DX2                !
 ! R118  R(65,66)                1.3963         estimate D2E/DX2                !
 ! R119  R(65,72)                1.4129         estimate D2E/DX2                !
 ! R120  R(66,67)                1.4274         estimate D2E/DX2                !
 ! R121  R(66,126)               1.0407         estimate D2E/DX2                !
 ! R122  R(67,68)                1.3769         estimate D2E/DX2                !
 ! R123  R(67,70)                1.3304         estimate D2E/DX2                !
 ! R124  R(68,69)                1.3673         estimate D2E/DX2                !
 ! R125  R(69,127)               1.1384         estimate D2E/DX2                !
 ! R126  R(69,128)               1.0993         estimate D2E/DX2                !
 ! R127  R(69,129)               1.0473         estimate D2E/DX2                !
 ! R128  R(70,71)                1.413          estimate D2E/DX2                !
 ! R129  R(70,73)                1.4795         estimate D2E/DX2                !
 ! R130  R(71,72)                1.3344         estimate D2E/DX2                !
 ! R131  R(72,130)               1.1213         estimate D2E/DX2                !
 ! R132  R(73,74)                1.396          estimate D2E/DX2                !
 ! R133  R(73,78)                1.4682         estimate D2E/DX2                !
 ! R134  R(74,75)                1.3641         estimate D2E/DX2                !
 ! R135  R(74,131)               1.0467         estimate D2E/DX2                !
 ! R136  R(75,76)                1.4814         estimate D2E/DX2                !
 ! R137  R(75,132)               1.0619         estimate D2E/DX2                !
 ! R138  R(76,77)                1.3965         estimate D2E/DX2                !
 ! R139  R(76,133)               1.0451         estimate D2E/DX2                !
 ! R140  R(77,78)                1.3706         estimate D2E/DX2                !
 ! R141  R(77,134)               1.0312         estimate D2E/DX2                !
 ! R142  R(78,79)                1.3388         estimate D2E/DX2                !
 ! R143  R(79,80)                1.5188         estimate D2E/DX2                !
 ! R144  R(80,135)               1.1274         estimate D2E/DX2                !
 ! R145  R(80,136)               1.1217         estimate D2E/DX2                !
 ! R146  R(80,137)               1.0854         estimate D2E/DX2                !
 ! A1    A(2,1,8)              118.8306         estimate D2E/DX2                !
 ! A2    A(2,1,81)             119.9723         estimate D2E/DX2                !
 ! A3    A(8,1,81)             120.8589         estimate D2E/DX2                !
 ! A4    A(1,2,3)              117.4135         estimate D2E/DX2                !
 ! A5    A(1,2,82)             117.6849         estimate D2E/DX2                !
 ! A6    A(3,2,82)             124.8712         estimate D2E/DX2                !
 ! A7    A(2,3,4)              125.7902         estimate D2E/DX2                !
 ! A8    A(2,3,6)              119.1706         estimate D2E/DX2                !
 ! A9    A(4,3,6)              115.0337         estimate D2E/DX2                !
 ! A10   A(3,4,5)              115.7067         estimate D2E/DX2                !
 ! A11   A(4,5,83)             110.4539         estimate D2E/DX2                !
 ! A12   A(4,5,84)             111.0694         estimate D2E/DX2                !
 ! A13   A(4,5,85)             103.4281         estimate D2E/DX2                !
 ! A14   A(83,5,84)            114.6634         estimate D2E/DX2                !
 ! A15   A(83,5,85)            109.0276         estimate D2E/DX2                !
 ! A16   A(84,5,85)            107.529          estimate D2E/DX2                !
 ! A17   A(3,6,7)              123.962          estimate D2E/DX2                !
 ! A18   A(3,6,9)              120.3204         estimate D2E/DX2                !
 ! A19   A(7,6,9)              115.6701         estimate D2E/DX2                !
 ! A20   A(6,7,8)              116.5292         estimate D2E/DX2                !
 ! A21   A(1,8,7)              124.0233         estimate D2E/DX2                !
 ! A22   A(1,8,86)             117.8234         estimate D2E/DX2                !
 ! A23   A(7,8,86)             118.0651         estimate D2E/DX2                !
 ! A24   A(6,9,10)             118.4714         estimate D2E/DX2                !
 ! A25   A(6,9,14)             121.1089         estimate D2E/DX2                !
 ! A26   A(10,9,14)            119.9976         estimate D2E/DX2                !
 ! A27   A(9,10,11)            119.448          estimate D2E/DX2                !
 ! A28   A(9,10,87)            122.8292         estimate D2E/DX2                !
 ! A29   A(11,10,87)           117.6816         estimate D2E/DX2                !
 ! A30   A(10,11,12)           120.7903         estimate D2E/DX2                !
 ! A31   A(10,11,88)           122.1806         estimate D2E/DX2                !
 ! A32   A(12,11,88)           116.9353         estimate D2E/DX2                !
 ! A33   A(11,12,13)           115.7884         estimate D2E/DX2                !
 ! A34   A(11,12,17)           123.5221         estimate D2E/DX2                !
 ! A35   A(13,12,17)           120.381          estimate D2E/DX2                !
 ! A36   A(12,13,14)           123.0129         estimate D2E/DX2                !
 ! A37   A(12,13,89)           115.4056         estimate D2E/DX2                !
 ! A38   A(14,13,89)           121.366          estimate D2E/DX2                !
 ! A39   A(9,14,13)            120.7398         estimate D2E/DX2                !
 ! A40   A(9,14,15)            115.405          estimate D2E/DX2                !
 ! A41   A(13,14,15)           123.7932         estimate D2E/DX2                !
 ! A42   A(14,15,16)           114.1171         estimate D2E/DX2                !
 ! A43   A(15,16,90)           105.4256         estimate D2E/DX2                !
 ! A44   A(15,16,91)           105.2813         estimate D2E/DX2                !
 ! A45   A(15,16,92)           114.0025         estimate D2E/DX2                !
 ! A46   A(90,16,91)           103.6027         estimate D2E/DX2                !
 ! A47   A(90,16,92)           113.6378         estimate D2E/DX2                !
 ! A48   A(91,16,92)           113.8705         estimate D2E/DX2                !
 ! A49   A(12,17,18)           118.9894         estimate D2E/DX2                !
 ! A50   A(12,17,24)           128.0617         estimate D2E/DX2                !
 ! A51   A(18,17,24)           112.9344         estimate D2E/DX2                !
 ! A52   A(17,18,19)           121.5624         estimate D2E/DX2                !
 ! A53   A(17,18,93)           118.4299         estimate D2E/DX2                !
 ! A54   A(19,18,93)           119.0415         estimate D2E/DX2                !
 ! A55   A(18,19,20)           125.0477         estimate D2E/DX2                !
 ! A56   A(18,19,22)           117.8382         estimate D2E/DX2                !
 ! A57   A(20,19,22)           117.0838         estimate D2E/DX2                !
 ! A58   A(19,20,21)           111.4015         estimate D2E/DX2                !
 ! A59   A(20,21,94)           105.4536         estimate D2E/DX2                !
 ! A60   A(20,21,95)           110.8096         estimate D2E/DX2                !
 ! A61   A(20,21,96)           108.3788         estimate D2E/DX2                !
 ! A62   A(94,21,95)           109.2564         estimate D2E/DX2                !
 ! A63   A(94,21,96)           105.4269         estimate D2E/DX2                !
 ! A64   A(95,21,96)           116.8064         estimate D2E/DX2                !
 ! A65   A(19,22,23)           123.954          estimate D2E/DX2                !
 ! A66   A(19,22,25)           121.8253         estimate D2E/DX2                !
 ! A67   A(23,22,25)           114.2207         estimate D2E/DX2                !
 ! A68   A(22,23,24)           115.1188         estimate D2E/DX2                !
 ! A69   A(17,24,23)           128.3902         estimate D2E/DX2                !
 ! A70   A(17,24,97)           117.3409         estimate D2E/DX2                !
 ! A71   A(23,24,97)           114.2446         estimate D2E/DX2                !
 ! A72   A(22,25,26)           122.1659         estimate D2E/DX2                !
 ! A73   A(22,25,30)           123.8935         estimate D2E/DX2                !
 ! A74   A(26,25,30)           113.9405         estimate D2E/DX2                !
 ! A75   A(25,26,27)           125.0916         estimate D2E/DX2                !
 ! A76   A(25,26,98)           117.4842         estimate D2E/DX2                !
 ! A77   A(27,26,98)           117.3862         estimate D2E/DX2                !
 ! A78   A(26,27,28)           116.5991         estimate D2E/DX2                !
 ! A79   A(26,27,99)           115.9226         estimate D2E/DX2                !
 ! A80   A(28,27,99)           127.3154         estimate D2E/DX2                !
 ! A81   A(27,28,29)           121.8221         estimate D2E/DX2                !
 ! A82   A(27,28,33)           116.4719         estimate D2E/DX2                !
 ! A83   A(29,28,33)           121.7033         estimate D2E/DX2                !
 ! A84   A(28,29,30)           119.5153         estimate D2E/DX2                !
 ! A85   A(28,29,100)          121.2183         estimate D2E/DX2                !
 ! A86   A(30,29,100)          118.4772         estimate D2E/DX2                !
 ! A87   A(25,30,29)           122.604          estimate D2E/DX2                !
 ! A88   A(25,30,31)           121.7284         estimate D2E/DX2                !
 ! A89   A(29,30,31)           115.5478         estimate D2E/DX2                !
 ! A90   A(30,31,32)           110.5852         estimate D2E/DX2                !
 ! A91   A(31,32,101)          104.5777         estimate D2E/DX2                !
 ! A92   A(31,32,102)          113.2146         estimate D2E/DX2                !
 ! A93   A(31,32,103)          107.733          estimate D2E/DX2                !
 ! A94   A(101,32,102)         106.567          estimate D2E/DX2                !
 ! A95   A(101,32,103)         111.3246         estimate D2E/DX2                !
 ! A96   A(102,32,103)         113.1292         estimate D2E/DX2                !
 ! A97   A(28,33,34)           118.8413         estimate D2E/DX2                !
 ! A98   A(28,33,40)           120.196          estimate D2E/DX2                !
 ! A99   A(34,33,40)           120.8789         estimate D2E/DX2                !
 ! A100  A(33,34,35)           118.6102         estimate D2E/DX2                !
 ! A101  A(33,34,104)          120.9227         estimate D2E/DX2                !
 ! A102  A(35,34,104)          120.1664         estimate D2E/DX2                !
 ! A103  A(34,35,36)           126.3977         estimate D2E/DX2                !
 ! A104  A(34,35,38)           118.2739         estimate D2E/DX2                !
 ! A105  A(36,35,38)           115.2745         estimate D2E/DX2                !
 ! A106  A(35,36,37)           118.9593         estimate D2E/DX2                !
 ! A107  A(36,37,105)          110.7576         estimate D2E/DX2                !
 ! A108  A(36,37,106)          111.989          estimate D2E/DX2                !
 ! A109  A(36,37,107)          114.5128         estimate D2E/DX2                !
 ! A110  A(105,37,106)         109.9201         estimate D2E/DX2                !
 ! A111  A(105,37,107)         103.1524         estimate D2E/DX2                !
 ! A112  A(106,37,107)         106.0499         estimate D2E/DX2                !
 ! A113  A(35,38,39)           122.2228         estimate D2E/DX2                !
 ! A114  A(35,38,41)           125.5473         estimate D2E/DX2                !
 ! A115  A(39,38,41)           111.9376         estimate D2E/DX2                !
 ! A116  A(38,39,40)           116.533          estimate D2E/DX2                !
 ! A117  A(33,40,39)           123.2154         estimate D2E/DX2                !
 ! A118  A(33,40,108)          120.7996         estimate D2E/DX2                !
 ! A119  A(39,40,108)          115.4215         estimate D2E/DX2                !
 ! A120  A(38,41,42)           125.4687         estimate D2E/DX2                !
 ! A121  A(38,41,46)           119.972          estimate D2E/DX2                !
 ! A122  A(42,41,46)           114.3935         estimate D2E/DX2                !
 ! A123  A(41,42,43)           127.2502         estimate D2E/DX2                !
 ! A124  A(41,42,109)          116.6128         estimate D2E/DX2                !
 ! A125  A(43,42,109)          116.1029         estimate D2E/DX2                !
 ! A126  A(42,43,44)           117.9074         estimate D2E/DX2                !
 ! A127  A(42,43,110)          124.2989         estimate D2E/DX2                !
 ! A128  A(44,43,110)          117.791          estimate D2E/DX2                !
 ! A129  A(43,44,45)           121.8379         estimate D2E/DX2                !
 ! A130  A(43,44,49)           123.3033         estimate D2E/DX2                !
 ! A131  A(45,44,49)           114.8086         estimate D2E/DX2                !
 ! A132  A(44,45,46)           118.8405         estimate D2E/DX2                !
 ! A133  A(44,45,111)          125.4648         estimate D2E/DX2                !
 ! A134  A(46,45,111)          115.6871         estimate D2E/DX2                !
 ! A135  A(41,46,45)           119.6861         estimate D2E/DX2                !
 ! A136  A(41,46,47)           111.9474         estimate D2E/DX2                !
 ! A137  A(45,46,47)           128.3319         estimate D2E/DX2                !
 ! A138  A(46,47,48)           113.421          estimate D2E/DX2                !
 ! A139  A(47,48,112)          114.7118         estimate D2E/DX2                !
 ! A140  A(47,48,113)          112.6487         estimate D2E/DX2                !
 ! A141  A(47,48,114)          107.2452         estimate D2E/DX2                !
 ! A142  A(112,48,113)         106.1109         estimate D2E/DX2                !
 ! A143  A(112,48,114)         108.5368         estimate D2E/DX2                !
 ! A144  A(113,48,114)         107.3119         estimate D2E/DX2                !
 ! A145  A(44,49,50)           120.7847         estimate D2E/DX2                !
 ! A146  A(44,49,56)           123.2934         estimate D2E/DX2                !
 ! A147  A(50,49,56)           115.7683         estimate D2E/DX2                !
 ! A148  A(49,50,51)           120.621          estimate D2E/DX2                !
 ! A149  A(49,50,115)          117.9155         estimate D2E/DX2                !
 ! A150  A(51,50,115)          120.7934         estimate D2E/DX2                !
 ! A151  A(50,51,52)           120.4341         estimate D2E/DX2                !
 ! A152  A(50,51,54)           117.2265         estimate D2E/DX2                !
 ! A153  A(52,51,54)           122.254          estimate D2E/DX2                !
 ! A154  A(51,52,53)           120.7752         estimate D2E/DX2                !
 ! A155  A(52,53,116)          109.8476         estimate D2E/DX2                !
 ! A156  A(52,53,117)          104.2256         estimate D2E/DX2                !
 ! A157  A(52,53,118)          110.6224         estimate D2E/DX2                !
 ! A158  A(116,53,117)         112.2749         estimate D2E/DX2                !
 ! A159  A(116,53,118)         109.8363         estimate D2E/DX2                !
 ! A160  A(117,53,118)         109.9232         estimate D2E/DX2                !
 ! A161  A(51,54,55)           123.8039         estimate D2E/DX2                !
 ! A162  A(51,54,57)           124.0801         estimate D2E/DX2                !
 ! A163  A(55,54,57)           111.793          estimate D2E/DX2                !
 ! A164  A(54,55,56)           117.7971         estimate D2E/DX2                !
 ! A165  A(49,56,55)           124.2149         estimate D2E/DX2                !
 ! A166  A(49,56,119)          121.0675         estimate D2E/DX2                !
 ! A167  A(55,56,119)          114.706          estimate D2E/DX2                !
 ! A168  A(54,57,58)           116.9249         estimate D2E/DX2                !
 ! A169  A(54,57,62)           126.0345         estimate D2E/DX2                !
 ! A170  A(58,57,62)           116.6212         estimate D2E/DX2                !
 ! A171  A(57,58,59)           118.3141         estimate D2E/DX2                !
 ! A172  A(57,58,120)          117.5195         estimate D2E/DX2                !
 ! A173  A(59,58,120)          124.055          estimate D2E/DX2                !
 ! A174  A(58,59,60)           124.8089         estimate D2E/DX2                !
 ! A175  A(58,59,121)          115.7518         estimate D2E/DX2                !
 ! A176  A(60,59,121)          119.387          estimate D2E/DX2                !
 ! A177  A(59,60,61)           115.1027         estimate D2E/DX2                !
 ! A178  A(59,60,65)           121.7547         estimate D2E/DX2                !
 ! A179  A(61,60,65)           122.9659         estimate D2E/DX2                !
 ! A180  A(60,61,62)           122.7893         estimate D2E/DX2                !
 ! A181  A(60,61,122)          119.5244         estimate D2E/DX2                !
 ! A182  A(62,61,122)          117.3534         estimate D2E/DX2                !
 ! A183  A(57,62,61)           121.9837         estimate D2E/DX2                !
 ! A184  A(57,62,63)           119.1546         estimate D2E/DX2                !
 ! A185  A(61,62,63)           118.7128         estimate D2E/DX2                !
 ! A186  A(62,63,64)           112.8764         estimate D2E/DX2                !
 ! A187  A(63,64,123)          114.7441         estimate D2E/DX2                !
 ! A188  A(63,64,124)          108.0943         estimate D2E/DX2                !
 ! A189  A(63,64,125)          111.3226         estimate D2E/DX2                !
 ! A190  A(123,64,124)         107.3318         estimate D2E/DX2                !
 ! A191  A(123,64,125)         106.0788         estimate D2E/DX2                !
 ! A192  A(124,64,125)         109.0976         estimate D2E/DX2                !
 ! A193  A(60,65,66)           123.9996         estimate D2E/DX2                !
 ! A194  A(60,65,72)           116.1769         estimate D2E/DX2                !
 ! A195  A(66,65,72)           119.656          estimate D2E/DX2                !
 ! A196  A(65,66,67)           117.2995         estimate D2E/DX2                !
 ! A197  A(65,66,126)          115.6074         estimate D2E/DX2                !
 ! A198  A(67,66,126)          127.059          estimate D2E/DX2                !
 ! A199  A(66,67,68)           117.907          estimate D2E/DX2                !
 ! A200  A(66,67,70)           120.6219         estimate D2E/DX2                !
 ! A201  A(68,67,70)           121.3417         estimate D2E/DX2                !
 ! A202  A(67,68,69)           122.0585         estimate D2E/DX2                !
 ! A203  A(68,69,127)          106.9862         estimate D2E/DX2                !
 ! A204  A(68,69,128)          110.9865         estimate D2E/DX2                !
 ! A205  A(68,69,129)          108.0177         estimate D2E/DX2                !
 ! A206  A(127,69,128)         113.5513         estimate D2E/DX2                !
 ! A207  A(127,69,129)         105.9912         estimate D2E/DX2                !
 ! A208  A(128,69,129)         111.004          estimate D2E/DX2                !
 ! A209  A(67,70,71)           122.115          estimate D2E/DX2                !
 ! A210  A(67,70,73)           123.0554         estimate D2E/DX2                !
 ! A211  A(71,70,73)           114.4569         estimate D2E/DX2                !
 ! A212  A(70,71,72)           118.1292         estimate D2E/DX2                !
 ! A213  A(65,72,71)           121.8967         estimate D2E/DX2                !
 ! A214  A(65,72,130)          123.6834         estimate D2E/DX2                !
 ! A215  A(71,72,130)          114.2597         estimate D2E/DX2                !
 ! A216  A(70,73,74)           123.8357         estimate D2E/DX2                !
 ! A217  A(70,73,78)           119.2879         estimate D2E/DX2                !
 ! A218  A(74,73,78)           116.8646         estimate D2E/DX2                !
 ! A219  A(73,74,75)           123.4473         estimate D2E/DX2                !
 ! A220  A(73,74,131)          117.9014         estimate D2E/DX2                !
 ! A221  A(75,74,131)          118.4141         estimate D2E/DX2                !
 ! A222  A(74,75,76)           118.7702         estimate D2E/DX2                !
 ! A223  A(74,75,132)          121.9119         estimate D2E/DX2                !
 ! A224  A(76,75,132)          119.1219         estimate D2E/DX2                !
 ! A225  A(75,76,77)           118.6753         estimate D2E/DX2                !
 ! A226  A(75,76,133)          115.9945         estimate D2E/DX2                !
 ! A227  A(77,76,133)          125.3181         estimate D2E/DX2                !
 ! A228  A(76,77,78)           121.0234         estimate D2E/DX2                !
 ! A229  A(76,77,134)          118.5519         estimate D2E/DX2                !
 ! A230  A(78,77,134)          120.1477         estimate D2E/DX2                !
 ! A231  A(73,78,77)           121.1139         estimate D2E/DX2                !
 ! A232  A(73,78,79)           118.568          estimate D2E/DX2                !
 ! A233  A(77,78,79)           120.2471         estimate D2E/DX2                !
 ! A234  A(78,79,80)           110.1838         estimate D2E/DX2                !
 ! A235  A(79,80,135)          106.4557         estimate D2E/DX2                !
 ! A236  A(79,80,136)          103.6545         estimate D2E/DX2                !
 ! A237  A(79,80,137)          111.7007         estimate D2E/DX2                !
 ! A238  A(135,80,136)         109.6497         estimate D2E/DX2                !
 ! A239  A(135,80,137)         115.1975         estimate D2E/DX2                !
 ! A240  A(136,80,137)         109.5266         estimate D2E/DX2                !
 ! D1    D(8,1,2,3)              2.9314         estimate D2E/DX2                !
 ! D2    D(8,1,2,82)          -175.1619         estimate D2E/DX2                !
 ! D3    D(81,1,2,3)           176.3133         estimate D2E/DX2                !
 ! D4    D(81,1,2,82)           -1.78           estimate D2E/DX2                !
 ! D5    D(2,1,8,7)             -2.6657         estimate D2E/DX2                !
 ! D6    D(2,1,8,86)          -179.1763         estimate D2E/DX2                !
 ! D7    D(81,1,8,7)          -175.9869         estimate D2E/DX2                !
 ! D8    D(81,1,8,86)            7.5025         estimate D2E/DX2                !
 ! D9    D(1,2,3,4)            176.8202         estimate D2E/DX2                !
 ! D10   D(1,2,3,6)             -2.287          estimate D2E/DX2                !
 ! D11   D(82,2,3,4)            -5.2378         estimate D2E/DX2                !
 ! D12   D(82,2,3,6)           175.655          estimate D2E/DX2                !
 ! D13   D(2,3,4,5)              1.3936         estimate D2E/DX2                !
 ! D14   D(6,3,4,5)           -179.4668         estimate D2E/DX2                !
 ! D15   D(2,3,6,7)              1.3623         estimate D2E/DX2                !
 ! D16   D(2,3,6,9)            178.7465         estimate D2E/DX2                !
 ! D17   D(4,3,6,7)           -177.8384         estimate D2E/DX2                !
 ! D18   D(4,3,6,9)             -0.4542         estimate D2E/DX2                !
 ! D19   D(3,4,5,83)           -64.4863         estimate D2E/DX2                !
 ! D20   D(3,4,5,84)            63.9            estimate D2E/DX2                !
 ! D21   D(3,4,5,85)           178.9759         estimate D2E/DX2                !
 ! D22   D(3,6,7,8)             -0.8921         estimate D2E/DX2                !
 ! D23   D(9,6,7,8)           -178.387          estimate D2E/DX2                !
 ! D24   D(3,6,9,10)           -87.0259         estimate D2E/DX2                !
 ! D25   D(3,6,9,14)           100.4318         estimate D2E/DX2                !
 ! D26   D(7,6,9,10)            90.5671         estimate D2E/DX2                !
 ! D27   D(7,6,9,14)           -81.9752         estimate D2E/DX2                !
 ! D28   D(6,7,8,1)              1.6104         estimate D2E/DX2                !
 ! D29   D(6,7,8,86)           178.1132         estimate D2E/DX2                !
 ! D30   D(6,9,10,11)         -178.0497         estimate D2E/DX2                !
 ! D31   D(6,9,10,87)            4.3381         estimate D2E/DX2                !
 ! D32   D(14,9,10,11)          -5.422          estimate D2E/DX2                !
 ! D33   D(14,9,10,87)         176.9658         estimate D2E/DX2                !
 ! D34   D(6,9,14,13)          175.7309         estimate D2E/DX2                !
 ! D35   D(6,9,14,15)           -7.0259         estimate D2E/DX2                !
 ! D36   D(10,9,14,13)           3.3012         estimate D2E/DX2                !
 ! D37   D(10,9,14,15)        -179.4555         estimate D2E/DX2                !
 ! D38   D(9,10,11,12)           5.2929         estimate D2E/DX2                !
 ! D39   D(9,10,11,88)        -178.3373         estimate D2E/DX2                !
 ! D40   D(87,10,11,12)       -176.9728         estimate D2E/DX2                !
 ! D41   D(87,10,11,88)         -0.603          estimate D2E/DX2                !
 ! D42   D(10,11,12,13)         -2.8702         estimate D2E/DX2                !
 ! D43   D(10,11,12,17)       -176.4979         estimate D2E/DX2                !
 ! D44   D(88,11,12,13)       -179.4241         estimate D2E/DX2                !
 ! D45   D(88,11,12,17)          6.9482         estimate D2E/DX2                !
 ! D46   D(11,12,13,14)          0.7034         estimate D2E/DX2                !
 ! D47   D(11,12,13,89)       -174.0211         estimate D2E/DX2                !
 ! D48   D(17,12,13,14)        174.5461         estimate D2E/DX2                !
 ! D49   D(17,12,13,89)         -0.1783         estimate D2E/DX2                !
 ! D50   D(11,12,17,18)        -51.3908         estimate D2E/DX2                !
 ! D51   D(11,12,17,24)        127.1196         estimate D2E/DX2                !
 ! D52   D(13,12,17,18)        135.2614         estimate D2E/DX2                !
 ! D53   D(13,12,17,24)        -46.2282         estimate D2E/DX2                !
 ! D54   D(12,13,14,9)          -0.9087         estimate D2E/DX2                !
 ! D55   D(12,13,14,15)       -177.9121         estimate D2E/DX2                !
 ! D56   D(89,13,14,9)         173.5093         estimate D2E/DX2                !
 ! D57   D(89,13,14,15)         -3.494          estimate D2E/DX2                !
 ! D58   D(9,14,15,16)         152.2902         estimate D2E/DX2                !
 ! D59   D(13,14,15,16)        -30.561          estimate D2E/DX2                !
 ! D60   D(14,15,16,90)       -168.001          estimate D2E/DX2                !
 ! D61   D(14,15,16,91)         82.833          estimate D2E/DX2                !
 ! D62   D(14,15,16,92)        -42.6788         estimate D2E/DX2                !
 ! D63   D(12,17,18,19)       -175.9798         estimate D2E/DX2                !
 ! D64   D(12,17,18,93)         -7.3372         estimate D2E/DX2                !
 ! D65   D(24,17,18,19)          5.2936         estimate D2E/DX2                !
 ! D66   D(24,17,18,93)        173.9363         estimate D2E/DX2                !
 ! D67   D(12,17,24,23)        178.3188         estimate D2E/DX2                !
 ! D68   D(12,17,24,97)         -3.59           estimate D2E/DX2                !
 ! D69   D(18,17,24,23)         -3.096          estimate D2E/DX2                !
 ! D70   D(18,17,24,97)        174.9953         estimate D2E/DX2                !
 ! D71   D(17,18,19,20)        177.3177         estimate D2E/DX2                !
 ! D72   D(17,18,19,22)         -4.7503         estimate D2E/DX2                !
 ! D73   D(93,18,19,20)          8.7426         estimate D2E/DX2                !
 ! D74   D(93,18,19,22)       -173.3254         estimate D2E/DX2                !
 ! D75   D(18,19,20,21)         34.0044         estimate D2E/DX2                !
 ! D76   D(22,19,20,21)       -143.9417         estimate D2E/DX2                !
 ! D77   D(18,19,22,23)          1.6206         estimate D2E/DX2                !
 ! D78   D(18,19,22,25)       -178.3737         estimate D2E/DX2                !
 ! D79   D(20,19,22,23)        179.7191         estimate D2E/DX2                !
 ! D80   D(20,19,22,25)         -0.2751         estimate D2E/DX2                !
 ! D81   D(19,20,21,94)        164.8215         estimate D2E/DX2                !
 ! D82   D(19,20,21,95)        -77.0719         estimate D2E/DX2                !
 ! D83   D(19,20,21,96)         52.3223         estimate D2E/DX2                !
 ! D84   D(19,22,23,24)          0.6411         estimate D2E/DX2                !
 ! D85   D(25,22,23,24)       -179.3643         estimate D2E/DX2                !
 ! D86   D(19,22,25,26)        -75.7878         estimate D2E/DX2                !
 ! D87   D(19,22,25,30)        104.2262         estimate D2E/DX2                !
 ! D88   D(23,22,25,26)        104.2175         estimate D2E/DX2                !
 ! D89   D(23,22,25,30)        -75.7685         estimate D2E/DX2                !
 ! D90   D(22,23,24,17)          0.274          estimate D2E/DX2                !
 ! D91   D(22,23,24,97)       -177.8665         estimate D2E/DX2                !
 ! D92   D(22,25,26,27)        176.74           estimate D2E/DX2                !
 ! D93   D(22,25,26,98)         -0.9549         estimate D2E/DX2                !
 ! D94   D(30,25,26,27)         -3.2727         estimate D2E/DX2                !
 ! D95   D(30,25,26,98)        179.0324         estimate D2E/DX2                !
 ! D96   D(22,25,30,29)       -179.3953         estimate D2E/DX2                !
 ! D97   D(22,25,30,31)         -3.5522         estimate D2E/DX2                !
 ! D98   D(26,25,30,29)          0.6177         estimate D2E/DX2                !
 ! D99   D(26,25,30,31)        176.4607         estimate D2E/DX2                !
 ! D100  D(25,26,27,28)          0.4846         estimate D2E/DX2                !
 ! D101  D(25,26,27,99)       -175.219          estimate D2E/DX2                !
 ! D102  D(98,26,27,28)        178.1816         estimate D2E/DX2                !
 ! D103  D(98,26,27,99)          2.478          estimate D2E/DX2                !
 ! D104  D(26,27,28,29)          5.3004         estimate D2E/DX2                !
 ! D105  D(26,27,28,33)       -175.2897         estimate D2E/DX2                !
 ! D106  D(99,27,28,29)       -179.5595         estimate D2E/DX2                !
 ! D107  D(99,27,28,33)         -0.1497         estimate D2E/DX2                !
 ! D108  D(27,28,29,30)         -7.8922         estimate D2E/DX2                !
 ! D109  D(27,28,29,100)      -177.5627         estimate D2E/DX2                !
 ! D110  D(33,28,29,30)        172.7287         estimate D2E/DX2                !
 ! D111  D(33,28,29,100)         3.0583         estimate D2E/DX2                !
 ! D112  D(27,28,33,34)       -120.4957         estimate D2E/DX2                !
 ! D113  D(27,28,33,40)         56.2041         estimate D2E/DX2                !
 ! D114  D(29,28,33,34)         58.9149         estimate D2E/DX2                !
 ! D115  D(29,28,33,40)       -124.3854         estimate D2E/DX2                !
 ! D116  D(28,29,30,25)          4.7764         estimate D2E/DX2                !
 ! D117  D(28,29,30,31)       -171.3052         estimate D2E/DX2                !
 ! D118  D(100,29,30,25)       174.7295         estimate D2E/DX2                !
 ! D119  D(100,29,30,31)        -1.352          estimate D2E/DX2                !
 ! D120  D(25,30,31,32)         97.165          estimate D2E/DX2                !
 ! D121  D(29,30,31,32)        -86.7159         estimate D2E/DX2                !
 ! D122  D(30,31,32,101)        74.7358         estimate D2E/DX2                !
 ! D123  D(30,31,32,102)       -40.8664         estimate D2E/DX2                !
 ! D124  D(30,31,32,103)      -166.7319         estimate D2E/DX2                !
 ! D125  D(28,33,34,35)       -177.7079         estimate D2E/DX2                !
 ! D126  D(28,33,34,104)        -3.9953         estimate D2E/DX2                !
 ! D127  D(40,33,34,35)          5.6157         estimate D2E/DX2                !
 ! D128  D(40,33,34,104)       179.3282         estimate D2E/DX2                !
 ! D129  D(28,33,40,39)        177.0424         estimate D2E/DX2                !
 ! D130  D(28,33,40,108)         6.0495         estimate D2E/DX2                !
 ! D131  D(34,33,40,39)         -6.326          estimate D2E/DX2                !
 ! D132  D(34,33,40,108)      -177.3189         estimate D2E/DX2                !
 ! D133  D(33,34,35,36)       -179.4996         estimate D2E/DX2                !
 ! D134  D(33,34,35,38)         -2.308          estimate D2E/DX2                !
 ! D135  D(104,34,35,36)         6.7389         estimate D2E/DX2                !
 ! D136  D(104,34,35,38)      -176.0695         estimate D2E/DX2                !
 ! D137  D(34,35,36,37)         -6.2025         estimate D2E/DX2                !
 ! D138  D(38,35,36,37)        176.5326         estimate D2E/DX2                !
 ! D139  D(34,35,38,39)         -0.4709         estimate D2E/DX2                !
 ! D140  D(34,35,38,41)       -173.7523         estimate D2E/DX2                !
 ! D141  D(36,35,38,39)        177.0295         estimate D2E/DX2                !
 ! D142  D(36,35,38,41)          3.7481         estimate D2E/DX2                !
 ! D143  D(35,36,37,105)        65.3176         estimate D2E/DX2                !
 ! D144  D(35,36,37,106)       -57.775          estimate D2E/DX2                !
 ! D145  D(35,36,37,107)      -178.5611         estimate D2E/DX2                !
 ! D146  D(35,38,39,40)          0.0615         estimate D2E/DX2                !
 ! D147  D(41,38,39,40)        174.1714         estimate D2E/DX2                !
 ! D148  D(35,38,41,42)         76.8853         estimate D2E/DX2                !
 ! D149  D(35,38,41,46)       -108.0678         estimate D2E/DX2                !
 ! D150  D(39,38,41,42)        -96.9896         estimate D2E/DX2                !
 ! D151  D(39,38,41,46)         78.0573         estimate D2E/DX2                !
 ! D152  D(38,39,40,33)          3.3347         estimate D2E/DX2                !
 ! D153  D(38,39,40,108)       174.7719         estimate D2E/DX2                !
 ! D154  D(38,41,42,43)        175.524          estimate D2E/DX2                !
 ! D155  D(38,41,42,109)        -6.6959         estimate D2E/DX2                !
 ! D156  D(46,41,42,43)          0.2348         estimate D2E/DX2                !
 ! D157  D(46,41,42,109)       178.0148         estimate D2E/DX2                !
 ! D158  D(38,41,46,45)       -173.5543         estimate D2E/DX2                !
 ! D159  D(38,41,46,47)          4.4817         estimate D2E/DX2                !
 ! D160  D(42,41,46,45)          2.0174         estimate D2E/DX2                !
 ! D161  D(42,41,46,47)       -179.9466         estimate D2E/DX2                !
 ! D162  D(41,42,43,44)         -2.6239         estimate D2E/DX2                !
 ! D163  D(41,42,43,110)       176.7596         estimate D2E/DX2                !
 ! D164  D(109,42,43,44)       179.5863         estimate D2E/DX2                !
 ! D165  D(109,42,43,110)       -1.0302         estimate D2E/DX2                !
 ! D166  D(42,43,44,45)          2.83           estimate D2E/DX2                !
 ! D167  D(42,43,44,49)       -174.4579         estimate D2E/DX2                !
 ! D168  D(110,43,44,45)      -176.5943         estimate D2E/DX2                !
 ! D169  D(110,43,44,49)         6.1178         estimate D2E/DX2                !
 ! D170  D(43,44,45,46)         -0.6714         estimate D2E/DX2                !
 ! D171  D(43,44,45,111)       178.282          estimate D2E/DX2                !
 ! D172  D(49,44,45,46)        176.8316         estimate D2E/DX2                !
 ! D173  D(49,44,45,111)        -4.215          estimate D2E/DX2                !
 ! D174  D(43,44,49,50)         40.8751         estimate D2E/DX2                !
 ! D175  D(43,44,49,56)       -134.4256         estimate D2E/DX2                !
 ! D176  D(45,44,49,50)       -136.5868         estimate D2E/DX2                !
 ! D177  D(45,44,49,56)         48.1125         estimate D2E/DX2                !
 ! D178  D(44,45,46,41)         -1.7763         estimate D2E/DX2                !
 ! D179  D(44,45,46,47)       -179.4538         estimate D2E/DX2                !
 ! D180  D(111,45,46,41)       179.1697         estimate D2E/DX2                !
 ! D181  D(111,45,46,47)         1.4921         estimate D2E/DX2                !
 ! D182  D(41,46,47,48)       -164.2821         estimate D2E/DX2                !
 ! D183  D(45,46,47,48)         13.5426         estimate D2E/DX2                !
 ! D184  D(46,47,48,112)        54.106          estimate D2E/DX2                !
 ! D185  D(46,47,48,113)       -67.4288         estimate D2E/DX2                !
 ! D186  D(46,47,48,114)       174.7225         estimate D2E/DX2                !
 ! D187  D(44,49,50,51)        178.9344         estimate D2E/DX2                !
 ! D188  D(44,49,50,115)         8.2411         estimate D2E/DX2                !
 ! D189  D(56,49,50,51)         -5.4266         estimate D2E/DX2                !
 ! D190  D(56,49,50,115)      -176.1199         estimate D2E/DX2                !
 ! D191  D(44,49,56,55)        178.2811         estimate D2E/DX2                !
 ! D192  D(44,49,56,119)        -0.4139         estimate D2E/DX2                !
 ! D193  D(50,49,56,55)          2.7636         estimate D2E/DX2                !
 ! D194  D(50,49,56,119)      -175.9315         estimate D2E/DX2                !
 ! D195  D(49,50,51,52)       -175.2513         estimate D2E/DX2                !
 ! D196  D(49,50,51,54)          1.4641         estimate D2E/DX2                !
 ! D197  D(115,50,51,52)        -4.8272         estimate D2E/DX2                !
 ! D198  D(115,50,51,54)       171.8882         estimate D2E/DX2                !
 ! D199  D(50,51,52,53)        -30.6721         estimate D2E/DX2                !
 ! D200  D(54,51,52,53)        152.7816         estimate D2E/DX2                !
 ! D201  D(50,51,54,55)          5.6354         estimate D2E/DX2                !
 ! D202  D(50,51,54,57)        178.5676         estimate D2E/DX2                !
 ! D203  D(52,51,54,55)       -177.7134         estimate D2E/DX2                !
 ! D204  D(52,51,54,57)         -4.7812         estimate D2E/DX2                !
 ! D205  D(51,52,53,116)       -43.0748         estimate D2E/DX2                !
 ! D206  D(51,52,53,117)        77.4057         estimate D2E/DX2                !
 ! D207  D(51,52,53,118)      -164.4943         estimate D2E/DX2                !
 ! D208  D(51,54,55,56)         -8.3427         estimate D2E/DX2                !
 ! D209  D(57,54,55,56)        177.9586         estimate D2E/DX2                !
 ! D210  D(51,54,57,58)         80.7813         estimate D2E/DX2                !
 ! D211  D(51,54,57,62)        -91.5004         estimate D2E/DX2                !
 ! D212  D(55,54,57,58)       -105.5406         estimate D2E/DX2                !
 ! D213  D(55,54,57,62)         82.1778         estimate D2E/DX2                !
 ! D214  D(54,55,56,49)          3.7686         estimate D2E/DX2                !
 ! D215  D(54,55,56,119)      -177.4617         estimate D2E/DX2                !
 ! D216  D(54,57,58,59)       -172.4392         estimate D2E/DX2                !
 ! D217  D(54,57,58,120)         3.882          estimate D2E/DX2                !
 ! D218  D(62,57,58,59)          0.5829         estimate D2E/DX2                !
 ! D219  D(62,57,58,120)       176.9042         estimate D2E/DX2                !
 ! D220  D(54,57,62,61)        176.9833         estimate D2E/DX2                !
 ! D221  D(54,57,62,63)         -7.5111         estimate D2E/DX2                !
 ! D222  D(58,57,62,61)          4.681          estimate D2E/DX2                !
 ! D223  D(58,57,62,63)       -179.8134         estimate D2E/DX2                !
 ! D224  D(57,58,59,60)         -3.677          estimate D2E/DX2                !
 ! D225  D(57,58,59,121)       178.9826         estimate D2E/DX2                !
 ! D226  D(120,58,59,60)      -179.7388         estimate D2E/DX2                !
 ! D227  D(120,58,59,121)        2.9209         estimate D2E/DX2                !
 ! D228  D(58,59,60,61)          1.2716         estimate D2E/DX2                !
 ! D229  D(58,59,60,65)       -174.0322         estimate D2E/DX2                !
 ! D230  D(121,59,60,61)       178.5223         estimate D2E/DX2                !
 ! D231  D(121,59,60,65)         3.2184         estimate D2E/DX2                !
 ! D232  D(59,60,61,62)          4.2522         estimate D2E/DX2                !
 ! D233  D(59,60,61,122)       177.4475         estimate D2E/DX2                !
 ! D234  D(65,60,61,62)        179.4925         estimate D2E/DX2                !
 ! D235  D(65,60,61,122)        -7.3121         estimate D2E/DX2                !
 ! D236  D(59,60,65,66)        108.6401         estimate D2E/DX2                !
 ! D237  D(59,60,65,72)        -76.0933         estimate D2E/DX2                !
 ! D238  D(61,60,65,66)        -66.2903         estimate D2E/DX2                !
 ! D239  D(61,60,65,72)        108.9763         estimate D2E/DX2                !
 ! D240  D(60,61,62,57)         -7.4927         estimate D2E/DX2                !
 ! D241  D(60,61,62,63)        176.9826         estimate D2E/DX2                !
 ! D242  D(122,61,62,57)       179.1731         estimate D2E/DX2                !
 ! D243  D(122,61,62,63)         3.6483         estimate D2E/DX2                !
 ! D244  D(57,62,63,64)        -92.1317         estimate D2E/DX2                !
[...]
  Beta virt. eigenvalues --    2.02362   2.02660   2.02802   2.03059   2.03300
  Beta virt. eigenvalues --    2.03321   2.03585   2.03607   2.03719   2.03874
  Beta virt. eigenvalues --    2.04066   2.04365   2.05088   2.05321   2.05811
  Beta virt. eigenvalues --    2.05973   2.06411   2.06537   2.06904   2.07205
  Beta virt. eigenvalues --    2.07330   2.07764   2.07886   2.08941   2.09003
  Beta virt. eigenvalues --    2.09813   2.09926   2.10049   2.10292   2.10556
  Beta virt. eigenvalues --    2.11268   2.11646   2.12065   2.12202   2.12875
  Beta virt. eigenvalues --    2.13106   2.13507   2.14073   2.14196   2.14818
  Beta virt. eigenvalues --    2.15250   2.15444   2.15631   2.16741   2.17263
  Beta virt. eigenvalues --    2.17603   2.18251   2.18316   2.18833   2.19098
  Beta virt. eigenvalues --    2.19956   2.20601   2.20837   2.20989   2.21610
  Beta virt. eigenvalues --    2.22127   2.22373   2.22558   2.22690   2.23407
  Beta virt. eigenvalues --    2.23700   2.24076   2.24506   2.24671   2.25027
  Beta virt. eigenvalues --    2.25412   2.25519   2.25783   2.26210   2.26516
  Beta virt. eigenvalues --    2.26802   2.26927   2.27193   2.27614   2.27968
  Beta virt. eigenvalues --    2.28341   2.28661   2.29632   2.29790   2.30049
  Beta virt. eigenvalues --    2.30447   2.30561   2.31826   2.33647   2.34139
  Beta virt. eigenvalues --    2.34219   2.34370   2.34537   2.35002   2.35206
  Beta virt. eigenvalues --    2.35352   2.35434   2.35877   2.36027   2.37000
  Beta virt. eigenvalues --    2.37147   2.37766   2.38084   2.38408   2.38607
  Beta virt. eigenvalues --    2.38937   2.39408   2.39511   2.39746   2.39921
  Beta virt. eigenvalues --    2.40134   2.40299   2.40467   2.40507   2.40875
  Beta virt. eigenvalues --    2.40960   2.41023   2.41253   2.41397   2.41767
  Beta virt. eigenvalues --    2.41876   2.42053   2.42722   2.42916   2.43238
  Beta virt. eigenvalues --    2.43650   2.44250   2.44339   2.44448   2.44639
  Beta virt. eigenvalues --    2.44945   2.45396   2.45530   2.45650   2.46060
  Beta virt. eigenvalues --    2.46087   2.46234   2.46811   2.47068   2.47447
  Beta virt. eigenvalues --    2.47689   2.48032   2.48601   2.49762   2.50643
  Beta virt. eigenvalues --    2.51570   2.51952   2.52547   2.53998   2.54404
  Beta virt. eigenvalues --    2.54739   2.55324   2.55685   2.57848   2.60188
  Beta virt. eigenvalues --    2.60808   2.61833   2.62148   2.63282   2.63689
  Beta virt. eigenvalues --    2.64582   2.64734   2.66090   2.66639   2.68019
  Beta virt. eigenvalues --    2.68237   2.68469   2.69391   2.69542   2.69661
  Beta virt. eigenvalues --    2.69978   2.70900   2.71372   2.71561   2.73944
  Beta virt. eigenvalues --    2.74588   2.74875   2.75387   2.75601   2.77841
  Beta virt. eigenvalues --    2.80434   2.80599   2.81588   2.81676   2.81803
  Beta virt. eigenvalues --    2.82150   2.82302   2.82669   2.83066   2.83337
  Beta virt. eigenvalues --    2.83884   2.84331   2.84945   2.85841   2.86147
  Beta virt. eigenvalues --    2.87234   2.88958   2.90164   2.91047   2.91947
  Beta virt. eigenvalues --    2.92276   2.92607   2.92840   2.93187   2.93726
  Beta virt. eigenvalues --    2.93957   2.95544   2.96299   2.96370   2.96480
  Beta virt. eigenvalues --    2.96568   2.97081   2.97406   2.97697   2.98209
  Beta virt. eigenvalues --    2.98371   2.98526   2.98882   3.00063   3.01783
  Beta virt. eigenvalues --    3.01944   3.13169   3.13280   3.13697   3.14001
  Beta virt. eigenvalues --    3.14718   3.15414   3.15837   3.20027   3.21416
  Beta virt. eigenvalues --    3.21883   3.22633   3.23958   3.24112   3.24679
  Beta virt. eigenvalues --    3.24990   3.27691   3.32189   3.32944   3.33445
  Beta virt. eigenvalues --    3.33574   3.34096   3.34481   3.35119   3.42940
  Beta virt. eigenvalues --    3.43790   3.44914   3.46261   3.48086   3.51781
  Beta virt. eigenvalues --    3.53442   3.54782   3.55617   3.57677
          Condensed to atoms (all electrons):
          Atomic-Atomic Spin Densities.
 Mulliken charges and spin densities:
               1          2
     1  C   -0.018695   0.000000
     2  C    0.017023  -0.000000
     3  C    0.122448  -0.000000
     4  O   -0.220832   0.000000
     5  C    0.060388  -0.000000
     6  C    0.011084   0.000000
     7  N   -0.181315  -0.000000
     8  C    0.075749  -0.000000
     9  C    0.035276  -0.000000
    10  C    0.058963  -0.000000
    11  C   -0.001620  -0.000000
    12  C    0.027688  -0.000000
    13  C   -0.038112   0.000000
    14  C    0.112712  -0.000000
    15  O   -0.230464  -0.000000
    16  C    0.066223  -0.000000
    17  C   -0.035051  -0.000000
    18  C    0.029116  -0.000000
    19  C    0.112063   0.000000
    20  O   -0.231154  -0.000000
    21  C    0.062757  -0.000000
    22  C    0.032643   0.000000
    23  N   -0.181950  -0.000000
    24  C    0.073807   0.000000
    25  C    0.047370  -0.000000
    26  C    0.047843  -0.000000
    27  C    0.002814   0.000000
    28  C    0.041203   0.000000
    29  C    0.037884  -0.000000
    30  C    0.030401   0.000000
    31  O   -0.248839  -0.000000
    32  C    0.077286  -0.000000
    33  C   -0.031029  -0.000000
    34  C    0.023955   0.000000
    35  C    0.115257   0.000000
    36  O   -0.229718  -0.000000
    37  C    0.063352  -0.000000
    38  C    0.017859  -0.000000
    39  N   -0.165863   0.000000
    40  C    0.064927   0.000000
    41  C    0.026139   0.000000
    42  C    0.063100  -0.000000
    43  C   -0.003491  -0.000000
    44  C    0.025844   0.000000
    45  C   -0.039555  -0.000000
    46  C    0.109163   0.000000
    47  O   -0.216650   0.000000
    48  C    0.066604   0.000000
    49  C   -0.034184  -0.000000
    50  C    0.030327   0.000000
    51  C    0.111677  -0.000000
    52  O   -0.231291   0.000000
    53  C    0.062975   0.000000
    54  C    0.032686  -0.000000
    55  N   -0.181942   0.000000
    56  C    0.074104  -0.000000
    57  C    0.047269   0.000000
    58  C    0.047950  -0.000000
    59  C    0.002537   0.000000
    60  C    0.042831  -0.000000
    61  C    0.037679   0.000000
    62  C    0.030298  -0.000000
    63  O   -0.249027   0.000000
    64  C    0.077056  -0.000000
    65  C   -0.030472   0.000000
    66  C    0.019648   0.000000
    67  C    0.130779   0.000000
    68  O   -0.215587   0.000000
    69  C    0.065451   0.000000
    70  C   -0.023521   0.000000
    71  N   -0.174840  -0.000000
    72  C    0.061274   0.000000
    73  C    0.073115   0.000000
    74  C    0.038043  -0.000000
    75  C    0.030584   0.000000
    76  C    0.035321  -0.000000
    77  C    0.049598   0.000000
    78  C    0.023030  -0.000000
    79  O   -0.256637   0.000000
    80  C    0.070610  -0.000000
    81  H   -0.019632   0.000000
    82  H   -0.016308   0.000000
    83  H    0.044289  -0.000000
    84  H    0.043160   0.000000
    85  H    0.049663   0.000000
    86  H   -0.008175  -0.000000
    87  H   -0.036700  -0.000000
    88  H   -0.037012   0.000000
    89  H   -0.031237   0.000000
    90  H    0.044150   0.000000
    91  H    0.041273   0.000000
    92  H    0.046879   0.000000
    93  H   -0.022817  -0.000000
    94  H    0.052363   0.000000
    95  H    0.047855   0.000000
    96  H    0.046272   0.000000
    97  H   -0.016027  -0.000000
    98  H   -0.036381  -0.000000
    99  H   -0.032179  -0.000000
   100  H   -0.033488  -0.000000
   101  H    0.013577   0.000000
   102  H    0.034120   0.000000
   103  H    0.037686   0.000000
   104  H   -0.027621   0.000000
   105  H    0.045544  -0.000000
   106  H    0.044124   0.000000
   107  H    0.051048  -0.000000
   108  H   -0.013048   0.000000
   109  H   -0.040837  -0.000000
   110  H   -0.039824   0.000000
   111  H   -0.031416   0.000000
   112  H    0.045926  -0.000000
   113  H    0.039371  -0.000000
   114  H    0.048168  -0.000000
   115  H   -0.024006  -0.000000
   116  H    0.045524   0.000000
   117  H    0.047635   0.000000
   118  H    0.052175  -0.000000
   119  H   -0.014966  -0.000000
   120  H   -0.036410   0.000000
   121  H   -0.033191   0.000000
   122  H   -0.033181  -0.000000
   123  H    0.034713   0.000000
   124  H    0.013986   0.000000
   125  H    0.037746  -0.000000
   126  H   -0.026250   0.000000
   127  H    0.044544  -0.000000
   128  H    0.041046  -0.000000
   129  H    0.051976  -0.000000
   130  H   -0.011958   0.000000
   131  H   -0.033154  -0.000000
   132  H   -0.024502   0.000000
   133  H   -0.023289  -0.000000
   134  H   -0.030359  -0.000000
   135  H    0.025693   0.000000
   136  H    0.038853   0.000000
   137  H    0.042667  -0.000000
 Sum of Mulliken charges =  -0.00000   0.00000
 Mulliken charges and spin densities with hydrogens summed into heavy atoms:
               1          2
     1  C   -0.038327   0.000000
     2  C    0.000715  -0.000000
     3  C    0.122448  -0.000000
     4  O   -0.220832   0.000000
     5  C    0.197501   0.000000
     6  C    0.011084   0.000000
     7  N   -0.181315  -0.000000
     8  C    0.067574  -0.000000
     9  C    0.035276  -0.000000
    10  C    0.022263  -0.000000
    11  C   -0.038632  -0.000000
    12  C    0.027688  -0.000000
    13  C   -0.069349   0.000000
    14  C    0.112712  -0.000000
    15  O   -0.230464  -0.000000
    16  C    0.198525  -0.000000
    17  C   -0.035051  -0.000000
    18  C    0.006299  -0.000000
    19  C    0.112063   0.000000
    20  O   -0.231154  -0.000000
    21  C    0.209246   0.000000
    22  C    0.032643   0.000000
    23  N   -0.181950  -0.000000
    24  C    0.057780   0.000000
    25  C    0.047370  -0.000000
    26  C    0.011462  -0.000000
    27  C   -0.029365   0.000000
    28  C    0.041203   0.000000
    29  C    0.004395  -0.000000
    30  C    0.030401   0.000000
    31  O   -0.248839  -0.000000
    32  C    0.162669   0.000000
    33  C   -0.031029  -0.000000
    34  C   -0.003665   0.000000
    35  C    0.115257   0.000000
    36  O   -0.229718  -0.000000
    37  C    0.204068  -0.000000
    38  C    0.017859  -0.000000
    39  N   -0.165863   0.000000
    40  C    0.051879   0.000000
    41  C    0.026139   0.000000
    42  C    0.022263  -0.000000
    43  C   -0.043315  -0.000000
    44  C    0.025844   0.000000
    45  C   -0.070971  -0.000000
    46  C    0.109163   0.000000
    47  O   -0.216650   0.000000
    48  C    0.200070   0.000000
    49  C   -0.034184  -0.000000
    50  C    0.006321   0.000000
    51  C    0.111677  -0.000000
    52  O   -0.231291   0.000000
    53  C    0.208309   0.000000
    54  C    0.032686  -0.000000
    55  N   -0.181942   0.000000
    56  C    0.059137  -0.000000
    57  C    0.047269   0.000000
    58  C    0.011539  -0.000000
    59  C   -0.030655   0.000000
    60  C    0.042831  -0.000000
    61  C    0.004498   0.000000
    62  C    0.030298  -0.000000
    63  O   -0.249027   0.000000
    64  C    0.163501   0.000000
    65  C   -0.030472   0.000000
    66  C   -0.006602   0.000000
    67  C    0.130779   0.000000
    68  O   -0.215587   0.000000
    69  C    0.203016   0.000000
    70  C   -0.023521   0.000000
    71  N   -0.174840  -0.000000
    72  C    0.049316   0.000000
    73  C    0.073115   0.000000
    74  C    0.004889  -0.000000
    75  C    0.006082   0.000000
    76  C    0.012032  -0.000000
    77  C    0.019239   0.000000
    78  C    0.023030  -0.000000
    79  O   -0.256637   0.000000
    80  C    0.177823  -0.000000
 Electronic spatial extent (au):  <R**2>=         315848.0907
 Charge=             -0.0000 electrons
 Dipole moment (field-independent basis, Debye):
    X=             -8.6811    Y=              2.4618    Z=             -1.0737  Tot=              9.0871
 Quadrupole moment (field-independent basis, Debye-Ang):
   XX=           -418.0154   YY=           -417.1957   ZZ=           -436.9989
   XY=            -60.8111   XZ=            -14.4848   YZ=              3.7210
 Traceless Quadrupole moment (field-independent basis, Debye-Ang):
   XX=              6.0546   YY=              6.8743   ZZ=            -12.9289
   XY=            -60.8111   XZ=            -14.4848   YZ=              3.7210
 Octapole moment (field-independent basis, Debye-Ang**2):
  XXX=          -3718.9272  YYY=            -13.4042  ZZZ=            -33.5617  XYY=           -294.1908
  XXY=            655.9069  XXZ=           -509.9328  XZZ=            181.9308  YZZ=             46.2623
  YYZ=            -16.5244  XYZ=             57.6652
 Hexadecapole moment (field-independent basis, Debye-Ang**3):
 XXXX=        -376701.5595 YYYY=          -5735.5182 ZZZZ=          -4437.8148 XXXY=         -20478.5230
 XXXZ=          -1211.2630 YYYX=           -699.5654 YYYZ=            -16.0042 ZZZX=           -709.3395
 ZZZY=             92.0921 XXYY=         -65594.6566 XXZZ=         -69470.3454 YYZZ=          -1707.8277
 XXYZ=            370.1983 YYXZ=            148.8966 ZZXY=           -193.0603
 N-N= 1.046027064486D+04 E-N=-2.915451921525D+04  KE= 3.510404090161D+03
 Leave Link  601 at Sun Jul 26 23:43:11 2020, MaxMem=  4026531840 cpu:              10.6 elap:               1.5
 (Enter /opt/ohpc/pub/libs/gaussian/g16-A.03/sandybridge/g16/l9999.exe)

 Test job not archived.
 1\1\GINC-SKYLAKE038\FOpt\ULC-wPBE\CC-pVDZ\C65H57N5O10\RDU230\26-Jul-20
 20\0\\#P uLC-wPBE/cc-pVDZ iop(3/107=0086900000, 3/108=0086900000) opt\
 \H57 C65 N5 O10\\0,1\C,-20.6643439417,-0.9859864065,-0.2744133025\C,-2
 0.108756373,0.2644483988,0.0327376025\C,-18.7103462735,0.4000061755,0.
 0351049947\O,-18.047418699,1.5749819705,0.2323893844\C,-18.8270740515,
 2.7301366612,0.5245333745\C,-17.9120524977,-0.7528577592,-0.227983063\
 N,-18.4631801657,-1.9358230003,-0.560730529\C,-19.8048645101,-2.044538
 7225,-0.5839409488\C,-16.4226965661,-0.697499099,-0.2367890631\C,-15.7
 276176425,-1.2254027489,-1.3377151532\C,-14.330168517,-1.2122696364,-1
 .4057815795\C,-13.575710229,-0.6728797948,-0.3446503963\C,-14.25834232
 74,-0.1734687672,0.7868000441\C,-15.6623943364,-0.1948024706,0.8533319
 891\O,-16.3739650803,0.19788332,1.953121775\C,-15.6510291626,0.7266186
 374,3.0586056982\C,-12.0937841349,-0.6323049176,-0.398624596\C,-11.348
 1655543,-1.6727526278,-0.9899036475\C,-9.9482527555,-1.5967506184,-1.0
 17690436\O,-9.1389615915,-2.5492561546,-1.5712728862\C,-9.7659901334,-
 3.6609938546,-2.2078516029\C,-9.3046274517,-0.4651210825,-0.4344441644
 \N,-10.022961434,0.5344959269,0.113505344\C,-11.3624235395,0.451262931
 4,0.1273244286\C,-7.8209653821,-0.3391273836,-0.3960065231\C,-7.003493
 4203,-1.3974222091,0.0555547376\C,-5.6164787679,-1.2637466749,0.157280
 8928\C,-4.9788687741,-0.0592873586,-0.2157879383\C,-5.7866029549,0.993
 5824884,-0.6903652785\C,-7.1812954556,0.8649029611,-0.7836274982\O,-7.
 9162753764,1.8851118208,-1.3511084544\C,-8.1195431508,3.0185254764,-0.
 498010852\C,-3.505368567,0.0864605047,-0.1287098443\C,-2.9036022839,1.
 312478898,0.2234602018\C,-1.5061905004,1.4044326798,0.2940319141\O,-0.
 8241637222,2.5438922537,0.6232804966\C,-1.5883543979,3.7226510069,0.86
 43032753\C,-0.7238623976,0.2457621821,0.0138652288\N,-1.3000284321,-0.
 9195338375,-0.3346222059\C,-2.6381431378,-0.9906235248,-0.4030254711\C
 ,0.7647389653,0.272692185,0.10899219\C,1.4075735351,0.7035417747,1.281
 682586\C,2.8008366259,0.6782201028,1.4163268618\C,3.605428594,0.222700
 3287,0.3536804088\C,2.9775038557,-0.1959759266,-0.8399787238\C,1.57755
 38907,-0.1694870418,-0.9723113753\O,0.9196029392,-0.5330735093,-2.1108
 225293\C,1.6959291368,-0.9974857019,-3.2089258098\C,5.0839575214,0.188
 898673,0.4715095978\C,5.7187823478,-0.1587109981,1.6815785745\C,7.1191
 347895,-0.1802049863,1.7518236338\O,7.8262973527,-0.4990605623,2.87770
 52949\C,7.087988783,-0.7734315037,4.0665583662\C,7.8756670309,0.144566
 5995,0.587053586\N,7.2637962784,0.4925484761,-0.5618503435\C,5.9228588
 817,0.5137786281,-0.6131631063\C,9.3647775809,0.1083750681,0.582813866
 1\C,10.076061717,-1.0027080639,1.0843159834\C,11.4702972092,-1.0714685
 08,1.0247037216\C,12.2219896341,-0.0082900397,0.4760574465\C,11.519600
 6821,1.114717405,-0.0053004317\C,10.1183575385,1.181406468,0.044237458
 1\O,9.4847875427,2.3436787659,-0.3435988417\C,9.3999679427,2.530793423
 ,-1.7621418841\C,13.7034007234,-0.064145974,0.4264250122\C,14.42983670
 08,0.5048164646,-0.6408830401\C,15.8306469173,0.4293775856,-0.64766035
 21\O,16.6321235307,1.0059608859,-1.5847132153\C,16.0043481401,1.638550
 4027,-2.6951537385\C,16.4827595431,-0.2756454455,0.4065487805\N,15.791
 8652304,-0.7792216382,1.4467873447\C,14.4529284554,-0.6692319188,1.455
 404731\C,17.9649056259,-0.4328309016,0.444310641\C,18.6700761607,-0.04
 92579435,1.6028584184\C,20.0642918509,-0.1614217285,1.6756469925\C,20.
 7811153392,-0.6730676474,0.5827994887\C,20.0944277234,-1.0962376654,-0
 .5635406972\C,18.6967076577,-0.985083792,-0.6338834669\O,18.0555095594
 ,-1.429075672,-1.7799647255\C,17.481800829,-2.7333517153,-1.6340704124
 \H,-21.7550240979,-1.1245957743,-0.2851533467\H,-20.7609978378,1.12052
 71654,0.2484192185\H,-19.5235413387,2.9807559714,-0.3062015543\H,-19.4
 126489867,2.6052759105,1.462172225\H,-18.1050385445,3.5563032895,0.652
 9237896\H,-20.2044079097,-3.0340193693,-0.8600480067\H,-16.3210964576,
 -1.6461399863,-2.1611729148\H,-13.8233096124,-1.5896335697,-2.30495190
 91\H,-13.6718256871,0.1887363207,1.6401453553\H,-16.4109977073,0.99386
 59035,3.8149298673\H,-15.0753996373,1.6366516378,2.7789650183\H,-14.95
 24024881,-0.0216479974,3.4941775513\H,-11.8725657101,-2.5445724667,-1.
 4017389219\H,-8.9432080963,-4.2786972155,-2.6095064147\H,-10.362363451
 4,-4.2658995522,-1.4897986831\H,-10.4243860353,-3.3368207598,-3.043313
 9913\H,-11.8935981372,1.3130085908,0.5634806307\H,-7.4781173693,-2.340
 2134105,0.3582069071\H,-5.0192674053,-2.095392925,0.5565904915\H,-5.33
 0903314,1.9259383737,-1.054731209\H,-7.1549378358,3.4366802148,-0.1310
 864355\H,-8.7625653683,2.7342587042,0.3615829994\H,-8.6322084021,3.781
 6118649,-1.113647481\H,-3.5373367869,2.1768788824,0.4605877015\H,-2.26
 78058457,3.6040520517,1.7372563142\H,-2.1902752304,4.0113920945,-0.025
 4137455\H,-0.8529610087,4.517921105,1.0808782339\H,-3.051634686,-1.962
 2369485,-0.7196103496\H,0.7890761879,1.0660215026,2.1139784397\H,3.266
 9695451,1.0425831596,2.3425091059\H,3.6001770041,-0.5710978183,-1.6615
 411064\H,2.26938879,-1.9149646082,-2.9506455686\H,2.4036925674,-0.2210
 859325,-3.5760386796\H,0.9708850036,-1.2359509397,-4.0076049245\H,5.10
 72378362,-0.4324954909,2.5509436555\H,6.4618330677,0.0942206684,4.3695
 27926\H,6.4368418569,-1.6678796613,3.9515987562\H,7.8426801533,-0.9701
 104207,4.8486646553\H,5.4832407918,0.8334880055,-1.5720044336\H,9.5121
 694505,-1.8440707506,1.5084000169\H,11.9848365689,-1.9735094168,1.3844
 10069\H,12.0626652749,1.9944565783,-0.3804604928\H,8.7370998418,1.7584
 710947,-2.20623898\H,10.4035299886,2.4950742105,-2.2432383962\H,8.9617
 438814,3.5349116152,-1.9163777538\H,13.8898298591,0.9944133024,-1.4617
 680989\H,15.3818665779,0.9227644228,-3.2757735911\H,15.3714059867,2.49
 75982606,-2.3795468982\H,16.8263197098,2.0072868496,-3.3339242063\H,13
 .9430279411,-1.0729687882,2.3451385902\H,18.0931373419,0.347043934,2.4
 503578549\H,20.5932075703,0.1580708261,2.5849534231\H,21.8768198491,-0
 .7570946016,0.6272051383\H,20.6239632538,-1.5245354459,-1.426398559\H,
 18.265595297,-3.5019320436,-1.4461213227\H,16.9703849781,-2.9604678421
 ,-2.5886255047\H,16.74175114,-2.7687107718,-0.8040096944\\Version=EM64
 L-G16RevA.03\State=1-A\HF=-3533.7131098\S2=0.\S2-1=0.\S2A=0.\RMSD=3.94
 4e-09\RMSF=1.497e-06\Dipole=-3.4187332,1.0250842,0.2074359\Quadrupole=
 4.9704864,-2.6830347,-2.2874517,-30.40072,-35.1570645,7.636084\PG=C01 
 [X(C65H57N5O10)]\\@


 DEPRESSION IS WAITING FOR YOUR SHIP TO COME IN,
 AND FINDING OUT IT'S THE TITANIC.
 Job cpu time:       3 days 17 hours 34 minutes 31.9 seconds.
 Elapsed time:       0 days 11 hours 21 minutes 27.1 seconds.
 File lengths (MBytes):  RWF=   2204 Int=      0 D2E=      0 Chk=    200 Scr=      8
 Normal termination of Gaussian 16 at Sun Jul 26 23:43:12 2020.
