 Entering Gaussian System, Link 0=g16
 Input=mols_66_7_05_n-n-c-cF_opt_0.gjf
 Output=mols_66_7_05_n-n-c-cF_opt_0.log
 Initial command:
 /opt/ohpc/pub/libs/gaussian/g16-A.03/sandybridge/g16/l1.exe "/mnt/gpfs2_4m/scratch/rdu230/ondemand/projects/dihedral_energies/7trial/wtuning/mols_66_7_05_n-n-c-cF/Gau-127035.inp" -scrdir="/mnt/gpfs2_4m/scratch/rdu230/ondemand/projects/dihedral_energies/7trial/wtuning/mols_66_7_05_n-n-c-cF/"
 Entering Link 1 = /opt/ohpc/pub/libs/gaussian/g16-A.03/sandybridge/g16/l1.exe PID=    127036.
  
 Copyright (c) 1988,1990,1992,1993,1995,1998,2003,2009,2016,
            Gaussian, Inc.  All Rights Reserved.
  
 This is part of the Gaussian(R) 16 program.  It is based on
 the Gaussian(R) 09 system (copyright 2009, Gaussian, Inc.),
 the Gaussian(R) 03 system (copyright 2003, Gaussian, Inc.),
 the Gaussian(R) 98 system (copyright 1998, Gaussian, Inc.),
 the Gaussian(R) 94 system (copyright 1995, Gaussian, Inc.),
 the Gaussian 92(TM) system (copyright 1992, Gaussian, Inc.),
 the Gaussian 90(TM) system (copyright 1990, Gaussian, Inc.),
 the Gaussian 88(TM) system (copyright 1988, Gaussian, Inc.),
 the Gaussian 86(TM) system (copyright 1986, Carnegie Mellon
 University), and the Gaussian 82(TM) system (copyright 1983,
 Carnegie Mellon University). Gaussian is a federally registered
 trademark of Gaussian, Inc.
  
 This software contains proprietary and confidential information,
 including trade secrets, belonging to Gaussian, Inc.
  
 This software is provided under written license and may be
 used, copied, transmitted, or stored only in accord with that
 written license.
  
 The following legend is applicable only to US Government
 contracts under FAR:
  
                    RESTRICTED RIGHTS LEGEND
  
 Use, reproduction and disclosure by the US Government is
 subject to restrictions as set forth in subparagraphs (a)
 and (c) of the Commercial Computer Software - Restricted
 Rights clause in FAR 52.227-19.
  
 Gaussian, Inc.
 340 Quinnipiac St., Bldg. 40, Wallingford CT 06492
  
  
 ---------------------------------------------------------------
 Warning -- This program may not be used in any manner that
 competes with the business of Gaussian, Inc. or will provide
 assistance to any competitor of Gaussian, Inc.  The licensee
 of this program is prohibited from giving any competitor of
 Gaussian, Inc. access to this program.  By using this program,
 the user acknowledges that Gaussian, Inc. is engaged in the
 business of creating and licensing software in the field of
 computational chemistry and represents and warrants to the
 licensee that it is not a competitor of Gaussian, Inc. and that
 it will not use this program in any manner prohibited above.
 ---------------------------------------------------------------
  

 Cite this work as:
 Gaussian 16, Revision A.03,
 M. J. Frisch, G. W. Trucks, H. B. Schlegel, G. E. Scuseria, 
 M. A. Robb, J. R. Cheeseman, G. Scalmani, V. Barone, 
 G. A. Petersson, H. Nakatsuji, X. Li, M. Caricato, A. V. Marenich, 
 J. Bloino, B. G. Janesko, R. Gomperts, B. Mennucci, H. P. Hratchian, 
 J. V. Ortiz, A. F. Izmaylov, J. L. Sonnenberg, D. Williams-Young, 
 F. Ding, F. Lipparini, F. Egidi, J. Goings, B. Peng, A. Petrone, 
 T. Henderson, D. Ranasinghe, V. G. Zakrzewski, J. Gao, N. Rega, 
 G. Zheng, W. Liang, M. Hada, M. Ehara, K. Toyota, R. Fukuda, 
 J. Hasegawa, M. Ishida, T. Nakajima, Y. Honda, O. Kitao, H. Nakai, 
 T. Vreven, K. Throssell, J. A. Montgomery, Jr., J. E. Peralta, 
 F. Ogliaro, M. J. Bearpark, J. J. Heyd, E. N. Brothers, K. N. Kudin, 
 V. N. Staroverov, T. A. Keith, R. Kobayashi, J. Normand, 
 K. Raghavachari, A. P. Rendell, J. C. Burant, S. S. Iyengar, 
 J. Tomasi, M. Cossi, J. M. Millam, M. Klene, C. Adamo, R. Cammi, 
 J. W. Ochterski, R. L. Martin, K. Morokuma, O. Farkas, 
 J. B. Foresman, and D. J. Fox, Gaussian, Inc., Wallingford CT, 2016.
 
 ******************************************
 Gaussian 16:  EM64L-G16RevA.03 25-Dec-2016
                23-Jul-2020 
 ******************************************
 %mem=30GB
 %nproc=8
 Will use up to    8 processors via shared memory.
 ---------------------------------------------------------------
 #P uLC-wPBE/cc-pVDZ iop(3/107=0181700000, 3/108=0181700000) opt
 ---------------------------------------------------------------
 1/18=20,19=15,26=3,38=1/1,3;
 2/9=110,12=2,17=6,18=5,40=1/2;
 3/5=16,11=2,25=1,30=1,71=1,74=-41,107=181700000,108=181700000,116=2/1,2,3;
 4//1;
 5/5=2,38=5/2;
 6/7=2,8=2,9=2,10=2,28=1/1;
 7//1,2,3,16;
 1/18=20,19=15,26=3/3(2);
 2/9=110/2;
 99//99;
 2/9=110/2;
 3/5=16,11=2,25=1,30=1,71=1,74=-41,107=181700000,108=181700000,116=2/1,2,3;
 4/5=5,16=3,69=1/1;
 5/5=2,38=5/2;
 7//1,2,3,16;
 1/18=20,19=15,26=3/3(-5);
 2/9=110/2;
 6/7=2,8=2,9=2,10=2,19=2,28=1/1;
 99/9=1/99;
 Leave Link    1 at Thu Jul 23 15:43:23 2020, MaxMem=  4026531840 cpu:               3.7 elap:               0.5
 (Enter /opt/ohpc/pub/libs/gaussian/g16-A.03/sandybridge/g16/l101.exe)
 --------------
 H37 C70 N14 F7
 --------------
 Symbolic Z-matrix:
 Charge =  0 Multiplicity = 1
 C                     28.01469   1.59953  -0.66574 
 C                     27.35673   1.77605  -1.80017 
 C                     25.91918   1.88867  -1.7956 
 C                     25.26986   1.65796  -0.53559 
 N                     25.97676   1.5072    0.5877 
 C                     27.32841   1.48417   0.52309 
 C                     23.76012   1.7449   -0.40152 
 N                     23.24316   2.46897   0.62457 
 C                     21.85004   2.52455   0.68427 
 C                     21.05187   1.85654  -0.16803 
 C                     21.62955   1.11621  -1.19921 
 C                     22.95855   1.03783  -1.39591 
 F                     23.47226   0.37553  -2.32868 
 C                     19.58006   1.92372   0.02937 
 C                     18.70189   2.26941  -1.01052 
 C                     17.27759   2.21181  -0.8544 
 C                     16.72751   1.84285   0.35696 
 N                     17.5357   1.5386    1.38719 
 C                     18.8791   1.57917   1.17981 
 C                     15.32374   1.67902   0.51091 
 N                     14.53919   1.47983  -0.57209 
 C                     13.24772   1.21101  -0.42933 
 C                     12.53367   1.18717   0.76577 
 C                     13.38342   1.49516   1.90951 
 C                     14.70103   1.74005   1.7534 
 F                     15.342    1.99155   2.91229 
 C                     11.10458   0.87993   0.81668 
 C                     10.6715  -0.06056   1.76518 
 C                     9.37279  -0.4652    1.69373 
 C                     8.47962   0.08624   0.81268 
 N                     8.90688   0.99325  -0.08914 
 C                     10.24399   1.42549  -0.02769 
 C                     7.14963  -0.45346   0.59104 
 N                     6.04775   0.43447   0.77832 
 C                     4.83444   0.01406   0.50676 
 C                     4.52652  -1.33962   0.1837 
 C                     5.56062  -2.18478  -0.02422 
 C                     6.8437   -1.70932   0.23961 
 F                     7.84718  -2.58476   0.08168 
 C                     3.10394  -1.77583  -0.02328 
 C                     2.1704   -0.98599  -0.76349 
 C                     0.89712  -1.34141  -0.88398 
 C                     0.41951  -2.53742  -0.37053 
 N                     1.34975  -3.39216   0.26993 
 C                     2.58694  -2.92458   0.40139 
 C                    -1.00439  -3.00729  -0.48747 
 N                    -1.84068  -2.19718  -1.11359 
 C                    -3.15988  -2.44092  -1.14394 
 C                    -3.73942  -3.66263  -0.62505 
 C                    -2.82103  -4.59136  -0.02601 
 C                    -1.47273  -4.20436   0.06744 
 F                    -0.67999  -5.11479   0.67589 
 C                    -5.18474  -3.8577   -0.66639 
 C                    -5.84786  -3.79887  -1.82122 
 C                    -7.29378  -3.80517  -1.82075 
 C                    -7.96566  -4.03124  -0.58016 
 N                    -7.24519  -4.15538   0.54623 
 C                    -5.86531  -4.15524   0.52048 
 C                    -9.41386  -3.88585  -0.46681 
 N                    -10.01105  -3.19257  -1.43934 
 C                    -11.27802  -2.9199   -1.32419 
 C                    -12.15923  -3.32015  -0.27295 
 C                    -11.46377  -4.06449   0.70615 
 C                    -10.10759  -4.36906   0.58204 
 F                    -9.52895  -5.14857   1.54599 
 C                    -13.52046  -2.81746  -0.15597 
 C                    -13.9424  -2.26447   1.0594 
 C                    -15.16758  -1.70161   1.16956 
 C                    -15.99839  -1.60146  -0.00625 
 N                    -15.59497  -2.10792  -1.0952 
 C                    -14.40506  -2.71669  -1.13927 
 C                    -17.25298  -0.77682  -0.02882 
 N                    -17.33716   0.14091  -1.05751 
 C                    -18.37346   0.99205  -1.01472 
 C                    -19.34694   1.10453  -0.08185 
 C                    -19.16766   0.20678   0.99948 
 C                    -18.14409  -0.74105   1.08835 
 F                    -18.00448  -1.57861   2.11827 
 C                    -20.34291   2.19321  -0.0712 
 C                    -21.72223   1.85786   0.20818 
 C                    -22.59021   2.99106   0.21998 
 C                    -22.22713   4.2338   -0.07611 
 N                    -20.8546   4.54797  -0.29751 
 C                    -19.99894   3.50128  -0.26766 
 C                    -23.08416   5.43717  -0.01487 
 N                    -24.29785   5.17368   0.62723 
 C                    -25.15969   6.19948   0.77156 
 C                    -24.95317   7.44603   0.12114 
 C                    -23.72422   7.64428  -0.56784 
 C                    -22.83636   6.57835  -0.6532 
 F                    -21.71822   6.79278  -1.36658 
 H                     29.0603   1.58396  -0.63568 
 H                     27.84312   1.95174  -2.75863 
 H                     25.39382   2.04362  -2.6952 
 H                     27.83125   1.33315   1.47977 
 H                     21.55879   3.12568   1.48902 
 H                     20.92642   0.58509  -1.91299 
 H                     19.07027   2.53549  -1.98859 
 H                     16.64959   2.52426  -1.69133 
 H                     19.53423   1.28767   2.11313 
 H                     12.78936   1.08272  -1.38671 
 H                     12.83794   1.49949   2.92036 
 H                     11.39335  -0.55748   2.4262 
 H                     8.97934  -1.24342   2.34157 
 H                     10.47823   2.23376  -0.75757 
 H                     4.10474   0.76781   0.72427 
 H                     5.42136  -3.23663  -0.32365 
 H                     2.50403   0.00898  -1.23569 
 H                     0.20611  -0.76359  -1.4862 
 H                     3.24201  -3.6633    1.01476 
 H                    -3.75228  -1.67794  -1.58906 
 H                    -3.18368  -5.47516   0.36378 
 H                    -5.3663   -3.58707  -2.85513 
 H                    -7.79865  -3.67216  -2.73697 
 H                    -5.37725  -4.17989   1.47926 
 H                    -11.75986  -2.26624  -2.11232 
 H                    -11.99803  -4.47652   1.51752 
 H                    -13.30598  -2.25744   1.9765 
 H                    -15.54458  -1.18158   2.13163 
 H                    -14.18307  -3.13729  -2.15859 
 H                    -18.43373   1.64954  -1.95808 
 H                    -19.94655   0.19415   1.86278 
 H                    -22.05854   0.84092   0.40579 
 H                    -23.70912   2.73909   0.4288 
 H                    -18.98248   3.72759  -0.52372 
 H                    -26.08803   6.01339   1.26316 
 H                    -25.62928   8.28477   0.25549 
 H                    -23.53893   8.63855  -0.98144 
 
 ITRead=  0  0  0  0  0  0  0  0  0  0  0  0  0  0  0  0  0  0  0  0
 ITRead=  0  0  0  0  0  0  0  0  0  0  0  0  0  0  0  0  0  0  0  0
 ITRead=  0  0  0  0  0  0  0  0  0  0  0  0  0  0  0  0  0  0  0  0
 ITRead=  0  0  0  0  0  0  0  0  0  0  0  0  0  0  0  0  0  0  0  0
 ITRead=  0  0  0  0  0  0  0  0  0  0  0  0  0  0  0  0  0  0  0  0
 ITRead=  0  0  0  0  0  0  0  0  0  0  0  0  0  0  0  0  0  0  0  0
 ITRead=  0  0  0  0  0  0  0  0
 MicOpt= -1 -1 -1 -1 -1 -1 -1 -1 -1 -1 -1 -1 -1 -1 -1 -1 -1 -1 -1 -1
 MicOpt= -1 -1 -1 -1 -1 -1 -1 -1 -1 -1 -1 -1 -1 -1 -1 -1 -1 -1 -1 -1
 MicOpt= -1 -1 -1 -1 -1 -1 -1 -1 -1 -1 -1 -1 -1 -1 -1 -1 -1 -1 -1 -1
 MicOpt= -1 -1 -1 -1 -1 -1 -1 -1 -1 -1 -1 -1 -1 -1 -1 -1 -1 -1 -1 -1
 MicOpt= -1 -1 -1 -1 -1 -1 -1 -1 -1 -1 -1 -1 -1 -1 -1 -1 -1 -1 -1 -1
 MicOpt= -1 -1 -1 -1 -1 -1 -1 -1 -1 -1 -1 -1 -1 -1 -1 -1 -1 -1 -1 -1
 MicOpt= -1 -1 -1 -1 -1 -1 -1 -1
 NAtoms=    128 NQM=      128 NQMF=       0 NMMI=      0 NMMIF=      0
                NMic=       0 NMicF=      0.
                    Isotopes and Nuclear Properties:
 (Nuclear quadrupole moments (NQMom) in fm**2, nuclear magnetic moments (NMagM)
  in nuclear magnetons)

  Atom         1           2           3           4           5           6           7           8           9          10
 IAtWgt=          12          12          12          12          14          12          12          14          12          12
 AtmWgt=  12.0000000  12.0000000  12.0000000  12.0000000  14.0030740  12.0000000  12.0000000  14.0030740  12.0000000  12.0000000
 NucSpn=           0           0           0           0           2           0           0           2           0           0
 AtZEff=  -0.0000000  -0.0000000  -0.0000000  -0.0000000  -0.0000000  -0.0000000  -0.0000000  -0.0000000  -0.0000000  -0.0000000
 NQMom=    0.0000000   0.0000000   0.0000000   0.0000000   2.0440000   0.0000000   0.0000000   2.0440000   0.0000000   0.0000000
 NMagM=    0.0000000   0.0000000   0.0000000   0.0000000   0.4037610   0.0000000   0.0000000   0.4037610   0.0000000   0.0000000
 AtZNuc=   6.0000000   6.0000000   6.0000000   6.0000000   7.0000000   6.0000000   6.0000000   7.0000000   6.0000000   6.0000000

  Atom        11          12          13          14          15          16          17          18          19          20
 IAtWgt=          12          12          19          12          12          12          12          14          12          12
 AtmWgt=  12.0000000  12.0000000  18.9984033  12.0000000  12.0000000  12.0000000  12.0000000  14.0030740  12.0000000  12.0000000
 NucSpn=           0           0           1           0           0           0           0           2           0           0
 AtZEff=  -0.0000000  -0.0000000  -0.0000000  -0.0000000  -0.0000000  -0.0000000  -0.0000000  -0.0000000  -0.0000000  -0.0000000
 NQMom=    0.0000000   0.0000000   0.0000000   0.0000000   0.0000000   0.0000000   0.0000000   2.0440000   0.0000000   0.0000000
 NMagM=    0.0000000   0.0000000   2.6288670   0.0000000   0.0000000   0.0000000   0.0000000   0.4037610   0.0000000   0.0000000
 AtZNuc=   6.0000000   6.0000000   9.0000000   6.0000000   6.0000000   6.0000000   6.0000000   7.0000000   6.0000000   6.0000000

  Atom        21          22          23          24          25          26          27          28          29          30
 IAtWgt=          14          12          12          12          12          19          12          12          12          12
 AtmWgt=  14.0030740  12.0000000  12.0000000  12.0000000  12.0000000  18.9984033  12.0000000  12.0000000  12.0000000  12.0000000
 NucSpn=           2           0           0           0           0           1           0           0           0           0
 AtZEff=  -0.0000000  -0.0000000  -0.0000000  -0.0000000  -0.0000000  -0.0000000  -0.0000000  -0.0000000  -0.0000000  -0.0000000
 NQMom=    2.0440000   0.0000000   0.0000000   0.0000000   0.0000000   0.0000000   0.0000000   0.0000000   0.0000000   0.0000000
 NMagM=    0.4037610   0.0000000   0.0000000   0.0000000   0.0000000   2.6288670   0.0000000   0.0000000   0.0000000   0.0000000
 AtZNuc=   7.0000000   6.0000000   6.0000000   6.0000000   6.0000000   9.0000000   6.0000000   6.0000000   6.0000000   6.0000000

  Atom        31          32          33          34          35          36          37          38          39          40
 IAtWgt=          14          12          12          14          12          12          12          12          19          12
 AtmWgt=  14.0030740  12.0000000  12.0000000  14.0030740  12.0000000  12.0000000  12.0000000  12.0000000  18.9984033  12.0000000
 NucSpn=           2           0           0           2           0           0           0           0           1           0
 AtZEff=  -0.0000000  -0.0000000  -0.0000000  -0.0000000  -0.0000000  -0.0000000  -0.0000000  -0.0000000  -0.0000000  -0.0000000
 NQMom=    2.0440000   0.0000000   0.0000000   2.0440000   0.0000000   0.0000000   0.0000000   0.0000000   0.0000000   0.0000000
 NMagM=    0.4037610   0.0000000   0.0000000   0.4037610   0.0000000   0.0000000   0.0000000   0.0000000   2.6288670   0.0000000
 AtZNuc=   7.0000000   6.0000000   6.0000000   7.0000000   6.0000000   6.0000000   6.0000000   6.0000000   9.0000000   6.0000000

  Atom        41          42          43          44          45          46          47          48          49          50
 IAtWgt=          12          12          12          14          12          12          14          12          12          12
 AtmWgt=  12.0000000  12.0000000  12.0000000  14.0030740  12.0000000  12.0000000  14.0030740  12.0000000  12.0000000  12.0000000
 NucSpn=           0           0           0           2           0           0           2           0           0           0
 AtZEff=  -0.0000000  -0.0000000  -0.0000000  -0.0000000  -0.0000000  -0.0000000  -0.0000000  -0.0000000  -0.0000000  -0.0000000
 NQMom=    0.0000000   0.0000000   0.0000000   2.0440000   0.0000000   0.0000000   2.0440000   0.0000000   0.0000000   0.0000000
 NMagM=    0.0000000   0.0000000   0.0000000   0.4037610   0.0000000   0.0000000   0.4037610   0.0000000   0.0000000   0.0000000
 AtZNuc=   6.0000000   6.0000000   6.0000000   7.0000000   6.0000000   6.0000000   7.0000000   6.0000000   6.0000000   6.0000000

  Atom        51          52          53          54          55          56          57          58          59          60
 IAtWgt=          12          19          12          12          12          12          14          12          12          14
 AtmWgt=  12.0000000  18.9984033  12.0000000  12.0000000  12.0000000  12.0000000  14.0030740  12.0000000  12.0000000  14.0030740
 NucSpn=           0           1           0           0           0           0           2           0           0           2
 AtZEff=  -0.0000000  -0.0000000  -0.0000000  -0.0000000  -0.0000000  -0.0000000  -0.0000000  -0.0000000  -0.0000000  -0.0000000
 NQMom=    0.0000000   0.0000000   0.0000000   0.0000000   0.0000000   0.0000000   2.0440000   0.0000000   0.0000000   2.0440000
 NMagM=    0.0000000   2.6288670   0.0000000   0.0000000   0.0000000   0.0000000   0.4037610   0.0000000   0.0000000   0.4037610
 AtZNuc=   6.0000000   9.0000000   6.0000000   6.0000000   6.0000000   6.0000000   7.0000000   6.0000000   6.0000000   7.0000000

  Atom        61          62          63          64          65          66          67          68          69          70
 IAtWgt=          12          12          12          12          19          12          12          12          12          14
 AtmWgt=  12.0000000  12.0000000  12.0000000  12.0000000  18.9984033  12.0000000  12.0000000  12.0000000  12.0000000  14.0030740
 NucSpn=           0           0           0           0           1           0           0           0           0           2
 AtZEff=  -0.0000000  -0.0000000  -0.0000000  -0.0000000  -0.0000000  -0.0000000  -0.0000000  -0.0000000  -0.0000000  -0.0000000
 NQMom=    0.0000000   0.0000000   0.0000000   0.0000000   0.0000000   0.0000000   0.0000000   0.0000000   0.0000000   2.0440000
 NMagM=    0.0000000   0.0000000   0.0000000   0.0000000   2.6288670   0.0000000   0.0000000   0.0000000   0.0000000   0.4037610
 AtZNuc=   6.0000000   6.0000000   6.0000000   6.0000000   9.0000000   6.0000000   6.0000000   6.0000000   6.0000000   7.0000000

  Atom        71          72          73          74          75          76          77          78          79          80
 IAtWgt=          12          12          14          12          12          12          12          19          12          12
 AtmWgt=  12.0000000  12.0000000  14.0030740  12.0000000  12.0000000  12.0000000  12.0000000  18.9984033  12.0000000  12.0000000
 NucSpn=           0           0           2           0           0           0           0           1           0           0
 AtZEff=  -0.0000000  -0.0000000  -0.0000000  -0.0000000  -0.0000000  -0.0000000  -0.0000000  -0.0000000  -0.0000000  -0.0000000
 NQMom=    0.0000000   0.0000000   2.0440000   0.0000000   0.0000000   0.0000000   0.0000000   0.0000000   0.0000000   0.0000000
 NMagM=    0.0000000   0.0000000   0.4037610   0.0000000   0.0000000   0.0000000   0.0000000   2.6288670   0.0000000   0.0000000
 AtZNuc=   6.0000000   6.0000000   7.0000000   6.0000000   6.0000000   6.0000000   6.0000000   9.0000000   6.0000000   6.0000000

  Atom        81          82          83          84          85          86          87          88          89          90
 IAtWgt=          12          12          14          12          12          14          12          12          12          12
 AtmWgt=  12.0000000  12.0000000  14.0030740  12.0000000  12.0000000  14.0030740  12.0000000  12.0000000  12.0000000  12.0000000
 NucSpn=           0           0           2           0           0           2           0           0           0           0
 AtZEff=  -0.0000000  -0.0000000  -0.0000000  -0.0000000  -0.0000000  -0.0000000  -0.0000000  -0.0000000  -0.0000000  -0.0000000
 NQMom=    0.0000000   0.0000000   2.0440000   0.0000000   0.0000000   2.0440000   0.0000000   0.0000000   0.0000000   0.0000000
 NMagM=    0.0000000   0.0000000   0.4037610   0.0000000   0.0000000   0.4037610   0.0000000   0.0000000   0.0000000   0.0000000
 AtZNuc=   6.0000000   6.0000000   7.0000000   6.0000000   6.0000000   7.0000000   6.0000000   6.0000000   6.0000000   6.0000000

  Atom        91          92          93          94          95          96          97          98          99         100
 IAtWgt=          19           1           1           1           1           1           1           1           1           1
 AtmWgt=  18.9984033   1.0078250   1.0078250   1.0078250   1.0078250   1.0078250   1.0078250   1.0078250   1.0078250   1.0078250
 NucSpn=           1           1           1           1           1           1           1           1           1           1
 AtZEff=  -0.0000000  -0.0000000  -0.0000000  -0.0000000  -0.0000000  -0.0000000  -0.0000000  -0.0000000  -0.0000000  -0.0000000
 NQMom=    0.0000000   0.0000000   0.0000000   0.0000000   0.0000000   0.0000000   0.0000000   0.0000000   0.0000000   0.0000000
 NMagM=    2.6288670   2.7928460   2.7928460   2.7928460   2.7928460   2.7928460   2.7928460   2.7928460   2.7928460   2.7928460
 AtZNuc=   9.0000000   1.0000000   1.0000000   1.0000000   1.0000000   1.0000000   1.0000000   1.0000000   1.0000000   1.0000000

  Atom       101         102         103         104         105         106         107         108         109         110
 IAtWgt=           1           1           1           1           1           1           1           1           1           1
 AtmWgt=   1.0078250   1.0078250   1.0078250   1.0078250   1.0078250   1.0078250   1.0078250   1.0078250   1.0078250   1.0078250
 NucSpn=           1           1           1           1           1           1           1           1           1           1
 AtZEff=  -0.0000000  -0.0000000  -0.0000000  -0.0000000  -0.0000000  -0.0000000  -0.0000000  -0.0000000  -0.0000000  -0.0000000
 NQMom=    0.0000000   0.0000000   0.0000000   0.0000000   0.0000000   0.0000000   0.0000000   0.0000000   0.0000000   0.0000000
 NMagM=    2.7928460   2.7928460   2.7928460   2.7928460   2.7928460   2.7928460   2.7928460   2.7928460   2.7928460   2.7928460
 AtZNuc=   1.0000000   1.0000000   1.0000000   1.0000000   1.0000000   1.0000000   1.0000000   1.0000000   1.0000000   1.0000000

  Atom       111         112         113         114         115         116         117         118         119         120
 IAtWgt=           1           1           1           1           1           1           1           1           1           1
 AtmWgt=   1.0078250   1.0078250   1.0078250   1.0078250   1.0078250   1.0078250   1.0078250   1.0078250   1.0078250   1.0078250
 NucSpn=           1           1           1           1           1           1           1           1           1           1
 AtZEff=  -0.0000000  -0.0000000  -0.0000000  -0.0000000  -0.0000000  -0.0000000  -0.0000000  -0.0000000  -0.0000000  -0.0000000
 NQMom=    0.0000000   0.0000000   0.0000000   0.0000000   0.0000000   0.0000000   0.0000000   0.0000000   0.0000000   0.0000000
 NMagM=    2.7928460   2.7928460   2.7928460   2.7928460   2.7928460   2.7928460   2.7928460   2.7928460   2.7928460   2.7928460
 AtZNuc=   1.0000000   1.0000000   1.0000000   1.0000000   1.0000000   1.0000000   1.0000000   1.0000000   1.0000000   1.0000000

  Atom       121         122         123         124         125         126         127         128
 IAtWgt=           1           1           1           1           1           1           1           1
 AtmWgt=   1.0078250   1.0078250   1.0078250   1.0078250   1.0078250   1.0078250   1.0078250   1.0078250
 NucSpn=           1           1           1           1           1           1           1           1
 AtZEff=  -0.0000000  -0.0000000  -0.0000000  -0.0000000  -0.0000000  -0.0000000  -0.0000000  -0.0000000
 NQMom=    0.0000000   0.0000000   0.0000000   0.0000000   0.0000000   0.0000000   0.0000000   0.0000000
 NMagM=    2.7928460   2.7928460   2.7928460   2.7928460   2.7928460   2.7928460   2.7928460   2.7928460
 AtZNuc=   1.0000000   1.0000000   1.0000000   1.0000000   1.0000000   1.0000000   1.0000000   1.0000000
 Leave Link  101 at Thu Jul 23 15:43:23 2020, MaxMem=  4026531840 cpu:               2.2 elap:               0.5
 (Enter /opt/ohpc/pub/libs/gaussian/g16-A.03/sandybridge/g16/l103.exe)

 GradGradGradGradGradGradGradGradGradGradGradGradGradGradGradGradGradGrad
 Berny optimization.
 Initialization pass.
                           ----------------------------
                           !    Initial Parameters    !
                           ! (Angstroms and Degrees)  !
 --------------------------                            --------------------------
 ! Name  Definition              Value          Derivative Info.                !
 --------------------------------------------------------------------------------
 ! R1    R(1,2)                  1.3233         estimate D2E/DX2                !
 ! R2    R(1,6)                  1.3775         estimate D2E/DX2                !
 ! R3    R(1,92)                 1.0462         estimate D2E/DX2                !
 ! R4    R(2,3)                  1.442          estimate D2E/DX2                !
 ! R5    R(2,93)                 1.0891         estimate D2E/DX2                !
 ! R6    R(3,4)                  1.4361         estimate D2E/DX2                !
 ! R7    R(3,94)                 1.0532         estimate D2E/DX2                !
 ! R8    R(4,5)                  1.3357         estimate D2E/DX2                !
 ! R9    R(4,7)                  1.5182         estimate D2E/DX2                !
 ! R10   R(5,6)                  1.3534         estimate D2E/DX2                !
 ! R11   R(6,95)                 1.0913         estimate D2E/DX2                !
 ! R12   R(7,8)                  1.3581         estimate D2E/DX2                !
 ! R13   R(7,12)                 1.4599         estimate D2E/DX2                !
 ! R14   R(8,9)                  1.3955         estimate D2E/DX2                !
 ! R15   R(9,10)                 1.3453         estimate D2E/DX2                !
 ! R16   R(9,96)                 1.0459         estimate D2E/DX2                !
 ! R17   R(10,11)                1.3947         estimate D2E/DX2                !
 ! R18   R(10,14)                1.4865         estimate D2E/DX2                !
 ! R19   R(11,12)                1.3458         estimate D2E/DX2                !
 ! R20   R(11,97)                1.134          estimate D2E/DX2                !
 ! R21   R(12,13)                1.254          estimate D2E/DX2                !
 ! R22   R(14,15)                1.4043         estimate D2E/DX2                !
 ! R23   R(14,19)                1.3905         estimate D2E/DX2                !
 ! R24   R(15,16)                1.434          estimate D2E/DX2                !
 ! R25   R(15,98)                1.0785         estimate D2E/DX2                !
 ! R26   R(16,17)                1.3806         estimate D2E/DX2                !
 ! R27   R(16,99)                1.092          estimate D2E/DX2                !
 ! R28   R(17,18)                1.3443         estimate D2E/DX2                !
 ! R29   R(17,20)                1.4217         estimate D2E/DX2                !
 ! R30   R(18,19)                1.3599         estimate D2E/DX2                !
 ! R31   R(19,100)               1.177          estimate D2E/DX2                !
 ! R32   R(20,21)                1.3521         estimate D2E/DX2                !
 ! R33   R(20,25)                1.3911         estimate D2E/DX2                !
 ! R34   R(21,22)                1.3269         estimate D2E/DX2                !
 ! R35   R(22,23)                1.3924         estimate D2E/DX2                !
 ! R36   R(22,101)               1.0692         estimate D2E/DX2                !
 ! R37   R(23,24)                1.4578         estimate D2E/DX2                !
 ! R38   R(23,27)                1.4626         estimate D2E/DX2                !
 ! R39   R(24,25)                1.3492         estimate D2E/DX2                !
 ! R40   R(24,102)               1.1486         estimate D2E/DX2                !
 ! R41   R(25,26)                1.348          estimate D2E/DX2                !
 ! R42   R(27,28)                1.4042         estimate D2E/DX2                !
 ! R43   R(27,32)                1.3233         estimate D2E/DX2                !
 ! R44   R(28,29)                1.3622         estimate D2E/DX2                !
 ! R45   R(28,103)               1.0977         estimate D2E/DX2                !
 ! R46   R(29,30)                1.3704         estimate D2E/DX2                !
 ! R47   R(29,104)               1.0863         estimate D2E/DX2                !
 ! R48   R(30,31)                1.3485         estimate D2E/DX2                !
 ! R49   R(30,33)                1.4523         estimate D2E/DX2                !
 ! R50   R(31,32)                1.4066         estimate D2E/DX2                !
 ! R51   R(32,105)               1.114          estimate D2E/DX2                !
 ! R52   R(33,34)                1.4275         estimate D2E/DX2                !
 ! R53   R(33,38)                1.3395         estimate D2E/DX2                !
 ! R54   R(34,35)                1.3125         estimate D2E/DX2                !
 ! R55   R(35,36)                1.4253         estimate D2E/DX2                !
 ! R56   R(35,106)               1.0714         estimate D2E/DX2                !
 ! R57   R(36,37)                1.3516         estimate D2E/DX2                !
 ! R58   R(36,40)                1.5023         estimate D2E/DX2                !
 ! R59   R(37,38)                1.3935         estimate D2E/DX2                !
 ! R60   R(37,107)               1.1025         estimate D2E/DX2                !
 ! R61   R(38,39)                1.341          estimate D2E/DX2                !
 ! R62   R(40,41)                1.4294         estimate D2E/DX2                !
 ! R63   R(40,45)                1.3294         estimate D2E/DX2                !
 ! R64   R(41,42)                1.3274         estimate D2E/DX2                !
 ! R65   R(41,108)               1.1508         estimate D2E/DX2                !
 ! R66   R(42,43)                1.3864         estimate D2E/DX2                !
 ! R67   R(42,109)               1.0835         estimate D2E/DX2                !
 ! R68   R(43,44)                1.4164         estimate D2E/DX2                !
 ! R69   R(43,46)                1.504          estimate D2E/DX2                !
 ! R70   R(44,45)                1.3291         estimate D2E/DX2                !
 ! R71   R(45,110)               1.1623         estimate D2E/DX2                !
 ! R72   R(46,47)                1.322          estimate D2E/DX2                !
 ! R73   R(46,51)                1.4001         estimate D2E/DX2                !
 ! R74   R(47,48)                1.3419         estimate D2E/DX2                !
 ! R75   R(48,49)                1.4483         estimate D2E/DX2                !
 ! R76   R(48,111)               1.0636         estimate D2E/DX2                !
 ! R77   R(49,50)                1.437          estimate D2E/DX2                !
 ! R78   R(49,53)                1.459          estimate D2E/DX2                !
 ! R79   R(50,51)                1.4058         estimate D2E/DX2                !
 ! R80   R(50,112)               1.0318         estimate D2E/DX2                !
 ! R81   R(51,52)                1.3519         estimate D2E/DX2                !
 ! R82   R(53,54)                1.333          estimate D2E/DX2                !
 ! R83   R(53,58)                1.4001         estimate D2E/DX2                !
 ! R84   R(54,55)                1.4459         estimate D2E/DX2                !
 ! R85   R(54,113)               1.1601         estimate D2E/DX2                !
 ! R86   R(55,56)                1.4288         estimate D2E/DX2                !
 ! R87   R(55,114)               1.0545         estimate D2E/DX2                !
 ! R88   R(56,57)                1.3428         estimate D2E/DX2                !
 ! R89   R(56,59)                1.4599         estimate D2E/DX2                !
 ! R90   R(57,58)                1.3801         estimate D2E/DX2                !
 ! R91   R(58,115)               1.0761         estimate D2E/DX2                !
 ! R92   R(59,60)                1.3353         estimate D2E/DX2                !
 ! R93   R(59,64)                1.3472         estimate D2E/DX2                !
 ! R94   R(60,61)                1.3011         estimate D2E/DX2                !
 ! R95   R(61,62)                1.4289         estimate D2E/DX2                !
 ! R96   R(61,116)               1.1316         estimate D2E/DX2                !
 ! R97   R(62,63)                1.4129         estimate D2E/DX2                !
 ! R98   R(62,66)                1.4558         estimate D2E/DX2                !
 ! R99   R(63,64)                1.3955         estimate D2E/DX2                !
 ! R100  R(63,117)               1.0552         estimate D2E/DX2                !
 ! R101  R(64,65)                1.3681         estimate D2E/DX2                !
 ! R102  R(66,67)                1.4003         estimate D2E/DX2                !
 ! R103  R(66,71)                1.3265         estimate D2E/DX2                !
 ! R104  R(67,68)                1.3528         estimate D2E/DX2                !
 ! R105  R(67,118)               1.1163         estimate D2E/DX2                !
 ! R106  R(68,69)                1.4432         estimate D2E/DX2                !
 ! R107  R(68,119)               1.1568         estimate D2E/DX2                !
 ! R108  R(69,70)                1.2669         estimate D2E/DX2                !
 ! R109  R(69,72)                1.5015         estimate D2E/DX2                !
 ! R110  R(70,71)                1.3373         estimate D2E/DX2                !
 ! R111  R(71,120)               1.1248         estimate D2E/DX2                !
 ! R112  R(72,73)                1.3811         estimate D2E/DX2                !
 ! R113  R(72,77)                1.4295         estimate D2E/DX2                !
 ! R114  R(73,74)                1.3417         estimate D2E/DX2                !
 ! R115  R(74,75)                1.353          estimate D2E/DX2                !
 ! R116  R(74,121)               1.1515         estimate D2E/DX2                !
 ! R117  R(75,76)                1.4168         estimate D2E/DX2                !
 ! R118  R(75,79)                1.4756         estimate D2E/DX2                !
 ! R119  R(76,77)                1.3979         estimate D2E/DX2                !
 ! R120  R(76,122)               1.1628         estimate D2E/DX2                !
 ! R121  R(77,78)                1.3348         estimate D2E/DX2                !
 ! R122  R(79,80)                1.4467         estimate D2E/DX2                !
 ! R123  R(79,84)                1.3667         estimate D2E/DX2                !
 ! R124  R(80,81)                1.4275         estimate D2E/DX2                !
 ! R125  R(80,123)               1.0892         estimate D2E/DX2                !
 ! R126  R(81,82)                1.3281         estimate D2E/DX2                !
 ! R127  R(81,124)               1.1658         estimate D2E/DX2                !
 ! R128  R(82,83)                1.4253         estimate D2E/DX2                !
 ! R129  R(82,85)                1.4786         estimate D2E/DX2                !
 ! R130  R(83,84)                1.3523         estimate D2E/DX2                !
 ! R131  R(84,125)               1.0724         estimate D2E/DX2                !
 ! R132  R(85,86)                1.3981         estimate D2E/DX2                !
 ! R133  R(85,90)                1.3308         estimate D2E/DX2                !
 ! R134  R(86,87)                1.3475         estimate D2E/DX2                !
 ! R135  R(87,88)                1.4211         estimate D2E/DX2                !
 ! R136  R(87,126)               1.0668         estimate D2E/DX2                !
 ! R137  R(88,89)                1.4228         estimate D2E/DX2                !
 ! R138  R(88,127)               1.0857         estimate D2E/DX2                !
 ! R139  R(89,90)                1.3899         estimate D2E/DX2                !
 ! R140  R(89,128)               1.0927         estimate D2E/DX2                !
 ! R141  R(90,91)                1.3435         estimate D2E/DX2                !
 ! A1    A(2,1,6)              120.2197         estimate D2E/DX2                !
 ! A2    A(2,1,92)             121.5735         estimate D2E/DX2                !
 ! A3    A(6,1,92)             118.1568         estimate D2E/DX2                !
 ! A4    A(1,2,3)              120.2262         estimate D2E/DX2                !
 ! A5    A(1,2,93)             123.6377         estimate D2E/DX2                !
 ! A6    A(3,2,93)             115.8122         estimate D2E/DX2                !
 ! A7    A(2,3,4)              116.1661         estimate D2E/DX2                !
 ! A8    A(2,3,94)             120.4029         estimate D2E/DX2                !
 ! A9    A(4,3,94)             123.1951         estimate D2E/DX2                !
 ! A10   A(3,4,5)              121.1097         estimate D2E/DX2                !
 ! A11   A(3,4,7)              121.1915         estimate D2E/DX2                !
 ! A12   A(5,4,7)              117.2885         estimate D2E/DX2                !
 ! A13   A(4,5,6)              119.361          estimate D2E/DX2                !
 ! A14   A(1,6,5)              122.5017         estimate D2E/DX2                !
 ! A15   A(1,6,95)             122.5881         estimate D2E/DX2                !
 ! A16   A(5,6,95)             114.8786         estimate D2E/DX2                !
 ! A17   A(4,7,8)              118.4111         estimate D2E/DX2                !
 ! A18   A(4,7,12)             117.2664         estimate D2E/DX2                !
 ! A19   A(8,7,12)             124.3225         estimate D2E/DX2                !
 ! A20   A(7,8,9)              115.6936         estimate D2E/DX2                !
 ! A21   A(8,9,10)             123.0539         estimate D2E/DX2                !
 ! A22   A(8,9,96)             109.5004         estimate D2E/DX2                !
 ! A23   A(10,9,96)            127.4223         estimate D2E/DX2                !
 ! A24   A(9,10,11)            119.0951         estimate D2E/DX2                !
 ! A25   A(9,10,14)            118.7425         estimate D2E/DX2                !
 ! A26   A(11,10,14)           122.1602         estimate D2E/DX2                !
 ! A27   A(10,11,12)           123.2321         estimate D2E/DX2                !
 ! A28   A(10,11,97)           117.2045         estimate D2E/DX2                !
 ! A29   A(12,11,97)           119.5409         estimate D2E/DX2                !
 ! A30   A(7,12,11)            114.4852         estimate D2E/DX2                !
 ! A31   A(7,12,13)            122.5144         estimate D2E/DX2                !
 ! A32   A(11,12,13)           122.9581         estimate D2E/DX2                !
 ! A33   A(10,14,15)           122.137          estimate D2E/DX2                !
 ! A34   A(10,14,19)           126.711          estimate D2E/DX2                !
 ! A35   A(15,14,19)           111.003          estimate D2E/DX2                !
 ! A36   A(14,15,16)           122.0465         estimate D2E/DX2                !
 ! A37   A(14,15,98)           121.245          estimate D2E/DX2                !
 ! A38   A(16,15,98)           116.6096         estimate D2E/DX2                !
 ! A39   A(15,16,17)           120.1323         estimate D2E/DX2                !
 ! A40   A(15,16,99)           118.4422         estimate D2E/DX2                !
 ! A41   A(17,16,99)           121.3181         estimate D2E/DX2                !
 ! A42   A(16,17,18)           119.5621         estimate D2E/DX2                !
 ! A43   A(16,17,20)           121.2803         estimate D2E/DX2                !
 ! A44   A(18,17,20)           118.9842         estimate D2E/DX2                !
 ! A45   A(17,18,19)           118.0525         estimate D2E/DX2                !
 ! A46   A(14,19,18)           129.1629         estimate D2E/DX2                !
 ! A47   A(14,19,100)          115.9032         estimate D2E/DX2                !
 ! A48   A(18,19,100)          114.9322         estimate D2E/DX2                !
 ! A49   A(17,20,21)           120.2115         estimate D2E/DX2                !
 ! A50   A(17,20,25)           122.2526         estimate D2E/DX2                !
 ! A51   A(21,20,25)           117.5249         estimate D2E/DX2                !
 ! A52   A(20,21,22)           120.5608         estimate D2E/DX2                !
 ! A53   A(21,22,23)           126.5104         estimate D2E/DX2                !
 ! A54   A(21,22,101)          110.1972         estimate D2E/DX2                !
 ! A55   A(23,22,101)          123.1381         estimate D2E/DX2                !
 ! A56   A(22,23,24)           111.7692         estimate D2E/DX2                !
 ! A57   A(22,23,27)           122.3127         estimate D2E/DX2                !
 ! A58   A(24,23,27)           125.9178         estimate D2E/DX2                !
 ! A59   A(23,24,25)           121.1194         estimate D2E/DX2                !
 ! A60   A(23,24,102)          114.484          estimate D2E/DX2                !
 ! A61   A(25,24,102)          124.3949         estimate D2E/DX2                !
 ! A62   A(20,25,24)           122.175          estimate D2E/DX2                !
 ! A63   A(20,25,26)           124.2765         estimate D2E/DX2                !
 ! A64   A(24,25,26)           113.4996         estimate D2E/DX2                !
 ! A65   A(23,27,28)           117.746          estimate D2E/DX2                !
 ! A66   A(23,27,32)           121.7758         estimate D2E/DX2                !
 ! A67   A(28,27,32)           120.4346         estimate D2E/DX2                !
 ! A68   A(27,28,29)           117.2311         estimate D2E/DX2                !
 ! A69   A(27,28,103)          120.4744         estimate D2E/DX2                !
 ! A70   A(29,28,103)          121.6065         estimate D2E/DX2                !
 ! A71   A(28,29,30)           122.3832         estimate D2E/DX2                !
 ! A72   A(28,29,104)          121.7913         estimate D2E/DX2                !
 ! A73   A(30,29,104)          115.8236         estimate D2E/DX2                !
 ! A74   A(29,30,31)           119.6092         estimate D2E/DX2                !
 ! A75   A(29,30,33)           123.0536         estimate D2E/DX2                !
 ! A76   A(31,30,33)           115.9787         estimate D2E/DX2                !
 ! A77   A(30,31,32)           118.5981         estimate D2E/DX2                !
 ! A78   A(27,32,31)           121.291          estimate D2E/DX2                !
 ! A79   A(27,32,105)          125.4822         estimate D2E/DX2                !
 ! A80   A(31,32,105)          113.2189         estimate D2E/DX2                !
 ! A81   A(30,33,34)           117.1108         estimate D2E/DX2                !
 ! A82   A(30,33,38)           126.6978         estimate D2E/DX2                !
 ! A83   A(34,33,38)           116.1877         estimate D2E/DX2                !
 ! A84   A(33,34,35)           119.156          estimate D2E/DX2                !
 ! A85   A(34,35,36)           123.4231         estimate D2E/DX2                !
 ! A86   A(34,35,106)          111.2381         estimate D2E/DX2                !
 ! A87   A(36,35,106)          124.5428         estimate D2E/DX2                !
 ! A88   A(35,36,37)           117.6088         estimate D2E/DX2                !
 ! A89   A(35,36,40)           120.7677         estimate D2E/DX2                !
 ! A90   A(37,36,40)           121.4487         estimate D2E/DX2                !
 ! A91   A(36,37,38)           117.5142         estimate D2E/DX2                !
 ! A92   A(36,37,107)          122.8006         estimate D2E/DX2                !
 ! A93   A(38,37,107)          119.5542         estimate D2E/DX2                !
 ! A94   A(33,38,37)           125.4394         estimate D2E/DX2                !
 ! A95   A(33,38,39)           118.1672         estimate D2E/DX2                !
 ! A96   A(37,38,39)           116.3563         estimate D2E/DX2                !
 ! A97   A(36,40,41)           121.9613         estimate D2E/DX2                !
 ! A98   A(36,40,45)           125.1113         estimate D2E/DX2                !
 ! A99   A(41,40,45)           112.8866         estimate D2E/DX2                !
 ! A100  A(40,41,42)           121.7025         estimate D2E/DX2                !
 ! A101  A(40,41,108)          120.0595         estimate D2E/DX2                !
 ! A102  A(42,41,108)          118.1862         estimate D2E/DX2                !
 ! A103  A(41,42,43)           121.8564         estimate D2E/DX2                !
 ! A104  A(41,42,109)          121.2918         estimate D2E/DX2                !
 ! A105  A(43,42,109)          116.4979         estimate D2E/DX2                !
 ! A106  A(42,43,44)           117.5029         estimate D2E/DX2                !
 ! A107  A(42,43,46)           124.532          estimate D2E/DX2                !
 ! A108  A(44,43,46)           117.9324         estimate D2E/DX2                !
 ! A109  A(43,44,45)           116.3451         estimate D2E/DX2                !
 ! A110  A(40,45,44)           129.3759         estimate D2E/DX2                !
 ! A111  A(40,45,110)          119.906          estimate D2E/DX2                !
 ! A112  A(44,45,110)          110.6839         estimate D2E/DX2                !
 ! A113  A(43,46,47)           116.3778         estimate D2E/DX2                !
 ! A114  A(43,46,51)           123.5731         estimate D2E/DX2                !
 ! A115  A(47,46,51)           120.0026         estimate D2E/DX2                !
 ! A116  A(46,47,48)           121.4203         estimate D2E/DX2                !
 ! A117  A(47,48,49)           122.5811         estimate D2E/DX2                !
 ! A118  A(47,48,111)          115.2606         estimate D2E/DX2                !
 ! A119  A(49,48,111)          122.1533         estimate D2E/DX2                !
 ! A120  A(48,49,50)           116.0277         estimate D2E/DX2                !
 ! A121  A(48,49,53)           119.9347         estimate D2E/DX2                !
 ! A122  A(50,49,53)           123.9539         estimate D2E/DX2                !
 ! A123  A(49,50,51)           117.5648         estimate D2E/DX2                !
 ! A124  A(49,50,112)          119.1095         estimate D2E/DX2                !
 ! A125  A(51,50,112)          123.2151         estimate D2E/DX2                !
 ! A126  A(46,51,50)           121.9942         estimate D2E/DX2                !
 ! A127  A(46,51,52)           123.9201         estimate D2E/DX2                !
 ! A128  A(50,51,52)           114.012          estimate D2E/DX2                !
 ! A129  A(49,53,54)           120.7607         estimate D2E/DX2                !
 ! A130  A(49,53,58)           119.0718         estimate D2E/DX2                !
 ! A131  A(54,53,58)           120.1303         estimate D2E/DX2                !
 ! A132  A(53,54,55)           119.8014         estimate D2E/DX2                !
 ! A133  A(53,54,113)          125.0086         estimate D2E/DX2                !
 ! A134  A(55,54,113)          114.5944         estimate D2E/DX2                !
 ! A135  A(54,55,56)           118.1115         estimate D2E/DX2                !
 ! A136  A(54,55,114)          118.55           estimate D2E/DX2                !
 ! A137  A(56,55,114)          123.3122         estimate D2E/DX2                !
 ! A138  A(55,56,57)           119.3819         estimate D2E/DX2                !
 ! A139  A(55,56,59)           121.2059         estimate D2E/DX2                !
 ! A140  A(57,56,59)           118.4448         estimate D2E/DX2                !
 ! A141  A(56,57,58)           121.3845         estimate D2E/DX2                !
 ! A142  A(53,58,57)           120.1207         estimate D2E/DX2                !
 ! A143  A(53,58,115)          122.6604         estimate D2E/DX2                !
 ! A144  A(57,58,115)          115.902          estimate D2E/DX2                !
 ! A145  A(56,59,60)           116.0276         estimate D2E/DX2                !
 ! A146  A(56,59,64)           122.3822         estimate D2E/DX2                !
 ! A147  A(60,59,64)           121.5309         estimate D2E/DX2                !
 ! A148  A(59,60,61)           118.6755         estimate D2E/DX2                !
 ! A149  A(60,61,62)           127.3678         estimate D2E/DX2                !
 ! A150  A(60,61,116)          118.2973         estimate D2E/DX2                !
 ! A151  A(62,61,116)          114.3044         estimate D2E/DX2                !
 ! A152  A(61,62,63)           110.7211         estimate D2E/DX2                !
 ! A153  A(61,62,66)           122.6173         estimate D2E/DX2                !
 ! A154  A(63,62,66)           125.9069         estimate D2E/DX2                !
 ! A155  A(62,63,64)           122.1204         estimate D2E/DX2                !
 ! A156  A(62,63,117)          119.295          estimate D2E/DX2                !
 ! A157  A(64,63,117)          118.3722         estimate D2E/DX2                !
 ! A158  A(59,64,63)           119.4332         estimate D2E/DX2                !
 ! A159  A(59,64,65)           122.3533         estimate D2E/DX2                !
 ! A160  A(63,64,65)           118.2123         estimate D2E/DX2                !
 ! A161  A(62,66,67)           119.1985         estimate D2E/DX2                !
 ! A162  A(62,66,71)           126.1732         estimate D2E/DX2                !
 ! A163  A(67,66,71)           114.3578         estimate D2E/DX2                !
 ! A164  A(66,67,68)           120.522          estimate D2E/DX2                !
 ! A165  A(66,67,118)          122.9385         estimate D2E/DX2                !
 ! A166  A(68,67,118)          116.5393         estimate D2E/DX2                !
 ! A167  A(67,68,69)           118.9408         estimate D2E/DX2                !
 ! A168  A(67,68,119)          123.3626         estimate D2E/DX2                !
 ! A169  A(69,68,119)          117.3086         estimate D2E/DX2                !
 ! A170  A(68,69,70)           119.2905         estimate D2E/DX2                !
 ! A171  A(68,69,72)           122.0979         estimate D2E/DX2                !
 ! A172  A(70,69,72)           118.2088         estimate D2E/DX2                !
 ! A173  A(69,70,71)           119.5791         estimate D2E/DX2                !
 ! A174  A(66,71,70)           127.1226         estimate D2E/DX2                !
 ! A175  A(66,71,120)          120.7797         estimate D2E/DX2                !
 ! A176  A(70,71,120)          112.067          estimate D2E/DX2                !
 ! A177  A(69,72,73)           115.281          estimate D2E/DX2                !
 ! A178  A(69,72,77)           121.5244         estimate D2E/DX2                !
 ! A179  A(73,72,77)           121.8344         estimate D2E/DX2                !
 ! A180  A(72,73,74)           116.4139         estimate D2E/DX2                !
 ! A181  A(73,74,75)           129.0832         estimate D2E/DX2                !
 ! A182  A(73,74,121)          112.1192         estimate D2E/DX2                !
 ! A183  A(75,74,121)          118.6692         estimate D2E/DX2                !
 ! A184  A(74,75,76)           112.4892         estimate D2E/DX2                !
 ! A185  A(74,75,79)           123.5017         estimate D2E/DX2                !
 ! A186  A(76,75,79)           123.1888         estimate D2E/DX2                !
 ! A187  A(75,76,77)           124.8076         estimate D2E/DX2                !
 ! A188  A(75,76,122)          119.2589         estimate D2E/DX2                !
 ! A189  A(77,76,122)          115.8439         estimate D2E/DX2                !
 ! A190  A(72,77,76)           115.0717         estimate D2E/DX2                !
 ! A191  A(72,77,78)           121.4737         estimate D2E/DX2                !
 ! A192  A(76,77,78)           123.4428         estimate D2E/DX2                !
 ! A193  A(75,79,80)           118.2872         estimate D2E/DX2                !
 ! A194  A(75,79,84)           122.3594         estimate D2E/DX2                !
 ! A195  A(80,79,84)           119.3113         estimate D2E/DX2                !
 ! A196  A(79,80,81)           113.4096         estimate D2E/DX2                !
 ! A197  A(79,80,123)          123.083          estimate D2E/DX2                !
 ! A198  A(81,80,123)          123.5002         estimate D2E/DX2                !
 ! A199  A(80,81,82)           125.0821         estimate D2E/DX2                !
 ! A200  A(80,81,124)          114.4247         estimate D2E/DX2                !
 ! A201  A(82,81,124)          120.3027         estimate D2E/DX2                !
 ! A202  A(81,82,83)           120.2736         estimate D2E/DX2                !
 ! A203  A(81,82,85)           126.4298         estimate D2E/DX2                !
 ! A204  A(83,82,85)           112.6554         estimate D2E/DX2                !
 ! A205  A(82,83,84)           115.8033         estimate D2E/DX2                !
 ! A206  A(79,84,83)           125.7841         estimate D2E/DX2                !
 ! A207  A(79,84,125)          118.3499         estimate D2E/DX2                !
 ! A208  A(83,84,125)          115.5408         estimate D2E/DX2                !
 ! A209  A(82,85,86)           111.6412         estimate D2E/DX2                !
 ! A210  A(82,85,90)           124.7546         estimate D2E/DX2                !
 ! A211  A(86,85,90)           122.9235         estimate D2E/DX2                !
 ! A212  A(85,86,87)           117.4469         estimate D2E/DX2                !
 ! A213  A(86,87,88)           121.7192         estimate D2E/DX2                !
 ! A214  A(86,87,126)          118.237          estimate D2E/DX2                !
 ! A215  A(88,87,126)          119.3648         estimate D2E/DX2                !
 ! A216  A(87,88,89)           117.9939         estimate D2E/DX2                !
 ! A217  A(87,88,127)          122.0405         estimate D2E/DX2                !
 ! A218  A(89,88,127)          119.3537         estimate D2E/DX2                !
 ! A219  A(88,89,90)           118.3368         estimate D2E/DX2                !
 ! A220  A(88,89,128)          117.1647         estimate D2E/DX2                !
 ! A221  A(90,89,128)          124.4907         estimate D2E/DX2                !
 ! A222  A(85,90,89)           120.6114         estimate D2E/DX2                !
 ! A223  A(85,90,91)           123.1263         estimate D2E/DX2                !
 ! A224  A(89,90,91)           116.2214         estimate D2E/DX2                !
 ! D1    D(6,1,2,3)              1.8436         estimate D2E/DX2                !
 ! D2    D(6,1,2,93)           175.0283         estimate D2E/DX2                !
 ! D3    D(92,1,2,3)          -175.5354         estimate D2E/DX2                !
 ! D4    D(92,1,2,93)           -2.3507         estimate D2E/DX2                !
 ! D5    D(2,1,6,5)              1.8514         estimate D2E/DX2                !
 ! D6    D(2,1,6,95)           179.7037         estimate D2E/DX2                !
 ! D7    D(92,1,6,5)           179.3187         estimate D2E/DX2                !
 ! D8    D(92,1,6,95)           -2.829          estimate D2E/DX2                !
 ! D9    D(1,2,3,4)             -6.3233         estimate D2E/DX2                !
 ! D10   D(1,2,3,94)           179.0814         estimate D2E/DX2                !
 ! D11   D(93,2,3,4)           179.9774         estimate D2E/DX2                !
 ! D12   D(93,2,3,94)            5.3822         estimate D2E/DX2                !
 ! D13   D(2,3,4,5)              7.6542         estimate D2E/DX2                !
 ! D14   D(2,3,4,7)           -179.8967         estimate D2E/DX2                !
 ! D15   D(94,3,4,5)          -177.9169         estimate D2E/DX2                !
 ! D16   D(94,3,4,7)            -5.4678         estimate D2E/DX2                !
 ! D17   D(3,4,5,6)             -4.3723         estimate D2E/DX2                !
 ! D18   D(7,4,5,6)           -177.1056         estimate D2E/DX2                !
 ! D19   D(3,4,7,8)           -131.9456         estimate D2E/DX2                !
 ! D20   D(3,4,7,12)            47.9974         estimate D2E/DX2                !
 ! D21   D(5,4,7,8)             40.7814         estimate D2E/DX2                !
 ! D22   D(5,4,7,12)          -139.2756         estimate D2E/DX2                !
 ! D23   D(4,5,6,1)             -0.5649         estimate D2E/DX2                !
 ! D24   D(4,5,6,95)          -178.5703         estimate D2E/DX2                !
 ! D25   D(4,7,8,9)            179.2303         estimate D2E/DX2                !
 ! D26   D(12,7,8,9)            -0.7083         estimate D2E/DX2                !
 ! D27   D(4,7,12,11)          177.9455         estimate D2E/DX2                !
 ! D28   D(4,7,12,13)            0.249          estimate D2E/DX2                !
 ! D29   D(8,7,12,11)           -2.1152         estimate D2E/DX2                !
 ! D30   D(8,7,12,13)         -179.8117         estimate D2E/DX2                !
 ! D31   D(7,8,9,10)             3.2759         estimate D2E/DX2                !
 ! D32   D(7,8,9,96)          -178.3639         estimate D2E/DX2                !
 ! D33   D(8,9,10,11)           -2.851          estimate D2E/DX2                !
 ! D34   D(8,9,10,14)          176.6313         estimate D2E/DX2                !
 ! D35   D(96,9,10,11)         179.0954         estimate D2E/DX2                !
 ! D36   D(96,9,10,14)          -1.4223         estimate D2E/DX2                !
 ! D37   D(9,10,11,12)          -0.3777         estimate D2E/DX2                !
 ! D38   D(9,10,11,97)        -178.6395         estimate D2E/DX2                !
 ! D39   D(14,10,11,12)       -179.8415         estimate D2E/DX2                !
 ! D40   D(14,10,11,97)          1.8967         estimate D2E/DX2                !
 ! D41   D(9,10,14,15)         128.4964         estimate D2E/DX2                !
 ! D42   D(9,10,14,19)         -56.349          estimate D2E/DX2                !
 ! D43   D(11,10,14,15)        -52.0379         estimate D2E/DX2                !
 ! D44   D(11,10,14,19)        123.1167         estimate D2E/DX2                !
 ! D45   D(10,11,12,7)           2.6565         estimate D2E/DX2                !
 ! D46   D(10,11,12,13)       -179.6585         estimate D2E/DX2                !
 ! D47   D(97,11,12,7)        -179.1204         estimate D2E/DX2                !
 ! D48   D(97,11,12,13)         -1.4355         estimate D2E/DX2                !
 ! D49   D(10,14,15,16)        173.9986         estimate D2E/DX2                !
 ! D50   D(10,14,15,98)         -2.2616         estimate D2E/DX2                !
 ! D51   D(19,14,15,16)         -1.8419         estimate D2E/DX2                !
 ! D52   D(19,14,15,98)       -178.1021         estimate D2E/DX2                !
 ! D53   D(10,14,19,18)       -175.2936         estimate D2E/DX2                !
 ! D54   D(10,14,19,100)         5.2069         estimate D2E/DX2                !
 ! D55   D(15,14,19,18)          0.3123         estimate D2E/DX2                !
 ! D56   D(15,14,19,100)      -179.1871         estimate D2E/DX2                !
 ! D57   D(14,15,16,17)          1.7969         estimate D2E/DX2                !
 ! D58   D(14,15,16,99)        178.0792         estimate D2E/DX2                !
 ! D59   D(98,15,16,17)        178.221          estimate D2E/DX2                !
 ! D60   D(98,15,16,99)         -5.4967         estimate D2E/DX2                !
 ! D61   D(15,16,17,18)          0.003          estimate D2E/DX2                !
 ! D62   D(15,16,17,20)       -175.1618         estimate D2E/DX2                !
 ! D63   D(99,16,17,18)       -176.1703         estimate D2E/DX2                !
 ! D64   D(99,16,17,20)          8.6649         estimate D2E/DX2                !
 ! D65   D(16,17,18,19)         -1.4599         estimate D2E/DX2                !
 ! D66   D(20,17,18,19)        173.8163         estimate D2E/DX2                !
 ! D67   D(16,17,20,21)         20.115          estimate D2E/DX2                !
 ! D68   D(16,17,20,25)       -158.6535         estimate D2E/DX2                !
 ! D69   D(18,17,20,21)       -155.0771         estimate D2E/DX2                !
 ! D70   D(18,17,20,25)         26.1544         estimate D2E/DX2                !
 ! D71   D(17,18,19,14)          1.3707         estimate D2E/DX2                !
 ! D72   D(17,18,19,100)      -179.1259         estimate D2E/DX2                !
 ! D73   D(17,20,21,22)        174.1333         estimate D2E/DX2                !
 ! D74   D(25,20,21,22)         -7.0411         estimate D2E/DX2                !
 ! D75   D(17,20,25,24)       -175.4247         estimate D2E/DX2                !
 ! D76   D(17,20,25,26)          1.8625         estimate D2E/DX2                !
 ! D77   D(21,20,25,24)          5.7754         estimate D2E/DX2                !
 ! D78   D(21,20,25,26)       -176.9374         estimate D2E/DX2                !
 ! D79   D(20,21,22,23)          4.5384         estimate D2E/DX2                !
 ! D80   D(20,21,22,101)      -179.891          estimate D2E/DX2                !
 ! D81   D(21,22,23,24)         -0.2985         estimate D2E/DX2                !
 ! D82   D(21,22,23,27)        179.9012         estimate D2E/DX2                !
 ! D83   D(101,22,23,24)      -175.3327         estimate D2E/DX2                !
 ! D84   D(101,22,23,27)         4.867          estimate D2E/DX2                !
 ! D85   D(22,23,24,25)         -1.0804         estimate D2E/DX2                !
 ! D86   D(22,23,24,102)       179.3676         estimate D2E/DX2                !
 ! D87   D(27,23,24,25)        178.7112         estimate D2E/DX2                !
 ! D88   D(27,23,24,102)        -0.8408         estimate D2E/DX2                !
 ! D89   D(22,23,27,28)        132.0071         estimate D2E/DX2                !
 ! D90   D(22,23,27,32)        -45.5983         estimate D2E/DX2                !
 ! D91   D(24,23,27,28)        -47.7639         estimate D2E/DX2                !
 ! D92   D(24,23,27,32)        134.6307         estimate D2E/DX2                !
 ! D93   D(23,24,25,20)         -1.698          estimate D2E/DX2                !
 ! D94   D(23,24,25,26)       -179.2538         estimate D2E/DX2                !
 ! D95   D(102,24,25,20)       177.8079         estimate D2E/DX2                !
 ! D96   D(102,24,25,26)         0.2522         estimate D2E/DX2                !
 ! D97   D(23,27,28,29)       -171.9107         estimate D2E/DX2                !
 ! D98   D(23,27,28,103)        -1.264          estimate D2E/DX2                !
 ! D99   D(32,27,28,29)          5.7283         estimate D2E/DX2                !
 ! D100  D(32,27,28,103)       176.375          estimate D2E/DX2                !
 ! D101  D(23,27,32,31)        171.4242         estimate D2E/DX2                !
 ! D102  D(23,27,32,105)        -7.4844         estimate D2E/DX2                !
 ! D103  D(28,27,32,31)         -6.1177         estimate D2E/DX2                !
 ! D104  D(28,27,32,105)       174.9736         estimate D2E/DX2                !
 ! D105  D(27,28,29,30)         -5.1715         estimate D2E/DX2                !
 ! D106  D(27,28,29,104)       175.3425         estimate D2E/DX2                !
 ! D107  D(103,28,29,30)      -175.7053         estimate D2E/DX2                !
 ! D108  D(103,28,29,104)        4.8087         estimate D2E/DX2                !
 ! D109  D(28,29,30,31)          4.9964         estimate D2E/DX2                !
 ! D110  D(28,29,30,33)        171.1457         estimate D2E/DX2                !
 ! D111  D(104,29,30,31)      -175.4889         estimate D2E/DX2                !
 ! D112  D(104,29,30,33)        -9.3396         estimate D2E/DX2                !
 ! D113  D(29,30,31,32)         -4.9597         estimate D2E/DX2                !
 ! D114  D(33,30,31,32)       -172.0624         estimate D2E/DX2                !
 ! D115  D(29,30,33,34)        124.3049         estimate D2E/DX2                !
 ! D116  D(29,30,33,38)        -54.9784         estimate D2E/DX2                !
 ! D117  D(31,30,33,34)        -69.0821         estimate D2E/DX2                !
 ! D118  D(31,30,33,38)        111.6347         estimate D2E/DX2                !
 ! D119  D(30,31,32,27)          5.7143         estimate D2E/DX2                !
 ! D120  D(30,31,32,105)      -175.2527         estimate D2E/DX2                !
 ! D121  D(30,33,34,35)        175.6977         estimate D2E/DX2                !
 ! D122  D(38,33,34,35)         -4.9427         estimate D2E/DX2                !
 ! D123  D(30,33,38,37)       -176.9789         estimate D2E/DX2                !
 ! D124  D(30,33,38,39)          0.7185         estimate D2E/DX2                !
 ! D125  D(34,33,38,37)          3.7321         estimate D2E/DX2                !
 ! D126  D(34,33,38,39)       -178.5706         estimate D2E/DX2                !
 ! D127  D(33,34,35,36)          7.8245         estimate D2E/DX2                !
 ! D128  D(33,34,35,106)       178.009          estimate D2E/DX2                !
 ! D129  D(34,35,36,37)         -9.0352         estimate D2E/DX2                !
 ! D130  D(34,35,36,40)        175.7007         estimate D2E/DX2                !
 ! D131  D(106,35,36,37)      -177.9127         estimate D2E/DX2                !
 ! D132  D(106,35,36,40)         6.8232         estimate D2E/DX2                !
 ! D133  D(35,36,37,38)          7.0648         estimate D2E/DX2                !
 ! D134  D(35,36,37,107)      -177.1188         estimate D2E/DX2                !
 ! D135  D(40,36,37,38)       -177.7052         estimate D2E/DX2                !
 ! D136  D(40,36,37,107)        -1.8888         estimate D2E/DX2                !
 ! D137  D(35,36,40,41)         42.5419         estimate D2E/DX2                !
 ! D138  D(35,36,40,45)       -139.9498         estimate D2E/DX2                !
 ! D139  D(37,36,40,41)       -132.5385         estimate D2E/DX2                !
 ! D140  D(37,36,40,45)         44.9698         estimate D2E/DX2                !
 ! D141  D(36,37,38,33)         -5.0903         estimate D2E/DX2                !
 ! D142  D(36,37,38,39)        177.1751         estimate D2E/DX2                !
 ! D143  D(107,37,38,33)       178.952          estimate D2E/DX2                !
 ! D144  D(107,37,38,39)         1.2175         estimate D2E/DX2                !
 ! D145  D(36,40,41,42)       -176.3987         estimate D2E/DX2                !
 ! D146  D(36,40,41,108)         0.9368         estimate D2E/DX2                !
 ! D147  D(45,40,41,42)          5.8137         estimate D2E/DX2                !
 ! D148  D(45,40,41,108)      -176.8509         estimate D2E/DX2                !
 ! D149  D(36,40,45,44)        179.8071         estimate D2E/DX2                !
 ! D150  D(36,40,45,110)         2.1452         estimate D2E/DX2                !
 ! D151  D(41,40,45,44)         -2.4874         estimate D2E/DX2                !
 ! D152  D(41,40,45,110)       179.8507         estimate D2E/DX2                !
 ! D153  D(40,41,42,43)         -4.0679         estimate D2E/DX2                !
 ! D154  D(40,41,42,109)      -176.9974         estimate D2E/DX2                !
 ! D155  D(108,41,42,43)       178.5485         estimate D2E/DX2                !
 ! D156  D(108,41,42,109)        5.6191         estimate D2E/DX2                !
 ! D157  D(41,42,43,44)         -1.3191         estimate D2E/DX2                !
 ! D158  D(41,42,43,46)       -179.1892         estimate D2E/DX2                !
 ! D159  D(109,42,43,44)       171.9312         estimate D2E/DX2                !
 ! D160  D(109,42,43,46)        -5.9389         estimate D2E/DX2                !
 ! D161  D(42,43,44,45)          4.4668         estimate D2E/DX2                !
 ! D162  D(46,43,44,45)       -177.5191         estimate D2E/DX2                !
 ! D163  D(42,43,46,47)         -0.8584         estimate D2E/DX2                !
 ! D164  D(42,43,46,51)       -178.372          estimate D2E/DX2                !
 ! D165  D(44,43,46,47)       -178.7201         estimate D2E/DX2                !
 ! D166  D(44,43,46,51)          3.7663         estimate D2E/DX2                !
 ! D167  D(43,44,45,40)         -2.5442         estimate D2E/DX2                !
 ! D168  D(43,44,45,110)       175.2895         estimate D2E/DX2                !
 ! D169  D(43,46,47,48)       -172.3178         estimate D2E/DX2                !
 ! D170  D(51,46,47,48)          5.2901         estimate D2E/DX2                !
 ! D171  D(43,46,51,50)        177.9564         estimate D2E/DX2                !
 ! D172  D(43,46,51,52)         -5.3548         estimate D2E/DX2                !
 ! D173  D(47,46,51,50)          0.5287         estimate D2E/DX2                !
 ! D174  D(47,46,51,52)        177.2174         estimate D2E/DX2                !
 ! D175  D(46,47,48,49)         -6.6852         estimate D2E/DX2                !
 ! D176  D(46,47,48,111)       174.112          estimate D2E/DX2                !
 ! D177  D(47,48,49,50)          2.1286         estimate D2E/DX2                !
 ! D178  D(47,48,49,53)        178.9307         estimate D2E/DX2                !
 ! D179  D(111,48,49,50)      -178.723          estimate D2E/DX2                !
 ! D180  D(111,48,49,53)        -1.9209         estimate D2E/DX2                !
 ! D181  D(48,49,50,51)          3.3684         estimate D2E/DX2                !
 ! D182  D(48,49,50,112)       179.6676         estimate D2E/DX2                !
 ! D183  D(53,49,50,51)       -173.2904         estimate D2E/DX2                !
 ! D184  D(53,49,50,112)         3.0088         estimate D2E/DX2                !
 ! D185  D(48,49,53,54)         57.1652         estimate D2E/DX2                !
 ! D186  D(48,49,53,58)       -125.0506         estimate D2E/DX2                !
 ! D187  D(50,49,53,54)       -126.2994         estimate D2E/DX2                !
 ! D188  D(50,49,53,58)         51.4848         estimate D2E/DX2                !
 ! D189  D(49,50,51,46)         -4.7798         estimate D2E/DX2                !
 ! D190  D(49,50,51,52)        178.2279         estimate D2E/DX2                !
 ! D191  D(112,50,51,46)       179.0852         estimate D2E/DX2                !
 ! D192  D(112,50,51,52)         2.093          estimate D2E/DX2                !
 ! D193  D(49,53,54,55)       -171.2492         estimate D2E/DX2                !
 ! D194  D(49,53,54,113)        -0.5926         estimate D2E/DX2                !
 ! D195  D(58,53,54,55)         10.99           estimate D2E/DX2                !
 ! D196  D(58,53,54,113)      -178.3534         estimate D2E/DX2                !
 ! D197  D(49,53,58,57)        170.7161         estimate D2E/DX2                !
 ! D198  D(49,53,58,115)         4.3626         estimate D2E/DX2                !
 ! D199  D(54,53,58,57)        -11.4854         estimate D2E/DX2                !
 ! D200  D(54,53,58,115)      -177.8389         estimate D2E/DX2                !
 ! D201  D(53,54,55,56)         -7.1407         estimate D2E/DX2                !
 ! D202  D(53,54,55,114)       174.6654         estimate D2E/DX2                !
 ! D203  D(113,54,55,56)      -178.7313         estimate D2E/DX2                !
 ! D204  D(113,54,55,114)        3.0748         estimate D2E/DX2                !
 ! D205  D(54,55,56,57)          3.6366         estimate D2E/DX2                !
 ! D206  D(54,55,56,59)        172.2081         estimate D2E/DX2                !
 ! D207  D(114,55,56,57)      -178.2619         estimate D2E/DX2                !
 ! D208  D(114,55,56,59)        -9.6903         estimate D2E/DX2                !
 ! D209  D(55,56,57,58)         -4.2205         estimate D2E/DX2                !
 ! D210  D(59,56,57,58)       -173.1076         estimate D2E/DX2                !
 ! D211  D(55,56,59,60)        -17.8533         estimate D2E/DX2                !
 ! D212  D(55,56,59,64)        164.9102         estimate D2E/DX2                !
 ! D213  D(57,56,59,60)        150.8223         estimate D2E/DX2                !
 ! D214  D(57,56,59,64)        -26.4141         estimate D2E/DX2                !
 ! D215  D(56,57,58,53)          7.9983         estimate D2E/DX2                !
 ! D216  D(56,57,58,115)       175.2417         estimate D2E/DX2                !
 ! D217  D(56,59,60,61)       -173.4126         estimate D2E/DX2                !
 ! D218  D(64,59,60,61)          3.8494         estimate D2E/DX2                !
 ! D219  D(56,59,64,63)        172.6865         estimate D2E/DX2                !
 ! D220  D(56,59,64,65)         -6.9119         estimate D2E/DX2                !
 ! D221  D(60,59,64,63)         -4.3999         estimate D2E/DX2                !
 ! D222  D(60,59,64,65)        176.0016         estimate D2E/DX2                !
 ! D223  D(59,60,61,62)         -2.4019         estimate D2E/DX2                !
 ! D224  D(59,60,61,116)       175.461          estimate D2E/DX2                !
 ! D225  D(60,61,62,63)          1.3892         estimate D2E/DX2                !
 ! D226  D(60,61,62,66)        171.9722         estimate D2E/DX2                !
 ! D227  D(116,61,62,63)      -176.5462         estimate D2E/DX2                !
 ! D228  D(116,61,62,66)        -5.9632         estimate D2E/DX2                !
 ! D229  D(61,62,63,64)         -1.8416         estimate D2E/DX2                !
 ! D230  D(61,62,63,117)      -176.4578         estimate D2E/DX2                !
 ! D231  D(66,62,63,64)       -172.0452         estimate D2E/DX2                !
 ! D232  D(66,62,63,117)        13.3386         estimate D2E/DX2                !
 ! D233  D(61,62,66,67)       -127.8105         estimate D2E/DX2                !
 ! D234  D(61,62,66,71)         45.8592         estimate D2E/DX2                !
 ! D235  D(63,62,66,67)         41.2987         estimate D2E/DX2                !
 ! D236  D(63,62,66,71)       -145.0316         estimate D2E/DX2                !
 ! D237  D(62,63,64,59)          3.4446         estimate D2E/DX2                !
 ! D238  D(62,63,64,65)       -176.9403         estimate D2E/DX2                !
 ! D239  D(117,63,64,59)       178.1085         estimate D2E/DX2                !
 ! D240  D(117,63,64,65)        -2.2765         estimate D2E/DX2                !
 ! D241  D(62,66,67,68)        175.1707         estimate D2E/DX2                !
 ! D242  D(62,66,67,118)        -4.709          estimate D2E/DX2                !
 ! D243  D(71,66,67,68)          0.7776         estimate D2E/DX2                !
 ! D244  D(71,66,67,118)      -179.1021         estimate D2E/DX2                !
 ! D245  D(62,66,71,70)       -170.9282         estimate D2E/DX2                !
 ! D246  D(62,66,71,120)         6.8891         estimate D2E/DX2                !
 ! D247  D(67,66,71,70)          3.007          estimate D2E/DX2                !
 ! D248  D(67,66,71,120)      -179.1757         estimate D2E/DX2                !
 ! D249  D(66,67,68,69)         -4.0092         estimate D2E/DX2                !
 ! D250  D(66,67,68,119)      -176.6576         estimate D2E/DX2                !
 ! D251  D(118,67,68,69)       175.8779         estimate D2E/DX2                !
 ! D252  D(118,67,68,119)        3.2296         estimate D2E/DX2                !
 ! D253  D(67,68,69,70)          3.9149         estimate D2E/DX2                !
 ! D254  D(67,68,69,72)       -168.6675         estimate D2E/DX2                !
 ! D255  D(119,68,69,70)       177.0068         estimate D2E/DX2                !
 ! D256  D(119,68,69,72)         4.4244         estimate D2E/DX2                !
 ! D257  D(68,69,70,71)         -0.4818         estimate D2E/DX2                !
 ! D258  D(72,69,70,71)        172.389          estimate D2E/DX2                !
 ! D259  D(68,69,72,73)        127.0098         estimate D2E/DX2                !
 ! D260  D(68,69,72,77)        -39.9035         estimate D2E/DX2                !
 ! D261  D(70,69,72,73)        -45.6495         estimate D2E/DX2                !
 ! D262  D(70,69,72,77)        147.4373         estimate D2E/DX2                !
 ! D263  D(69,70,71,66)         -3.1932         estimate D2E/DX2                !
 ! D264  D(69,70,71,120)       178.8302         estimate D2E/DX2                !
 ! D265  D(69,72,73,74)       -172.7199         estimate D2E/DX2                !
 ! D266  D(77,72,73,74)         -5.8512         estimate D2E/DX2                !
 ! D267  D(69,72,77,76)        171.4996         estimate D2E/DX2                !
 ! D268  D(69,72,77,78)         -9.7133         estimate D2E/DX2                !
 ! D269  D(73,72,77,76)          5.4446         estimate D2E/DX2                !
 ! D270  D(73,72,77,78)       -175.7683         estimate D2E/DX2                !
 ! D271  D(72,73,74,75)          1.6469         estimate D2E/DX2                !
 ! D272  D(72,73,74,121)      -174.1171         estimate D2E/DX2                !
 ! D273  D(73,74,75,76)          2.5145         estimate D2E/DX2                !
 ! D274  D(73,74,75,79)        172.4205         estimate D2E/DX2                !
 ! D275  D(121,74,75,76)       178.0414         estimate D2E/DX2                !
 ! D276  D(121,74,75,79)       -12.0526         estimate D2E/DX2                !
 ! D277  D(74,75,76,77)         -2.7824         estimate D2E/DX2                !
 ! D278  D(74,75,76,122)      -179.1911         estimate D2E/DX2                !
 ! D279  D(79,75,76,77)       -172.7249         estimate D2E/DX2                !
 ! D280  D(79,75,76,122)        10.8664         estimate D2E/DX2                !
 ! D281  D(74,75,79,80)        137.1448         estimate D2E/DX2                !
 ! D282  D(74,75,79,84)        -45.231          estimate D2E/DX2                !
 ! D283  D(76,75,79,80)        -54.0124         estimate D2E/DX2                !
[...]
  Beta virt. eigenvalues --    2.03475   2.03541   2.03833   2.03878   2.04153
  Beta virt. eigenvalues --    2.04829   2.05223   2.05283   2.05448   2.06379
  Beta virt. eigenvalues --    2.06720   2.07109   2.07241   2.07845   2.08027
  Beta virt. eigenvalues --    2.08629   2.08885   2.09046   2.09390   2.09876
  Beta virt. eigenvalues --    2.09914   2.10127   2.10318   2.11903   2.12098
  Beta virt. eigenvalues --    2.12247   2.12495   2.12780   2.13024   2.13364
  Beta virt. eigenvalues --    2.13528   2.14252   2.14496   2.14854   2.15063
  Beta virt. eigenvalues --    2.15548   2.15823   2.19636   2.19870   2.20161
  Beta virt. eigenvalues --    2.20408   2.21268   2.21326   2.21588   2.21718
  Beta virt. eigenvalues --    2.21995   2.22469   2.23088   2.23320   2.23362
  Beta virt. eigenvalues --    2.23650   2.23786   2.23864   2.24146   2.24791
  Beta virt. eigenvalues --    2.25310   2.25954   2.26503   2.26896   2.26937
  Beta virt. eigenvalues --    2.28500   2.29204   2.30018   2.30162   2.31359
  Beta virt. eigenvalues --    2.31536   2.32054   2.32290   2.33031   2.33490
  Beta virt. eigenvalues --    2.33656   2.34032   2.34559   2.34763   2.35042
  Beta virt. eigenvalues --    2.35224   2.35526   2.36346   2.36569   2.38600
  Beta virt. eigenvalues --    2.38693   2.38894   2.39096   2.39334   2.39375
  Beta virt. eigenvalues --    2.39414   2.40186   2.40331   2.40480   2.40556
  Beta virt. eigenvalues --    2.41428   2.41562   2.41932   2.42095   2.42268
  Beta virt. eigenvalues --    2.42448   2.42590   2.42866   2.43078   2.43538
  Beta virt. eigenvalues --    2.44164   2.44318   2.44365   2.44581   2.45448
  Beta virt. eigenvalues --    2.45919   2.46066   2.48188   2.48424   2.48542
  Beta virt. eigenvalues --    2.48966   2.49233   2.49525   2.49782   2.50097
  Beta virt. eigenvalues --    2.50171   2.50448   2.50615   2.51056   2.51363
  Beta virt. eigenvalues --    2.51512   2.51853   2.52045   2.52257   2.53088
  Beta virt. eigenvalues --    2.53294   2.53718   2.53999   2.54349   2.54470
  Beta virt. eigenvalues --    2.54811   2.54902   2.55227   2.55384   2.56171
  Beta virt. eigenvalues --    2.56353   2.58681   2.59107   2.59432   2.59824
  Beta virt. eigenvalues --    2.60045   2.60492   2.60568   2.61284   2.61829
  Beta virt. eigenvalues --    2.62127   2.63136   2.63828   2.64018   2.64419
  Beta virt. eigenvalues --    2.64905   2.65357   2.65753   2.67161   2.67667
  Beta virt. eigenvalues --    2.67954   2.69423   2.71135   2.71596   2.72972
  Beta virt. eigenvalues --    2.73038   2.73811   2.73935   2.74128   2.75138
  Beta virt. eigenvalues --    2.78017   2.78077   2.78357   2.78828   2.78894
  Beta virt. eigenvalues --    2.79038   2.80917   2.81122   2.81702   2.82558
  Beta virt. eigenvalues --    2.83299   2.83432   2.84073   2.84504   2.84870
  Beta virt. eigenvalues --    2.85023   2.85326   2.85441   2.85786   2.86138
  Beta virt. eigenvalues --    2.87455   2.87588   2.87615   2.88390   2.88430
  Beta virt. eigenvalues --    2.88586   2.88659   2.90083   2.90099   2.90823
  Beta virt. eigenvalues --    2.91406   2.91998   2.92586   2.92942   3.04686
  Beta virt. eigenvalues --    3.05265   3.05591   3.08427   3.08866   3.09338
  Beta virt. eigenvalues --    3.09625   3.22080   3.23185   3.24176   3.25672
  Beta virt. eigenvalues --    3.27537   3.28725   3.34353   3.40922   3.41638
  Beta virt. eigenvalues --    3.44052   3.45651   3.45922   3.46761   3.48672
  Beta virt. eigenvalues --    3.55722   3.55798   3.56256   3.56325   3.56443
  Beta virt. eigenvalues --    3.56550   3.56569   3.58953   3.59070   3.59445
  Beta virt. eigenvalues --    3.60470   3.60504   3.60586   3.60694   3.73695
  Beta virt. eigenvalues --    3.73853   3.74309   3.75746   3.75864   3.75937
  Beta virt. eigenvalues --    3.75998   3.95124   3.95308   3.95705   3.97780
  Beta virt. eigenvalues --    3.97783   3.97921   3.98038   4.15809   4.15957
  Beta virt. eigenvalues --    4.16354   4.17382   4.17463   4.17609   4.17720
          Condensed to atoms (all electrons):
          Atomic-Atomic Spin Densities.
 Mulliken charges and spin densities:
               1          2
     1  C   -0.024480  -0.000000
     2  C    0.067914  -0.000000
     3  C    0.012637   0.000000
     4  C    0.064754  -0.000000
     5  N   -0.167937   0.000000
     6  C    0.087198   0.000000
     7  C    0.034858  -0.000000
     8  N   -0.158593  -0.000000
     9  C    0.082287   0.000000
    10  C   -0.040334  -0.000000
    11  C    0.068519   0.000000
    12  C    0.111153   0.000000
    13  F   -0.126145  -0.000000
    14  C   -0.042018   0.000000
    15  C    0.065960  -0.000000
    16  C    0.059640  -0.000000
    17  C    0.048360   0.000000
    18  N   -0.189386   0.000000
    19  C    0.085166  -0.000000
    20  C    0.042692  -0.000000
    21  N   -0.198172   0.000000
    22  C    0.090257  -0.000000
    23  C   -0.039829   0.000000
    24  C    0.063945  -0.000000
    25  C    0.128966   0.000000
    26  F   -0.094724  -0.000000
    27  C   -0.046284  -0.000000
    28  C    0.064264   0.000000
    29  C    0.026864   0.000000
    30  C    0.072331   0.000000
    31  N   -0.164548  -0.000000
    32  C    0.088465   0.000000
    33  C    0.031771  -0.000000
    34  N   -0.158888   0.000000
    35  C    0.082930   0.000000
    36  C   -0.038398  -0.000000
    37  C    0.069662  -0.000000
    38  C    0.110456   0.000000
    39  F   -0.125119  -0.000000
    40  C   -0.041940  -0.000000
    41  C    0.066444  -0.000000
    42  C    0.060330  -0.000000
    43  C    0.048022  -0.000000
    44  N   -0.189054  -0.000000
    45  C    0.084182  -0.000000
    46  C    0.042405  -0.000000
    47  N   -0.198074   0.000000
    48  C    0.089812  -0.000000
    49  C   -0.038645   0.000000
    50  C    0.064137  -0.000000
    51  C    0.128631   0.000000
    52  F   -0.095046  -0.000000
    53  C   -0.042275   0.000000
    54  C    0.066033  -0.000000
    55  C    0.060490   0.000000
    56  C    0.048192   0.000000
    57  N   -0.189136   0.000000
    58  C    0.084738  -0.000000
    59  C    0.042788  -0.000000
    60  N   -0.198183  -0.000000
    61  C    0.090828   0.000000
    62  C   -0.040223   0.000000
    63  C    0.063624  -0.000000
    64  C    0.128789   0.000000
    65  F   -0.095257   0.000000
    66  C   -0.044866  -0.000000
    67  C    0.063260   0.000000
    68  C    0.025862  -0.000000
    69  C    0.072858   0.000000
    70  N   -0.163709  -0.000000
    71  C    0.088793   0.000000
    72  C    0.031527   0.000000
    73  N   -0.159008  -0.000000
    74  C    0.083512   0.000000
    75  C   -0.040749  -0.000000
    76  C    0.071020   0.000000
    77  C    0.111377  -0.000000
    78  F   -0.125909  -0.000000
    79  C   -0.043324   0.000000
    80  C    0.067174  -0.000000
    81  C    0.059002   0.000000
    82  C    0.050078   0.000000
    83  N   -0.188022  -0.000000
    84  C    0.084982   0.000000
    85  C    0.040829  -0.000000
    86  N   -0.199161  -0.000000
    87  C    0.087396  -0.000000
    88  C   -0.015351   0.000000
    89  C    0.063760  -0.000000
    90  C    0.120343   0.000000
    91  F   -0.096390  -0.000000
    92  H   -0.009357   0.000000
    93  H   -0.006426   0.000000
    94  H   -0.011984  -0.000000
    95  H    0.003193   0.000000
    96  H    0.004526   0.000000
    97  H   -0.004088  -0.000000
    98  H   -0.015842  -0.000000
    99  H   -0.008824  -0.000000
   100  H    0.002622  -0.000000
   101  H    0.002735   0.000000
   102  H   -0.003780   0.000000
   103  H   -0.013188  -0.000000
   104  H   -0.009350  -0.000000
   105  H    0.002969   0.000000
   106  H    0.003272  -0.000000
   107  H   -0.000055  -0.000000
   108  H   -0.010593   0.000000
   109  H   -0.007929   0.000000
   110  H   -0.002504  -0.000000
   111  H    0.000413  -0.000000
   112  H   -0.000879   0.000000
   113  H   -0.012482  -0.000000
   114  H   -0.007314  -0.000000
   115  H   -0.000737  -0.000000
   116  H    0.004368   0.000000
   117  H   -0.003661  -0.000000
   118  H   -0.013515   0.000000
   119  H   -0.009654   0.000000
   120  H    0.003180   0.000000
   121  H    0.006173  -0.000000
   122  H   -0.002908   0.000000
   123  H   -0.015002  -0.000000
   124  H   -0.008883  -0.000000
   125  H    0.001342  -0.000000
   126  H    0.005587   0.000000
   127  H   -0.002489  -0.000000
   128  H    0.007980  -0.000000
 Sum of Mulliken charges =  -0.00000  -0.00000
 Mulliken charges and spin densities with hydrogens summed into heavy atoms:
               1          2
     1  C   -0.033837  -0.000000
     2  C    0.061488  -0.000000
     3  C    0.000653   0.000000
     4  C    0.064754  -0.000000
     5  N   -0.167937   0.000000
     6  C    0.090390   0.000000
     7  C    0.034858  -0.000000
     8  N   -0.158593  -0.000000
     9  C    0.086813   0.000000
    10  C   -0.040334  -0.000000
    11  C    0.064430   0.000000
    12  C    0.111153   0.000000
    13  F   -0.126145  -0.000000
    14  C   -0.042018   0.000000
    15  C    0.050118  -0.000000
    16  C    0.050816  -0.000000
    17  C    0.048360   0.000000
    18  N   -0.189386   0.000000
    19  C    0.087788  -0.000000
    20  C    0.042692  -0.000000
    21  N   -0.198172   0.000000
    22  C    0.092992  -0.000000
    23  C   -0.039829   0.000000
    24  C    0.060165  -0.000000
    25  C    0.128966   0.000000
    26  F   -0.094724  -0.000000
    27  C   -0.046284  -0.000000
    28  C    0.051076   0.000000
    29  C    0.017513   0.000000
    30  C    0.072331   0.000000
    31  N   -0.164548  -0.000000
    32  C    0.091434   0.000000
    33  C    0.031771  -0.000000
    34  N   -0.158888   0.000000
    35  C    0.086202   0.000000
    36  C   -0.038398  -0.000000
    37  C    0.069606  -0.000000
    38  C    0.110456   0.000000
    39  F   -0.125119  -0.000000
    40  C   -0.041940  -0.000000
    41  C    0.055852   0.000000
    42  C    0.052401  -0.000000
    43  C    0.048022  -0.000000
    44  N   -0.189054  -0.000000
    45  C    0.081678  -0.000000
    46  C    0.042405  -0.000000
    47  N   -0.198074   0.000000
    48  C    0.090225  -0.000000
    49  C   -0.038645   0.000000
    50  C    0.063258  -0.000000
    51  C    0.128631   0.000000
    52  F   -0.095046  -0.000000
    53  C   -0.042275   0.000000
    54  C    0.053552  -0.000000
    55  C    0.053177   0.000000
    56  C    0.048192   0.000000
    57  N   -0.189136   0.000000
    58  C    0.084001  -0.000000
    59  C    0.042788  -0.000000
    60  N   -0.198183  -0.000000
    61  C    0.095196   0.000000
    62  C   -0.040223   0.000000
    63  C    0.059963  -0.000000
    64  C    0.128789   0.000000
    65  F   -0.095257   0.000000
    66  C   -0.044866  -0.000000
    67  C    0.049745   0.000000
    68  C    0.016208  -0.000000
    69  C    0.072858   0.000000
    70  N   -0.163709  -0.000000
    71  C    0.091972   0.000000
    72  C    0.031527   0.000000
    73  N   -0.159008  -0.000000
    74  C    0.089684   0.000000
    75  C   -0.040749  -0.000000
    76  C    0.068112   0.000000
    77  C    0.111377  -0.000000
    78  F   -0.125909  -0.000000
    79  C   -0.043324   0.000000
    80  C    0.052172  -0.000000
    81  C    0.050119   0.000000
    82  C    0.050078   0.000000
    83  N   -0.188022  -0.000000
    84  C    0.086324   0.000000
    85  C    0.040829  -0.000000
    86  N   -0.199161  -0.000000
    87  C    0.092983  -0.000000
    88  C   -0.017840   0.000000
    89  C    0.071740  -0.000000
    90  C    0.120343   0.000000
    91  F   -0.096390  -0.000000
 Electronic spatial extent (au):  <R**2>=         653381.7563
 Charge=             -0.0000 electrons
 Dipole moment (field-independent basis, Debye):
    X=             -7.2346    Y=              1.2830    Z=             -0.8793  Tot=              7.3999
 Quadrupole moment (field-independent basis, Debye-Ang):
   XX=           -319.4813   YY=           -487.7288   ZZ=           -510.5631
   XY=             59.0709   XZ=            -39.5945   YZ=             -1.4256
 Traceless Quadrupole moment (field-independent basis, Debye-Ang):
   XX=            119.7764   YY=            -48.4711   ZZ=            -71.3053
   XY=             59.0709   XZ=            -39.5945   YZ=             -1.4256
 Octapole moment (field-independent basis, Debye-Ang**2):
  XXX=          -5911.5697  YYY=             26.9803  ZZZ=             -4.3254  XYY=            215.2950
  XXY=           1569.7151  XXZ=           -357.2626  XZZ=            -98.0684  YZZ=            -28.9531
  YYZ=            -18.6260  XYZ=             68.6815
 Hexadecapole moment (field-independent basis, Debye-Ang**3):
 XXXX=        -604248.6183 YYYY=         -10712.7718 ZZZZ=          -2031.1032 XXXY=          27689.3973
 XXXZ=          -5252.4199 YYYX=            101.4221 YYYZ=            -38.3659 ZZZX=           -792.6864
 ZZZY=            -62.6253 XXYY=        -136822.0983 XXZZ=        -150287.6284 YYZZ=          -2200.5881
 XXYZ=          -1384.6728 YYXZ=            -95.7966 ZZXY=           -140.5737
 N-N= 1.073964303790D+04 E-N=-3.116829215053D+04  KE= 4.125509922710D+03
 Leave Link  601 at Fri Jul 24 00:07:59 2020, MaxMem=  4026531840 cpu:              11.8 elap:               1.6
 (Enter /opt/ohpc/pub/libs/gaussian/g16-A.03/sandybridge/g16/l9999.exe)

 Test job not archived.
 1\1\GINC-SKYLAKE048\FOpt\ULC-wPBE\CC-pVDZ\C70H37F7N14\RDU230\24-Jul-20
 20\0\\#P uLC-wPBE/cc-pVDZ iop(3/107=0181700000, 3/108=0181700000) opt\
 \H37 C70 N14 F7\\0,1\C,28.8015803036,2.1741514506,-0.1976243484\C,28.0
 847541452,3.0008272434,-1.0663245414\C,26.7071179318,2.8058419865,-1.1
 974406768\C,26.0929023579,1.7898029934,-0.4428503369\N,26.7758472458,0
 .988663471,0.3984835956\C,28.0961439096,1.1875247411,0.5039567057\C,24
 .615590468,1.5474615417,-0.4987951451\N,24.0179588533,1.1467652966,0.6
 393020203\C,22.7064621626,0.8958500776,0.6321611841\C,21.8755422405,1.
 0064744754,-0.5025345018\C,22.4918837506,1.4272365581,-1.6907076762\C,
 23.8553701631,1.6980857543,-1.6717890428\F,24.444117749,2.0900454869,-
 2.8300932012\C,20.4267693931,0.700258466,-0.4399228796\C,19.4691314891
 ,1.4654616987,-1.1301273914\C,18.1212744549,1.131728836,-1.0323512445\
 C,17.7490099242,0.0330075147,-0.2339819976\N,18.6506784322,-0.71741389
 24,0.427868105\C,19.9413956998,-0.3846923807,0.3160821122\C,16.3032736
 859,-0.3248872319,-0.1128197271\N,15.4472229708,0.4186620862,-0.844589
 0107\C,14.1371780658,0.1752375683,-0.7974789883\C,13.5502934671,-0.834
 8827948,-0.0084709061\C,14.4288702894,-1.6164428784,0.7538417052\C,15.
 7982551692,-1.3628503524,0.6994671361\F,16.5956712789,-2.1331316067,1.
 4571453408\C,12.0852839839,-1.0584603355,0.0068179226\C,11.5259205521,
 -2.3460507792,0.0422709296\C,10.138968588,-2.4938452743,0.0486875395\C
 ,9.3314612531,-1.3423488158,0.0215074444\N,9.8493573708,-0.0985469566,
 -0.0037624486\C,11.1796534494,0.0223982541,-0.0101383924\C,7.836888396
 1,-1.4167736841,0.0523469863\N,7.1890056547,-0.4199242985,0.6853472701
 \C,5.8548321703,-0.4316643252,0.7197852969\C,5.0450953428,-1.420161543
 ,0.1213502099\C,5.7143383407,-2.4619992629,-0.5383286265\C,7.104708482
 2,-2.4494561075,-0.558842671\F,7.7418337623,-3.4531786379,-1.213061932
 5\C,3.5661957108,-1.3626307125,0.1964208125\C,2.8592111024,-0.15083265
 03,0.0892303125\C,1.4694496065,-0.1578239932,0.1711810766\C,0.80339148
 38,-1.3848897577,0.3548888303\N,1.4625558398,-2.5546838968,0.465586331
 1\C,2.7972374073,-2.5263231711,0.390293378\C,-0.6888945827,-1.40215303
 65,0.4288928825\N,-1.3012200968,-0.208721509,0.2780291568\C,-2.6308584
 739,-0.1272381471,0.322979695\C,-3.4843513204,-1.2322304606,0.51845356
 55\C,-2.860691507,-2.476341069,0.6837991128\C,-1.4696640983,-2.5581447
 434,0.6422689694\F,-0.9215896721,-3.7735210174,0.8033365924\C,-4.95760
 4637,-1.0788720932,0.5575721233\C,-5.6404117812,-0.1966285471,-0.29983
 32546\C,-7.0259486765,-0.0911338221,-0.2143064123\C,-7.7122842716,-0.8
 789132607,0.729791292\N,-7.076205469,-1.7244500091,1.5638188473\C,-5.7
 44954646,-1.8071686478,1.4702555106\C,-9.2007685988,-0.7816951163,0.81
 81062249\N,-9.7872347868,0.0850069786,-0.034007269\C,-11.1118890453,0.
 2358223548,-0.03230521\C,-11.9850202453,-0.4703859865,0.820182056\C,-1
 1.3879277157,-1.3689985661,1.7143890753\C,-10.0024488322,-1.5208877014
 ,1.7140674703\F,-9.4810010632,-2.398678405,2.5866220616\C,-13.45200691
 65,-0.2656464972,0.774586302\C,-14.2396484806,-0.2393690578,1.93694564
 94\C,-15.6163220937,-0.0422723178,1.8309845778\C,-16.1817036498,0.1402
 976142,0.555800698\N,-15.4436842072,0.1113856598,-0.5713244676\C,-14.1
 290532454,-0.091649012,-0.4502067456\C,-17.6406028215,0.4147593359,0.3
 641200626\N,-17.9808858589,1.2118339191,-0.6664175437\C,-19.2704781643
 ,1.4816721353,-0.8817597422\C,-20.334446023,0.9870806463,-0.0977247454
 \C,-19.9867576459,0.1458084483,0.9697248056\C,-18.6415873535,-0.130620
 3678,1.1866887702\F,-18.3164200419,-0.9489308015,2.2196332977\C,-21.74
 50872873,1.333273834,-0.3925469162\C,-22.785618201,0.3930063563,-0.281
 4372762\C,-24.0915144757,0.7752570155,-0.5743919624\C,-24.3373590353,2
 .1001831453,-0.9836201594\N,-23.356693056,3.017401823,-1.0871252559\C,
 -22.1092489948,2.6327491146,-0.7952788351\C,-25.7367913057,2.515314255
 5,-1.3102877652\N,-26.6918048364,1.5900896407,-1.0778575304\C,-27.9713
 473526,1.8748731437,-1.3370291769\C,-28.3974772251,3.1065698143,-1.849
 2114342\C,-27.4293777832,4.0769349504,-2.1036850575\C,-26.0930486309,3
 .7770988673,-1.8337213101\F,-25.1803801821,4.7260212479,-2.0992736118\
 H,29.8852649738,2.287084221,-0.0625311818\H,28.5895184751,3.7927572559
 ,-1.6362557353\H,26.1140093307,3.4367011691,-1.8691860102\H,28.6266901
 77,0.5122758205,1.1948762703\H,22.271071075,0.6040611418,1.6009387577\
 H,21.941253067,1.5209170339,-2.6356267899\H,19.7802200369,2.3347840881
 ,-1.7264186677\H,17.3393468437,1.7000934286,-1.5481739949\H,20.6498864
 876,-1.0387050211,0.8497009154\H,13.5067179321,0.8071918301,-1.4419946
 654\H,14.0725524747,-2.4152542821,1.4172663091\H,12.1741431173,-3.2333
 176822,0.0470733796\H,9.6877482093,-3.4918766328,0.0716390853\H,11.563
 9577134,1.0555632352,-0.0101787286\H,5.3851077738,0.3926746103,1.27959
 31626\H,5.1789965719,-3.2653169243,-1.0603319053\H,3.3977210332,0.7917
 454417,-0.0804031758\H,0.8751581318,0.7586499729,0.0854699586\H,3.3008
 065472,-3.4996505103,0.5113882864\H,-3.0545311874,0.8836335496,0.21632
 7531\H,-3.4339581337,-3.4017413814,0.8245588211\H,-5.08765579,0.388520
 1089,-1.0477436949\H,-7.6020712535,0.5763726932,-0.8646898502\H,-5.259
 3879619,-2.4900295466,2.1867132374\H,-11.5128004483,0.9796288254,-0.73
 81383473\H,-11.9794371437,-1.9807280351,2.4080128503\H,-13.7737454904,
 -0.3485879856,2.9261357684\H,-16.2429436948,-0.0118954444,2.7291240835
 \H,-13.5658271491,-0.1425083933,-1.3964283062\H,-19.48544271,2.1228720
 112,-1.7510478218\H,-20.7369768201,-0.2861569843,1.644498054\H,-22.567
 0891668,-0.6430100534,0.0135602553\H,-24.9345408461,0.0788304593,-0.50
 51269988\H,-21.3398544955,3.4187266247,-0.8655555035\H,-28.6967307701,
 1.074715074,-1.1233664504\H,-29.4599222504,3.2993883527,-2.0458902493\
 H,-27.6764523702,5.0661026588,-2.5098523242\\Version=EM64L-G16RevA.03\
 State=1-A\HF=-4151.7338702\S2=0.\S2-1=0.\S2A=0.\RMSD=8.553e-09\RMSF=5.
 742e-07\Dipole=-2.8420394,0.3508312,-0.5250591\Quadrupole=89.7060297,-
 40.8871207,-48.8189089,24.7061467,-45.944947,-6.6043981\PG=C01 [X(C70H
 37F7N14)]\\@


 ON INDUCTION, OR "WHY DO YOU BELIEVE THE SUN WILL RISE TOMORROW?":

 ... THE FARMER WHO HAS FED THE CHICKEN EVERY DAY THROUGHOUT ITS
 LIFE AT LAST WRINGS ITS NECK INSTEAD, SHOWING THAT MORE REFINED VIEWS
 AS TO THE UNIFORMITY OF NATURE WOULD HAVE BEEN USEFUL TO THE CHICKEN.

                               -- BERTRAND RUSSELL
 Job cpu time:       2 days 18 hours  5 minutes 39.4 seconds.
 Elapsed time:       0 days  8 hours 24 minutes 33.7 seconds.
 File lengths (MBytes):  RWF=   2372 Int=      0 D2E=      0 Chk=    212 Scr=      8
 Normal termination of Gaussian 16 at Fri Jul 24 00:08:00 2020.
