 Entering Gaussian System, Link 0=g16
 Input=mols_65_3_06_c-n-CF_opt_0.gjf
 Output=mols_65_3_06_c-n-CF_opt_0.log
 Initial command:
 /opt/ohpc/pub/libs/gaussian/g16-A.03/sandybridge/g16/l1.exe "/mnt/gpfs2_4m/scratch/rdu230/ondemand/projects/dihedral_energies/7trial/wtuning/mols_65_3_06_c-n-CF/Gau-33967.inp" -scrdir="/mnt/gpfs2_4m/scratch/rdu230/ondemand/projects/dihedral_energies/7trial/wtuning/mols_65_3_06_c-n-CF/"
 Entering Link 1 = /opt/ohpc/pub/libs/gaussian/g16-A.03/sandybridge/g16/l1.exe PID=     33968.
  
 Copyright (c) 1988,1990,1992,1993,1995,1998,2003,2009,2016,
            Gaussian, Inc.  All Rights Reserved.
  
 This is part of the Gaussian(R) 16 program.  It is based on
 the Gaussian(R) 09 system (copyright 2009, Gaussian, Inc.),
 the Gaussian(R) 03 system (copyright 2003, Gaussian, Inc.),
 the Gaussian(R) 98 system (copyright 1998, Gaussian, Inc.),
 the Gaussian(R) 94 system (copyright 1995, Gaussian, Inc.),
 the Gaussian 92(TM) system (copyright 1992, Gaussian, Inc.),
 the Gaussian 90(TM) system (copyright 1990, Gaussian, Inc.),
 the Gaussian 88(TM) system (copyright 1988, Gaussian, Inc.),
 the Gaussian 86(TM) system (copyright 1986, Carnegie Mellon
 University), and the Gaussian 82(TM) system (copyright 1983,
 Carnegie Mellon University). Gaussian is a federally registered
 trademark of Gaussian, Inc.
  
 This software contains proprietary and confidential information,
 including trade secrets, belonging to Gaussian, Inc.
  
 This software is provided under written license and may be
 used, copied, transmitted, or stored only in accord with that
 written license.
  
 The following legend is applicable only to US Government
 contracts under FAR:
  
                    RESTRICTED RIGHTS LEGEND
  
 Use, reproduction and disclosure by the US Government is
 subject to restrictions as set forth in subparagraphs (a)
 and (c) of the Commercial Computer Software - Restricted
 Rights clause in FAR 52.227-19.
  
 Gaussian, Inc.
 340 Quinnipiac St., Bldg. 40, Wallingford CT 06492
  
  
 ---------------------------------------------------------------
 Warning -- This program may not be used in any manner that
 competes with the business of Gaussian, Inc. or will provide
 assistance to any competitor of Gaussian, Inc.  The licensee
 of this program is prohibited from giving any competitor of
 Gaussian, Inc. access to this program.  By using this program,
 the user acknowledges that Gaussian, Inc. is engaged in the
 business of creating and licensing software in the field of
 computational chemistry and represents and warrants to the
 licensee that it is not a competitor of Gaussian, Inc. and that
 it will not use this program in any manner prohibited above.
 ---------------------------------------------------------------
  

 Cite this work as:
 Gaussian 16, Revision A.03,
 M. J. Frisch, G. W. Trucks, H. B. Schlegel, G. E. Scuseria, 
 M. A. Robb, J. R. Cheeseman, G. Scalmani, V. Barone, 
 G. A. Petersson, H. Nakatsuji, X. Li, M. Caricato, A. V. Marenich, 
 J. Bloino, B. G. Janesko, R. Gomperts, B. Mennucci, H. P. Hratchian, 
 J. V. Ortiz, A. F. Izmaylov, J. L. Sonnenberg, D. Williams-Young, 
 F. Ding, F. Lipparini, F. Egidi, J. Goings, B. Peng, A. Petrone, 
 T. Henderson, D. Ranasinghe, V. G. Zakrzewski, J. Gao, N. Rega, 
 G. Zheng, W. Liang, M. Hada, M. Ehara, K. Toyota, R. Fukuda, 
 J. Hasegawa, M. Ishida, T. Nakajima, Y. Honda, O. Kitao, H. Nakai, 
 T. Vreven, K. Throssell, J. A. Montgomery, Jr., J. E. Peralta, 
 F. Ogliaro, M. J. Bearpark, J. J. Heyd, E. N. Brothers, K. N. Kudin, 
 V. N. Staroverov, T. A. Keith, R. Kobayashi, J. Normand, 
 K. Raghavachari, A. P. Rendell, J. C. Burant, S. S. Iyengar, 
 J. Tomasi, M. Cossi, J. M. Millam, M. Klene, C. Adamo, R. Cammi, 
 J. W. Ochterski, R. L. Martin, K. Morokuma, O. Farkas, 
 J. B. Foresman, and D. J. Fox, Gaussian, Inc., Wallingford CT, 2016.
 
 ******************************************
 Gaussian 16:  EM64L-G16RevA.03 25-Dec-2016
                25-Jul-2020 
 ******************************************
 %mem=30GB
 %nproc=8
 Will use up to    8 processors via shared memory.
 ---------------------------------------------------------------
 #P uLC-wPBE/cc-pVDZ iop(3/107=0366800000, 3/108=0366800000) opt
 ---------------------------------------------------------------
 1/18=20,19=15,26=3,38=1/1,3;
 2/9=110,12=2,17=6,18=5,40=1/2;
 3/5=16,11=2,25=1,30=1,71=1,74=-41,107=366800000,108=366800000,116=2/1,2,3;
 4//1;
 5/5=2,38=5/2;
 6/7=2,8=2,9=2,10=2,28=1/1;
 7//1,2,3,16;
 1/18=20,19=15,26=3/3(2);
 2/9=110/2;
 99//99;
 2/9=110/2;
 3/5=16,11=2,25=1,30=1,71=1,74=-41,107=366800000,108=366800000,116=2/1,2,3;
 4/5=5,16=3,69=1/1;
 5/5=2,38=5/2;
 7//1,2,3,16;
 1/18=20,19=15,26=3/3(-5);
 2/9=110/2;
 6/7=2,8=2,9=2,10=2,19=2,28=1/1;
 99/9=1/99;
 Leave Link    1 at Sat Jul 25 04:30:31 2020, MaxMem=  4026531840 cpu:               1.6 elap:               0.2
 (Enter /opt/ohpc/pub/libs/gaussian/g16-A.03/sandybridge/g16/l101.exe)
 ----------------
 H14 C27 S3 N3 F3
 ----------------
 Symbolic Z-matrix:
 Charge =  0 Multiplicity = 1
 C                    -10.67266   2.76655  -0.48831 
 C                    -10.86097   1.43791  -0.79305 
 C                    -9.74923   0.57399  -0.66314 
 C                    -8.49813   1.01286  -0.2267 
 N                    -8.40757   2.3544    0.06578 
 C                    -9.47874   3.10702  -0.01088 
 C                    -7.36079   0.16717  -0.11519 
 C                    -7.25351  -1.127     0.10337 
 F                    -8.3478   -2.0299    0.16797 
 C                    -5.89812  -1.68876   0.23112 
 C                    -4.99869  -0.69309   0.16291 
 S                    -5.81815   0.88541  -0.07132 
 C                    -3.58648  -0.75027   0.21909 
 C                    -2.77443   0.19054   0.83743 
 C                    -1.33709   0.01974   0.89608 
 C                    -0.74305  -1.00929   0.27028 
 N                    -1.55965  -1.95055  -0.36873 
 C                    -2.81503  -1.8198   -0.40218 
 C                     0.6872   -1.32664   0.25027 
 C                     1.38784  -2.48188   0.27432 
 F                     0.71053  -3.72887   0.29903 
 C                     2.77955  -2.39229   0.25304 
 C                     3.12866  -1.05813   0.2458 
 S                     1.75683   0.03405   0.20593 
 C                     4.48873  -0.48229   0.17725 
 C                     4.97213   0.60235   0.87914 
 C                     6.19119   1.0532    0.80331 
 C                     7.11408   0.4512   -0.04431 
 N                     6.75941  -0.64237  -0.80612 
 C                     5.49374  -1.10723  -0.71092 
 C                     8.52161   0.83823  -0.13815 
 C                     9.13498   2.0277    0.1045 
 F                     8.47764   3.11784   0.54676 
 C                     10.49174   2.08716  -0.14999 
 C                     11.01994   0.93697  -0.66806 
 S                     9.77695  -0.24291  -0.7282 
 H                    -11.49206   3.3961   -0.52361 
 H                    -11.75965   1.04761  -1.15839 
 H                    -9.8723   -0.47943  -1.00235 
 H                    -9.28198   4.1828    0.2181 
 H                    -5.73568  -2.71629   0.37258 
 H                    -3.23139   1.00711   1.41516 
 H                    -0.73695   0.81307   1.43675 
 H                    -3.38286  -2.52616  -0.92161 
 H                     3.41488  -3.2423    0.25549 
 H                     4.19088   1.09604   1.53421 
 H                     6.53064   1.928     1.33729 
 H                     5.301    -1.94586  -1.27306 
 H                     11.15892   3.0169   -0.00096 
 H                     12.01633   0.63924  -0.90297 
 
 ITRead=  0  0  0  0  0  0  0  0  0  0  0  0  0  0  0  0  0  0  0  0
 ITRead=  0  0  0  0  0  0  0  0  0  0  0  0  0  0  0  0  0  0  0  0
 ITRead=  0  0  0  0  0  0  0  0  0  0
 MicOpt= -1 -1 -1 -1 -1 -1 -1 -1 -1 -1 -1 -1 -1 -1 -1 -1 -1 -1 -1 -1
 MicOpt= -1 -1 -1 -1 -1 -1 -1 -1 -1 -1 -1 -1 -1 -1 -1 -1 -1 -1 -1 -1
 MicOpt= -1 -1 -1 -1 -1 -1 -1 -1 -1 -1
 NAtoms=     50 NQM=       50 NQMF=       0 NMMI=      0 NMMIF=      0
                NMic=       0 NMicF=      0.
                    Isotopes and Nuclear Properties:
 (Nuclear quadrupole moments (NQMom) in fm**2, nuclear magnetic moments (NMagM)
  in nuclear magnetons)

  Atom         1           2           3           4           5           6           7           8           9          10
 IAtWgt=          12          12          12          12          14          12          12          12          19          12
 AtmWgt=  12.0000000  12.0000000  12.0000000  12.0000000  14.0030740  12.0000000  12.0000000  12.0000000  18.9984033  12.0000000
 NucSpn=           0           0           0           0           2           0           0           0           1           0
 AtZEff=  -0.0000000  -0.0000000  -0.0000000  -0.0000000  -0.0000000  -0.0000000  -0.0000000  -0.0000000  -0.0000000  -0.0000000
 NQMom=    0.0000000   0.0000000   0.0000000   0.0000000   2.0440000   0.0000000   0.0000000   0.0000000   0.0000000   0.0000000
 NMagM=    0.0000000   0.0000000   0.0000000   0.0000000   0.4037610   0.0000000   0.0000000   0.0000000   2.6288670   0.0000000
 AtZNuc=   6.0000000   6.0000000   6.0000000   6.0000000   7.0000000   6.0000000   6.0000000   6.0000000   9.0000000   6.0000000

  Atom        11          12          13          14          15          16          17          18          19          20
 IAtWgt=          12          32          12          12          12          12          14          12          12          12
 AtmWgt=  12.0000000  31.9720718  12.0000000  12.0000000  12.0000000  12.0000000  14.0030740  12.0000000  12.0000000  12.0000000
 NucSpn=           0           0           0           0           0           0           2           0           0           0
 AtZEff=  -0.0000000  -0.0000000  -0.0000000  -0.0000000  -0.0000000  -0.0000000  -0.0000000  -0.0000000  -0.0000000  -0.0000000
 NQMom=    0.0000000   0.0000000   0.0000000   0.0000000   0.0000000   0.0000000   2.0440000   0.0000000   0.0000000   0.0000000
 NMagM=    0.0000000   0.0000000   0.0000000   0.0000000   0.0000000   0.0000000   0.4037610   0.0000000   0.0000000   0.0000000
 AtZNuc=   6.0000000  16.0000000   6.0000000   6.0000000   6.0000000   6.0000000   7.0000000   6.0000000   6.0000000   6.0000000

  Atom        21          22          23          24          25          26          27          28          29          30
 IAtWgt=          19          12          12          32          12          12          12          12          14          12
 AtmWgt=  18.9984033  12.0000000  12.0000000  31.9720718  12.0000000  12.0000000  12.0000000  12.0000000  14.0030740  12.0000000
 NucSpn=           1           0           0           0           0           0           0           0           2           0
 AtZEff=  -0.0000000  -0.0000000  -0.0000000  -0.0000000  -0.0000000  -0.0000000  -0.0000000  -0.0000000  -0.0000000  -0.0000000
 NQMom=    0.0000000   0.0000000   0.0000000   0.0000000   0.0000000   0.0000000   0.0000000   0.0000000   2.0440000   0.0000000
 NMagM=    2.6288670   0.0000000   0.0000000   0.0000000   0.0000000   0.0000000   0.0000000   0.0000000   0.4037610   0.0000000
 AtZNuc=   9.0000000   6.0000000   6.0000000  16.0000000   6.0000000   6.0000000   6.0000000   6.0000000   7.0000000   6.0000000

  Atom        31          32          33          34          35          36          37          38          39          40
 IAtWgt=          12          12          19          12          12          32           1           1           1           1
 AtmWgt=  12.0000000  12.0000000  18.9984033  12.0000000  12.0000000  31.9720718   1.0078250   1.0078250   1.0078250   1.0078250
 NucSpn=           0           0           1           0           0           0           1           1           1           1
 AtZEff=  -0.0000000  -0.0000000  -0.0000000  -0.0000000  -0.0000000  -0.0000000  -0.0000000  -0.0000000  -0.0000000  -0.0000000
 NQMom=    0.0000000   0.0000000   0.0000000   0.0000000   0.0000000   0.0000000   0.0000000   0.0000000   0.0000000   0.0000000
 NMagM=    0.0000000   0.0000000   2.6288670   0.0000000   0.0000000   0.0000000   2.7928460   2.7928460   2.7928460   2.7928460
 AtZNuc=   6.0000000   6.0000000   9.0000000   6.0000000   6.0000000  16.0000000   1.0000000   1.0000000   1.0000000   1.0000000

  Atom        41          42          43          44          45          46          47          48          49          50
 IAtWgt=           1           1           1           1           1           1           1           1           1           1
 AtmWgt=   1.0078250   1.0078250   1.0078250   1.0078250   1.0078250   1.0078250   1.0078250   1.0078250   1.0078250   1.0078250
 NucSpn=           1           1           1           1           1           1           1           1           1           1
 AtZEff=  -0.0000000  -0.0000000  -0.0000000  -0.0000000  -0.0000000  -0.0000000  -0.0000000  -0.0000000  -0.0000000  -0.0000000
 NQMom=    0.0000000   0.0000000   0.0000000   0.0000000   0.0000000   0.0000000   0.0000000   0.0000000   0.0000000   0.0000000
 NMagM=    2.7928460   2.7928460   2.7928460   2.7928460   2.7928460   2.7928460   2.7928460   2.7928460   2.7928460   2.7928460
 AtZNuc=   1.0000000   1.0000000   1.0000000   1.0000000   1.0000000   1.0000000   1.0000000   1.0000000   1.0000000   1.0000000
 Leave Link  101 at Sat Jul 25 04:30:32 2020, MaxMem=  4026531840 cpu:               2.9 elap:               0.4
 (Enter /opt/ohpc/pub/libs/gaussian/g16-A.03/sandybridge/g16/l103.exe)

 GradGradGradGradGradGradGradGradGradGradGradGradGradGradGradGradGradGrad
 Berny optimization.
 Initialization pass.
                           ----------------------------
                           !    Initial Parameters    !
                           ! (Angstroms and Degrees)  !
 --------------------------                            --------------------------
 ! Name  Definition              Value          Derivative Info.                !
 --------------------------------------------------------------------------------
 ! R1    R(1,2)                  1.3761         estimate D2E/DX2                !
 ! R2    R(1,6)                  1.3302         estimate D2E/DX2                !
 ! R3    R(1,37)                 1.0339         estimate D2E/DX2                !
 ! R4    R(2,3)                  1.4139         estimate D2E/DX2                !
 ! R5    R(2,38)                 1.0457         estimate D2E/DX2                !
 ! R6    R(3,4)                  1.3958         estimate D2E/DX2                !
 ! R7    R(3,39)                 1.1135         estimate D2E/DX2                !
 ! R8    R(4,5)                  1.376          estimate D2E/DX2                !
 ! R9    R(4,7)                  1.4217         estimate D2E/DX2                !
 ! R10   R(5,6)                  1.3114         estimate D2E/DX2                !
 ! R11   R(6,40)                 1.1173         estimate D2E/DX2                !
 ! R12   R(7,8)                  1.3169         estimate D2E/DX2                !
 ! R13   R(7,12)                 1.7022         estimate D2E/DX2                !
 ! R14   R(8,9)                  1.4202         estimate D2E/DX2                !
 ! R15   R(8,10)                 1.4727         estimate D2E/DX2                !
 ! R16   R(10,11)                1.3435         estimate D2E/DX2                !
 ! R17   R(10,41)                1.0499         estimate D2E/DX2                !
 ! R18   R(11,12)                1.7939         estimate D2E/DX2                !
 ! R19   R(11,13)                1.4145         estimate D2E/DX2                !
 ! R20   R(13,14)                1.3881         estimate D2E/DX2                !
 ! R21   R(13,18)                1.4577         estimate D2E/DX2                !
 ! R22   R(14,15)                1.4486         estimate D2E/DX2                !
 ! R23   R(14,42)                1.0997         estimate D2E/DX2                !
 ! R24   R(15,16)                1.3429         estimate D2E/DX2                !
 ! R25   R(15,43)                1.1322         estimate D2E/DX2                !
 ! R26   R(16,17)                1.4004         estimate D2E/DX2                !
 ! R27   R(16,19)                1.4652         estimate D2E/DX2                !
 ! R28   R(17,18)                1.2626         estimate D2E/DX2                !
 ! R29   R(18,44)                1.0446         estimate D2E/DX2                !
 ! R30   R(19,20)                1.3513         estimate D2E/DX2                !
 ! R31   R(19,24)                1.7313         estimate D2E/DX2                !
 ! R32   R(20,21)                1.4193         estimate D2E/DX2                !
 ! R33   R(20,22)                1.3948         estimate D2E/DX2                !
 ! R34   R(22,23)                1.3791         estimate D2E/DX2                !
 ! R35   R(22,45)                1.0612         estimate D2E/DX2                !
 ! R36   R(23,24)                1.754          estimate D2E/DX2                !
 ! R37   R(23,25)                1.4785         estimate D2E/DX2                !
 ! R38   R(25,26)                1.3794         estimate D2E/DX2                !
 ! R39   R(25,30)                1.4797         estimate D2E/DX2                !
 ! R40   R(26,27)                1.302          estimate D2E/DX2                !
 ! R41   R(26,46)                1.1328         estimate D2E/DX2                !
 ! R42   R(27,28)                1.3902         estimate D2E/DX2                !
 ! R43   R(27,47)                1.0796         estimate D2E/DX2                !
 ! R44   R(28,29)                1.3791         estimate D2E/DX2                !
 ! R45   R(28,31)                1.4628         estimate D2E/DX2                !
 ! R46   R(29,30)                1.3517         estimate D2E/DX2                !
 ! R47   R(30,48)                1.0278         estimate D2E/DX2                !
 ! R48   R(31,32)                1.3601         estimate D2E/DX2                !
 ! R49   R(31,36)                1.7587         estimate D2E/DX2                !
 ! R50   R(32,33)                1.3476         estimate D2E/DX2                !
 ! R51   R(32,34)                1.3817         estimate D2E/DX2                !
 ! R52   R(34,35)                1.3676         estimate D2E/DX2                !
 ! R53   R(34,49)                1.154          estimate D2E/DX2                !
 ! R54   R(35,36)                1.7149         estimate D2E/DX2                !
 ! R55   R(35,50)                1.0661         estimate D2E/DX2                !
 ! A1    A(2,1,6)              116.7084         estimate D2E/DX2                !
 ! A2    A(2,1,37)             118.1568         estimate D2E/DX2                !
 ! A3    A(6,1,37)             124.5937         estimate D2E/DX2                !
 ! A4    A(1,2,3)              117.516          estimate D2E/DX2                !
 ! A5    A(1,2,38)             123.7363         estimate D2E/DX2                !
 ! A6    A(3,2,38)             118.6709         estimate D2E/DX2                !
 ! A7    A(2,3,4)              122.7764         estimate D2E/DX2                !
 ! A8    A(2,3,39)             117.5902         estimate D2E/DX2                !
 ! A9    A(4,3,39)             119.4568         estimate D2E/DX2                !
 ! A10   A(3,4,5)              115.5936         estimate D2E/DX2                !
 ! A11   A(3,4,7)              123.6794         estimate D2E/DX2                !
 ! A12   A(5,4,7)              120.7048         estimate D2E/DX2                !
 ! A13   A(4,5,6)              119.5609         estimate D2E/DX2                !
 ! A14   A(1,6,5)              127.3909         estimate D2E/DX2                !
 ! A15   A(1,6,40)             118.5582         estimate D2E/DX2                !
 ! A16   A(5,6,40)             113.3754         estimate D2E/DX2                !
 ! A17   A(4,7,8)              131.5125         estimate D2E/DX2                !
 ! A18   A(4,7,12)             118.4267         estimate D2E/DX2                !
 ! A19   A(8,7,12)             109.6679         estimate D2E/DX2                !
 ! A20   A(7,8,9)              124.7216         estimate D2E/DX2                !
 ! A21   A(7,8,10)             117.6602         estimate D2E/DX2                !
 ! A22   A(9,8,10)             117.5607         estimate D2E/DX2                !
 ! A23   A(8,10,11)            109.2104         estimate D2E/DX2                !
 ! A24   A(8,10,41)            121.8301         estimate D2E/DX2                !
 ! A25   A(11,10,41)           128.9465         estimate D2E/DX2                !
 ! A26   A(10,11,12)           110.6666         estimate D2E/DX2                !
 ! A27   A(10,11,13)           129.5254         estimate D2E/DX2                !
 ! A28   A(12,11,13)           119.7904         estimate D2E/DX2                !
 ! A29   A(7,12,11)             92.6403         estimate D2E/DX2                !
 ! A30   A(11,13,14)           125.0539         estimate D2E/DX2                !
 ! A31   A(11,13,18)           122.7582         estimate D2E/DX2                !
 ! A32   A(14,13,18)           112.1803         estimate D2E/DX2                !
 ! A33   A(13,14,15)           121.2351         estimate D2E/DX2                !
 ! A34   A(13,14,42)           119.6165         estimate D2E/DX2                !
 ! A35   A(15,14,42)           118.5917         estimate D2E/DX2                !
 ! A36   A(14,15,16)           120.6894         estimate D2E/DX2                !
 ! A37   A(14,15,43)           117.5584         estimate D2E/DX2                !
 ! A38   A(16,15,43)           121.6669         estimate D2E/DX2                !
 ! A39   A(15,16,17)           118.0169         estimate D2E/DX2                !
 ! A40   A(15,16,19)           127.1671         estimate D2E/DX2                !
 ! A41   A(17,16,19)           114.6709         estimate D2E/DX2                !
 ! A42   A(16,17,18)           121.4836         estimate D2E/DX2                !
 ! A43   A(13,18,17)           126.2189         estimate D2E/DX2                !
 ! A44   A(13,18,44)           114.8578         estimate D2E/DX2                !
 ! A45   A(17,18,44)           118.9222         estimate D2E/DX2                !
 ! A46   A(16,19,20)           133.7132         estimate D2E/DX2                !
 ! A47   A(16,19,24)           115.6711         estimate D2E/DX2                !
 ! A48   A(20,19,24)           110.6107         estimate D2E/DX2                !
 ! A49   A(19,20,21)           120.2652         estimate D2E/DX2                !
 ! A50   A(19,20,22)           117.5274         estimate D2E/DX2                !
 ! A51   A(21,20,22)           122.2002         estimate D2E/DX2                !
 ! A52   A(20,22,23)           108.3488         estimate D2E/DX2                !
 ! A53   A(20,22,45)           123.0863         estimate D2E/DX2                !
 ! A54   A(23,22,45)           128.5605         estimate D2E/DX2                !
 ! A55   A(22,23,24)           113.8622         estimate D2E/DX2                !
 ! A56   A(22,23,25)           127.5804         estimate D2E/DX2                !
 ! A57   A(24,23,25)           118.4173         estimate D2E/DX2                !
 ! A58   A(19,24,23)            89.6122         estimate D2E/DX2                !
 ! A59   A(23,25,26)           127.2297         estimate D2E/DX2                !
 ! A60   A(23,25,30)           119.2174         estimate D2E/DX2                !
 ! A61   A(26,25,30)           113.5468         estimate D2E/DX2                !
 ! A62   A(25,26,27)           124.8045         estimate D2E/DX2                !
 ! A63   A(25,26,46)           113.2812         estimate D2E/DX2                !
 ! A64   A(27,26,46)           121.9054         estimate D2E/DX2                !
 ! A65   A(26,27,28)           120.4738         estimate D2E/DX2                !
 ! A66   A(26,27,47)           123.1042         estimate D2E/DX2                !
 ! A67   A(28,27,47)           116.3412         estimate D2E/DX2                !
 ! A68   A(27,28,29)           120.6266         estimate D2E/DX2                !
 ! A69   A(27,28,31)           124.2859         estimate D2E/DX2                !
 ! A70   A(29,28,31)           114.9498         estimate D2E/DX2                !
 ! A71   A(28,29,30)           118.3335         estimate D2E/DX2                !
 ! A72   A(25,30,29)           122.2086         estimate D2E/DX2                !
 ! A73   A(25,30,48)           123.0598         estimate D2E/DX2                !
 ! A74   A(29,30,48)           114.6883         estimate D2E/DX2                !
 ! A75   A(28,31,32)           130.8346         estimate D2E/DX2                !
 ! A76   A(28,31,36)           123.073          estimate D2E/DX2                !
 ! A77   A(32,31,36)           105.996          estimate D2E/DX2                !
 ! A78   A(31,32,33)           123.094          estimate D2E/DX2                !
 ! A79   A(31,32,34)           116.5898         estimate D2E/DX2                !
 ! A80   A(33,32,34)           120.3051         estimate D2E/DX2                !
 ! A81   A(32,34,35)           114.3828         estimate D2E/DX2                !
 ! A82   A(32,34,49)           125.3507         estimate D2E/DX2                !
 ! A83   A(35,34,49)           120.2131         estimate D2E/DX2                !
 ! A84   A(34,35,36)           108.1796         estimate D2E/DX2                !
 ! A85   A(34,35,50)           132.7884         estimate D2E/DX2                !
 ! A86   A(36,35,50)           118.526          estimate D2E/DX2                !
 ! A87   A(31,36,35)            94.741          estimate D2E/DX2                !
 ! D1    D(6,1,2,3)             -4.3485         estimate D2E/DX2                !
 ! D2    D(6,1,2,38)           178.8868         estimate D2E/DX2                !
 ! D3    D(37,1,2,3)          -176.3048         estimate D2E/DX2                !
 ! D4    D(37,1,2,38)            6.9306         estimate D2E/DX2                !
 ! D5    D(2,1,6,5)              8.2848         estimate D2E/DX2                !
 ! D6    D(2,1,6,40)           178.1949         estimate D2E/DX2                !
 ! D7    D(37,1,6,5)           179.6656         estimate D2E/DX2                !
 ! D8    D(37,1,6,40)          -10.4243         estimate D2E/DX2                !
 ! D9    D(1,2,3,4)              0.9169         estimate D2E/DX2                !
 ! D10   D(1,2,3,39)          -174.2211         estimate D2E/DX2                !
 ! D11   D(38,2,3,4)           177.8506         estimate D2E/DX2                !
 ! D12   D(38,2,3,39)            2.7126         estimate D2E/DX2                !
 ! D13   D(2,3,4,5)             -0.3722         estimate D2E/DX2                !
 ! D14   D(2,3,4,7)           -178.6615         estimate D2E/DX2                !
 ! D15   D(39,3,4,5)           174.6787         estimate D2E/DX2                !
 ! D16   D(39,3,4,7)            -3.6106         estimate D2E/DX2                !
 ! D17   D(3,4,5,6)              3.4356         estimate D2E/DX2                !
 ! D18   D(7,4,5,6)           -178.22           estimate D2E/DX2                !
 ! D19   D(3,4,7,8)            -27.716          estimate D2E/DX2                !
 ! D20   D(3,4,7,12)           160.3103         estimate D2E/DX2                !
 ! D21   D(5,4,7,8)            154.0784         estimate D2E/DX2                !
 ! D22   D(5,4,7,12)           -17.8953         estimate D2E/DX2                !
 ! D23   D(4,5,6,1)             -7.9251         estimate D2E/DX2                !
 ! D24   D(4,5,6,40)          -178.2746         estimate D2E/DX2                !
 ! D25   D(4,7,8,9)              5.9181         estimate D2E/DX2                !
 ! D26   D(4,7,8,10)          -176.9139         estimate D2E/DX2                !
 ! D27   D(12,7,8,9)           178.4254         estimate D2E/DX2                !
 ! D28   D(12,7,8,10)           -4.4066         estimate D2E/DX2                !
 ! D29   D(4,7,12,11)          176.8722         estimate D2E/DX2                !
 ! D30   D(8,7,12,11)            3.247          estimate D2E/DX2                !
 ! D31   D(7,8,10,11)            3.3531         estimate D2E/DX2                !
 ! D32   D(7,8,10,41)         -177.8453         estimate D2E/DX2                !
 ! D33   D(9,8,10,11)         -179.2724         estimate D2E/DX2                !
 ! D34   D(9,8,10,41)           -0.4708         estimate D2E/DX2                !
 ! D35   D(8,10,11,12)          -0.6263         estimate D2E/DX2                !
 ! D36   D(8,10,11,13)        -179.0672         estimate D2E/DX2                !
 ! D37   D(41,10,11,12)       -179.3171         estimate D2E/DX2                !
 ! D38   D(41,10,11,13)          2.242          estimate D2E/DX2                !
 ! D39   D(10,11,12,7)          -1.4328         estimate D2E/DX2                !
 ! D40   D(13,11,12,7)         177.1815         estimate D2E/DX2                !
 ! D41   D(10,11,13,14)       -143.2263         estimate D2E/DX2                !
 ! D42   D(10,11,13,18)         37.8544         estimate D2E/DX2                !
 ! D43   D(12,11,13,14)         38.4547         estimate D2E/DX2                !
 ! D44   D(12,11,13,18)       -140.4647         estimate D2E/DX2                !
 ! D45   D(11,13,14,15)        177.2589         estimate D2E/DX2                !
 ! D46   D(11,13,14,42)          5.9357         estimate D2E/DX2                !
 ! D47   D(18,13,14,15)         -3.7226         estimate D2E/DX2                !
 ! D48   D(18,13,14,42)       -175.0458         estimate D2E/DX2                !
 ! D49   D(11,13,18,17)       -178.3973         estimate D2E/DX2                !
 ! D50   D(11,13,18,44)          1.9878         estimate D2E/DX2                !
 ! D51   D(14,13,18,17)          2.5581         estimate D2E/DX2                !
 ! D52   D(14,13,18,44)       -177.0569         estimate D2E/DX2                !
 ! D53   D(13,14,15,16)          4.7082         estimate D2E/DX2                !
 ! D54   D(13,14,15,43)       -178.5952         estimate D2E/DX2                !
 ! D55   D(42,14,15,16)        176.118          estimate D2E/DX2                !
 ! D56   D(42,14,15,43)         -7.1854         estimate D2E/DX2                !
 ! D57   D(14,15,16,17)         -3.7615         estimate D2E/DX2                !
 ! D58   D(14,15,16,19)       -179.1274         estimate D2E/DX2                !
 ! D59   D(43,15,16,17)        179.6794         estimate D2E/DX2                !
 ! D60   D(43,15,16,19)          4.3136         estimate D2E/DX2                !
 ! D61   D(15,16,17,18)          2.4758         estimate D2E/DX2                !
 ! D62   D(19,16,17,18)        178.413          estimate D2E/DX2                !
 ! D63   D(15,16,19,20)        142.7769         estimate D2E/DX2                !
 ! D64   D(15,16,19,24)        -36.3155         estimate D2E/DX2                !
 ! D65   D(17,16,19,20)        -32.7213         estimate D2E/DX2                !
 ! D66   D(17,16,19,24)        148.1863         estimate D2E/DX2                !
 ! D67   D(16,17,18,13)         -1.9523         estimate D2E/DX2                !
 ! D68   D(16,17,18,44)        177.6485         estimate D2E/DX2                !
 ! D69   D(16,19,20,21)          1.4986         estimate D2E/DX2                !
 ! D70   D(16,19,20,22)       -179.4595         estimate D2E/DX2                !
 ! D71   D(24,19,20,21)       -179.3753         estimate D2E/DX2                !
 ! D72   D(24,19,20,22)         -0.3335         estimate D2E/DX2                !
 ! D73   D(16,19,24,23)        178.544          estimate D2E/DX2                !
 ! D74   D(20,19,24,23)         -0.7551         estimate D2E/DX2                !
 ! D75   D(19,20,22,23)          1.5793         estimate D2E/DX2                !
 ! D76   D(19,20,22,45)       -179.1215         estimate D2E/DX2                !
 ! D77   D(21,20,22,23)       -179.3987         estimate D2E/DX2                !
 ! D78   D(21,20,22,45)         -0.0994         estimate D2E/DX2                !
 ! D79   D(20,22,23,24)         -2.1127         estimate D2E/DX2                !
 ! D80   D(20,22,23,25)       -177.6994         estimate D2E/DX2                !
 ! D81   D(45,22,23,24)        178.6381         estimate D2E/DX2                !
 ! D82   D(45,22,23,25)          3.0514         estimate D2E/DX2                !
 ! D83   D(22,23,24,19)          1.7065         estimate D2E/DX2                !
 ! D84   D(25,23,24,19)        177.7305         estimate D2E/DX2                !
 ! D85   D(22,23,25,26)       -139.2109         estimate D2E/DX2                !
 ! D86   D(22,23,25,30)         39.826          estimate D2E/DX2                !
 ! D87   D(24,23,25,26)         45.3785         estimate D2E/DX2                !
 ! D88   D(24,23,25,30)       -135.5846         estimate D2E/DX2                !
 ! D89   D(23,25,26,27)        178.44           estimate D2E/DX2                !
 ! D90   D(23,25,26,46)         -2.6294         estimate D2E/DX2                !
 ! D91   D(30,25,26,27)         -0.6431         estimate D2E/DX2                !
 ! D92   D(30,25,26,46)        178.2876         estimate D2E/DX2                !
 ! D93   D(23,25,30,29)       -179.0551         estimate D2E/DX2                !
 ! D94   D(23,25,30,48)         -1.5783         estimate D2E/DX2                !
 ! D95   D(26,25,30,29)          0.1084         estimate D2E/DX2                !
 ! D96   D(26,25,30,48)        177.5852         estimate D2E/DX2                !
 ! D97   D(25,26,27,28)          1.0018         estimate D2E/DX2                !
 ! D98   D(25,26,27,47)        177.6112         estimate D2E/DX2                !
 ! D99   D(46,26,27,28)       -177.8411         estimate D2E/DX2                !
 ! D100  D(46,26,27,47)         -1.2317         estimate D2E/DX2                !
 ! D101  D(26,27,28,29)         -0.7945         estimate D2E/DX2                !
 ! D102  D(26,27,28,31)       -176.3079         estimate D2E/DX2                !
 ! D103  D(47,27,28,29)       -177.6255         estimate D2E/DX2                !
 ! D104  D(47,27,28,31)          6.8612         estimate D2E/DX2                !
 ! D105  D(27,28,29,30)          0.2848         estimate D2E/DX2                !
 ! D106  D(31,28,29,30)        176.197          estimate D2E/DX2                !
 ! D107  D(27,28,31,32)        -27.1111         estimate D2E/DX2                !
 ! D108  D(27,28,31,36)        156.9815         estimate D2E/DX2                !
 ! D109  D(29,28,31,32)        157.1466         estimate D2E/DX2                !
 ! D110  D(29,28,31,36)        -18.7608         estimate D2E/DX2                !
 ! D111  D(28,29,30,25)          0.0372         estimate D2E/DX2                !
 ! D112  D(28,29,30,48)       -177.6355         estimate D2E/DX2                !
 ! D113  D(28,31,32,33)          2.2011         estimate D2E/DX2                !
 ! D114  D(28,31,32,34)       -176.5925         estimate D2E/DX2                !
 ! D115  D(36,31,32,33)        178.6342         estimate D2E/DX2                !
 ! D116  D(36,31,32,34)         -0.1594         estimate D2E/DX2                !
 ! D117  D(28,31,36,35)        175.1696         estimate D2E/DX2                !
 ! D118  D(32,31,36,35)         -1.6103         estimate D2E/DX2                !
 ! D119  D(31,32,34,35)          2.5038         estimate D2E/DX2                !
 ! D120  D(31,32,34,49)        179.8353         estimate D2E/DX2                !
 ! D121  D(33,32,34,35)       -176.3255         estimate D2E/DX2                !
 ! D122  D(33,32,34,49)          1.006          estimate D2E/DX2                !
 ! D123  D(32,34,35,36)         -3.5339         estimate D2E/DX2                !
 ! D124  D(32,34,35,50)       -174.988          estimate D2E/DX2                !
 ! D125  D(49,34,35,36)        178.9847         estimate D2E/DX2                !
 ! D126  D(49,34,35,50)          7.5305         estimate D2E/DX2                !
 ! D127  D(34,35,36,31)          2.9315         estimate D2E/DX2                !
 ! D128  D(50,35,36,31)        175.8015         estimate D2E/DX2                !
 --------------------------------------------------------------------------------
 Trust Radius=3.00D-01 FncErr=1.00D-07 GrdErr=1.00D-06 EigMax=2.50D+02 EigMin=1.00D-04
 Number of steps in this run=    280 maximum allowed number of steps=    300.
 GradGradGradGradGradGradGradGradGradGradGradGradGradGradGradGradGradGrad

 Leave Link  103 at Sat Jul 25 04:30:32 2020, MaxMem=  4026531840 cpu:               0.1 elap:               0.1
 (Enter /opt/ohpc/pub/libs/gaussian/g16-A.03/sandybridge/g16/l202.exe)
                          Input orientation:                          
 ---------------------------------------------------------------------
 Center     Atomic      Atomic             Coordinates (Angstroms)
 Number     Number       Type             X           Y           Z
 ---------------------------------------------------------------------
      1          6           0      -10.672661    2.766551   -0.488310
      2          6           0      -10.860973    1.437914   -0.793051
      3          6           0       -9.749228    0.573985   -0.663144
      4          6           0       -8.498135    1.012857   -0.226700
      5          7           0       -8.407575    2.354395    0.065779
      6          6           0       -9.478736    3.107015   -0.010879
      7          6           0       -7.360787    0.167171   -0.115187
      8          6           0       -7.253510   -1.127002    0.103365
      9          9           0       -8.347797   -2.029897    0.167972
     10          6           0       -5.898117   -1.688757    0.231123
     11          6           0       -4.998690   -0.693093    0.162911
     12         16           0       -5.818152    0.885409   -0.071317
     13          6           0       -3.586477   -0.750271    0.219087
     14          6           0       -2.774434    0.190541    0.837433
     15          6           0       -1.337094    0.019740    0.896077
     16          6           0       -0.743054   -1.009292    0.270281
     17          7           0       -1.559649   -1.950549   -0.368734
     18          6           0       -2.815025   -1.819795   -0.402177
     19          6           0        0.687204   -1.326637    0.250270
     20          6           0        1.387838   -2.481876    0.274322
     21          9           0        0.710527   -3.728866    0.299028
     22          6           0        2.779552   -2.392294    0.253037
     23          6           0        3.128656   -1.058130    0.245799
     24         16           0        1.756831    0.034054    0.205930
     25          6           0        4.488727   -0.482289    0.177250
     26          6           0        4.972134    0.602347    0.879144
     27          6           0        6.191189    1.053201    0.803313
     28          6           0        7.114082    0.451196   -0.044313
     29          7           0        6.759407   -0.642369   -0.806116
     30          6           0        5.493742   -1.107235   -0.710921
     31          6           0        8.521608    0.838229   -0.138146
     32          6           0        9.134980    2.027696    0.104504
     33          9           0        8.477643    3.117839    0.546760
     34          6           0       10.491744    2.087155   -0.149994
     35          6           0       11.019937    0.936968   -0.668058
     36         16           0        9.776951   -0.242912   -0.728203
     37          1           0      -11.492056    3.396097   -0.523612
     38          1           0      -11.759652    1.047605   -1.158392
     39          1           0       -9.872297   -0.479425   -1.002354
     40          1           0       -9.281978    4.182802    0.218095
     41          1           0       -5.735677   -2.716292    0.372578
     42          1           0       -3.231391    1.007107    1.415160
     43          1           0       -0.736946    0.813073    1.436748
     44          1           0       -3.382864   -2.526159   -0.921613
     45          1           0        3.414884   -3.242300    0.255485
     46          1           0        4.190877    1.096041    1.534207
     47          1           0        6.530636    1.928003    1.337291
     48          1           0        5.300995   -1.945858   -1.273055
     49          1           0       11.158920    3.016897   -0.000956
     50          1           0       12.016332    0.639244   -0.902968
 ---------------------------------------------------------------------
                    Distance matrix (angstroms):
                    1          2          3          4          5
     1  C    0.000000
     2  C    1.376083   0.000000
     3  C    2.385506   1.413940   0.000000
     4  C    2.805788   2.466664   1.395824   0.000000
     5  N    2.368016   2.756209   2.345468   1.376034   0.000000
     6  C    1.330155   2.303968   2.629611   2.322424   1.311373
     7  C    4.226642   3.784916   2.484030   1.421682   2.431556
     8  C    5.215403   4.516209   3.116007   2.497405   3.667888
     9  F    5.370439   4.389229   3.071639   3.071924   4.385890
    10  C    6.569903   5.954405   4.555301   3.777355   4.761491
    11  C    6.677363   6.310421   4.985526   3.912567   4.573523
    12  S    5.222915   5.124081   3.987556   2.687507   2.980239
    13  C    7.942446   7.663607   6.364863   5.237531   5.736326
    14  C    8.412812   8.343053   7.144684   5.879569   6.083584
    15  C    9.829258   9.775922   8.573352   7.316243   7.492110
    16  C   10.650331  10.463832   9.191802   8.029779   8.372640
    17  N   10.262179   9.908398   8.574914   7.546160   8.100335
    18  C    9.098595   8.689231   7.340399   6.352358   6.994245
    19  C   12.097364  11.920220  10.647338   9.490584   9.813207
    20  C   13.175099  12.904937  11.586689  10.497459  10.926258
    21  F   13.129635  12.719586  11.351069  10.371103  10.963588
    22  C   14.426549  14.206643  12.907693  11.790311  12.153927
    23  C   14.340274  14.248479  13.012681  11.819243  12.031723
    24  S   12.745226  12.734903  11.551459  10.310652  10.426830
    25  C   15.519846  15.499740  14.301795  13.078885  13.205067
    26  C   15.852865  15.943076  14.801958  13.521818  13.518426
    27  C   16.999803  17.131042  16.014901  14.725447  14.675182
    28  C   17.942303  18.017681  16.875107  15.623381  15.638290
    29  N   17.765099  17.742760  16.554002  15.357997  15.484771
    30  C   16.625533  16.551774  15.335479  14.159869  14.346873
    31  C   19.294067  19.402911  18.280287  17.020869  16.998164
    32  C   19.830279  20.024774  18.955629  17.665399  17.545640
    33  F   19.181473  19.457629  18.443261  17.123266  16.909310
    34  C   21.178009  21.372261  20.303939  19.020397  18.902440
    35  C   21.770358  21.887001  20.772337  19.523209  19.492969
    36  S   20.671261  20.706359  19.543368  18.325044  18.386228
    37  H    1.033916   2.074932   3.319825   3.838170   3.308557
    38  H    2.141339   1.045676   2.124004   3.392160   3.800357
    39  H    3.382482   2.167366   1.113500   2.171835   3.364053
    40  H    2.106840   3.324162   3.744124   3.295573   2.032450
    41  H    7.428089   6.699610   5.292186   4.679408   5.739776
    42  H    7.879806   7.954389   6.854863   5.516732   5.516239
    43  H   10.307296  10.385488   9.256778   7.939964   7.943159
    44  H    9.018962   8.464781   7.085781   6.258877   7.074070
    45  H   15.333572  15.060011  13.736876  12.659340  13.081648
    46  H   15.093242  15.234540  14.121877  12.810884  12.746008
    47  H   17.320202  17.528451  16.458101  15.137619  14.998290
    48  H   16.672742  16.519368  15.271896  14.151496  14.429468
    49  H   21.838455  22.090638  21.060792  19.760237  19.577821
    50  H   22.792275  22.891506  21.766979  20.529011  20.518679
                    6          7          8          9         10
     6  C    0.000000
     7  C    3.624813   0.000000
     8  C    4.784515   1.316874   0.000000
     9  F    5.262972   2.425175   1.420161   0.000000
    10  C    5.989894   2.388264   1.472746   2.474125   0.000000
    11  C    5.877230   2.529208   2.296962   3.606049   1.343491
    12  S    4.282413   1.702208   2.478016   3.867218   2.593105
    13  C    7.046294   3.898571   3.688150   4.930540   2.494911
    14  C    7.360239   4.684300   4.726193   6.036630   3.695506
    15  C    8.754437   6.109768   6.078436   7.340375   4.915695
    16  C    9.661013   6.732536   6.513659   7.673605   5.199796
    17  N    9.403135   6.180795   5.772448   6.809795   4.387558
    18  C    8.296482   4.969341   4.520584   5.566038   3.150190
    19  C   11.093773   8.193606   7.944581   9.062703   6.595298
    20  C   12.222908   9.149186   8.748589   9.746701   7.329123
    21  F   12.273809   8.972000   8.380565   9.217207   6.916707
    22  C   13.437919  10.464842  10.113639  11.133574   8.706169
    23  C   13.280085  10.566934  10.383371  11.517785   9.048786
    24  S   11.650239   9.124242   9.085418  10.313333   7.846460
    25  C   14.422500  11.870901  11.760155  12.929483  10.456816
    26  C   14.693303  12.380590  12.371696  13.596140  11.127958
    27  C   15.824905  13.611934  13.638297  14.875862  12.409555
    28  C   16.804050  14.477829  14.454765  15.661117  13.189867
    29  N   16.684351  14.160248  14.050760  15.202029  12.742987
    30  C   15.570005  12.931277  12.773249  13.900071  11.445526
    31  C   18.143207  15.896582  15.898893  17.114224  14.644128
    32  C   18.645339  16.601812  16.689360  17.947579  15.486189
    33  F   17.965039  16.124530  16.299830  17.599378  15.161315
    34  C   19.996988  17.955512  18.035771  19.286771  16.823505
    35  C   20.623690  18.405142  18.405812  19.611485  17.144198
    36  S   19.558069  17.153601  17.073656  18.234663  15.770813
    37  H    2.097599   5.259293   6.230313   6.309205   7.597205
    38  H    3.280325   4.605807   5.160064   4.782365   6.616345
    39  H    3.741719   2.740955   2.915479   2.469358   4.333365
    40  H    1.117345   4.464005   5.685232   6.282741   6.776864
    41  H    6.933140   3.345632   2.214077   2.708537   1.049869
    42  H    6.743332   4.483232   4.738425   6.079184   3.972537
    43  H    9.152961   6.833810   6.928738   8.222975   5.860919
    44  H    8.349955   4.871162   4.241476   5.107253   2.890768
    45  H   14.374637  11.308270  10.877144  11.825322   9.441720
    46  H   13.902864  11.705735  11.745775  12.994477  10.547081
    47  H   16.109240  14.077708  14.172449  15.440209  12.991477
    48  H   15.670516  12.888998  12.656250  13.724910  11.302600
    49  H   20.637855  18.738024  18.873271  20.149707  17.695750
    50  H   21.654645  19.398871  19.376768  20.566210  18.100642
                   11         12         13         14         15
    11  C    0.000000
    12  S    1.793892   0.000000
    13  C    1.414486   2.782114   0.000000
    14  C    2.486585   3.251598   1.388126   0.000000
    15  C    3.801703   4.665310   2.472035   1.448640   0.000000
    16  C    4.268717   5.428002   2.855655   2.426472   1.342911
    17  N    3.700114   5.125033   2.427804   2.741315   2.351875
    18  C    2.521344   4.055412   1.457734   2.362146   2.693257
    19  C    5.721748   6.878679   4.312484   3.824856   2.515468
    20  C    6.633242   7.961430   5.267382   4.978294   3.750989
    21  F    6.467581   8.003270   5.229021   5.272247   4.312919
    22  C    7.962189   9.207011   6.574475   6.152992   4.814373
    23  C    8.135962   9.160965   6.722239   6.062646   4.639783
    24  S    6.794679   7.627715   5.400581   4.577734   3.169997
    25  C    9.489770  10.400199   8.079758   7.324073   5.891429
    26  C   10.080103  10.835764   8.689941   7.757618   6.336093
    27  C   11.343414  12.042317   9.959748   9.007094   7.599453
    28  C   12.168467  12.939550  10.771020   9.931171   8.514274
    29  N   11.798069  12.691297  10.397115   9.710258   8.299950
    30  C   10.536898  11.503855   9.134698   8.511425   7.107238
    31  C   13.610071  14.339993  12.217065  11.356576   9.946534
    32  C   14.393288  14.997729  13.021739  12.072550  10.692184
    33  F   14.010071  14.482248  12.673304  11.630254  10.298024
    34  C   15.741068  16.354299  14.366054  13.437397  12.053625
    35  C   16.122780  16.848739  14.730279  13.896342  12.489357
    36  S   14.809332  15.649660  13.406565  12.656080  11.235180
    37  H    7.704323   6.221038   8.957798   9.387490  10.795303
    38  H    7.105384   6.042306   8.481191   9.244026  10.672725
    39  H    5.015530   4.377864   6.409119   7.362970   8.758019
    40  H    6.490297   4.791101   7.534848   7.659625   8.995106
    41  H    2.163433   3.629889   2.916823   4.175491   5.206482
    42  H    2.753571   2.985926   2.155239   1.099708   2.198341
    43  H    4.696132   5.300769   3.470817   2.213161   1.132201
    44  H    2.673428   4.276965   2.120479   3.293158   3.737750
    45  H    8.791772  10.118979   7.431729   7.101459   5.799358
    46  H    9.462008  10.139168   8.100966   7.058398   5.667812
    47  H   11.881695  12.472520  10.525184   9.479080   8.107855
    48  H   10.474489  11.536710   9.090824   8.615736   7.254856
    49  H   16.578879  17.110499  15.220601  14.241824  12.881692
    50  H   17.100357  17.855561  15.704694  14.899567  13.488304
                   16         17         18         19         20
    16  C    0.000000
    17  N    1.400404   0.000000
    18  C    2.324259   1.262610   0.000000
    19  C    1.465178   2.412629   3.596457   0.000000
    20  C    2.590216   3.063251   4.308139   1.351312   0.000000
    21  F    3.083797   2.960070   4.070105   2.402837   1.419276
    22  C    3.784408   4.405724   5.661833   2.348096   1.394757
    23  C    3.872095   4.811888   6.027217   2.456177   2.249069
    24  S    2.709638   3.907420   4.970756   1.731343   2.543764
    25  C    5.259080   6.247939   7.447782   3.894847   3.690973
    26  C    5.969210   7.123108   8.255204   4.741001   4.767119
    27  C    7.254083   8.394742   9.529911   6.021905   5.987385
    28  C    7.997911   9.005956  10.191792   6.674746   6.441608
    29  N    7.588161   8.432635   9.655011   6.201276   5.779696
    30  C    6.314268   7.111863   8.344979   4.906611   4.440584
    31  C    9.455903  10.462418  11.647062   8.137284   7.879334
    32  C   10.335683  11.420397  12.564336   9.090529   8.965673
    33  F   10.105984  11.281574  12.361434   8.973974   9.038604
    34  C   11.661274  12.711687  13.870759  10.389571  10.194959
    35  C   11.959781  12.910203  14.109451  10.617561  10.264205
    36  S   10.595037  11.470124  12.694515   9.206268   8.740437
    37  H   11.643829  11.281105  10.124779  13.085774  14.180230
    38  H   11.297671  10.660795   9.423386  12.749336  13.688185
    39  H    9.232737   8.465565   7.208460  10.667235  11.507839
    40  H    9.993687   9.879106   8.845190  11.390327  12.580384
    41  H    5.277367   4.309886   3.151850   6.572633   7.128048
    42  H    3.401240   3.837281   3.386362   4.707305   5.900152
    43  H    2.163723   3.402089   3.825186   2.830953   4.089331
    44  H    3.269571   1.990255   1.044608   4.402001   4.918518
    45  H    4.719639   5.177282   6.424002   3.333171   2.165067
    46  H    5.511226   6.780225   7.831625   4.448998   4.716548
    47  H    7.916614   9.132710  10.218274   6.776429   6.857500
    48  H    6.307897   6.919989   8.163584   4.898063   4.241991
    49  H   12.567448  13.659165  14.792759  11.339587  11.215450
    50  H   12.918828  13.831113  15.042168  11.556115  11.139672
                   21         22         23         24         25
    21  F    0.000000
    22  C    2.463616   0.000000
    23  C    3.603195   1.379101   0.000000
    24  S    3.906787   2.633504   1.753955   0.000000
    25  C    4.982960   2.564204   1.478541   2.780412   0.000000
    26  C    6.103870   3.763947   2.560609   3.333819   1.379410
    27  C    7.291099   4.879908   3.761336   4.589015   2.376565
    28  C    7.654823   5.192495   4.271516   5.379291   2.795170
    29  N    6.880171   4.474739   3.802859   5.148549   2.479641
    30  C    5.547260   3.153953   2.551736   4.013435   1.479683
    31  C    9.058833   6.600039   5.729531   6.821092   4.255276
    32  C   10.205256   7.742728   6.754126   7.643427   5.281381
    33  F   10.356970   7.931966   6.792713   7.402379   5.385992
    34  C   11.388588   8.927811   8.016516   8.980012   6.537992
    35  C   11.357341   8.935119   8.190718   9.347954   6.736879
    36  S    9.767657   7.385545   6.768537   8.079087   5.370518
    37  H   14.154323  15.420358  15.303508  13.688264  16.459602
    38  H   13.432949  15.007115  15.101907  13.622921  16.374808
    39  H   11.146687  12.857074  13.073544  11.703001  14.409389
    40  H   12.745634  13.737307  13.471896  11.792691  14.539500
    41  H    6.525662   8.522229   9.018979   7.983098  10.467443
    42  H    6.262101   7.002706   6.788432   5.224120   7.959331
    43  H    4.900897   4.903194   4.456752   2.888028   5.529191
    44  H    4.437603   6.274798   6.776271   5.851710   8.206513
    45  H    2.748125   1.061208   2.202866   3.672341   2.962587
    46  H    6.076037   3.975137   2.725575   2.969296   2.102658
    47  H    8.182410   5.823333   4.656373   5.258920   3.365204
    48  H    5.169425   2.980929   2.795360   4.320711   2.214768
    49  H   12.440427   9.976857   9.008433   9.866075   7.534423
    50  H   12.179754   9.790029   9.120939  10.336986   7.686972
                   26         27         28         29         30
    26  C    0.000000
    27  C    1.301966   0.000000
    28  C    2.337426   1.390184   0.000000
    29  N    2.753863   2.405845   1.379138   0.000000
    30  C    2.392290   2.728886   2.344904   1.351692   0.000000
    31  C    3.699903   2.522580   1.462781   2.396603   3.644293
    32  C    4.467771   3.178660   2.567397   3.688065   4.873533
    33  F    4.327444   3.091346   3.052810   4.349916   5.323221
    34  C    5.807743   4.524669   3.754481   4.670239   5.958086
    35  C    6.251538   5.049282   3.985064   4.545930   5.892320
    36  S    5.136564   4.108910   2.835553   3.044866   4.369580
    37  H   16.758351  17.887064  18.843846  18.695051  17.573628
    38  H   16.861271  18.057713  18.915991  18.599346  17.393193
    39  H   15.002246  16.237147  17.038808  16.633660  15.381620
    40  H   14.711776  15.797335  16.817388  16.782649  15.721624
    41  H   11.221728  12.515780  13.240962  12.720755  11.395740
    42  H    8.230976   9.442536  10.462691  10.366816   9.225975
    43  H    5.740115   6.961175   7.997696   7.958898   6.864513
    44  H    9.101443  10.365794  10.946240  10.316379   8.991767
    45  H    4.194674   5.143862   5.236015   4.367204   3.132745
    46  H    1.132786   2.130091   3.384181   3.885425   3.404773
    47  H    2.096710   1.079646   2.104803   3.354600   3.805653
    48  H    3.351635   3.754744   3.246992   2.010990   1.027830
    49  H    6.699324   5.401972   4.790137   5.778774   7.043206
    50  H    7.266224   6.083999   4.980432   5.411762   6.755091
                   31         32         33         34         35
    31  C    0.000000
    32  C    1.360124   0.000000
    33  F    2.380683   1.347625   0.000000
    34  C    2.332679   1.381707   2.367357   0.000000
    35  C    2.555818   2.310758   3.563038   1.367592   0.000000
    36  S    1.758670   2.502237   3.822091   2.504889   1.714861
    37  H   20.180139  20.681916  20.000300  22.025903  22.646369
    38  H   20.307985  20.955694  20.414248  22.298479  22.785134
    39  H   18.461279  19.203837  18.763272  20.542834  20.942860
    40  H   18.118520  18.542970  17.794558  19.887868  20.578835
    41  H   14.702572  15.611333  15.365087  16.931491  17.180798
    42  H   11.856402  12.477442  11.929408  13.854265  14.402953
    43  H    9.391578  10.035193   9.540056  11.411596  11.944449
    44  H   12.395539  13.359900  13.216749  14.641817  14.815472
    45  H    6.548610   7.779148   8.134355   8.868453   8.726743
    46  H    4.649566   5.230314   4.841393   6.596951   7.177140
    47  H    2.707119   2.883108   2.414847   4.234114   5.015715
    48  H    4.405849   5.690891   6.248508   6.668608   6.432962
    49  H    3.423570   2.255210   2.738508   1.154017   2.188709
    50  H    3.582966   3.353355   4.557133   2.233335   1.066126
                   36         37         38         39         40
    36  S    0.000000
    37  H   21.579039   0.000000
    38  H   21.579522   2.447441   0.000000
    39  H   19.652584   4.227586   2.432751   0.000000
    40  H   19.588905   2.460382   4.226470   4.855341   0.000000
    41  H   15.747094   8.443954   7.266296   4.899555   7.758712
    42  H   13.242867   8.815027   8.908201   7.221896   6.937406
    43  H   10.786294  11.233317  11.326509   9.543291   9.265946
    44  H   13.357820  10.049404   9.110347   6.805026   9.006033
    45  H    7.102103  16.336835  15.832526  13.629557  14.708632
    46  H    6.173777  15.983719  16.176273  14.376686  13.884454
    47  H    4.417884  18.177890  18.480751  16.742935  16.011729
    48  H    4.819862  17.638161  17.321652  15.246393  15.888584
    49  H    3.614565  22.660178  23.032123  21.343363  20.475293
    50  H    2.413207  23.672525  23.780862  21.917422  21.620166
                   41         42         43         44         45
    41  H    0.000000
    42  H    4.606748   0.000000
    43  H    6.210973   2.502073   0.000000
    44  H    2.691990   4.238799   4.869622   0.000000
    45  H    9.166415   7.973411   5.922763   6.935978   0.000000
    46  H   10.696716   7.423755   4.936903   8.747167   4.588954
    47  H   13.151524   9.805676   7.353279  11.100436   6.132719
    48  H   11.185249   9.420622   7.170179   8.710320   2.752201
    49  H   17.844786  14.598825  12.183409  15.589630   9.960592
    50  H   18.111335  15.427317  12.967289  15.721176   9.507539
                   46         47         48         49         50
    46  H    0.000000
    47  H    2.491066   0.000000
    48  H    4.285584   4.830396   0.000000
    49  H    7.389184   4.939393   7.782189   0.000000
    50  H    8.208912   6.064035   7.205239   2.683657   0.000000
 Stoichiometry    C27H14F3N3S3
 Framework group  C1[X(C27H14F3N3S3)]
 Deg. of freedom   144
 Full point group                 C1      NOp   1
 Largest Abelian subgroup         C1      NOp   1
 Largest concise Abelian subgroup C1      NOp   1
                         Standard orientation:                         
 ---------------------------------------------------------------------
 Center     Atomic      Atomic             Coordinates (Angstroms)
 Number     Number       Type             X           Y           Z
 ---------------------------------------------------------------------
      1          6           0      -10.673522    2.766991   -0.475164
      2          6           0      -10.861682    1.439311   -0.784141
      3          6           0       -9.749664    0.575228   -0.657648
      4          6           0       -8.498442    1.012971   -0.220441
      5          7           0       -8.408043    2.353569    0.076368
      6          6           0       -9.479423    3.106179    0.002739
      7          6           0       -7.360834    0.167197   -0.112296
      8          6           0       -7.253134   -1.127657    0.101972
      9          9           0       -8.347173   -2.031019    0.164215
     10          6           0       -5.897540   -1.689503    0.227172
     11          6           0       -4.998385   -0.693407    0.161731
     12         16           0       -5.818346    0.885656   -0.066905
     13          6           0       -3.586129   -0.750432    0.216967
     14          6           0       -2.773978    0.188550    0.837948
     15          6           0       -1.336567    0.017901    0.895267
     16          6           0       -0.742618   -1.008940    0.265798
     17          7           0       -1.559331   -1.948301   -0.375851
     18          6           0       -2.814756   -1.817738   -0.408197
     19          6           0        0.687704   -1.325877    0.243988
     20          6           0        1.388625   -2.481022    0.263895
     21          9           0        0.711622   -3.728247    0.284891
     22          6           0        2.780306   -2.391039    0.242160
     23          6           0        3.129090   -1.056775    0.239091
     24         16           0        1.756985    0.035206    0.203520
     25          6           0        4.488988   -0.480389    0.171697
     26          6           0        4.972513    0.602065    0.876870
     27          6           0        6.191421    1.053455    0.801861
     28          6           0        7.114003    0.454440   -0.048218
     29          7           0        6.759180   -0.636716   -0.813398
     30          6           0        5.493676   -1.102192   -0.719046
     31          6           0        8.521387    0.842113   -0.141538
     32          6           0        9.134607    2.030928    0.104667
     33          9           0        8.477248    3.119465    0.550830
     34          6           0       10.491221    2.091541   -0.150359
     35          6           0       11.019409    0.943177   -0.672457
     36         16           0        9.776671   -0.236796   -0.735791
     37          1           0      -11.493085    3.396454   -0.507973
     38          1           0      -11.760464    1.049983   -1.150274
     39          1           0       -9.872665   -0.477098   -1.000230
     40          1           0       -9.282797    4.181260    0.235119
     41          1           0       -5.734781   -2.717456    0.365185
     42          1           0       -3.230820    1.003117    1.418581
     43          1           0       -0.736318    0.809608    1.438205
     44          1           0       -3.382705   -2.522538   -0.929633
     45          1           0        3.415840   -3.240897    0.241494
     46          1           0        4.191489    1.093432    1.533958
     47          1           0        6.530946    1.926590    1.338511
     48          1           0        5.300827   -1.939022   -1.283812
     49          1           0       11.158256    3.020950    0.001357
     50          1           0       12.015749    0.646459   -0.908870
 ---------------------------------------------------------------------
 Rotational constants (GHZ):           0.3182660           0.0204587           0.0194052
 Leave Link  202 at Sat Jul 25 04:30:32 2020, MaxMem=  4026531840 cpu:               0.1 elap:               0.0
 (Enter /opt/ohpc/pub/libs/gaussian/g16-A.03/sandybridge/g16/l301.exe)
 Standard basis: CC-pVDZ (5D, 7F)
 Ernie: Thresh=  0.10000D-02 Tol=  0.10000D-05 Strict=F.
 Ernie:  96 primitive shells out of 946 were deleted.
 There are   622 symmetry adapted cartesian basis functions of A   symmetry.
 There are   586 symmetry adapted basis functions of A   symmetry.
   586 basis functions,  1400 primitive gaussians,   622 cartesian basis functions
   136 alpha electrons      136 beta electrons
       nuclear repulsion energy      3632.3541068838 Hartrees.
 IExCor=32609 DFT=T Ex+Corr=LC-wPBE ExCW=0 ScaHFX=  1.000000
 ScaDFX=  1.000000  0.000000  1.000000  1.000000 ScalE2=  1.000000  1.000000
 IRadAn=      5 IRanWt=     -1 IRanGd=            0 ICorTp=0 IEmpDi=  4
 HFx  wShort=  0.000000 wLong=  0.366800 cFull=  0.000000 cShort=  0.000000 cLong=  1.000000
 DFx  wShort=  0.000000 wLong=  0.366800 cFull=  0.000000 cShort=  0.000000 cLong=  1.000000
 NAtoms=   50 NActive=   50 NUniq=   50 SFac= 1.00D+00 NAtFMM=   60 NAOKFM=F Big=F
 Integral buffers will be    131072 words long.
 Raffenetti 2 integral format.
 Two-electron integral symmetry is turned on.
 Leave Link  301 at Sat Jul 25 04:30:32 2020, MaxMem=  4026531840 cpu:               0.6 elap:               0.1
 (Enter /opt/ohpc/pub/libs/gaussian/g16-A.03/sandybridge/g16/l302.exe)
 NPDir=0 NMtPBC=     1 NCelOv=     1 NCel=       1 NClECP=     1 NCelD=      1
         NCelK=      1 NCelE2=     1 NClLst=     1 CellRange=     0.0.
 One-electron integrals computed using PRISM.
 One-electron integral symmetry used in STVInt
 NBasis=   586 RedAO= T EigKep=  3.58D-04  NBF=   586
 NBsUse=   586 1.00D-06 EigRej= -1.00D+00 NBFU=   586
 Precomputing XC quadrature grid using
 IXCGrd= 4 IRadAn=           5 IRanWt=          -1 IRanGd=           0 AccXCQ= 0.00D+00.
 Generated NRdTot=       0 NPtTot=           0 NUsed=           0 NTot=          32
 NSgBfM=   541   541   541   541   541 MxSgAt=    50 MxSgA2=    50.
 Leave Link  302 at Sat Jul 25 04:30:33 2020, MaxMem=  4026531840 cpu:               8.8 elap:               1.1
 (Enter /opt/ohpc/pub/libs/gaussian/g16-A.03/sandybridge/g16/l303.exe)
 DipDrv:  MaxL=1.
 Leave Link  303 at Sat Jul 25 04:30:33 2020, MaxMem=  4026531840 cpu:               0.9 elap:               0.2
 (Enter /opt/ohpc/pub/libs/gaussian/g16-A.03/sandybridge/g16/l401.exe)
 ExpMin= 1.22D-01 ExpMax= 1.11D+05 ExpMxC= 1.07D+03 IAcc=3 IRadAn=         5 AccDes= 0.00D+00
 Harris functional with IExCor=32609 and IRadAn=       5 diagonalized for initial guess.
 HarFok:  IExCor=32609 AccDes= 0.00D+00 IRadAn=         5 IDoV= 1 UseB2=F ITyADJ=14
 ICtDFT=  3500011 ScaDFX=  1.000000  1.000000  1.000000  1.000000
 FoFCou: FMM=F IPFlag=           0 FMFlag=      100000 FMFlg1=           0
         NFxFlg=           0 DoJE=T BraDBF=F KetDBF=T FulRan=T
         wScrn=  0.000000 ICntrl=       500 IOpCl=  0 I1Cent=   200000004 NGrid=           0
         NMat0=    1 NMatS0=      1 NMatT0=    0 NMatD0=    1 NMtDS0=    0 NMtDT0=    0
 Petite list used in FoFCou.
 Harris En= -2693.84438417144    
 JPrj=0 DoOrth=F DoCkMO=F.
 Initial guess <Sx>= 0.0000 <Sy>= 0.0000 <Sz>= 0.0000 <S**2>=-0.0000 S=-0.0000
 Leave Link  401 at Sat Jul 25 04:30:38 2020, MaxMem=  4026531840 cpu:              39.2 elap:               4.9
 (Enter /opt/ohpc/pub/libs/gaussian/g16-A.03/sandybridge/g16/l502.exe)
 Integral symmetry usage will be decided dynamically.
 UHF open shell SCF:
 Using DIIS extrapolation, IDIIS=  1040.
 NGot=  4026531840 LenX=  4025746892 LenY=  4025359386
 Requested convergence on RMS density matrix=1.00D-08 within 128 cycles.
 Requested convergence on MAX density matrix=1.00D-06.
 Requested convergence on             energy=1.00D-06.
 No special actions if energy rises.
 Fock matrices will be formed incrementally for  20 cycles.
 Integral accuracy reduced to 1.0D-05 until final iterations.

 Cycle   1  Pass 0  IDiag  1:
 FoFJK:  IHMeth= 1 ICntrl=       0 DoSepK=T KAlg= 0 I1Cent=           0 FoldK=F
 IRaf=         1 NMat=       1 IRICut=       1 DoRegI=T DoRafI=F ISym2E= 0 IDoP0=0 IntGTp=1.
 FoFCou: FMM=F IPFlag=           0 FMFlag=      100000 FMFlg1=           0
         NFxFlg=           0 DoJE=T BraDBF=F KetDBF=F FulRan=T
         wScrn=  0.000000 ICntrl=       500 IOpCl=  0 I1Cent=           0 NGrid=           0
         NMat0=    1 NMatS0=      1 NMatT0=    0 NMatD0=    1 NMtDS0=    0 NMtDT0=    0
 Symmetry not used in FoFCou.
 E= -2693.51362501171    
 DIIS: error= 1.52D-02 at cycle   1 NSaved=   1.
 NSaved= 1 IEnMin= 1 EnMin= -2693.51362501171     IErMin= 1 ErrMin= 1.52D-02
 ErrMax= 1.52D-02  0.00D+00 EMaxC= 1.00D-01 BMatC= 2.32D+00 BMatP= 2.32D+00
 IDIUse=3 WtCom= 8.48D-01 WtEn= 1.52D-01
 Coeff-Com:  0.100D+01
 Coeff-En:   0.100D+01
 Coeff:      0.100D+01
 Gap=     0.375 Goal=   None    Shift=    0.000
 Gap=     0.375 Goal=   None    Shift=    0.000
 GapD=    0.375 DampG=1.000 DampE=0.500 DampFc=0.5000 IDamp=-1.
 Damping current iteration by 5.00D-01
 RMSDP=2.74D-03 MaxDP=1.43D-01              OVMax= 1.55D-01

 Cycle   2  Pass 0  IDiag  1:
 RMSU=  1.36D-03    CP:  9.89D-01
 E= -2693.86217634281     Delta-E=       -0.348551331097 Rises=F Damp=T
 DIIS: error= 4.34D-03 at cycle   2 NSaved=   2.
 NSaved= 2 IEnMin= 2 EnMin= -2693.86217634281     IErMin= 2 ErrMin= 4.34D-03
 ErrMax= 4.34D-03  0.00D+00 EMaxC= 1.00D-01 BMatC= 1.31D-01 BMatP= 2.32D+00
 IDIUse=3 WtCom= 9.57D-01 WtEn= 4.34D-02
 Coeff-Com: -0.119D+00 0.112D+01
 Coeff-En:   0.000D+00 0.100D+01
 Coeff:     -0.114D+00 0.111D+01
 Gap=     0.283 Goal=   None    Shift=    0.000
 Gap=     0.283 Goal=   None    Shift=    0.000
 RMSDP=8.85D-04 MaxDP=2.76D-02 DE=-3.49D-01 OVMax= 1.09D-01

 Cycle   3  Pass 0  IDiag  1:
 RMSU=  7.70D-04    CP:  9.80D-01  1.31D+00
 E= -2694.17627903367     Delta-E=       -0.314102690868 Rises=F Damp=F
 DIIS: error= 1.88D-03 at cycle   3 NSaved=   3.
 NSaved= 3 IEnMin= 3 EnMin= -2694.17627903367     IErMin= 3 ErrMin= 1.88D-03
 ErrMax= 1.88D-03  0.00D+00 EMaxC= 1.00D-01 BMatC= 2.70D-02 BMatP= 1.31D-01
 IDIUse=3 WtCom= 9.81D-01 WtEn= 1.88D-02
 Coeff-Com: -0.550D-01 0.327D+00 0.728D+00
 Coeff-En:   0.000D+00 0.000D+00 0.100D+01
 Coeff:     -0.539D-01 0.320D+00 0.733D+00
 Gap=     0.281 Goal=   None    Shift=    0.000
 Gap=     0.281 Goal=   None    Shift=    0.000
 RMSDP=2.33D-04 MaxDP=1.03D-02 DE=-3.14D-01 OVMax= 2.75D-02

 Cycle   4  Pass 0  IDiag  1:
 RMSU=  2.18D-04    CP:  9.80D-01  1.34D+00  9.12D-01
 E= -2694.18320123603     Delta-E=       -0.006922202356 Rises=F Damp=F
 DIIS: error= 1.38D-03 at cycle   4 NSaved=   4.
 NSaved= 4 IEnMin= 4 EnMin= -2694.18320123603     IErMin= 4 ErrMin= 1.38D-03
 ErrMax= 1.38D-03  0.00D+00 EMaxC= 1.00D-01 BMatC= 7.85D-03 BMatP= 2.70D-02
 IDIUse=3 WtCom= 9.86D-01 WtEn= 1.38D-02
 Coeff-Com: -0.315D-02 0.633D-02 0.335D+00 0.661D+00
 Coeff-En:   0.000D+00 0.000D+00 0.202D-01 0.980D+00
 Coeff:     -0.311D-02 0.624D-02 0.331D+00 0.666D+00
 Gap=     0.284 Goal=   None    Shift=    0.000
 Gap=     0.284 Goal=   None    Shift=    0.000
 RMSDP=9.61D-05 MaxDP=5.57D-03 DE=-6.92D-03 OVMax= 1.05D-02

 Cycle   5  Pass 0  IDiag  1:
 RMSU=  7.29D-05    CP:  9.80D-01  1.34D+00  9.86D-01  8.83D-01
 E= -2694.18565034233     Delta-E=       -0.002449106299 Rises=F Damp=F
 DIIS: error= 2.98D-04 at cycle   5 NSaved=   5.
 NSaved= 5 IEnMin= 5 EnMin= -2694.18565034233     IErMin= 5 ErrMin= 2.98D-04
 ErrMax= 2.98D-04  0.00D+00 EMaxC= 1.00D-01 BMatC= 6.07D-04 BMatP= 7.85D-03
 IDIUse=3 WtCom= 9.97D-01 WtEn= 2.98D-03
 Coeff-Com:  0.970D-02-0.453D-01-0.352D-02 0.170D+00 0.869D+00
 Coeff-En:   0.000D+00 0.000D+00 0.000D+00 0.000D+00 0.100D+01
 Coeff:      0.967D-02-0.451D-01-0.351D-02 0.169D+00 0.870D+00
 Gap=     0.286 Goal=   None    Shift=    0.000
 Gap=     0.286 Goal=   None    Shift=    0.000
 RMSDP=4.78D-05 MaxDP=2.56D-03 DE=-2.45D-03 OVMax= 7.31D-03

 Cycle   6  Pass 0  IDiag  1:
 RMSU=  3.28D-05    CP:  9.79D-01  1.34D+00  1.01D+00  1.00D+00  1.19D+00
 E= -2694.18604295023     Delta-E=       -0.000392607905 Rises=F Damp=F
 DIIS: error= 1.63D-04 at cycle   6 NSaved=   6.
 NSaved= 6 IEnMin= 6 EnMin= -2694.18604295023     IErMin= 6 ErrMin= 1.63D-04
 ErrMax= 1.63D-04  0.00D+00 EMaxC= 1.00D-01 BMatC= 1.53D-04 BMatP= 6.07D-04
 IDIUse=3 WtCom= 9.98D-01 WtEn= 1.63D-03
 Coeff-Com:  0.521D-02-0.208D-01-0.533D-01-0.398D-01 0.321D+00 0.787D+00
 Coeff-En:   0.000D+00 0.000D+00 0.000D+00 0.000D+00 0.000D+00 0.100D+01
 Coeff:      0.520D-02-0.207D-01-0.532D-01-0.398D-01 0.321D+00 0.788D+00
 Gap=     0.287 Goal=   None    Shift=    0.000
 Gap=     0.287 Goal=   None    Shift=    0.000
 RMSDP=2.45D-05 MaxDP=1.37D-03 DE=-3.93D-04 OVMax= 4.01D-03

 Cycle   7  Pass 0  IDiag  1:
 RMSU=  1.54D-05    CP:  9.79D-01  1.34D+00  1.02D+00  1.04D+00  1.39D+00
                    CP:  1.09D+00
 E= -2694.18615413220     Delta-E=       -0.000111181970 Rises=F Damp=F
 DIIS: error= 7.02D-05 at cycle   7 NSaved=   7.
 NSaved= 7 IEnMin= 7 EnMin= -2694.18615413220     IErMin= 7 ErrMin= 7.02D-05
 ErrMax= 7.02D-05  0.00D+00 EMaxC= 1.00D-01 BMatC= 3.33D-05 BMatP= 1.53D-04
 IDIUse=1 WtCom= 1.00D+00 WtEn= 0.00D+00
 Coeff-Com: -0.419D-03 0.401D-02-0.130D-01-0.522D-01-0.142D+00 0.261D+00
 Coeff-Com:  0.942D+00
 Coeff:     -0.419D-03 0.401D-02-0.130D-01-0.522D-01-0.142D+00 0.261D+00
 Coeff:      0.942D+00
 Gap=     0.287 Goal=   None    Shift=    0.000
 Gap=     0.287 Goal=   None    Shift=    0.000
 RMSDP=1.56D-05 MaxDP=8.20D-04 DE=-1.11D-04 OVMax= 2.47D-03

 Cycle   8  Pass 0  IDiag  1:
 RMSU=  6.39D-06    CP:  9.79D-01  1.34D+00  1.02D+00  1.07D+00  1.49D+00
                    CP:  1.39D+00  1.22D+00
 E= -2694.18618267003     Delta-E=       -0.000028537831 Rises=F Damp=F
 DIIS: error= 2.52D-05 at cycle   8 NSaved=   8.
 NSaved= 8 IEnMin= 8 EnMin= -2694.18618267003     IErMin= 8 ErrMin= 2.52D-05
 ErrMax= 2.52D-05  0.00D+00 EMaxC= 1.00D-01 BMatC= 5.99D-06 BMatP= 3.33D-05
 IDIUse=1 WtCom= 1.00D+00 WtEn= 0.00D+00
 Coeff-Com: -0.714D-03 0.414D-02 0.171D-02-0.167D-01-0.105D+00 0.594D-02
 Coeff-Com:  0.386D+00 0.725D+00
 Coeff:     -0.714D-03 0.414D-02 0.171D-02-0.167D-01-0.105D+00 0.594D-02
 Coeff:      0.386D+00 0.725D+00
 Gap=     0.287 Goal=   None    Shift=    0.000
 Gap=     0.287 Goal=   None    Shift=    0.000
 RMSDP=4.82D-06 MaxDP=2.43D-04 DE=-2.85D-05 OVMax= 7.23D-04

 Initial convergence to 1.0D-05 achieved.  Increase integral accuracy.
 Cycle   9  Pass 1  IDiag  1:
 E= -2694.18574279879     Delta-E=        0.000439871246 Rises=F Damp=F
 DIIS: error= 1.26D-04 at cycle   1 NSaved=   1.
 NSaved= 1 IEnMin= 1 EnMin= -2694.18574279879     IErMin= 1 ErrMin= 1.26D-04
 ErrMax= 1.26D-04  0.00D+00 EMaxC= 1.00D-01 BMatC= 2.94D-05 BMatP= 2.94D-05
 IDIUse=3 WtCom= 9.99D-01 WtEn= 1.26D-03
 Coeff-Com:  0.100D+01
 Coeff-En:   0.100D+01
 Coeff:      0.100D+01
 Gap=     0.287 Goal=   None    Shift=    0.000
 Gap=     0.287 Goal=   None    Shift=    0.000
 RMSDP=4.82D-06 MaxDP=2.43D-04 DE= 4.40D-04 OVMax= 2.46D-04

 Cycle  10  Pass 1  IDiag  1:
 RMSU=  7.58D-05    CP:  1.00D+00
 E= -2694.18574832975     Delta-E=       -0.000005530967 Rises=F Damp=F
 DIIS: error= 1.18D-05 at cycle   2 NSaved=   2.
 NSaved= 2 IEnMin= 2 EnMin= -2694.18574832975     IErMin= 2 ErrMin= 1.18D-05
 ErrMax= 1.18D-05  0.00D+00 EMaxC= 1.00D-01 BMatC= 8.53D-07 BMatP= 2.94D-05
 IDIUse=1 WtCom= 1.00D+00 WtEn= 0.00D+00
 Coeff-Com:  0.130D-01 0.987D+00
 Coeff:      0.130D-01 0.987D+00
 Gap=     0.287 Goal=   None    Shift=    0.000
 Gap=     0.287 Goal=   None    Shift=    0.000
 RMSDP=4.14D-06 MaxDP=1.56D-04 DE=-5.53D-06 OVMax= 1.80D-04

 Cycle  11  Pass 1  IDiag  1:
 RMSU=  2.06D-06    CP:  1.00D+00  1.05D+00
 E= -2694.18574832988     Delta-E=       -0.000000000126 Rises=F Damp=F
 DIIS: error= 1.46D-05 at cycle   3 NSaved=   3.
 NSaved= 3 IEnMin= 3 EnMin= -2694.18574832988     IErMin= 2 ErrMin= 1.18D-05
 ErrMax= 1.46D-05  0.00D+00 EMaxC= 1.00D-01 BMatC= 1.20D-06 BMatP= 8.53D-07
 IDIUse=1 WtCom= 1.00D+00 WtEn= 0.00D+00
 Coeff-Com: -0.208D-01 0.554D+00 0.467D+00
 Coeff:     -0.208D-01 0.554D+00 0.467D+00
 Gap=     0.287 Goal=   None    Shift=    0.000
 Gap=     0.287 Goal=   None    Shift=    0.000
 RMSDP=9.94D-07 MaxDP=5.71D-05 DE=-1.26D-10 OVMax= 9.25D-05

 Cycle  12  Pass 1  IDiag  1:
 RMSU=  7.26D-07    CP:  1.00D+00  1.05D+00  6.96D-01
 E= -2694.18574861264     Delta-E=       -0.000000282758 Rises=F Damp=F
 DIIS: error= 1.72D-06 at cycle   4 NSaved=   4.
 NSaved= 4 IEnMin= 4 EnMin= -2694.18574861264     IErMin= 4 ErrMin= 1.72D-06
 ErrMax= 1.72D-06  0.00D+00 EMaxC= 1.00D-01 BMatC= 1.58D-08 BMatP= 8.53D-07
 IDIUse=1 WtCom= 1.00D+00 WtEn= 0.00D+00
 Coeff-Com: -0.221D-02 0.671D-02 0.380D-01 0.958D+00
 Coeff:     -0.221D-02 0.671D-02 0.380D-01 0.958D+00
 Gap=     0.287 Goal=   None    Shift=    0.000
 Gap=     0.287 Goal=   None    Shift=    0.000
 RMSDP=3.08D-07 MaxDP=1.43D-05 DE=-2.83D-07 OVMax= 4.30D-05

 Cycle  13  Pass 1  IDiag  1:
 RMSU=  2.23D-07    CP:  1.00D+00  1.05D+00  7.61D-01  1.20D+00
 E= -2694.18574863564     Delta-E=       -0.000000023004 Rises=F Damp=F
 DIIS: error= 9.63D-07 at cycle   5 NSaved=   5.
 NSaved= 5 IEnMin= 5 EnMin= -2694.18574863564     IErMin= 5 ErrMin= 9.63D-07
 ErrMax= 9.63D-07  0.00D+00 EMaxC= 1.00D-01 BMatC= 7.39D-09 BMatP= 1.58D-08
 IDIUse=1 WtCom= 1.00D+00 WtEn= 0.00D+00
 Coeff-Com:  0.702D-02-0.213D+00-0.165D+00 0.439D+00 0.932D+00
 Coeff:      0.702D-02-0.213D+00-0.165D+00 0.439D+00 0.932D+00
 Gap=     0.287 Goal=   None    Shift=    0.000
 Gap=     0.287 Goal=   None    Shift=    0.000
 RMSDP=2.53D-07 MaxDP=1.13D-05 DE=-2.30D-08 OVMax= 3.74D-05

 Cycle  14  Pass 1  IDiag  1:
 RMSU=  1.43D-07    CP:  1.00D+00  1.05D+00  7.97D-01  1.41D+00  1.51D+00
 E= -2694.18574864264     Delta-E=       -0.000000006994 Rises=F Damp=F
 DIIS: error= 4.75D-07 at cycle   6 NSaved=   6.
 NSaved= 6 IEnMin= 6 EnMin= -2694.18574864264     IErMin= 6 ErrMin= 4.75D-07
 ErrMax= 4.75D-07  0.00D+00 EMaxC= 1.00D-01 BMatC= 8.17D-10 BMatP= 7.39D-09
 IDIUse=1 WtCom= 1.00D+00 WtEn= 0.00D+00
 Coeff-Com:  0.236D-02-0.637D-01-0.546D-01-0.224D-02 0.300D+00 0.819D+00
 Coeff:      0.236D-02-0.637D-01-0.546D-01-0.224D-02 0.300D+00 0.819D+00
 Gap=     0.287 Goal=   None    Shift=    0.000
 Gap=     0.287 Goal=   None    Shift=    0.000
 RMSDP=7.06D-08 MaxDP=3.00D-06 DE=-6.99D-09 OVMax= 1.05D-05

 Cycle  15  Pass 1  IDiag  1:
 RMSU=  3.49D-08    CP:  1.00D+00  1.05D+00  8.01D-01  1.44D+00  1.74D+00
                    CP:  1.14D+00
 E= -2694.18574864335     Delta-E=       -0.000000000708 Rises=F Damp=F
 DIIS: error= 2.86D-07 at cycle   7 NSaved=   7.
 NSaved= 7 IEnMin= 7 EnMin= -2694.18574864335     IErMin= 7 ErrMin= 2.86D-07
 ErrMax= 2.86D-07  0.00D+00 EMaxC= 1.00D-01 BMatC= 1.84D-10 BMatP= 8.17D-10
 IDIUse=1 WtCom= 1.00D+00 WtEn= 0.00D+00
 Coeff-Com: -0.450D-03 0.170D-01 0.106D-01-0.964D-01-0.622D-01 0.354D+00
 Coeff-Com:  0.777D+00
 Coeff:     -0.450D-03 0.170D-01 0.106D-01-0.964D-01-0.622D-01 0.354D+00
 Coeff:      0.777D+00
 Gap=     0.287 Goal=   None    Shift=    0.000
 Gap=     0.287 Goal=   None    Shift=    0.000
 RMSDP=3.00D-08 MaxDP=1.28D-06 DE=-7.08D-10 OVMax= 4.00D-06

 Cycle  16  Pass 1  IDiag  1:
 RMSU=  1.43D-08    CP:  1.00D+00  1.05D+00  8.01D-01  1.45D+00  1.83D+00
                    CP:  1.25D+00  9.47D-01
 E= -2694.18574864347     Delta-E=       -0.000000000129 Rises=F Damp=F
 DIIS: error= 5.81D-08 at cycle   8 NSaved=   8.
 NSaved= 8 IEnMin= 8 EnMin= -2694.18574864347     IErMin= 8 ErrMin= 5.81D-08
 ErrMax= 5.81D-08  0.00D+00 EMaxC= 1.00D-01 BMatC= 1.25D-11 BMatP= 1.84D-10
 IDIUse=1 WtCom= 1.00D+00 WtEn= 0.00D+00
 Coeff-Com: -0.307D-03 0.981D-02 0.703D-02-0.315D-01-0.407D-01 0.536D-01
 Coeff-Com:  0.235D+00 0.767D+00
 Coeff:     -0.307D-03 0.981D-02 0.703D-02-0.315D-01-0.407D-01 0.536D-01
 Coeff:      0.235D+00 0.767D+00
 Gap=     0.287 Goal=   None    Shift=    0.000
 Gap=     0.287 Goal=   None    Shift=    0.000
 RMSDP=6.72D-09 MaxDP=2.31D-07 DE=-1.29D-10 OVMax= 1.06D-06

 SCF Done:  E(ULC-wPBE) =  -2694.18574864     A.U. after   16 cycles
            NFock= 16  Conv=0.67D-08     -V/T= 2.0043
 <Sx>= 0.0000 <Sy>= 0.0000 <Sz>= 0.0000 <S**2>=-0.0000 S=-0.0000
 <L.S>= 0.000000000000E+00
 KE= 2.682552880641D+03 PE=-1.360506607746D+04 EE= 4.595973341294D+03
 Annihilation of the first spin contaminant:
 S**2 before annihilation    -0.0000,   after    -0.0000
 Leave Link  502 at Sat Jul 25 04:36:35 2020, MaxMem=  4026531840 cpu:            2842.3 elap:             356.6
 (Enter /opt/ohpc/pub/libs/gaussian/g16-A.03/sandybridge/g16/l601.exe)
 Copying SCF densities to generalized density rwf, IOpCl= 1 IROHF=0.

 **********************************************************************

            Population analysis using the SCF density.

 **********************************************************************

 Orbital symmetries:
 Alpha Orbitals:
       Occupied  (A) (A) (A) (A) (A) (A) (A) (A) (A) (A) (A) (A)
                 (A) (A) (A) (A) (A) (A) (A) (A) (A) (A) (A) (A)
                 (A) (A) (A) (A) (A) (A) (A) (A) (A) (A) (A) (A)
                 (A) (A) (A) (A) (A) (A) (A) (A) (A) (A) (A) (A)
                 (A) (A) (A) (A) (A) (A) (A) (A) (A) (A) (A) (A)
[...]
    41   Atom        0.000000     -0.000000      0.000000
    42   Atom        0.000000     -0.000000      0.000000
    43   Atom        0.000000     -0.000000      0.000000
    44   Atom        0.000000     -0.000000     -0.000000
    45   Atom        0.000000     -0.000000      0.000000
    46   Atom        0.000000     -0.000000     -0.000000
    47   Atom       -0.000000      0.000000      0.000000
    48   Atom        0.000000     -0.000000      0.000000
    49   Atom       -0.000000      0.000000      0.000000
    50   Atom        0.000000      0.000000     -0.000000
 --------------------------------------------------------
                        XY            XZ            YZ
 --------------------------------------------------------
     1   Atom       -0.000000      0.000000     -0.000000
     2   Atom       -0.000000      0.000000     -0.000000
     3   Atom       -0.000000      0.000000      0.000000
     4   Atom        0.000000     -0.000000      0.000000
     5   Atom       -0.000000     -0.000000     -0.000000
     6   Atom        0.000000     -0.000000     -0.000000
     7   Atom        0.000000     -0.000000     -0.000000
     8   Atom       -0.000000      0.000000      0.000000
     9   Atom       -0.000000     -0.000000     -0.000000
    10   Atom        0.000000     -0.000000     -0.000000
    11   Atom        0.000000     -0.000000      0.000000
    12   Atom       -0.000000      0.000000     -0.000000
    13   Atom        0.000000      0.000000      0.000000
    14   Atom        0.000000      0.000000     -0.000000
    15   Atom       -0.000000     -0.000000     -0.000000
    16   Atom        0.000000      0.000000     -0.000000
    17   Atom        0.000000      0.000000      0.000000
    18   Atom        0.000000      0.000000     -0.000000
    19   Atom       -0.000000      0.000000     -0.000000
    20   Atom        0.000000      0.000000      0.000000
    21   Atom        0.000000      0.000000     -0.000000
    22   Atom       -0.000000      0.000000      0.000000
    23   Atom        0.000000     -0.000000     -0.000000
    24   Atom        0.000000      0.000000      0.000000
    25   Atom       -0.000000     -0.000000     -0.000000
    26   Atom       -0.000000      0.000000     -0.000000
    27   Atom       -0.000000     -0.000000      0.000000
    28   Atom       -0.000000     -0.000000      0.000000
    29   Atom       -0.000000      0.000000     -0.000000
    30   Atom       -0.000000     -0.000000      0.000000
    31   Atom       -0.000000     -0.000000     -0.000000
    32   Atom       -0.000000     -0.000000      0.000000
    33   Atom        0.000000     -0.000000      0.000000
    34   Atom        0.000000      0.000000     -0.000000
    35   Atom       -0.000000     -0.000000      0.000000
    36   Atom        0.000000     -0.000000      0.000000
    37   Atom       -0.000000      0.000000     -0.000000
    38   Atom        0.000000     -0.000000     -0.000000
    39   Atom        0.000000     -0.000000      0.000000
    40   Atom       -0.000000      0.000000     -0.000000
    41   Atom        0.000000     -0.000000      0.000000
    42   Atom        0.000000      0.000000     -0.000000
    43   Atom       -0.000000     -0.000000     -0.000000
    44   Atom       -0.000000      0.000000     -0.000000
    45   Atom        0.000000      0.000000      0.000000
    46   Atom       -0.000000     -0.000000      0.000000
    47   Atom       -0.000000      0.000000     -0.000000
    48   Atom       -0.000000     -0.000000     -0.000000
    49   Atom        0.000000      0.000000      0.000000
    50   Atom        0.000000      0.000000     -0.000000
 --------------------------------------------------------


 ---------------------------------------------------------------------------------
              Anisotropic Spin Dipole Couplings in Principal Axis System
 ---------------------------------------------------------------------------------

       Atom             a.u.   MegaHertz   Gauss  10(-4) cm-1        Axes

              Baa    -0.0000    -0.000    -0.000    -0.000  0.0133  0.2926  0.9561
     1 C(13)  Bbb    -0.0000    -0.000    -0.000    -0.000  0.9537  0.2836 -0.1001
              Bcc     0.0000     0.000     0.000     0.000 -0.3004  0.9132 -0.2753
 
              Baa    -0.0000    -0.000    -0.000    -0.000 -0.0028  0.0932  0.9956
     2 C(13)  Bbb     0.0000     0.000     0.000     0.000  0.1676  0.9816 -0.0914
              Bcc     0.0000     0.000     0.000     0.000  0.9859 -0.1666  0.0183
 
              Baa    -0.0000    -0.000    -0.000    -0.000  0.4707  0.8685 -0.1553
     3 C(13)  Bbb     0.0000     0.000     0.000     0.000 -0.1536  0.2540  0.9549
              Bcc     0.0000     0.000     0.000     0.000  0.8688 -0.4256  0.2530
 
              Baa    -0.0000    -0.000    -0.000    -0.000 -0.5547  0.7527 -0.3546
     4 C(13)  Bbb     0.0000     0.000     0.000     0.000  0.1261  0.4973  0.8584
              Bcc     0.0000     0.000     0.000     0.000  0.8224  0.4315 -0.3707
 
              Baa    -0.0000    -0.000    -0.000    -0.000  0.2415  0.0567  0.9687
     5 N(14)  Bbb     0.0000     0.000     0.000     0.000  0.9701 -0.0399 -0.2395
              Bcc     0.0000     0.000     0.000     0.000  0.0250  0.9976 -0.0646
 
              Baa    -0.0000    -0.000    -0.000    -0.000  0.3397  0.1527  0.9281
     6 C(13)  Bbb    -0.0000    -0.000    -0.000    -0.000  0.7209 -0.6760 -0.1527
              Bcc     0.0000     0.000     0.000     0.000  0.6040  0.7209 -0.3397
 
              Baa    -0.0000    -0.000    -0.000    -0.000  0.0124  0.0227  0.9997
     7 C(13)  Bbb     0.0000     0.000     0.000     0.000 -0.0286  0.9993 -0.0223
              Bcc     0.0000     0.000     0.000     0.000  0.9995  0.0283 -0.0131
 
              Baa    -0.0000    -0.000    -0.000    -0.000  0.1786  0.9257 -0.3333
     8 C(13)  Bbb    -0.0000    -0.000    -0.000    -0.000  0.9822 -0.1875  0.0055
              Bcc     0.0000     0.000     0.000     0.000  0.0574  0.3284  0.9428
 
              Baa    -0.0000    -0.000    -0.000    -0.000  0.4619  0.2352  0.8551
     9 F(19)  Bbb    -0.0000    -0.000    -0.000    -0.000  0.8820 -0.0202 -0.4709
              Bcc     0.0000     0.000     0.000     0.000 -0.0935  0.9717 -0.2168
 
              Baa    -0.0000    -0.000    -0.000    -0.000  0.7615 -0.6420  0.0889
    10 C(13)  Bbb     0.0000     0.000     0.000     0.000  0.5695  0.7283  0.3810
              Bcc     0.0000     0.000     0.000     0.000 -0.3094 -0.2395  0.9203
 
              Baa    -0.0000    -0.000    -0.000    -0.000  0.0334 -0.0612  0.9976
    11 C(13)  Bbb    -0.0000    -0.000    -0.000    -0.000 -0.4098  0.9095  0.0696
              Bcc     0.0000     0.000     0.000     0.000  0.9116  0.4111 -0.0053
 
              Baa    -0.0000    -0.000    -0.000    -0.000  0.0090  0.9703  0.2419
    12 S(33)  Bbb    -0.0000    -0.000    -0.000    -0.000 -0.4906 -0.2065  0.8465
              Bcc     0.0000     0.000     0.000     0.000  0.8713 -0.1263  0.4742
 
              Baa    -0.0000    -0.000    -0.000    -0.000 -0.2081 -0.3315  0.9202
    13 C(13)  Bbb    -0.0000    -0.000    -0.000    -0.000  0.9691 -0.1976  0.1480
              Bcc     0.0000     0.000     0.000     0.000  0.1328  0.9225  0.3624
 
              Baa    -0.0000    -0.000    -0.000    -0.000  0.9336 -0.3362 -0.1239
    14 C(13)  Bbb     0.0000     0.000     0.000     0.000  0.3287  0.9413 -0.0776
              Bcc     0.0000     0.000     0.000     0.000  0.1427  0.0317  0.9893
 
              Baa    -0.0000    -0.000    -0.000    -0.000  0.9120  0.3866  0.1370
    15 C(13)  Bbb     0.0000     0.000     0.000     0.000 -0.3901  0.7145  0.5808
              Bcc     0.0000     0.000     0.000     0.000  0.1267 -0.5831  0.8025
 
              Baa    -0.0000    -0.000    -0.000    -0.000 -0.4385  0.8589  0.2646
    16 C(13)  Bbb     0.0000     0.000     0.000     0.000  0.8943  0.3879  0.2229
              Bcc     0.0000     0.000     0.000     0.000 -0.0888 -0.3344  0.9382
 
              Baa    -0.0000    -0.000    -0.000    -0.000  0.0020 -0.3357  0.9420
    17 N(14)  Bbb     0.0000     0.000     0.000     0.000 -0.2415  0.9139  0.3262
              Bcc     0.0000     0.000     0.000     0.000  0.9704  0.2282  0.0793
 
              Baa    -0.0000    -0.000    -0.000    -0.000 -0.2307  0.9388  0.2556
    18 C(13)  Bbb     0.0000     0.000     0.000     0.000  0.9714  0.2070  0.1163
              Bcc     0.0000     0.000     0.000     0.000 -0.0563 -0.2752  0.9597
 
              Baa    -0.0000    -0.000    -0.000    -0.000  0.9599  0.2795  0.0220
    19 C(13)  Bbb    -0.0000    -0.000    -0.000    -0.000 -0.0565  0.1159  0.9917
              Bcc     0.0000     0.000     0.000     0.000 -0.2746  0.9531 -0.1270
 
              Baa    -0.0000    -0.000    -0.000    -0.000  0.9969 -0.0789 -0.0004
    20 C(13)  Bbb     0.0000     0.000     0.000     0.000  0.0789  0.9969 -0.0055
              Bcc     0.0000     0.000     0.000     0.000  0.0008  0.0054  1.0000
 
              Baa    -0.0000    -0.000    -0.000    -0.000 -0.5300  0.8433  0.0896
    21 F(19)  Bbb    -0.0000    -0.000    -0.000    -0.000  0.0292 -0.0875  0.9957
              Bcc     0.0000     0.000     0.000     0.000  0.8475  0.5303  0.0218
 
              Baa    -0.0000    -0.000    -0.000    -0.000  0.7803  0.6088 -0.1430
    22 C(13)  Bbb     0.0000     0.000     0.000     0.000  0.5018 -0.4731  0.7242
              Bcc     0.0000     0.000     0.000     0.000 -0.3732  0.6368  0.6746
 
              Baa    -0.0000    -0.000    -0.000    -0.000  0.9087 -0.4175  0.0060
    23 C(13)  Bbb     0.0000     0.000     0.000     0.000 -0.0013  0.0117  0.9999
              Bcc     0.0000     0.000     0.000     0.000  0.4176  0.9086 -0.0101
 
              Baa    -0.0000    -0.000    -0.000    -0.000 -0.4432  0.2347  0.8651
    24 S(33)  Bbb    -0.0000    -0.000    -0.000    -0.000  0.6402 -0.5927  0.4888
              Bcc     0.0000     0.000     0.000     0.000  0.6275  0.7705  0.1124
 
              Baa    -0.0000    -0.000    -0.000    -0.000  0.7578  0.2255  0.6123
    25 C(13)  Bbb     0.0000     0.000     0.000     0.000 -0.3875 -0.5995  0.7003
              Bcc     0.0000     0.000     0.000     0.000 -0.5250  0.7680  0.3669
 
              Baa    -0.0000    -0.000    -0.000    -0.000  0.9931  0.0633 -0.0985
    26 C(13)  Bbb     0.0000     0.000     0.000     0.000 -0.0134  0.8973  0.4412
              Bcc     0.0000     0.000     0.000     0.000  0.1163 -0.4369  0.8920
 
              Baa    -0.0000    -0.000    -0.000    -0.000  0.7228  0.6896 -0.0452
    27 C(13)  Bbb     0.0000     0.000     0.000     0.000  0.5033 -0.4803  0.7183
              Bcc     0.0000     0.000     0.000     0.000 -0.4736  0.5419  0.6942
 
              Baa    -0.0000    -0.000    -0.000    -0.000 -0.2796  0.7022 -0.6548
    28 C(13)  Bbb    -0.0000    -0.000    -0.000    -0.000  0.6001  0.6602  0.4517
              Bcc     0.0000     0.000     0.000     0.000  0.7494 -0.2667 -0.6060
 
              Baa    -0.0000    -0.000    -0.000    -0.000  0.9853  0.1526 -0.0774
    29 N(14)  Bbb    -0.0000    -0.000    -0.000    -0.000 -0.0009  0.4567  0.8896
              Bcc     0.0000     0.000     0.000     0.000 -0.1711  0.8764 -0.4501
 
              Baa    -0.0000    -0.000    -0.000    -0.000  0.6938 -0.1617  0.7018
    30 C(13)  Bbb    -0.0000    -0.000    -0.000    -0.000  0.2244  0.9745  0.0027
              Bcc     0.0000     0.000     0.000     0.000 -0.6844  0.1556  0.7123
 
              Baa    -0.0000    -0.000    -0.000    -0.000  0.3023  0.8814  0.3631
    31 C(13)  Bbb    -0.0000    -0.000    -0.000    -0.000  0.9516 -0.3012 -0.0610
              Bcc     0.0000     0.000     0.000     0.000 -0.0556 -0.3640  0.9298
 
              Baa    -0.0000    -0.000    -0.000    -0.000  0.4223 -0.4662  0.7774
    32 C(13)  Bbb    -0.0000    -0.000    -0.000    -0.000  0.9001  0.3172 -0.2987
              Bcc     0.0000     0.000     0.000     0.000 -0.1073  0.8258  0.5536
 
              Baa    -0.0000    -0.000    -0.000    -0.000  0.3566 -0.4984  0.7902
    33 F(19)  Bbb    -0.0000    -0.000    -0.000    -0.000  0.9188  0.0339 -0.3933
              Bcc     0.0000     0.000     0.000     0.000  0.1693  0.8663  0.4700
 
              Baa    -0.0000    -0.000    -0.000    -0.000 -0.4507  0.4275  0.7837
    34 C(13)  Bbb    -0.0000    -0.000    -0.000    -0.000  0.4984 -0.6078  0.6182
              Bcc     0.0000     0.000     0.000     0.000  0.7406  0.6692  0.0608
 
              Baa    -0.0000    -0.000    -0.000    -0.000  0.8764  0.0555  0.4783
    35 C(13)  Bbb     0.0000     0.000     0.000     0.000 -0.3820 -0.5247  0.7608
              Bcc     0.0000     0.000     0.000     0.000 -0.2932  0.8495  0.4387
 
              Baa    -0.0000    -0.000    -0.000    -0.000  0.8239 -0.5659  0.0316
    36 S(33)  Bbb     0.0000     0.000     0.000     0.000 -0.0929 -0.0798  0.9925
              Bcc     0.0000     0.000     0.000     0.000  0.5591  0.8206  0.1184
 
              Baa    -0.0000    -0.000    -0.000    -0.000 -0.0520  0.1457  0.9880
    37 H(1)   Bbb    -0.0000    -0.000    -0.000    -0.000  0.6553  0.7515 -0.0764
              Bcc     0.0000     0.000     0.000     0.000  0.7536 -0.6434  0.1345
 
              Baa    -0.0000    -0.000    -0.000    -0.000  0.1239  0.1834  0.9752
    38 H(1)   Bbb    -0.0000    -0.000    -0.000    -0.000 -0.3105  0.9406 -0.1375
              Bcc     0.0000     0.000     0.000     0.000  0.9425  0.2857 -0.1735
 
              Baa    -0.0000    -0.000    -0.000    -0.000 -0.0536  0.9635 -0.2621
    39 H(1)   Bbb     0.0000     0.000     0.000     0.000  0.9960  0.0705  0.0554
              Bcc     0.0000     0.000     0.000     0.000 -0.0718  0.2581  0.9634
 
              Baa    -0.0000    -0.000    -0.000    -0.000  0.9978  0.0059 -0.0653
    40 H(1)   Bbb     0.0000     0.000     0.000     0.000  0.0541  0.4875  0.8714
              Bcc     0.0000     0.000     0.000     0.000 -0.0370  0.8731 -0.4862
 
              Baa    -0.0000    -0.000    -0.000    -0.000 -0.0516  0.9423 -0.3307
    41 H(1)   Bbb     0.0000     0.000     0.000     0.000  0.9968  0.0686  0.0399
              Bcc     0.0000     0.000     0.000     0.000 -0.0603  0.3276  0.9429
 
              Baa    -0.0000    -0.000    -0.000    -0.000 -0.1797  0.9246  0.3359
    42 H(1)   Bbb     0.0000     0.000     0.000     0.000  0.9824  0.1511  0.1099
              Bcc     0.0000     0.000     0.000     0.000 -0.0508 -0.3498  0.9355
 
              Baa    -0.0000    -0.000    -0.000    -0.000  0.1368  0.9354  0.3259
    43 H(1)   Bbb     0.0000     0.000     0.000     0.000  0.6936 -0.3253  0.6427
              Bcc     0.0000     0.000     0.000     0.000  0.7072  0.1382 -0.6934
 
              Baa    -0.0000    -0.000    -0.000    -0.000  0.2135  0.9415  0.2606
    44 H(1)   Bbb    -0.0000    -0.000    -0.000    -0.000 -0.1417 -0.2341  0.9618
              Bcc     0.0000     0.000     0.000     0.000  0.9666 -0.2423  0.0834
 
              Baa    -0.0000    -0.000    -0.000    -0.000 -0.5782  0.8158  0.0115
    45 H(1)   Bbb     0.0000     0.000     0.000     0.000 -0.3992 -0.2952  0.8680
              Bcc     0.0000     0.000     0.000     0.000  0.7116  0.4973  0.4964
 
              Baa    -0.0000    -0.000    -0.000    -0.000  0.0626 -0.5891  0.8057
    46 H(1)   Bbb    -0.0000    -0.000    -0.000    -0.000  0.4629  0.7323  0.4995
              Bcc     0.0000     0.000     0.000     0.000  0.8842 -0.3417 -0.3185
 
              Baa    -0.0000    -0.000    -0.000    -0.000  0.2140  0.7249  0.6548
    47 H(1)   Bbb    -0.0000    -0.000    -0.000    -0.000  0.9661 -0.0580 -0.2516
              Bcc     0.0000     0.000     0.000     0.000  0.1444 -0.6865  0.7127
 
              Baa    -0.0000    -0.000    -0.000    -0.000  0.3447  0.7828  0.5180
    48 H(1)   Bbb     0.0000     0.000     0.000     0.000  0.7128  0.1408 -0.6871
              Bcc     0.0000     0.000     0.000     0.000  0.6108 -0.6061  0.5094
 
              Baa    -0.0000    -0.000    -0.000    -0.000  0.8247 -0.2939 -0.4832
    49 H(1)   Bbb    -0.0000    -0.000    -0.000    -0.000 -0.0876  0.7777 -0.6225
              Bcc     0.0000     0.000     0.000     0.000  0.5588  0.5557  0.6156
 
              Baa    -0.0000    -0.000    -0.000    -0.000 -0.5765  0.6628  0.4779
    50 H(1)   Bbb    -0.0000    -0.000    -0.000    -0.000  0.2286 -0.4307  0.8731
              Bcc     0.0000     0.000     0.000     0.000  0.7844  0.6126  0.0968
 

 ---------------------------------------------------------------------------------

 No NMR shielding tensors so no spin-rotation constants.
 Leave Link  601 at Sat Jul 25 06:33:27 2020, MaxMem=  4026531840 cpu:               5.6 elap:               0.8
 (Enter /opt/ohpc/pub/libs/gaussian/g16-A.03/sandybridge/g16/l9999.exe)

 Test job not archived.
 1\1\GINC-SKYLAKE040\FOpt\ULC-wPBE\CC-pVDZ\C27H14F3N3S3\RDU230\25-Jul-2
 020\0\\#P uLC-wPBE/cc-pVDZ iop(3/107=0366800000, 3/108=0366800000) opt
 \\H14 C27 S3 N3 F3\\0,1\C,-10.6830797521,2.6798788619,-0.4844178296\C,
 -10.9314132976,1.3384309503,-0.2207754313\C,-9.8626062735,0.469066562,
 -0.0620275116\C,-8.5667008131,0.9817685007,-0.1741501223\N,-8.32119088
 96,2.2727450355,-0.4275963869\C,-9.3583707721,3.0905268418,-0.57725788
 68\C,-7.3698020261,0.1439609768,-0.0239751056\C,-7.2285864968,-1.19073
 78096,0.2392589642\F,-8.2636178824,-2.0242269922,0.4275626796\C,-5.893
 7529049,-1.6542059012,0.3147409681\C,-5.0031223541,-0.6365752168,0.100
 1582331\S,-5.8077261304,0.8617467528,-0.1969055575\C,-3.5350604287,-0.
 7191120699,0.0979375211\C,-2.7227659818,0.3389234088,0.5094973419\C,-1
 .3476276056,0.189594945,0.4923677324\C,-0.8002527565,-1.0230872329,0.0
 599366328\N,-1.5673063187,-2.0421630678,-0.3426963921\C,-2.8831691633,
 -1.8830683973,-0.3215851913\C,0.6536114619,-1.2416752341,0.0243804993\
 C,1.3465585055,-2.4186351313,-0.08447014\F,0.7822453032,-3.6203548152,
 -0.1565667694\C,2.7584275467,-2.2843785588,-0.0836049099\C,3.147843176
 2,-0.9787504604,0.0246674645\S,1.7804053727,0.0708590166,0.1127615211\
 C,4.5157877739,-0.4415809473,0.0523865262\C,4.8629090136,0.6984074864,
 0.7797279282\C,6.1716015072,1.1485814582,0.7725723882\C,7.1217499583,0
 .4355926704,0.0352562234\N,6.8011571341,-0.6560883355,-0.6702139507\C,
 5.5417777299,-1.0682424131,-0.6615556612\C,8.5349122493,0.8250964442,-
 0.025261329\C,9.2046951126,1.8644830562,0.5618569967\F,8.616489648,2.7
 724955021,1.3569585449\C,10.5910218908,1.9269333864,0.2735448978\C,10.
 9537414746,0.90345209,-0.5504498284\S,9.6403595654,-0.1127989064,-0.96
 63705749\H,-11.4960057163,3.3962340755,-0.6161277619\H,-11.9558938489,
 0.9669708593,-0.1386819808\H,-10.0202957563,-0.58869067,0.1450385277\H
 ,-9.1142213314,4.1382167596,-0.7840139738\H,-5.6293431162,-2.685272477
 1,0.5460629258\H,-3.1684712243,1.2726814118,0.8623154801\H,-0.70404661
 34,1.0040180847,0.8313801583\H,-3.4708941847,-2.7351177393,-0.68092609
 78\H,3.4356108653,-3.1363742395,-0.1306141918\H,4.1076267529,1.2282436
 175,1.3664530711\H,6.4619524863,2.0337777583,1.3366662553\H,5.32171427
 22,-1.9498148059,-1.2733662738\H,11.2568749849,2.6943087731,0.66573917
 76\H,11.9486908534,0.6937901355,-0.940868801\\Version=EM64L-G16RevA.03
 \State=1-A\HF=-2694.280849\S2=0.\S2-1=0.\S2A=0.\RMSD=5.903e-09\RMSF=4.
 417e-06\Dipole=-0.2831033,0.8616161,0.4334007\Quadrupole=32.2467947,-1
 2.4191736,-19.8276211,-0.8630038,0.6277954,1.2595693\PG=C01 [X(C27H14F
 3N3S3)]\\@


 SLITHERY-DITHERY
 FRIEDRICH A. KEKULE
 DREAMT ON A BUS OF THINGS
 FREUD WOULD THINK KEEN.
 MOST OF THE TIME THEY WERE
 HERPETOLOGICAL
 BITING THEIR TAILS IN THE
 SHAPE OF BENZENE.
 Job cpu time:       0 days 16 hours 14 minutes 38.4 seconds.
 Elapsed time:       0 days  2 hours  2 minutes 54.8 seconds.
 File lengths (MBytes):  RWF=    436 Int=      0 D2E=      0 Chk=     40 Scr=      8
 Normal termination of Gaussian 16 at Sat Jul 25 06:33:27 2020.
