 Entering Gaussian System, Link 0=g16
 Input=mols_65_1_39_cOC-cOC-COC_opt_0.gjf
 Output=mols_65_1_39_cOC-cOC-COC_opt_0.log
 Initial command:
 /opt/ohpc/pub/libs/gaussian/g16-A.03/sandybridge/g16/l1.exe "/mnt/gpfs2_4m/scratch/rdu230/ondemand/projects/dihedral_energies/7trial/wtuning/mols_65_1_39_cOC-cOC-COC/Gau-263502.inp" -scrdir="/mnt/gpfs2_4m/scratch/rdu230/ondemand/projects/dihedral_energies/7trial/wtuning/mols_65_1_39_cOC-cOC-COC/"
 Entering Link 1 = /opt/ohpc/pub/libs/gaussian/g16-A.03/sandybridge/g16/l1.exe PID=    263503.
  
 Copyright (c) 1988,1990,1992,1993,1995,1998,2003,2009,2016,
            Gaussian, Inc.  All Rights Reserved.
  
 This is part of the Gaussian(R) 16 program.  It is based on
 the Gaussian(R) 09 system (copyright 2009, Gaussian, Inc.),
 the Gaussian(R) 03 system (copyright 2003, Gaussian, Inc.),
 the Gaussian(R) 98 system (copyright 1998, Gaussian, Inc.),
 the Gaussian(R) 94 system (copyright 1995, Gaussian, Inc.),
 the Gaussian 92(TM) system (copyright 1992, Gaussian, Inc.),
 the Gaussian 90(TM) system (copyright 1990, Gaussian, Inc.),
 the Gaussian 88(TM) system (copyright 1988, Gaussian, Inc.),
 the Gaussian 86(TM) system (copyright 1986, Carnegie Mellon
 University), and the Gaussian 82(TM) system (copyright 1983,
 Carnegie Mellon University). Gaussian is a federally registered
 trademark of Gaussian, Inc.
  
 This software contains proprietary and confidential information,
 including trade secrets, belonging to Gaussian, Inc.
  
 This software is provided under written license and may be
 used, copied, transmitted, or stored only in accord with that
 written license.
  
 The following legend is applicable only to US Government
 contracts under FAR:
  
                    RESTRICTED RIGHTS LEGEND
  
 Use, reproduction and disclosure by the US Government is
 subject to restrictions as set forth in subparagraphs (a)
 and (c) of the Commercial Computer Software - Restricted
 Rights clause in FAR 52.227-19.
  
 Gaussian, Inc.
 340 Quinnipiac St., Bldg. 40, Wallingford CT 06492
  
  
 ---------------------------------------------------------------
 Warning -- This program may not be used in any manner that
 competes with the business of Gaussian, Inc. or will provide
 assistance to any competitor of Gaussian, Inc.  The licensee
 of this program is prohibited from giving any competitor of
 Gaussian, Inc. access to this program.  By using this program,
 the user acknowledges that Gaussian, Inc. is engaged in the
 business of creating and licensing software in the field of
 computational chemistry and represents and warrants to the
 licensee that it is not a competitor of Gaussian, Inc. and that
 it will not use this program in any manner prohibited above.
 ---------------------------------------------------------------
  

 Cite this work as:
 Gaussian 16, Revision A.03,
 M. J. Frisch, G. W. Trucks, H. B. Schlegel, G. E. Scuseria, 
 M. A. Robb, J. R. Cheeseman, G. Scalmani, V. Barone, 
 G. A. Petersson, H. Nakatsuji, X. Li, M. Caricato, A. V. Marenich, 
 J. Bloino, B. G. Janesko, R. Gomperts, B. Mennucci, H. P. Hratchian, 
 J. V. Ortiz, A. F. Izmaylov, J. L. Sonnenberg, D. Williams-Young, 
 F. Ding, F. Lipparini, F. Egidi, J. Goings, B. Peng, A. Petrone, 
 T. Henderson, D. Ranasinghe, V. G. Zakrzewski, J. Gao, N. Rega, 
 G. Zheng, W. Liang, M. Hada, M. Ehara, K. Toyota, R. Fukuda, 
 J. Hasegawa, M. Ishida, T. Nakajima, Y. Honda, O. Kitao, H. Nakai, 
 T. Vreven, K. Throssell, J. A. Montgomery, Jr., J. E. Peralta, 
 F. Ogliaro, M. J. Bearpark, J. J. Heyd, E. N. Brothers, K. N. Kudin, 
 V. N. Staroverov, T. A. Keith, R. Kobayashi, J. Normand, 
 K. Raghavachari, A. P. Rendell, J. C. Burant, S. S. Iyengar, 
 J. Tomasi, M. Cossi, J. M. Millam, M. Klene, C. Adamo, R. Cammi, 
 J. W. Ochterski, R. L. Martin, K. Morokuma, O. Farkas, 
 J. B. Foresman, and D. J. Fox, Gaussian, Inc., Wallingford CT, 2016.
 
 ******************************************
 Gaussian 16:  EM64L-G16RevA.03 25-Dec-2016
                24-Jul-2020 
 ******************************************
 %mem=30GB
 %nproc=8
 Will use up to    8 processors via shared memory.
 ---------------------------------------------------------------
 #P uLC-wPBE/cc-pVDZ iop(3/107=0489800000, 3/108=0489800000) opt
 ---------------------------------------------------------------
 1/18=20,19=15,26=3,38=1/1,3;
 2/9=110,12=2,17=6,18=5,40=1/2;
 3/5=16,11=2,25=1,30=1,71=1,74=-41,107=489800000,108=489800000,116=2/1,2,3;
 4//1;
 5/5=2,38=5/2;
 6/7=2,8=2,9=2,10=2,28=1/1;
 7//1,2,3,16;
 1/18=20,19=15,26=3/3(2);
 2/9=110/2;
 99//99;
 2/9=110/2;
 3/5=16,11=2,25=1,30=1,71=1,74=-41,107=489800000,108=489800000,116=2/1,2,3;
 4/5=5,16=3,69=1/1;
 5/5=2,38=5/2;
 7//1,2,3,16;
 1/18=20,19=15,26=3/3(-5);
 2/9=110/2;
 6/7=2,8=2,9=2,10=2,19=2,28=1/1;
 99/9=1/99;
 Leave Link    1 at Fri Jul 24 21:10:58 2020, MaxMem=  4026531840 cpu:               1.7 elap:               0.2
 (Enter /opt/ohpc/pub/libs/gaussian/g16-A.03/sandybridge/g16/l101.exe)
 -------------
 H14 C13 S1 O3
 -------------
 Symbolic Z-matrix:
 Charge =  0 Multiplicity = 1
 C                     3.46728   0.24081   0.3981 
 C                     2.7585    1.27882  -0.22355 
 C                     1.45378   1.22282  -0.42327 
 O                     0.79742   2.26002  -1.01558 
 C                     0.46732   3.26907  -0.12811 
 C                     0.70808   0.04142  -0.15795 
 C                     1.50375  -1.02216   0.47574 
 O                     0.79068  -2.23358   0.84786 
 C                     1.21368  -3.25356  -0.04571 
 C                     2.83458  -0.8676    0.75199 
 C                    -0.69993  -0.06783  -0.36161 
 C                    -1.79191   0.13885   0.47034 
 O                    -1.51613   0.4718    1.79205 
 C                    -2.71023   0.54683   2.60431 
 C                    -3.04443  -0.19149  -0.1263 
 C                    -2.92947  -0.53947  -1.46694 
 S                    -1.20245  -0.58914  -1.90613 
 H                     4.55634   0.31205   0.56246 
 H                     3.3623    2.23042  -0.53792 
 H                     1.34304   3.81643   0.24098 
 H                    -0.18508   4.02619  -0.57101 
 H                    -0.04481   2.80192   0.75867 
 H                     1.07132  -3.03347  -1.08809 
 H                     0.43381  -4.09638   0.19179 
 H                     2.2254   -3.62378   0.19422 
 H                     3.3598   -1.66982   1.18175 
 H                    -2.34021   0.77864   3.65093 
 H                    -3.08097  -0.44182   2.67054 
 H                    -3.3527    1.27841   2.31149 
 H                    -4.00837   0.00546   0.33983 
 H                    -3.61764  -0.7695   -2.14482 
 
 ITRead=  0  0  0  0  0  0  0  0  0  0  0  0  0  0  0  0  0  0  0  0
 ITRead=  0  0  0  0  0  0  0  0  0  0  0
 MicOpt= -1 -1 -1 -1 -1 -1 -1 -1 -1 -1 -1 -1 -1 -1 -1 -1 -1 -1 -1 -1
 MicOpt= -1 -1 -1 -1 -1 -1 -1 -1 -1 -1 -1
 NAtoms=     31 NQM=       31 NQMF=       0 NMMI=      0 NMMIF=      0
                NMic=       0 NMicF=      0.
                    Isotopes and Nuclear Properties:
 (Nuclear quadrupole moments (NQMom) in fm**2, nuclear magnetic moments (NMagM)
  in nuclear magnetons)

  Atom         1           2           3           4           5           6           7           8           9          10
 IAtWgt=          12          12          12          16          12          12          12          16          12          12
 AtmWgt=  12.0000000  12.0000000  12.0000000  15.9949146  12.0000000  12.0000000  12.0000000  15.9949146  12.0000000  12.0000000
 NucSpn=           0           0           0           0           0           0           0           0           0           0
 AtZEff=  -0.0000000  -0.0000000  -0.0000000  -0.0000000  -0.0000000  -0.0000000  -0.0000000  -0.0000000  -0.0000000  -0.0000000
 NQMom=    0.0000000   0.0000000   0.0000000   0.0000000   0.0000000   0.0000000   0.0000000   0.0000000   0.0000000   0.0000000
 NMagM=    0.0000000   0.0000000   0.0000000   0.0000000   0.0000000   0.0000000   0.0000000   0.0000000   0.0000000   0.0000000
 AtZNuc=   6.0000000   6.0000000   6.0000000   8.0000000   6.0000000   6.0000000   6.0000000   8.0000000   6.0000000   6.0000000

  Atom        11          12          13          14          15          16          17          18          19          20
 IAtWgt=          12          12          16          12          12          12          32           1           1           1
 AtmWgt=  12.0000000  12.0000000  15.9949146  12.0000000  12.0000000  12.0000000  31.9720718   1.0078250   1.0078250   1.0078250
 NucSpn=           0           0           0           0           0           0           0           1           1           1
 AtZEff=  -0.0000000  -0.0000000  -0.0000000  -0.0000000  -0.0000000  -0.0000000  -0.0000000  -0.0000000  -0.0000000  -0.0000000
 NQMom=    0.0000000   0.0000000   0.0000000   0.0000000   0.0000000   0.0000000   0.0000000   0.0000000   0.0000000   0.0000000
 NMagM=    0.0000000   0.0000000   0.0000000   0.0000000   0.0000000   0.0000000   0.0000000   2.7928460   2.7928460   2.7928460
 AtZNuc=   6.0000000   6.0000000   8.0000000   6.0000000   6.0000000   6.0000000  16.0000000   1.0000000   1.0000000   1.0000000

  Atom        21          22          23          24          25          26          27          28          29          30
 IAtWgt=           1           1           1           1           1           1           1           1           1           1
 AtmWgt=   1.0078250   1.0078250   1.0078250   1.0078250   1.0078250   1.0078250   1.0078250   1.0078250   1.0078250   1.0078250
 NucSpn=           1           1           1           1           1           1           1           1           1           1
 AtZEff=  -0.0000000  -0.0000000  -0.0000000  -0.0000000  -0.0000000  -0.0000000  -0.0000000  -0.0000000  -0.0000000  -0.0000000
 NQMom=    0.0000000   0.0000000   0.0000000   0.0000000   0.0000000   0.0000000   0.0000000   0.0000000   0.0000000   0.0000000
 NMagM=    2.7928460   2.7928460   2.7928460   2.7928460   2.7928460   2.7928460   2.7928460   2.7928460   2.7928460   2.7928460
 AtZNuc=   1.0000000   1.0000000   1.0000000   1.0000000   1.0000000   1.0000000   1.0000000   1.0000000   1.0000000   1.0000000

  Atom        31
 IAtWgt=           1
 AtmWgt=   1.0078250
 NucSpn=           1
 AtZEff=  -0.0000000
 NQMom=    0.0000000
 NMagM=    2.7928460
 AtZNuc=   1.0000000
 Leave Link  101 at Fri Jul 24 21:10:59 2020, MaxMem=  4026531840 cpu:               2.8 elap:               0.4
 (Enter /opt/ohpc/pub/libs/gaussian/g16-A.03/sandybridge/g16/l103.exe)

 GradGradGradGradGradGradGradGradGradGradGradGradGradGradGradGradGradGrad
 Berny optimization.
 Initialization pass.
                           ----------------------------
                           !    Initial Parameters    !
                           ! (Angstroms and Degrees)  !
 --------------------------                            --------------------------
 ! Name  Definition              Value          Derivative Info.                !
 --------------------------------------------------------------------------------
 ! R1    R(1,2)                  1.4022         estimate D2E/DX2                !
 ! R2    R(1,10)                 1.3244         estimate D2E/DX2                !
 ! R3    R(1,18)                 1.1037         estimate D2E/DX2                !
 ! R4    R(2,3)                  1.3211         estimate D2E/DX2                !
 ! R5    R(2,19)                 1.17           estimate D2E/DX2                !
 ! R6    R(3,4)                  1.3629         estimate D2E/DX2                !
 ! R7    R(3,6)                  1.422          estimate D2E/DX2                !
 ! R8    R(4,5)                  1.3837         estimate D2E/DX2                !
 ! R9    R(5,20)                 1.0967         estimate D2E/DX2                !
 ! R10   R(5,21)                 1.0932         estimate D2E/DX2                !
 ! R11   R(5,22)                 1.1256         estimate D2E/DX2                !
 ! R12   R(6,7)                  1.4717         estimate D2E/DX2                !
 ! R13   R(6,11)                 1.4268         estimate D2E/DX2                !
 ! R14   R(7,8)                  1.4541         estimate D2E/DX2                !
 ! R15   R(7,10)                 1.368          estimate D2E/DX2                !
 ! R16   R(8,9)                  1.4205         estimate D2E/DX2                !
 ! R17   R(9,23)                 1.0748         estimate D2E/DX2                !
 ! R18   R(9,24)                 1.1726         estimate D2E/DX2                !
 ! R19   R(9,25)                 1.1037         estimate D2E/DX2                !
 ! R20   R(10,26)                1.0508         estimate D2E/DX2                !
 ! R21   R(11,12)                1.3883         estimate D2E/DX2                !
 ! R22   R(11,17)                1.7058         estimate D2E/DX2                !
 ! R23   R(12,13)                1.3906         estimate D2E/DX2                !
 ! R24   R(12,15)                1.4262         estimate D2E/DX2                !
 ! R25   R(13,14)                1.4461         estimate D2E/DX2                !
 ! R26   R(14,27)                1.134          estimate D2E/DX2                !
 ! R27   R(14,28)                1.0579         estimate D2E/DX2                !
 ! R28   R(14,29)                1.0167         estimate D2E/DX2                !
 ! R29   R(15,16)                1.3898         estimate D2E/DX2                !
 ! R30   R(15,30)                1.0887         estimate D2E/DX2                !
 ! R31   R(16,17)                1.7827         estimate D2E/DX2                !
 ! R32   R(16,31)                0.993          estimate D2E/DX2                !
 ! A1    A(2,1,10)             119.7682         estimate D2E/DX2                !
 ! A2    A(2,1,18)             121.1311         estimate D2E/DX2                !
 ! A3    A(10,1,18)            119.053          estimate D2E/DX2                !
 ! A4    A(1,2,3)              122.3332         estimate D2E/DX2                !
 ! A5    A(1,2,19)             117.4082         estimate D2E/DX2                !
 ! A6    A(3,2,19)             120.2325         estimate D2E/DX2                !
 ! A7    A(2,3,4)              120.6024         estimate D2E/DX2                !
 ! A8    A(2,3,6)              121.6612         estimate D2E/DX2                !
 ! A9    A(4,3,6)              117.4384         estimate D2E/DX2                !
 ! A10   A(3,4,5)              113.024          estimate D2E/DX2                !
 ! A11   A(4,5,20)             112.9117         estimate D2E/DX2                !
 ! A12   A(4,5,21)             112.8038         estimate D2E/DX2                !
 ! A13   A(4,5,22)             108.1311         estimate D2E/DX2                !
 ! A14   A(20,5,21)            105.4988         estimate D2E/DX2                !
 ! A15   A(20,5,22)            107.7769         estimate D2E/DX2                !
 ! A16   A(21,5,22)            109.5798         estimate D2E/DX2                !
 ! A17   A(3,6,7)              113.405          estimate D2E/DX2                !
 ! A18   A(3,6,11)             123.6729         estimate D2E/DX2                !
 ! A19   A(7,6,11)             122.6588         estimate D2E/DX2                !
 ! A20   A(6,7,8)              116.5605         estimate D2E/DX2                !
 ! A21   A(6,7,10)             122.0916         estimate D2E/DX2                !
 ! A22   A(8,7,10)             121.2999         estimate D2E/DX2                !
 ! A23   A(7,8,9)              106.9296         estimate D2E/DX2                !
 ! A24   A(8,9,23)             115.062          estimate D2E/DX2                !
 ! A25   A(8,9,24)             100.9907         estimate D2E/DX2                !
 ! A26   A(8,9,25)             112.1521         estimate D2E/DX2                !
 ! A27   A(23,9,24)            104.8046         estimate D2E/DX2                !
 ! A28   A(23,9,25)            113.6352         estimate D2E/DX2                !
 ! A29   A(24,9,25)            108.9367         estimate D2E/DX2                !
 ! A30   A(1,10,7)             120.355          estimate D2E/DX2                !
 ! A31   A(1,10,26)            120.6258         estimate D2E/DX2                !
 ! A32   A(7,10,26)            118.8561         estimate D2E/DX2                !
 ! A33   A(6,11,12)            132.7855         estimate D2E/DX2                !
 ! A34   A(6,11,17)            116.3169         estimate D2E/DX2                !
 ! A35   A(12,11,17)           110.8785         estimate D2E/DX2                !
 ! A36   A(11,12,13)           116.6943         estimate D2E/DX2                !
 ! A37   A(11,12,15)           113.9296         estimate D2E/DX2                !
 ! A38   A(13,12,15)           128.8483         estimate D2E/DX2                !
 ! A39   A(12,13,14)           112.4892         estimate D2E/DX2                !
 ! A40   A(13,14,27)           105.0439         estimate D2E/DX2                !
 ! A41   A(13,14,28)           106.0244         estimate D2E/DX2                !
 ! A42   A(13,14,29)           113.412          estimate D2E/DX2                !
 ! A43   A(27,14,28)           104.3349         estimate D2E/DX2                !
 ! A44   A(27,14,29)           108.9591         estimate D2E/DX2                !
 ! A45   A(28,14,29)           117.9698         estimate D2E/DX2                !
 ! A46   A(12,15,16)           112.8865         estimate D2E/DX2                !
 ! A47   A(12,15,30)           123.8203         estimate D2E/DX2                !
 ! A48   A(16,15,30)           122.1089         estimate D2E/DX2                !
 ! A49   A(15,16,17)           108.9504         estimate D2E/DX2                !
 ! A50   A(15,16,31)           131.2381         estimate D2E/DX2                !
 ! A51   A(17,16,31)           119.7856         estimate D2E/DX2                !
 ! A52   A(11,17,16)            93.0847         estimate D2E/DX2                !
 ! D1    D(10,1,2,3)             3.0437         estimate D2E/DX2                !
 ! D2    D(10,1,2,19)         -178.8124         estimate D2E/DX2                !
 ! D3    D(18,1,2,3)          -179.4914         estimate D2E/DX2                !
 ! D4    D(18,1,2,19)           -1.3475         estimate D2E/DX2                !
 ! D5    D(2,1,10,7)             2.1057         estimate D2E/DX2                !
 ! D6    D(2,1,10,26)          177.411          estimate D2E/DX2                !
 ! D7    D(18,1,10,7)         -175.412          estimate D2E/DX2                !
 ! D8    D(18,1,10,26)          -0.1066         estimate D2E/DX2                !
 ! D9    D(1,2,3,4)            179.1369         estimate D2E/DX2                !
 ! D10   D(1,2,3,6)             -7.2938         estimate D2E/DX2                !
 ! D11   D(19,2,3,4)             1.0441         estimate D2E/DX2                !
 ! D12   D(19,2,3,6)           174.6134         estimate D2E/DX2                !
 ! D13   D(2,3,4,5)            -83.3757         estimate D2E/DX2                !
 ! D14   D(6,3,4,5)            102.7907         estimate D2E/DX2                !
 ! D15   D(2,3,6,7)              5.9573         estimate D2E/DX2                !
 ! D16   D(2,3,6,11)          -179.8084         estimate D2E/DX2                !
 ! D17   D(4,3,6,7)            179.7214         estimate D2E/DX2                !
 ! D18   D(4,3,6,11)            -6.0443         estimate D2E/DX2                !
 ! D19   D(3,4,5,20)            69.039          estimate D2E/DX2                !
 ! D20   D(3,4,5,21)          -171.4621         estimate D2E/DX2                !
 ! D21   D(3,4,5,22)           -50.1163         estimate D2E/DX2                !
 ! D22   D(3,6,7,8)            176.5725         estimate D2E/DX2                !
 ! D23   D(3,6,7,10)            -0.9347         estimate D2E/DX2                !
 ! D24   D(11,6,7,8)             2.2716         estimate D2E/DX2                !
 ! D25   D(11,6,7,10)         -175.2356         estimate D2E/DX2                !
 ! D26   D(3,6,11,12)          -92.2512         estimate D2E/DX2                !
 ! D27   D(3,6,11,17)           89.5105         estimate D2E/DX2                !
 ! D28   D(7,6,11,12)           81.4619         estimate D2E/DX2                !
 ! D29   D(7,6,11,17)          -96.7765         estimate D2E/DX2                !
 ! D30   D(6,7,8,9)            109.0192         estimate D2E/DX2                !
 ! D31   D(10,7,8,9)           -73.4525         estimate D2E/DX2                !
 ! D32   D(6,7,10,1)            -2.9759         estimate D2E/DX2                !
 ! D33   D(6,7,10,26)         -178.3635         estimate D2E/DX2                !
 ! D34   D(8,7,10,1)           179.6337         estimate D2E/DX2                !
 ! D35   D(8,7,10,26)            4.246          estimate D2E/DX2                !
 ! D36   D(7,8,9,23)           -56.5897         estimate D2E/DX2                !
 ! D37   D(7,8,9,24)          -168.81           estimate D2E/DX2                !
 ! D38   D(7,8,9,25)            75.341          estimate D2E/DX2                !
 ! D39   D(6,11,12,13)          -2.91           estimate D2E/DX2                !
 ! D40   D(6,11,12,15)        -175.3242         estimate D2E/DX2                !
 ! D41   D(17,11,12,13)        175.4            estimate D2E/DX2                !
 ! D42   D(17,11,12,15)          2.9858         estimate D2E/DX2                !
 ! D43   D(6,11,17,16)         178.7125         estimate D2E/DX2                !
 ! D44   D(12,11,17,16)          0.0962         estimate D2E/DX2                !
 ! D45   D(11,12,13,14)       -174.7331         estimate D2E/DX2                !
 ! D46   D(15,12,13,14)         -3.646          estimate D2E/DX2                !
 ! D47   D(11,12,15,16)         -5.5448         estimate D2E/DX2                !
 ! D48   D(11,12,15,30)       -173.3068         estimate D2E/DX2                !
 ! D49   D(13,12,15,16)       -176.8346         estimate D2E/DX2                !
 ! D50   D(13,12,15,30)         15.4035         estimate D2E/DX2                !
 ! D51   D(12,13,14,27)        177.6521         estimate D2E/DX2                !
 ! D52   D(12,13,14,28)         67.5355         estimate D2E/DX2                !
 ! D53   D(12,13,14,29)        -63.4677         estimate D2E/DX2                !
 ! D54   D(12,15,16,17)          5.3105         estimate D2E/DX2                !
 ! D55   D(12,15,16,31)       -176.592          estimate D2E/DX2                !
 ! D56   D(30,15,16,17)        173.3108         estimate D2E/DX2                !
 ! D57   D(30,15,16,31)         -8.5917         estimate D2E/DX2                !
 ! D58   D(15,16,17,11)         -3.1296         estimate D2E/DX2                !
 ! D59   D(31,16,17,11)        178.5187         estimate D2E/DX2                !
 --------------------------------------------------------------------------------
 Trust Radius=3.00D-01 FncErr=1.00D-07 GrdErr=1.00D-06 EigMax=2.50D+02 EigMin=1.00D-04
 Number of steps in this run=    153 maximum allowed number of steps=    186.
 GradGradGradGradGradGradGradGradGradGradGradGradGradGradGradGradGradGrad

 Leave Link  103 at Fri Jul 24 21:10:59 2020, MaxMem=  4026531840 cpu:               0.1 elap:               0.0
 (Enter /opt/ohpc/pub/libs/gaussian/g16-A.03/sandybridge/g16/l202.exe)
                          Input orientation:                          
 ---------------------------------------------------------------------
 Center     Atomic      Atomic             Coordinates (Angstroms)
 Number     Number       Type             X           Y           Z
 ---------------------------------------------------------------------
      1          6           0        3.467284    0.240807    0.398098
      2          6           0        2.758497    1.278819   -0.223545
      3          6           0        1.453781    1.222821   -0.423274
      4          8           0        0.797416    2.260019   -1.015580
      5          6           0        0.467315    3.269065   -0.128109
      6          6           0        0.708076    0.041419   -0.157952
      7          6           0        1.503746   -1.022163    0.475737
      8          8           0        0.790681   -2.233584    0.847858
      9          6           0        1.213677   -3.253559   -0.045712
     10          6           0        2.834575   -0.867595    0.751991
     11          6           0       -0.699932   -0.067834   -0.361609
     12          6           0       -1.791910    0.138845    0.470344
     13          8           0       -1.516125    0.471804    1.792051
     14          6           0       -2.710231    0.546826    2.604310
     15          6           0       -3.044426   -0.191489   -0.126303
     16          6           0       -2.929469   -0.539473   -1.466941
     17         16           0       -1.202450   -0.589137   -1.906127
     18          1           0        4.556340    0.312053    0.562461
     19          1           0        3.362296    2.230419   -0.537920
     20          1           0        1.343035    3.816428    0.240980
     21          1           0       -0.185076    4.026192   -0.571006
     22          1           0       -0.044805    2.801921    0.758672
     23          1           0        1.071319   -3.033469   -1.088090
     24          1           0        0.433805   -4.096381    0.191790
     25          1           0        2.225399   -3.623776    0.194220
     26          1           0        3.359802   -1.669818    1.181745
     27          1           0       -2.340209    0.778643    3.650930
     28          1           0       -3.080972   -0.441816    2.670541
     29          1           0       -3.352699    1.278411    2.311488
     30          1           0       -4.008370    0.005456    0.339825
     31          1           0       -3.617640   -0.769497   -2.144824
 ---------------------------------------------------------------------
                    Distance matrix (angstroms):
                    1          2          3          4          5
     1  C    0.000000
     2  C    1.402244   0.000000
     3  C    2.386042   1.321102   0.000000
     4  O    3.633717   2.331504   1.362872   0.000000
     5  C    4.295003   3.036396   2.290710   1.383743   0.000000
     6  C    2.821733   2.395764   1.422035   2.380272   3.236751
     7  C    2.335937   2.712547   2.418816   3.673642   4.455722
     8  O    3.672751   4.166195   3.741953   4.864660   5.597877
     9  C    4.181663   4.791716   4.498687   5.613685   6.565704
    10  C    1.324430   2.358930   2.767251   4.129927   4.846695
    11  C    4.247129   3.713929   2.511588   2.844051   3.542864
    12  C    5.260678   4.742070   3.536675   3.662234   3.906472
    13  O    5.179848   4.794402   3.780481   4.053761   3.930104
    14  C    6.566788   6.199965   5.192517   5.323741   4.997349
    15  C    6.547079   5.987084   4.724651   4.643324   4.930290
    16  C    6.708626   6.099605   4.838161   4.683007   5.275943
    17  S    5.273014   4.691422   3.540848   3.593081   4.564558
    18  H    1.103691   2.187391   3.380391   4.518218   5.093224
    19  H    2.201297   1.170020   2.161210   2.609146   3.102845
    20  H    4.161993   2.942580   2.679607   2.073416   1.096685
    21  H    5.348648   4.041461   3.250625   2.069373   1.093167
    22  H    4.361661   3.338127   2.477158   2.037392   1.125554
    23  H    4.320913   4.710609   4.324842   5.301066   6.403774
    24  H    5.296769   5.871071   5.450923   6.480261   7.372466
    25  H    4.064338   4.949157   4.946332   6.174285   7.120815
    26  H    2.067884   3.321275   3.817900   5.180509   5.871521
    27  H    6.678110   6.423281   5.584872   5.815108   5.325930
    28  H    6.964885   6.740602   5.736436   5.994105   5.847514
    29  H    7.158900   6.616125   5.530304   5.408918   4.950439
    30  H    7.479585   6.908642   5.647955   5.478664   5.558944
    31  H    7.594953   6.967211   5.714226   5.472283   6.088019
                    6          7          8          9         10
     6  C    0.000000
     7  C    1.471686   0.000000
     8  O    2.488798   1.454124   0.000000
     9  C    3.335433   2.309800   1.420472   0.000000
    10  C    2.485216   1.367960   2.460207   2.992735   0.000000
    11  C    1.426849   2.543244   2.893996   3.729683   3.791103
    12  C    2.579569   3.494183   3.527139   4.561608   4.743059
    13  O    2.989116   3.617215   3.678584   4.970666   4.669508
    14  C    4.423839   4.974952   4.803352   6.071458   6.014694
    15  C    3.759856   4.662439   4.452773   5.245399   5.982572
    16  C    3.909299   4.864194   4.697640   5.152845   6.185105
    17  S    2.665300   3.631017   3.776402   4.049439   4.841560
    18  H    3.924458   3.332564   4.554328   4.925125   2.095702
    19  H    3.461355   3.880850   5.334876   5.910402   3.397065
    20  H    3.848768   4.846948   6.105411   7.076980   4.942256
    21  H    4.104479   5.425281   6.492309   7.431502   5.900658
    22  H    3.004563   4.135418   5.105125   6.236958   4.664356
    23  H    3.232961   2.584163   2.113402   1.074829   3.344545
    24  H    4.161602   3.267448   2.006938   1.172585   4.062337
    25  H    3.982455   2.714484   2.101973   1.103725   2.877280
    26  H    3.428523   2.088743   2.651357   2.936109   1.050768
    27  H    4.933875   5.301013   5.170415   6.523337   6.155675
    28  H    4.752975   5.116015   4.639214   5.807576   6.233444
    29  H    4.911026   5.678704   5.625293   6.851783   6.731993
    30  H    4.742777   5.608734   5.319989   6.167625   6.910716
    31  H    4.828775   5.758452   5.525667   5.823956   7.073347
                   11         12         13         14         15
    11  C    0.000000
    12  C    1.388264   0.000000
    13  O    2.365509   1.390622   0.000000
    14  C    3.635352   2.358723   1.446127   0.000000
    15  C    2.359515   1.426150   2.540816   2.848340   0.000000
    16  C    2.532792   2.346749   3.693406   4.219383   1.389827
    17  S    1.705819   2.554415   3.860118   4.889566   2.592060
    18  H    5.350385   6.351281   6.197761   7.551644   7.648503
    19  H    4.670626   5.653063   5.685111   7.041568   6.861571
    20  H    4.429934   4.837882   4.665525   5.718793   5.953831
    21  H    4.131582   4.333335   4.470951   5.344626   5.114927
    22  H    3.149558   3.198044   2.943145   3.949219   4.329135
    23  H    3.529886   4.548667   5.222740   6.383765   5.093255
    24  H    4.221469   4.792550   5.218369   6.104473   5.239032
    25  H    4.638020   5.511110   5.772854   6.896586   6.297173
    26  H    4.629226   5.506132   5.360381   6.616835   6.701536
    27  H    4.416730   3.290304   2.056379   1.134050   3.962899
    28  H    3.873390   2.615285   2.013751   1.057945   2.808262
    29  H    3.999374   2.669173   2.072060   1.016723   2.863296
    30  H    3.382772   2.224303   2.921939   2.665734   1.088692
    31  H    3.490732   3.316245   4.632081   5.011025   2.176487
                   16         17         18         19         20
    16  C    0.000000
    17  S    1.782679   0.000000
    18  H    7.802622   6.330066   0.000000
    19  H    6.936980   5.537038   2.513306   0.000000
    20  H    6.336021   5.522551   4.765430   2.683193   0.000000
    21  H    5.401823   4.911096   6.128670   3.976147   1.743114
    22  H    4.943638   4.465487   5.235311   3.690000   1.795363
    23  H    4.729677   3.437145   5.105116   5.767129   6.982932
    24  H    5.168616   4.402198   6.047064   7.009774   7.965028
    25  H    6.232579   5.036928   4.589078   6.008341   7.492489
    26  H    6.917236   5.613998   2.396462   4.262523   5.920412
    27  H    5.317637   5.834912   7.570914   7.223066   5.867042
    28  H    4.141406   4.949388   7.958697   7.677940   6.603578
    29  H    4.214303   5.089163   8.157563   7.356399   5.725247
    30  H    2.173794   3.642942   8.573087   7.749040   6.570450
    31  H    0.992983   2.433649   8.678312   7.765381   7.164570
                   21         22         23         24         25
    21  H    0.000000
    22  H    1.812887   0.000000
    23  H    7.189208   6.221579   0.000000
    24  H    8.181752   6.938083   1.781656   0.000000
    25  H    8.057169   6.838276   1.823371   1.852882   0.000000
    26  H    6.934178   5.636203   3.499836   3.928063   2.465771
    27  H    5.745948   4.210426   6.973452   6.589891   7.223220
    28  H    6.233533   4.836877   6.171344   5.643909   6.664429
    29  H    5.088507   3.959101   7.051339   6.907903   7.722010
    30  H    5.622589   4.868829   6.089109   6.048132   7.214735
    31  H    6.103936   5.826703   5.313059   5.739523   6.910799
                   26         27         28         29         30
    26  H    0.000000
    27  H    6.676972   0.000000
    28  H    6.723695   1.731881   0.000000
    29  H    7.417954   1.751859   1.778183   0.000000
    30  H    7.602982   3.787347   2.548010   2.436755   0.000000
    31  H    7.782116   6.133460   4.856246   4.911501   2.631863
                   31
    31  H    0.000000
 Stoichiometry    C13H14O3S
 Framework group  C1[X(C13H14O3S)]
 Deg. of freedom    87
 Full point group                 C1      NOp   1
 Largest Abelian subgroup         C1      NOp   1
 Largest concise Abelian subgroup C1      NOp   1
                         Standard orientation:                         
 ---------------------------------------------------------------------
 Center     Atomic      Atomic             Coordinates (Angstroms)
 Number     Number       Type             X           Y           Z
 ---------------------------------------------------------------------
      1          6           0        3.462473    0.232455    0.404791
      2          6           0        2.754433    1.277146   -0.206427
      3          6           0        1.450382    1.222201   -0.410740
      4          8           0        0.794676    2.265779   -0.992476
      5          6           0        0.460831    3.263709   -0.093906
      6          6           0        0.705159    0.036910   -0.161919
      7          6           0        1.500073   -1.033404    0.461297
      8          8           0        0.787203   -2.249965    0.816645
      9          6           0        1.213973   -3.258653   -0.087875
     10          6           0        2.829902   -0.880791    0.743396
     11          6           0       -0.702114   -0.071347   -0.371113
     12          6           0       -1.796801    0.124151    0.459981
     13          8           0       -1.525336    0.441441    1.786428
     14          6           0       -2.721950    0.505422    2.595937
     15          6           0       -3.047167   -0.200271   -0.144369
     16          6           0       -2.927820   -0.531950   -1.488751
     17         16           0       -1.199440   -0.574517   -1.923306
     18          1           0        4.550954    0.302849    0.573276
     19          1           0        3.358144    2.233095   -0.507493
     20          1           0        1.334851    3.807496    0.284385
     21          1           0       -0.191046    4.025440   -0.529607
     22          1           0       -0.053439    2.785377    0.785636
     23          1           0        1.074501   -3.026162   -1.127949
     24          1           0        0.434302   -4.105088    0.137105
     25          1           0        2.225371   -3.630681    0.150620
     26          1           0        3.354703   -1.687588    1.165029
     27          1           0       -2.355315    0.724991    3.646383
     28          1           0       -3.091822   -0.484332    2.649133
     29          1           0       -3.364326    1.239814    2.310021
     30          1           0       -4.012715   -0.009964    0.321197
     31          1           0       -3.613709   -0.754502   -2.171424
 ---------------------------------------------------------------------
 Rotational constants (GHZ):           0.5349249           0.3814613           0.3245020
 Leave Link  202 at Fri Jul 24 21:10:59 2020, MaxMem=  4026531840 cpu:               0.1 elap:               0.0
 (Enter /opt/ohpc/pub/libs/gaussian/g16-A.03/sandybridge/g16/l301.exe)
 Standard basis: CC-pVDZ (5D, 7F)
 Ernie: Thresh=  0.10000D-02 Tol=  0.10000D-05 Strict=F.
 Ernie:  42 primitive shells out of 472 were deleted.
 There are   329 symmetry adapted cartesian basis functions of A   symmetry.
 There are   312 symmetry adapted basis functions of A   symmetry.
   312 basis functions,   697 primitive gaussians,   329 cartesian basis functions
    66 alpha electrons       66 beta electrons
       nuclear repulsion energy      1365.4663642271 Hartrees.
 IExCor=32609 DFT=T Ex+Corr=LC-wPBE ExCW=0 ScaHFX=  1.000000
 ScaDFX=  1.000000  0.000000  1.000000  1.000000 ScalE2=  1.000000  1.000000
 IRadAn=      5 IRanWt=     -1 IRanGd=            0 ICorTp=0 IEmpDi=  4
 HFx  wShort=  0.000000 wLong=  0.489800 cFull=  0.000000 cShort=  0.000000 cLong=  1.000000
 DFx  wShort=  0.000000 wLong=  0.489800 cFull=  0.000000 cShort=  0.000000 cLong=  1.000000
 NAtoms=   31 NActive=   31 NUniq=   31 SFac= 1.00D+00 NAtFMM=   60 NAOKFM=F Big=F
 Integral buffers will be    131072 words long.
 Raffenetti 2 integral format.
 Two-electron integral symmetry is turned on.
 Leave Link  301 at Fri Jul 24 21:10:59 2020, MaxMem=  4026531840 cpu:               0.5 elap:               0.1
 (Enter /opt/ohpc/pub/libs/gaussian/g16-A.03/sandybridge/g16/l302.exe)
 NPDir=0 NMtPBC=     1 NCelOv=     1 NCel=       1 NClECP=     1 NCelD=      1
         NCelK=      1 NCelE2=     1 NClLst=     1 CellRange=     0.0.
 One-electron integrals computed using PRISM.
 One-electron integral symmetry used in STVInt
 NBasis=   312 RedAO= T EigKep=  2.69D-04  NBF=   312
 NBsUse=   312 1.00D-06 EigRej= -1.00D+00 NBFU=   312
 Precomputing XC quadrature grid using
 IXCGrd= 4 IRadAn=           5 IRanWt=          -1 IRanGd=           0 AccXCQ= 0.00D+00.
 Generated NRdTot=       0 NPtTot=           0 NUsed=           0 NTot=          32
 NSgBfM=   328   328   328   328   328 MxSgAt=    31 MxSgA2=    31.
 Leave Link  302 at Fri Jul 24 21:10:59 2020, MaxMem=  4026531840 cpu:               3.2 elap:               0.4
 (Enter /opt/ohpc/pub/libs/gaussian/g16-A.03/sandybridge/g16/l303.exe)
 DipDrv:  MaxL=1.
 Leave Link  303 at Fri Jul 24 21:11:00 2020, MaxMem=  4026531840 cpu:               0.4 elap:               0.1
 (Enter /opt/ohpc/pub/libs/gaussian/g16-A.03/sandybridge/g16/l401.exe)
 ExpMin= 1.22D-01 ExpMax= 1.11D+05 ExpMxC= 1.07D+03 IAcc=3 IRadAn=         5 AccDes= 0.00D+00
 Harris functional with IExCor=32609 and IRadAn=       5 diagonalized for initial guess.
 HarFok:  IExCor=32609 AccDes= 0.00D+00 IRadAn=         5 IDoV= 1 UseB2=F ITyADJ=14
 ICtDFT=  3500011 ScaDFX=  1.000000  1.000000  1.000000  1.000000
 FoFCou: FMM=F IPFlag=           0 FMFlag=      100000 FMFlg1=           0
         NFxFlg=           0 DoJE=T BraDBF=F KetDBF=T FulRan=T
         wScrn=  0.000000 ICntrl=       500 IOpCl=  0 I1Cent=   200000004 NGrid=           0
         NMat0=    1 NMatS0=      1 NMatT0=    0 NMatD0=    1 NMtDS0=    0 NMtDT0=    0
 Petite list used in FoFCou.
 Harris En= -1126.85743742964    
 JPrj=0 DoOrth=F DoCkMO=F.
 Initial guess <Sx>= 0.0000 <Sy>= 0.0000 <Sz>= 0.0000 <S**2>= 0.0000 S= 0.0000
 Leave Link  401 at Fri Jul 24 21:11:02 2020, MaxMem=  4026531840 cpu:              21.0 elap:               2.7
 (Enter /opt/ohpc/pub/libs/gaussian/g16-A.03/sandybridge/g16/l502.exe)
 Integral symmetry usage will be decided dynamically.
 UHF open shell SCF:
 Using DIIS extrapolation, IDIIS=  1040.
 NGot=  4026531840 LenX=  4026309161 LenY=  4026200479
 Requested convergence on RMS density matrix=1.00D-08 within 128 cycles.
 Requested convergence on MAX density matrix=1.00D-06.
 Requested convergence on             energy=1.00D-06.
 No special actions if energy rises.
 Fock matrices will be formed incrementally for  20 cycles.
 Integral accuracy reduced to 1.0D-05 until final iterations.

 Cycle   1  Pass 0  IDiag  1:
 FoFJK:  IHMeth= 1 ICntrl=       0 DoSepK=T KAlg= 0 I1Cent=           0 FoldK=F
 IRaf=         1 NMat=       1 IRICut=       1 DoRegI=T DoRafI=F ISym2E= 0 IDoP0=0 IntGTp=1.
 FoFCou: FMM=F IPFlag=           0 FMFlag=      100000 FMFlg1=           0
         NFxFlg=           0 DoJE=T BraDBF=F KetDBF=F FulRan=T
         wScrn=  0.000000 ICntrl=       500 IOpCl=  0 I1Cent=           0 NGrid=           0
         NMat0=    1 NMatS0=      1 NMatT0=    0 NMatD0=    1 NMtDS0=    0 NMtDT0=    0
 Symmetry not used in FoFCou.
 E= -1126.63897584591    
 DIIS: error= 1.65D-02 at cycle   1 NSaved=   1.
 NSaved= 1 IEnMin= 1 EnMin= -1126.63897584591     IErMin= 1 ErrMin= 1.65D-02
 ErrMax= 1.65D-02  0.00D+00 EMaxC= 1.00D-01 BMatC= 1.34D+00 BMatP= 1.34D+00
 IDIUse=3 WtCom= 8.35D-01 WtEn= 1.65D-01
 Coeff-Com:  0.100D+01
 Coeff-En:   0.100D+01
 Coeff:      0.100D+01
 Gap=     0.431 Goal=   None    Shift=    0.000
 Gap=     0.431 Goal=   None    Shift=    0.000
 GapD=    0.431 DampG=2.000 DampE=0.500 DampFc=1.0000 IDamp=-1.
 RMSDP=3.44D-03 MaxDP=1.24D-01              OVMax= 1.66D-01

 Cycle   2  Pass 0  IDiag  1:
 RMSU=  3.40D-03    CP:  9.75D-01
 E= -1126.86159731961     Delta-E=       -0.222621473699 Rises=F Damp=F
 DIIS: error= 1.14D-02 at cycle   2 NSaved=   2.
 NSaved= 2 IEnMin= 2 EnMin= -1126.86159731961     IErMin= 2 ErrMin= 1.14D-02
 ErrMax= 1.14D-02  0.00D+00 EMaxC= 1.00D-01 BMatC= 5.96D-01 BMatP= 1.34D+00
 IDIUse=3 WtCom= 8.86D-01 WtEn= 1.14D-01
 Coeff-Com:  0.392D+00 0.608D+00
 Coeff-En:   0.183D+00 0.817D+00
 Coeff:      0.368D+00 0.632D+00
 Gap=     0.415 Goal=   None    Shift=    0.000
 Gap=     0.415 Goal=   None    Shift=    0.000
 RMSDP=1.48D-03 MaxDP=7.46D-02 DE=-2.23D-01 OVMax= 8.99D-02

 Cycle   3  Pass 0  IDiag  1:
 RMSU=  9.79D-04    CP:  9.76D-01  6.72D-01
 E= -1127.00814088778     Delta-E=       -0.146543568176 Rises=F Damp=F
 DIIS: error= 1.90D-03 at cycle   3 NSaved=   3.
 NSaved= 3 IEnMin= 3 EnMin= -1127.00814088778     IErMin= 3 ErrMin= 1.90D-03
 ErrMax= 1.90D-03  0.00D+00 EMaxC= 1.00D-01 BMatC= 1.90D-02 BMatP= 5.96D-01
 IDIUse=3 WtCom= 9.81D-01 WtEn= 1.90D-02
 Coeff-Com:  0.704D-01 0.180D+00 0.749D+00
 Coeff-En:   0.000D+00 0.000D+00 0.100D+01
 Coeff:      0.691D-01 0.177D+00 0.754D+00
 Gap=     0.375 Goal=   None    Shift=    0.000
 Gap=     0.375 Goal=   None    Shift=    0.000
 RMSDP=3.54D-04 MaxDP=1.71D-02 DE=-1.47D-01 OVMax= 3.41D-02

 Cycle   4  Pass 0  IDiag  1:
 RMSU=  2.76D-04    CP:  9.75D-01  7.21D-01  8.50D-01
 E= -1127.01305327074     Delta-E=       -0.004912382954 Rises=F Damp=F
 DIIS: error= 1.05D-03 at cycle   4 NSaved=   4.
 NSaved= 4 IEnMin= 4 EnMin= -1127.01305327074     IErMin= 4 ErrMin= 1.05D-03
 ErrMax= 1.05D-03  0.00D+00 EMaxC= 1.00D-01 BMatC= 3.74D-03 BMatP= 1.90D-02
 IDIUse=3 WtCom= 9.89D-01 WtEn= 1.05D-02
 Coeff-Com: -0.116D-01-0.746D-03 0.308D+00 0.704D+00
 Coeff-En:   0.000D+00 0.000D+00 0.000D+00 0.100D+01
 Coeff:     -0.115D-01-0.738D-03 0.305D+00 0.707D+00
 Gap=     0.373 Goal=   None    Shift=    0.000
 Gap=     0.373 Goal=   None    Shift=    0.000
 RMSDP=1.35D-04 MaxDP=5.98D-03 DE=-4.91D-03 OVMax= 9.63D-03

 Cycle   5  Pass 0  IDiag  1:
 RMSU=  9.30D-05    CP:  9.75D-01  7.20D-01  9.38D-01  8.41D-01
 E= -1127.01414037562     Delta-E=       -0.001087104880 Rises=F Damp=F
 DIIS: error= 3.59D-04 at cycle   5 NSaved=   5.
 NSaved= 5 IEnMin= 5 EnMin= -1127.01414037562     IErMin= 5 ErrMin= 3.59D-04
 ErrMax= 3.59D-04  0.00D+00 EMaxC= 1.00D-01 BMatC= 3.24D-04 BMatP= 3.74D-03
 IDIUse=3 WtCom= 9.96D-01 WtEn= 3.59D-03
 Coeff-Com: -0.108D-01-0.208D-01 0.368D-01 0.235D+00 0.760D+00
 Coeff-En:   0.000D+00 0.000D+00 0.000D+00 0.000D+00 0.100D+01
 Coeff:     -0.107D-01-0.208D-01 0.366D-01 0.234D+00 0.761D+00
 Gap=     0.374 Goal=   None    Shift=    0.000
 Gap=     0.374 Goal=   None    Shift=    0.000
 RMSDP=4.76D-05 MaxDP=1.97D-03 DE=-1.09D-03 OVMax= 6.05D-03

 Cycle   6  Pass 0  IDiag  1:
 RMSU=  3.77D-05    CP:  9.75D-01  7.20D-01  9.54D-01  9.30D-01  1.04D+00
 E= -1127.01428902924     Delta-E=       -0.000148653620 Rises=F Damp=F
 DIIS: error= 1.49D-04 at cycle   6 NSaved=   6.
 NSaved= 6 IEnMin= 6 EnMin= -1127.01428902924     IErMin= 6 ErrMin= 1.49D-04
 ErrMax= 1.49D-04  0.00D+00 EMaxC= 1.00D-01 BMatC= 5.62D-05 BMatP= 3.24D-04
 IDIUse=3 WtCom= 9.99D-01 WtEn= 1.49D-03
 Coeff-Com: -0.200D-02-0.853D-02-0.360D-01-0.495D-01 0.194D+00 0.902D+00
 Coeff-En:   0.000D+00 0.000D+00 0.000D+00 0.000D+00 0.000D+00 0.100D+01
 Coeff:     -0.200D-02-0.852D-02-0.360D-01-0.495D-01 0.193D+00 0.903D+00
 Gap=     0.374 Goal=   None    Shift=    0.000
 Gap=     0.374 Goal=   None    Shift=    0.000
 RMSDP=3.03D-05 MaxDP=1.62D-03 DE=-1.49D-04 OVMax= 4.10D-03

 Cycle   7  Pass 0  IDiag  1:
 RMSU=  1.54D-05    CP:  9.75D-01  7.21D-01  9.63D-01  9.63D-01  1.26D+00
                    CP:  1.26D+00
 E= -1127.01433875141     Delta-E=       -0.000049722168 Rises=F Damp=F
 DIIS: error= 8.17D-05 at cycle   7 NSaved=   7.
 NSaved= 7 IEnMin= 7 EnMin= -1127.01433875141     IErMin= 7 ErrMin= 8.17D-05
 ErrMax= 8.17D-05  0.00D+00 EMaxC= 1.00D-01 BMatC= 1.22D-05 BMatP= 5.62D-05
 IDIUse=1 WtCom= 1.00D+00 WtEn= 0.00D+00
 Coeff-Com:  0.163D-02 0.219D-02-0.942D-02-0.585D-01-0.155D+00 0.157D+00
 Coeff-Com:  0.106D+01
 Coeff:      0.163D-02 0.219D-02-0.942D-02-0.585D-01-0.155D+00 0.157D+00
 Coeff:      0.106D+01
 Gap=     0.374 Goal=   None    Shift=    0.000
 Gap=     0.374 Goal=   None    Shift=    0.000
 RMSDP=1.99D-05 MaxDP=9.52D-04 DE=-4.97D-05 OVMax= 2.99D-03

 Cycle   8  Pass 0  IDiag  1:
 RMSU=  6.45D-06    CP:  9.75D-01  7.21D-01  9.67D-01  9.85D-01  1.35D+00
                    CP:  1.63D+00  1.37D+00
 E= -1127.01435257247     Delta-E=       -0.000013821058 Rises=F Damp=F
 DIIS: error= 2.33D-05 at cycle   8 NSaved=   8.
 NSaved= 8 IEnMin= 8 EnMin= -1127.01435257247     IErMin= 8 ErrMin= 2.33D-05
 ErrMax= 2.33D-05  0.00D+00 EMaxC= 1.00D-01 BMatC= 2.28D-06 BMatP= 1.22D-05
 IDIUse=1 WtCom= 1.00D+00 WtEn= 0.00D+00
 Coeff-Com:  0.868D-03 0.216D-02 0.430D-02-0.111D-01-0.898D-01-0.115D+00
 Coeff-Com:  0.343D+00 0.865D+00
 Coeff:      0.868D-03 0.216D-02 0.430D-02-0.111D-01-0.898D-01-0.115D+00
 Coeff:      0.343D+00 0.865D+00
 Gap=     0.374 Goal=   None    Shift=    0.000
 Gap=     0.374 Goal=   None    Shift=    0.000
 RMSDP=7.85D-06 MaxDP=3.84D-04 DE=-1.38D-05 OVMax= 9.93D-04

 Initial convergence to 1.0D-05 achieved.  Increase integral accuracy.
 Cycle   9  Pass 1  IDiag  1:
 E= -1127.01417817665     Delta-E=        0.000174395818 Rises=F Damp=F
 DIIS: error= 1.25D-04 at cycle   1 NSaved=   1.
 NSaved= 1 IEnMin= 1 EnMin= -1127.01417817665     IErMin= 1 ErrMin= 1.25D-04
 ErrMax= 1.25D-04  0.00D+00 EMaxC= 1.00D-01 BMatC= 4.01D-06 BMatP= 4.01D-06
 IDIUse=3 WtCom= 9.99D-01 WtEn= 1.25D-03
 Coeff-Com:  0.100D+01
 Coeff-En:   0.100D+01
 Coeff:      0.100D+01
 Gap=     0.374 Goal=   None    Shift=    0.000
 Gap=     0.374 Goal=   None    Shift=    0.000
 RMSDP=7.85D-06 MaxDP=3.84D-04 DE= 1.74D-04 OVMax= 2.28D-04

 Cycle  10  Pass 1  IDiag  1:
 RMSU=  5.11D-05    CP:  1.00D+00
 E= -1127.01417894925     Delta-E=       -0.000000772600 Rises=F Damp=F
 DIIS: error= 5.55D-06 at cycle   2 NSaved=   2.
 NSaved= 2 IEnMin= 2 EnMin= -1127.01417894925     IErMin= 2 ErrMin= 5.55D-06
 ErrMax= 5.55D-06  0.00D+00 EMaxC= 1.00D-01 BMatC= 1.46D-07 BMatP= 4.01D-06
 IDIUse=1 WtCom= 1.00D+00 WtEn= 0.00D+00
 Coeff-Com:  0.221D-01 0.978D+00
 Coeff:      0.221D-01 0.978D+00
 Gap=     0.374 Goal=   None    Shift=    0.000
 Gap=     0.374 Goal=   None    Shift=    0.000
 RMSDP=2.90D-06 MaxDP=7.26D-05 DE=-7.73D-07 OVMax= 1.15D-04

 Cycle  11  Pass 1  IDiag  1:
 RMSU=  1.41D-06    CP:  1.00D+00  1.05D+00
 E= -1127.01417898200     Delta-E=       -0.000000032750 Rises=F Damp=F
 DIIS: error= 5.93D-06 at cycle   3 NSaved=   3.
 NSaved= 3 IEnMin= 3 EnMin= -1127.01417898200     IErMin= 2 ErrMin= 5.55D-06
 ErrMax= 5.93D-06  0.00D+00 EMaxC= 1.00D-01 BMatC= 1.18D-07 BMatP= 1.46D-07
 IDIUse=1 WtCom= 1.00D+00 WtEn= 0.00D+00
 Coeff-Com: -0.232D-01 0.476D+00 0.547D+00
 Coeff:     -0.232D-01 0.476D+00 0.547D+00
 Gap=     0.374 Goal=   None    Shift=    0.000
 Gap=     0.374 Goal=   None    Shift=    0.000
 RMSDP=5.80D-07 MaxDP=2.90D-05 DE=-3.27D-08 OVMax= 6.33D-05

 Cycle  12  Pass 1  IDiag  1:
 RMSU=  5.07D-07    CP:  1.00D+00  1.05D+00  8.52D-01
 E= -1127.01417901177     Delta-E=       -0.000000029771 Rises=F Damp=F
 DIIS: error= 1.52D-06 at cycle   4 NSaved=   4.
 NSaved= 4 IEnMin= 4 EnMin= -1127.01417901177     IErMin= 4 ErrMin= 1.52D-06
 ErrMax= 1.52D-06  0.00D+00 EMaxC= 1.00D-01 BMatC= 4.64D-09 BMatP= 1.18D-07
 IDIUse=1 WtCom= 1.00D+00 WtEn= 0.00D+00
 Coeff-Com:  0.444D-02-0.208D+00-0.139D+00 0.134D+01
 Coeff:      0.444D-02-0.208D+00-0.139D+00 0.134D+01
 Gap=     0.374 Goal=   None    Shift=    0.000
 Gap=     0.374 Goal=   None    Shift=    0.000
 RMSDP=4.33D-07 MaxDP=1.94D-05 DE=-2.98D-08 OVMax= 6.07D-05

 Cycle  13  Pass 1  IDiag  1:
 RMSU=  2.56D-07    CP:  1.00D+00  1.05D+00  1.02D+00  1.50D+00
 E= -1127.01417901861     Delta-E=       -0.000000006844 Rises=F Damp=F
 DIIS: error= 8.77D-07 at cycle   5 NSaved=   5.
 NSaved= 5 IEnMin= 5 EnMin= -1127.01417901861     IErMin= 5 ErrMin= 8.77D-07
 ErrMax= 8.77D-07  0.00D+00 EMaxC= 1.00D-01 BMatC= 1.71D-09 BMatP= 4.64D-09
 IDIUse=1 WtCom= 1.00D+00 WtEn= 0.00D+00
 Coeff-Com:  0.829D-02-0.224D+00-0.208D+00 0.602D+00 0.822D+00
 Coeff:      0.829D-02-0.224D+00-0.208D+00 0.602D+00 0.822D+00
 Gap=     0.374 Goal=   None    Shift=    0.000
 Gap=     0.374 Goal=   None    Shift=    0.000
 RMSDP=2.21D-07 MaxDP=9.09D-06 DE=-6.84D-09 OVMax= 3.53D-05

 Cycle  14  Pass 1  IDiag  1:
 RMSU=  9.65D-08    CP:  1.00D+00  1.05D+00  1.08D+00  1.79D+00  1.36D+00
 E= -1127.01417902012     Delta-E=       -0.000000001507 Rises=F Damp=F
 DIIS: error= 2.37D-07 at cycle   6 NSaved=   6.
 NSaved= 6 IEnMin= 6 EnMin= -1127.01417902012     IErMin= 6 ErrMin= 2.37D-07
 ErrMax= 2.37D-07  0.00D+00 EMaxC= 1.00D-01 BMatC= 1.59D-10 BMatP= 1.71D-09
 IDIUse=1 WtCom= 1.00D+00 WtEn= 0.00D+00
 Coeff-Com:  0.134D-02-0.253D-01-0.277D-01-0.454D-01 0.202D+00 0.895D+00
 Coeff:      0.134D-02-0.253D-01-0.277D-01-0.454D-01 0.202D+00 0.895D+00
 Gap=     0.374 Goal=   None    Shift=    0.000
 Gap=     0.374 Goal=   None    Shift=    0.000
 RMSDP=6.74D-08 MaxDP=2.55D-06 DE=-1.51D-09 OVMax= 7.41D-06

 Cycle  15  Pass 1  IDiag  1:
 RMSU=  2.99D-08    CP:  1.00D+00  1.05D+00  1.09D+00  1.84D+00  1.55D+00
                    CP:  1.10D+00
 E= -1127.01417902031     Delta-E=       -0.000000000193 Rises=F Damp=F
 DIIS: error= 9.25D-08 at cycle   7 NSaved=   7.
 NSaved= 7 IEnMin= 7 EnMin= -1127.01417902031     IErMin= 7 ErrMin= 9.25D-08
 ErrMax= 9.25D-08  0.00D+00 EMaxC= 1.00D-01 BMatC= 3.16D-11 BMatP= 1.59D-10
 IDIUse=1 WtCom= 1.00D+00 WtEn= 0.00D+00
 Coeff-Com: -0.967D-03 0.302D-01 0.280D-01-0.124D+00-0.616D-01 0.348D+00
 Coeff-Com:  0.780D+00
 Coeff:     -0.967D-03 0.302D-01 0.280D-01-0.124D+00-0.616D-01 0.348D+00
 Coeff:      0.780D+00
 Gap=     0.374 Goal=   None    Shift=    0.000
 Gap=     0.374 Goal=   None    Shift=    0.000
 RMSDP=2.05D-08 MaxDP=8.37D-07 DE=-1.93D-10 OVMax= 2.80D-06

 Cycle  16  Pass 1  IDiag  1:
 RMSU=  1.26D-08    CP:  1.00D+00  1.05D+00  1.09D+00  1.85D+00  1.60D+00
                    CP:  1.18D+00  9.85D-01
 E= -1127.01417902598     Delta-E=       -0.000000005666 Rises=F Damp=F
 DIIS: error= 2.50D-08 at cycle   8 NSaved=   8.
 NSaved= 8 IEnMin= 8 EnMin= -1127.01417902598     IErMin= 8 ErrMin= 2.50D-08
 ErrMax= 2.50D-08  0.00D+00 EMaxC= 1.00D-01 BMatC= 3.00D-12 BMatP= 3.16D-11
 IDIUse=1 WtCom= 1.00D+00 WtEn= 0.00D+00
 Coeff-Com: -0.366D-03 0.961D-02 0.974D-02-0.257D-01-0.355D-01-0.312D-01
 Coeff-Com:  0.182D+00 0.891D+00
 Coeff:     -0.366D-03 0.961D-02 0.974D-02-0.257D-01-0.355D-01-0.312D-01
 Coeff:      0.182D+00 0.891D+00
 Gap=     0.374 Goal=   None    Shift=    0.000
 Gap=     0.374 Goal=   None    Shift=    0.000
 RMSDP=6.91D-09 MaxDP=2.92D-07 DE=-5.67D-09 OVMax= 5.52D-07

 SCF Done:  E(ULC-wPBE) =  -1127.01417903     A.U. after   16 cycles
            NFock= 16  Conv=0.69D-08     -V/T= 2.0051
 <Sx>= 0.0000 <Sy>= 0.0000 <Sz>= 0.0000 <S**2>=-0.0000 S=-0.0000
 <L.S>= 0.000000000000E+00
 KE= 1.121272796666D+03 PE=-5.377427779785D+03 EE= 1.763674439866D+03
 Annihilation of the first spin contaminant:
 S**2 before annihilation    -0.0000,   after    -0.0000
 Leave Link  502 at Fri Jul 24 21:13:27 2020, MaxMem=  4026531840 cpu:            1151.8 elap:             144.5
 (Enter /opt/ohpc/pub/libs/gaussian/g16-A.03/sandybridge/g16/l601.exe)
 Copying SCF densities to generalized density rwf, IOpCl= 1 IROHF=0.

 **********************************************************************

            Population analysis using the SCF density.

 **********************************************************************

 Orbital symmetries:
 Alpha Orbitals:
       Occupied  (A) (A) (A) (A) (A) (A) (A) (A) (A) (A) (A) (A)
                 (A) (A) (A) (A) (A) (A) (A) (A) (A) (A) (A) (A)
                 (A) (A) (A) (A) (A) (A) (A) (A) (A) (A) (A) (A)
                 (A) (A) (A) (A) (A) (A) (A) (A) (A) (A) (A) (A)
                 (A) (A) (A) (A) (A) (A) (A) (A) (A) (A) (A) (A)
                 (A) (A) (A) (A) (A) (A)
       Virtual   (A) (A) (A) (A) (A) (A) (A) (A) (A) (A) (A) (A)
                 (A) (A) (A) (A) (A) (A) (A) (A) (A) (A) (A) (A)
                 (A) (A) (A) (A) (A) (A) (A) (A) (A) (A) (A) (A)
                 (A) (A) (A) (A) (A) (A) (A) (A) (A) (A) (A) (A)
                 (A) (A) (A) (A) (A) (A) (A) (A) (A) (A) (A) (A)
                 (A) (A) (A) (A) (A) (A) (A) (A) (A) (A) (A) (A)
                 (A) (A) (A) (A) (A) (A) (A) (A) (A) (A) (A) (A)
                 (A) (A) (A) (A) (A) (A) (A) (A) (A) (A) (A) (A)
                 (A) (A) (A) (A) (A) (A) (A) (A) (A) (A) (A) (A)
                 (A) (A) (A) (A) (A) (A) (A) (A) (A) (A) (A) (A)
                 (A) (A) (A) (A) (A) (A) (A) (A) (A) (A) (A) (A)
                 (A) (A) (A) (A) (A) (A) (A) (A) (A) (A) (A) (A)
                 (A) (A) (A) (A) (A) (A) (A) (A) (A) (A) (A) (A)
                 (A) (A) (A) (A) (A) (A) (A) (A) (A) (A) (A) (A)
                 (A) (A) (A) (A) (A) (A) (A) (A) (A) (A) (A) (A)
                 (A) (A) (A) (A) (A) (A) (A) (A) (A) (A) (A) (A)
                 (A) (A) (A) (A) (A) (A) (A) (A) (A) (A) (A) (A)
                 (A) (A) (A) (A) (A) (A) (A) (A) (A) (A) (A) (A)
                 (A) (A) (A) (A) (A) (A) (A) (A) (A) (A) (A) (A)
                 (A) (A) (A) (A) (A) (A) (A) (A) (A) (A) (A) (A)
                 (A) (A) (A) (A) (A) (A)
 Beta  Orbitals:
       Occupied  (A) (A) (A) (A) (A) (A) (A) (A) (A) (A) (A) (A)
                 (A) (A) (A) (A) (A) (A) (A) (A) (A) (A) (A) (A)
                 (A) (A) (A) (A) (A) (A) (A) (A) (A) (A) (A) (A)
                 (A) (A) (A) (A) (A) (A) (A) (A) (A) (A) (A) (A)
                 (A) (A) (A) (A) (A) (A) (A) (A) (A) (A) (A) (A)
                 (A) (A) (A) (A) (A) (A)
       Virtual   (A) (A) (A) (A) (A) (A) (A) (A) (A) (A) (A) (A)
                 (A) (A) (A) (A) (A) (A) (A) (A) (A) (A) (A) (A)
                 (A) (A) (A) (A) (A) (A) (A) (A) (A) (A) (A) (A)
                 (A) (A) (A) (A) (A) (A) (A) (A) (A) (A) (A) (A)
                 (A) (A) (A) (A) (A) (A) (A) (A) (A) (A) (A) (A)
                 (A) (A) (A) (A) (A) (A) (A) (A) (A) (A) (A) (A)
                 (A) (A) (A) (A) (A) (A) (A) (A) (A) (A) (A) (A)
                 (A) (A) (A) (A) (A) (A) (A) (A) (A) (A) (A) (A)
                 (A) (A) (A) (A) (A) (A) (A) (A) (A) (A) (A) (A)
                 (A) (A) (A) (A) (A) (A) (A) (A) (A) (A) (A) (A)
                 (A) (A) (A) (A) (A) (A) (A) (A) (A) (A) (A) (A)
                 (A) (A) (A) (A) (A) (A) (A) (A) (A) (A) (A) (A)
                 (A) (A) (A) (A) (A) (A) (A) (A) (A) (A) (A) (A)
                 (A) (A) (A) (A) (A) (A) (A) (A) (A) (A) (A) (A)
                 (A) (A) (A) (A) (A) (A) (A) (A) (A) (A) (A) (A)
                 (A) (A) (A) (A) (A) (A) (A) (A) (A) (A) (A) (A)
                 (A) (A) (A) (A) (A) (A) (A) (A) (A) (A) (A) (A)
                 (A) (A) (A) (A) (A) (A) (A) (A) (A) (A) (A) (A)
                 (A) (A) (A) (A) (A) (A) (A) (A) (A) (A) (A) (A)
                 (A) (A) (A) (A) (A) (A) (A) (A) (A) (A) (A) (A)
                 (A) (A) (A) (A) (A) (A)
 The electronic state is 1-A.
 Alpha  occ. eigenvalues --  -88.36129 -19.04802 -19.03652 -19.03296 -10.23409
 Alpha  occ. eigenvalues --  -10.22761 -10.22318 -10.21128 -10.21101 -10.20669
 Alpha  occ. eigenvalues --  -10.19800 -10.18992 -10.18930 -10.18175 -10.17725
 Alpha  occ. eigenvalues --  -10.16869 -10.16071  -7.96958  -5.98069  -5.97523
 Alpha  occ. eigenvalues --   -5.97126  -1.24118  -1.22442  -1.20811  -1.06983
 Alpha  occ. eigenvalues --   -1.05012  -0.96395  -0.93563  -0.91273  -0.89748
 Alpha  occ. eigenvalues --   -0.85845  -0.85283  -0.83900  -0.79080  -0.74174
 Alpha  occ. eigenvalues --   -0.73259  -0.70303  -0.68171  -0.66347  -0.65237
 Alpha  occ. eigenvalues --   -0.62942  -0.62479  -0.61663  -0.60671  -0.59820
 Alpha  occ. eigenvalues --   -0.58937  -0.57897  -0.57344  -0.55992  -0.55067
 Alpha  occ. eigenvalues --   -0.53233  -0.52820  -0.51459  -0.50253  -0.49565
 Alpha  occ. eigenvalues --   -0.47123  -0.47074  -0.45951  -0.45843  -0.45356
 Alpha  occ. eigenvalues --   -0.40984  -0.39501  -0.36334  -0.35755  -0.34608
 Alpha  occ. eigenvalues --   -0.31289
 Alpha virt. eigenvalues --    0.06104   0.07081   0.10105   0.14326   0.15788
 Alpha virt. eigenvalues --    0.16949   0.17195   0.18114   0.19143   0.19736
 Alpha virt. eigenvalues --    0.21279   0.21991   0.22222   0.22939   0.23868
 Alpha virt. eigenvalues --    0.24003   0.24150   0.24721   0.25463   0.26059
 Alpha virt. eigenvalues --    0.26788   0.27881   0.28958   0.30591   0.34036
 Alpha virt. eigenvalues --    0.35641   0.38269   0.38752   0.39912   0.42044
 Alpha virt. eigenvalues --    0.42574   0.47614   0.49538   0.50201   0.51512
 Alpha virt. eigenvalues --    0.53323   0.53852   0.54350   0.55883   0.56245
 Alpha virt. eigenvalues --    0.57069   0.57728   0.58055   0.58745   0.59300
 Alpha virt. eigenvalues --    0.59616   0.60970   0.61505   0.62143   0.62422
 Alpha virt. eigenvalues --    0.62932   0.63663   0.63727   0.64231   0.65607
 Alpha virt. eigenvalues --    0.66425   0.67068   0.67327   0.68217   0.68828
 Alpha virt. eigenvalues --    0.69923   0.71694   0.72672   0.73586   0.74773
 Alpha virt. eigenvalues --    0.75164   0.75741   0.76245   0.76982   0.77633
 Alpha virt. eigenvalues --    0.78015   0.78513   0.79087   0.79919   0.80870
 Alpha virt. eigenvalues --    0.81432   0.82381   0.82914   0.83487   0.83863
 Alpha virt. eigenvalues --    0.84872   0.86126   0.86974   0.87929   0.88670
 Alpha virt. eigenvalues --    0.90435   0.91075   0.91533   0.93565   0.96254
 Alpha virt. eigenvalues --    0.99001   0.99938   1.01210   1.01273   1.02905
 Alpha virt. eigenvalues --    1.04089   1.05129   1.05953   1.06251   1.07863
 Alpha virt. eigenvalues --    1.08481   1.09674   1.10156   1.12700   1.13167
 Alpha virt. eigenvalues --    1.13850   1.15176   1.15811   1.17366   1.17688
 Alpha virt. eigenvalues --    1.18514   1.20855   1.21864   1.24740   1.26086
 Alpha virt. eigenvalues --    1.26708   1.28844   1.29999   1.32580   1.33283
 Alpha virt. eigenvalues --    1.35123   1.37042   1.37831   1.40017   1.41842
 Alpha virt. eigenvalues --    1.43569   1.44893   1.45741   1.46921   1.48601
 Alpha virt. eigenvalues --    1.51022   1.52633   1.53660   1.54269   1.54507
 Alpha virt. eigenvalues --    1.55283   1.55496   1.56184   1.57175   1.59186
 Alpha virt. eigenvalues --    1.60203   1.63473   1.65095   1.65962   1.66121
 Alpha virt. eigenvalues --    1.67544   1.69851   1.70508   1.72042   1.73037
 Alpha virt. eigenvalues --    1.74025   1.74834   1.75374   1.75814   1.77125
 Alpha virt. eigenvalues --    1.77670   1.79298   1.79557   1.80107   1.80779
 Alpha virt. eigenvalues --    1.81805   1.82298   1.83034   1.84060   1.84803
 Alpha virt. eigenvalues --    1.85489   1.86464   1.86765   1.87900   1.89855
 Alpha virt. eigenvalues --    1.90462   1.91308   1.91591   1.92578   1.94091
 Alpha virt. eigenvalues --    1.94974   1.95703   1.99305   2.01004   2.02110
 Alpha virt. eigenvalues --    2.03099   2.03886   2.05177   2.06327   2.07541
 Alpha virt. eigenvalues --    2.08219   2.10954   2.12506   2.14488   2.14753
 Alpha virt. eigenvalues --    2.16744   2.17253   2.20332   2.21108   2.21743
 Alpha virt. eigenvalues --    2.22012   2.22823   2.24389   2.26654   2.28514
 Alpha virt. eigenvalues --    2.28635   2.31407   2.32131   2.37662   2.38604
 Alpha virt. eigenvalues --    2.41687   2.44062   2.44893   2.46596   2.47260
 Alpha virt. eigenvalues --    2.50962   2.51766   2.54565   2.56531   2.58049
 Alpha virt. eigenvalues --    2.59255   2.60410   2.61019   2.62254   2.62770
 Alpha virt. eigenvalues --    2.64649   2.66377   2.70513   2.77607   2.79349
 Alpha virt. eigenvalues --    2.83668   2.84983   2.88356   2.95538   3.04946
 Alpha virt. eigenvalues --    3.11736   3.15040   3.15989   3.16293   3.18110
 Alpha virt. eigenvalues --    3.18801   3.20907   3.27180   3.33872   3.38524
 Alpha virt. eigenvalues --    3.40555   3.44850   3.47011   3.56620   3.58742
 Alpha virt. eigenvalues --    3.82217
  Beta  occ. eigenvalues --  -88.36129 -19.04802 -19.03652 -19.03296 -10.23409
  Beta  occ. eigenvalues --  -10.22761 -10.22318 -10.21128 -10.21101 -10.20669
  Beta  occ. eigenvalues --  -10.19800 -10.18992 -10.18930 -10.18175 -10.17725
  Beta  occ. eigenvalues --  -10.16869 -10.16071  -7.96958  -5.98069  -5.97523
  Beta  occ. eigenvalues --   -5.97126  -1.24118  -1.22442  -1.20811  -1.06983
  Beta  occ. eigenvalues --   -1.05012  -0.96395  -0.93563  -0.91273  -0.89748
  Beta  occ. eigenvalues --   -0.85845  -0.85283  -0.83900  -0.79080  -0.74174
  Beta  occ. eigenvalues --   -0.73259  -0.70303  -0.68171  -0.66347  -0.65237
  Beta  occ. eigenvalues --   -0.62942  -0.62479  -0.61663  -0.60671  -0.59820
  Beta  occ. eigenvalues --   -0.58937  -0.57897  -0.57344  -0.55992  -0.55067
  Beta  occ. eigenvalues --   -0.53233  -0.52820  -0.51459  -0.50253  -0.49565
  Beta  occ. eigenvalues --   -0.47123  -0.47074  -0.45951  -0.45843  -0.45356
  Beta  occ. eigenvalues --   -0.40984  -0.39501  -0.36334  -0.35755  -0.34608
  Beta  occ. eigenvalues --   -0.31289
  Beta virt. eigenvalues --    0.06104   0.07081   0.10105   0.14326   0.15788
  Beta virt. eigenvalues --    0.16949   0.17195   0.18114   0.19143   0.19736
  Beta virt. eigenvalues --    0.21279   0.21991   0.22222   0.22939   0.23868
  Beta virt. eigenvalues --    0.24003   0.24150   0.24721   0.25463   0.26059
  Beta virt. eigenvalues --    0.26788   0.27881   0.28958   0.30591   0.34036
  Beta virt. eigenvalues --    0.35641   0.38269   0.38752   0.39912   0.42044
  Beta virt. eigenvalues --    0.42574   0.47614   0.49538   0.50201   0.51512
  Beta virt. eigenvalues --    0.53323   0.53852   0.54350   0.55883   0.56245
  Beta virt. eigenvalues --    0.57069   0.57728   0.58055   0.58745   0.59300
  Beta virt. eigenvalues --    0.59616   0.60970   0.61505   0.62143   0.62422
  Beta virt. eigenvalues --    0.62932   0.63663   0.63727   0.64231   0.65607
  Beta virt. eigenvalues --    0.66425   0.67068   0.67327   0.68217   0.68828
  Beta virt. eigenvalues --    0.69923   0.71694   0.72672   0.73586   0.74773
  Beta virt. eigenvalues --    0.75164   0.75741   0.76245   0.76982   0.77633
  Beta virt. eigenvalues --    0.78015   0.78513   0.79087   0.79919   0.80870
  Beta virt. eigenvalues --    0.81432   0.82381   0.82914   0.83487   0.83863
  Beta virt. eigenvalues --    0.84872   0.86126   0.86974   0.87929   0.88670
  Beta virt. eigenvalues --    0.90435   0.91075   0.91533   0.93565   0.96254
  Beta virt. eigenvalues --    0.99001   0.99938   1.01210   1.01273   1.02905
  Beta virt. eigenvalues --    1.04089   1.05129   1.05953   1.06251   1.07863
  Beta virt. eigenvalues --    1.08481   1.09674   1.10156   1.12700   1.13167
  Beta virt. eigenvalues --    1.13850   1.15176   1.15811   1.17366   1.17688
  Beta virt. eigenvalues --    1.18514   1.20855   1.21864   1.24740   1.26086
  Beta virt. eigenvalues --    1.26708   1.28844   1.29999   1.32580   1.33283
  Beta virt. eigenvalues --    1.35123   1.37042   1.37831   1.40017   1.41842
  Beta virt. eigenvalues --    1.43569   1.44893   1.45741   1.46921   1.48601
  Beta virt. eigenvalues --    1.51022   1.52633   1.53660   1.54269   1.54507
  Beta virt. eigenvalues --    1.55283   1.55496   1.56184   1.57175   1.59186
  Beta virt. eigenvalues --    1.60203   1.63473   1.65095   1.65962   1.66121
  Beta virt. eigenvalues --    1.67544   1.69851   1.70508   1.72042   1.73037
  Beta virt. eigenvalues --    1.74025   1.74834   1.75374   1.75814   1.77125
  Beta virt. eigenvalues --    1.77670   1.79298   1.79557   1.80107   1.80779
  Beta virt. eigenvalues --    1.81805   1.82298   1.83034   1.84060   1.84803
  Beta virt. eigenvalues --    1.85489   1.86464   1.86765   1.87900   1.89855
  Beta virt. eigenvalues --    1.90462   1.91308   1.91591   1.92578   1.94091
  Beta virt. eigenvalues --    1.94974   1.95703   1.99305   2.01004   2.02110
  Beta virt. eigenvalues --    2.03099   2.03886   2.05177   2.06327   2.07541
  Beta virt. eigenvalues --    2.08219   2.10954   2.12506   2.14488   2.14753
  Beta virt. eigenvalues --    2.16744   2.17253   2.20332   2.21108   2.21743
  Beta virt. eigenvalues --    2.22012   2.22823   2.24389   2.26654   2.28514
  Beta virt. eigenvalues --    2.28635   2.31407   2.32131   2.37662   2.38604
  Beta virt. eigenvalues --    2.41687   2.44062   2.44893   2.46596   2.47260
  Beta virt. eigenvalues --    2.50962   2.51766   2.54565   2.56531   2.58049
  Beta virt. eigenvalues --    2.59255   2.60410   2.61019   2.62254   2.62770
  Beta virt. eigenvalues --    2.64649   2.66377   2.70513   2.77607   2.79349
  Beta virt. eigenvalues --    2.83668   2.84983   2.88356   2.95538   3.04946
  Beta virt. eigenvalues --    3.11736   3.15040   3.15989   3.16293   3.18110
  Beta virt. eigenvalues --    3.18801   3.20907   3.27180   3.33872   3.38524
  Beta virt. eigenvalues --    3.40555   3.44850   3.47011   3.56620   3.58742
  Beta virt. eigenvalues --    3.82217
          Condensed to atoms (all electrons):
               1          2          3          4          5          6
     1  C    4.816958   0.418282   0.033819   0.006084  -0.000080  -0.080838
     2  C    0.418282   4.963147   0.448144  -0.064111  -0.012392  -0.019429
     3  C    0.033819   0.448144   4.916227   0.435439  -0.072695   0.366174
     4  O    0.006084  -0.064111   0.435439   7.697800   0.351629  -0.081959
     5  C   -0.000080  -0.012392  -0.072695   0.351629   4.504537  -0.004722
     6  C   -0.080838  -0.019429   0.366174  -0.081959  -0.004722   5.438975
     7  C    0.041460  -0.101752   0.059318   0.004674  -0.000042   0.379141
     8  O    0.005881  -0.000374   0.004744  -0.000004   0.000001  -0.068258
     9  C   -0.000305   0.000123  -0.000104   0.000000  -0.000000  -0.003848
    10  C    0.454725   0.011900  -0.094307  -0.000379   0.000083  -0.006272
    11  C   -0.002792   0.016535  -0.122816   0.004320   0.001700   0.195518
    12  C   -0.000065   0.000356  -0.004475  -0.000649   0.000684  -0.068020
    13  O   -0.000011   0.000005  -0.000991   0.000010  -0.001839   0.007976
    14  C    0.000000   0.000000  -0.000004  -0.000005   0.000035  -0.000281
    15  C   -0.000001   0.000009   0.000160   0.000126  -0.000020   0.010694
    16  C   -0.000000   0.000004  -0.000050  -0.000029  -0.000007   0.002019
    17  S    0.000038  -0.000562  -0.005601   0.000807  -0.000139  -0.051979
    18  H    0.403842  -0.041672   0.007859  -0.000058  -0.000006  -0.000404
    19  H   -0.046398   0.390827  -0.033890  -0.002223  -0.001157   0.011495
    20  H   -0.001389   0.005714   0.000305  -0.035998   0.395456  -0.001482
    21  H    0.000049  -0.000187   0.001228  -0.016250   0.409500   0.000148
    22  H   -0.000004   0.000128  -0.001084  -0.041179   0.384763   0.011713
    23  H   -0.000292   0.000070  -0.000863   0.000002  -0.000000   0.007191
    24  H    0.000041  -0.000007   0.000029  -0.000000  -0.000000   0.000124
    25  H   -0.000997   0.000039   0.000011  -0.000000   0.000000  -0.001526
    26  H   -0.051515   0.011512  -0.002132   0.000003   0.000000   0.013102
    27  H   -0.000000   0.000000   0.000003  -0.000000   0.000009  -0.000060
    28  H    0.000000  -0.000000  -0.000009   0.000000  -0.000011   0.000122
    29  H   -0.000000   0.000001   0.000005  -0.000001   0.000057   0.000042
    30  H   -0.000000  -0.000000   0.000002   0.000002  -0.000001  -0.000243
    31  H   -0.000000   0.000000  -0.000002  -0.000001  -0.000001  -0.000390
               7          8          9         10         11         12
     1  C    0.041460   0.005881  -0.000305   0.454725  -0.002792  -0.000065
     2  C   -0.101752  -0.000374   0.000123   0.011900   0.016535   0.000356
     3  C    0.059318   0.004744  -0.000104  -0.094307  -0.122816  -0.004475
     4  O    0.004674  -0.000004   0.000000  -0.000379   0.004320  -0.000649
     5  C   -0.000042   0.000001  -0.000000   0.000083   0.001700   0.000684
     6  C    0.379141  -0.068258  -0.003848  -0.006272   0.195518  -0.068020
     7  C    5.040860   0.401474  -0.080310   0.418963  -0.121768  -0.003040
     8  O    0.401474   7.766758   0.335672  -0.058751   0.001077   0.001155
     9  C   -0.080310   0.335672   4.548075  -0.007962   0.000742  -0.000020
    10  C    0.418963  -0.058751  -0.007962   4.789864   0.012329   0.000341
    11  C   -0.121768   0.001077   0.000742   0.012329   5.438802   0.570553
    12  C   -0.003040   0.001155  -0.000020   0.000341   0.570553   4.766422
    13  O    0.001297  -0.000136  -0.000008   0.000100  -0.079545   0.432336
    14  C   -0.000051  -0.000009   0.000001  -0.000002   0.008071  -0.074394
    15  C    0.000148   0.000074  -0.000013   0.000015  -0.063800   0.397516
    16  C    0.000119  -0.000010  -0.000034   0.000004  -0.083655  -0.040161
    17  S   -0.005318   0.000117  -0.000045  -0.000360   0.358793  -0.086331
    18  H    0.008865  -0.000062   0.000003  -0.036556   0.000022   0.000000
    19  H   -0.001187   0.000002   0.000000   0.009077  -0.000148  -0.000001
    20  H   -0.000078  -0.000000  -0.000000   0.000094   0.000750   0.000035
    21  H    0.000036  -0.000000  -0.000000  -0.000008  -0.000296   0.000045
    22  H   -0.001113   0.000004  -0.000000  -0.000008  -0.006217  -0.000239
    23  H   -0.001876  -0.030412   0.392177  -0.000280   0.000473   0.000083
    24  H    0.005199  -0.025470   0.395308  -0.000009  -0.000344   0.000005
    25  H   -0.007611  -0.033427   0.400103   0.005988   0.000305   0.000003
    26  H   -0.041008  -0.002781  -0.000432   0.402631  -0.000182  -0.000001
    27  H    0.000006  -0.000000   0.000000  -0.000000  -0.000353   0.003475
    28  H   -0.000008   0.000020  -0.000000   0.000000   0.000848  -0.008214
    29  H    0.000003  -0.000000  -0.000000   0.000000   0.000310  -0.003880
    30  H   -0.000002   0.000000  -0.000000   0.000000   0.005314  -0.032394
    31  H    0.000000  -0.000000   0.000000   0.000000  -0.000093   0.007232
              13         14         15         16         17         18
     1  C   -0.000011   0.000000  -0.000001  -0.000000   0.000038   0.403842
     2  C    0.000005   0.000000   0.000009   0.000004  -0.000562  -0.041672
     3  C   -0.000991  -0.000004   0.000160  -0.000050  -0.005601   0.007859
     4  O    0.000010  -0.000005   0.000126  -0.000029   0.000807  -0.000058
     5  C   -0.001839   0.000035  -0.000020  -0.000007  -0.000139  -0.000006
     6  C    0.007976  -0.000281   0.010694   0.002019  -0.051979  -0.000404
     7  C    0.001297  -0.000051   0.000148   0.000119  -0.005318   0.008865
     8  O   -0.000136  -0.000009   0.000074  -0.000010   0.000117  -0.000062
     9  C   -0.000008   0.000001  -0.000013  -0.000034  -0.000045   0.000003
    10  C    0.000100  -0.000002   0.000015   0.000004  -0.000360  -0.036556
    11  C   -0.079545   0.008071  -0.063800  -0.083655   0.358793   0.000022
    12  C    0.432336  -0.074394   0.397516  -0.040161  -0.086331   0.000000
    13  O    7.728629   0.333695  -0.058202   0.003136   0.002710  -0.000000
    14  C    0.333695   4.463540  -0.004961   0.000314  -0.000224  -0.000000
    15  C   -0.058202  -0.004961   4.891504   0.551504  -0.101195   0.000000
    16  C    0.003136   0.000314   0.551504   4.893279   0.387557  -0.000000
    17  S    0.002710  -0.000224  -0.101195   0.387557  15.357361   0.000000
    18  H   -0.000000  -0.000000   0.000000  -0.000000   0.000000   0.657820
    19  H    0.000001   0.000000  -0.000000   0.000000   0.000004  -0.011474
    20  H   -0.000017  -0.000000   0.000002  -0.000000  -0.000008   0.000014
    21  H   -0.000038  -0.000003  -0.000000  -0.000006   0.000014  -0.000000
    22  H    0.010029  -0.000179   0.000162   0.000013   0.000244  -0.000005
    23  H    0.000000   0.000000  -0.000011  -0.000011   0.002824  -0.000010
    24  H    0.000001  -0.000000   0.000002   0.000001   0.000021  -0.000000
    25  H   -0.000001  -0.000000  -0.000000  -0.000000   0.000043   0.000034
    26  H    0.000005   0.000000   0.000000   0.000000   0.000000  -0.015972
    27  H   -0.017430   0.401333   0.000150  -0.000007   0.000016   0.000000
    28  H   -0.033158   0.408587   0.007161  -0.000035  -0.000131   0.000000
    29  H   -0.026405   0.404980   0.004061   0.000114  -0.000062  -0.000000
    30  H   -0.003115   0.003938   0.406833  -0.038204   0.005642   0.000000
    31  H   -0.000037   0.000005  -0.020616   0.418706  -0.033180  -0.000000
              19         20         21         22         23         24
     1  C   -0.046398  -0.001389   0.000049  -0.000004  -0.000292   0.000041
     2  C    0.390827   0.005714  -0.000187   0.000128   0.000070  -0.000007
     3  C   -0.033890   0.000305   0.001228  -0.001084  -0.000863   0.000029
     4  O   -0.002223  -0.035998  -0.016250  -0.041179   0.000002  -0.000000
     5  C   -0.001157   0.395456   0.409500   0.384763  -0.000000  -0.000000
     6  C    0.011495  -0.001482   0.000148   0.011713   0.007191   0.000124
     7  C   -0.001187  -0.000078   0.000036  -0.001113  -0.001876   0.005199
     8  O    0.000002  -0.000000  -0.000000   0.000004  -0.030412  -0.025470
     9  C    0.000000  -0.000000  -0.000000  -0.000000   0.392177   0.395308
    10  C    0.009077   0.000094  -0.000008  -0.000008  -0.000280  -0.000009
    11  C   -0.000148   0.000750  -0.000296  -0.006217   0.000473  -0.000344
    12  C   -0.000001   0.000035   0.000045  -0.000239   0.000083   0.000005
    13  O    0.000001  -0.000017  -0.000038   0.010029   0.000000   0.000001
    14  C    0.000000  -0.000000  -0.000003  -0.000179   0.000000  -0.000000
    15  C   -0.000000   0.000002  -0.000000   0.000162  -0.000011   0.000002
    16  C    0.000000  -0.000000  -0.000006   0.000013  -0.000011   0.000001
    17  S    0.000004  -0.000008   0.000014   0.000244   0.002824   0.000021
    18  H   -0.011474   0.000014  -0.000000  -0.000005  -0.000010  -0.000000
    19  H    0.639358   0.000616  -0.000281   0.001044   0.000001   0.000000
    20  H    0.000616   0.678585  -0.033756  -0.039525   0.000000   0.000000
    21  H   -0.000281  -0.033756   0.608486  -0.023845   0.000000   0.000000
    22  H    0.001044  -0.039525  -0.023845   0.655343  -0.000000   0.000000
    23  H    0.000001   0.000000   0.000000  -0.000000   0.645395  -0.025397
    24  H    0.000000   0.000000   0.000000   0.000000  -0.025397   0.606800
    25  H    0.000000  -0.000000  -0.000000  -0.000000  -0.040927  -0.023707
    26  H   -0.000139   0.000001   0.000000  -0.000001   0.001449  -0.000298
    27  H    0.000000   0.000000  -0.000000  -0.000073  -0.000000  -0.000000
    28  H    0.000000  -0.000000  -0.000000   0.000117  -0.000000  -0.000000
    29  H   -0.000000  -0.000000   0.000007  -0.000302   0.000000   0.000000
    30  H   -0.000000   0.000000  -0.000001   0.000005   0.000000   0.000000
    31  H    0.000000  -0.000000  -0.000000   0.000002   0.000001  -0.000001
              25         26         27         28         29         30
     1  C   -0.000997  -0.051515  -0.000000   0.000000  -0.000000  -0.000000
     2  C    0.000039   0.011512   0.000000  -0.000000   0.000001  -0.000000
     3  C    0.000011  -0.002132   0.000003  -0.000009   0.000005   0.000002
     4  O   -0.000000   0.000003  -0.000000   0.000000  -0.000001   0.000002
     5  C    0.000000   0.000000   0.000009  -0.000011   0.000057  -0.000001
     6  C   -0.001526   0.013102  -0.000060   0.000122   0.000042  -0.000243
     7  C   -0.007611  -0.041008   0.000006  -0.000008   0.000003  -0.000002
     8  O   -0.033427  -0.002781  -0.000000   0.000020  -0.000000   0.000000
     9  C    0.400103  -0.000432   0.000000  -0.000000  -0.000000  -0.000000
    10  C    0.005988   0.402631  -0.000000   0.000000   0.000000   0.000000
    11  C    0.000305  -0.000182  -0.000353   0.000848   0.000310   0.005314
    12  C    0.000003  -0.000001   0.003475  -0.008214  -0.003880  -0.032394
    13  O   -0.000001   0.000005  -0.017430  -0.033158  -0.026405  -0.003115
    14  C   -0.000000   0.000000   0.401333   0.408587   0.404980   0.003938
    15  C   -0.000000   0.000000   0.000150   0.007161   0.004061   0.406833
    16  C   -0.000000   0.000000  -0.000007  -0.000035   0.000114  -0.038204
    17  S    0.000043   0.000000   0.000016  -0.000131  -0.000062   0.005642
    18  H    0.000034  -0.015972   0.000000   0.000000  -0.000000   0.000000
    19  H    0.000000  -0.000139   0.000000   0.000000  -0.000000  -0.000000
    20  H   -0.000000   0.000001   0.000000  -0.000000  -0.000000   0.000000
    21  H   -0.000000   0.000000  -0.000000  -0.000000   0.000007  -0.000001
    22  H   -0.000000  -0.000001  -0.000073   0.000117  -0.000302   0.000005
    23  H   -0.040927   0.001449  -0.000000  -0.000000   0.000000   0.000000
    24  H   -0.023707  -0.000298  -0.000000  -0.000000   0.000000   0.000000
    25  H    0.651804  -0.000803   0.000000   0.000000  -0.000000  -0.000000
    26  H   -0.000803   0.688346  -0.000000  -0.000000   0.000000   0.000000
    27  H    0.000000  -0.000000   0.589988  -0.022867  -0.024948  -0.000050
    28  H    0.000000  -0.000000  -0.022867   0.628569  -0.037040   0.000644
    29  H   -0.000000   0.000000  -0.024948  -0.037040   0.638786  -0.000253
    30  H   -0.000000   0.000000  -0.000050   0.000644  -0.000253   0.622414
    31  H    0.000000   0.000000   0.000000   0.000000   0.000011  -0.006605
              31
     1  C   -0.000000
     2  C    0.000000
     3  C   -0.000002
     4  O   -0.000001
     5  C   -0.000001
     6  C   -0.000390
     7  C    0.000000
     8  O   -0.000000
     9  C    0.000000
    10  C    0.000000
    11  C   -0.000093
    12  C    0.007232
    13  O   -0.000037
    14  C    0.000005
    15  C   -0.020616
    16  C    0.418706
    17  S   -0.033180
    18  H   -0.000000
    19  H    0.000000
    20  H   -0.000000
    21  H   -0.000000
    22  H    0.000002
    23  H    0.000001
    24  H   -0.000001
    25  H    0.000000
    26  H    0.000000
    27  H    0.000000
    28  H    0.000000
    29  H    0.000011
    30  H   -0.006605
    31  H    0.634551
          Atomic-Atomic Spin Densities.
               1          2          3          4          5          6
     1  C   -0.000000   0.000000  -0.000000  -0.000000   0.000000   0.000000
     2  C    0.000000   0.000000  -0.000000  -0.000000  -0.000000  -0.000000
     3  C   -0.000000  -0.000000  -0.000000   0.000000  -0.000000   0.000000
     4  O   -0.000000  -0.000000   0.000000  -0.000000   0.000000  -0.000000
     5  C    0.000000  -0.000000  -0.000000   0.000000   0.000000  -0.000000
     6  C    0.000000  -0.000000   0.000000  -0.000000  -0.000000   0.000000
     7  C   -0.000000  -0.000000   0.000000  -0.000000   0.000000   0.000000
[...]
    15  C    0.010072   0.000000
    16  C   -0.144601   0.000000
    17  S    0.183797  -0.000000
    18  H    0.021310   0.000000
    19  H    0.013072  -0.000000
    20  H    0.041187   0.000000
    21  H    0.059722   0.000000
    22  H    0.064948   0.000000
    23  H    0.056411  -0.000000
    24  H    0.055541   0.000000
    25  H    0.043452   0.000000
    26  H    0.012380  -0.000000
    27  H    0.061628   0.000000
    28  H    0.051371  -0.000000
    29  H    0.040655   0.000000
    30  H    0.024173   0.000000
    31  H    0.051481  -0.000000
 Sum of Mulliken charges =  -0.00000  -0.00000
 Mulliken charges and spin densities with hydrogens summed into heavy atoms:
               1          2
     1  C    0.040072   0.000000
     2  C    0.026324   0.000000
     3  C    0.013178   0.000000
     4  O   -0.279900  -0.000000
     5  C    0.220527  -0.000000
     6  C    0.092994  -0.000000
     7  C    0.018607   0.000000
     8  O   -0.284486  -0.000000
     9  C    0.210637  -0.000000
    10  C    0.027281  -0.000000
    11  C   -0.285849   0.000000
    12  C    0.143137  -0.000000
    13  O   -0.263496  -0.000000
    14  C    0.196051  -0.000000
    15  C    0.034245   0.000000
    16  C   -0.093120   0.000000
    17  S    0.183797  -0.000000
 Electronic spatial extent (au):  <R**2>=           3819.8968
 Charge=             -0.0000 electrons
 Dipole moment (field-independent basis, Debye):
    X=             -1.3845    Y=             -1.0377    Z=              0.0973  Tot=              1.7330
 Quadrupole moment (field-independent basis, Debye-Ang):
   XX=            -91.3071   YY=            -99.6403   ZZ=           -104.2029
   XY=             -0.3233   XZ=              1.0717   YZ=              3.9264
 Traceless Quadrupole moment (field-independent basis, Debye-Ang):
   XX=              7.0764   YY=             -1.2569   ZZ=             -5.8195
   XY=             -0.3233   XZ=              1.0717   YZ=              3.9264
 Octapole moment (field-independent basis, Debye-Ang**2):
  XXX=            -10.2593  YYY=            -10.1262  ZZZ=              4.2864  XYY=             -8.3279
  XXY=             -6.2370  XXZ=              9.4115  XZZ=            -10.2976  YZZ=             -5.2178
  YYZ=              6.5738  XYZ=             15.8625
 Hexadecapole moment (field-independent basis, Debye-Ang**3):
 XXXX=          -2277.4058 YYYY=          -1673.9863 ZZZZ=           -769.1885 XXXY=            -20.8563
 XXXZ=              0.7899 YYYX=             21.4916 YYYZ=             34.8289 ZZZX=             -9.7640
 ZZZY=             -4.1925 XXYY=           -666.5851 XXZZ=           -553.4468 YYZZ=           -374.2702
 XXYZ=            -29.7330 YYXZ=             11.9090 ZZXY=             20.1477
 N-N= 1.394470417350D+03 E-N=-5.435533364398D+03  KE= 1.121493746127D+03
                          Isotropic Fermi Contact Couplings
        Atom                 a.u.       MegaHertz       Gauss      10(-4) cm-1
     1  C(13)              0.00000       0.00000       0.00000       0.00000
     2  C(13)              0.00000       0.00000       0.00000       0.00000
     3  C(13)              0.00000       0.00000       0.00000       0.00000
     4  O(17)             -0.00000       0.00000       0.00000       0.00000
     5  C(13)             -0.00000      -0.00000      -0.00000      -0.00000
     6  C(13)             -0.00000      -0.00000      -0.00000      -0.00000
     7  C(13)              0.00000       0.00000       0.00000       0.00000
     8  O(17)             -0.00000       0.00000       0.00000       0.00000
     9  C(13)              0.00000       0.00000       0.00000       0.00000
    10  C(13)             -0.00000      -0.00000      -0.00000      -0.00000
    11  C(13)              0.00000       0.00000       0.00000       0.00000
    12  C(13)             -0.00000      -0.00000      -0.00000      -0.00000
    13  O(17)             -0.00000       0.00000       0.00000       0.00000
    14  C(13)             -0.00000      -0.00000      -0.00000      -0.00000
    15  C(13)              0.00000       0.00000       0.00000       0.00000
    16  C(13)             -0.00000      -0.00000      -0.00000      -0.00000
    17  S(33)             -0.00000      -0.00000      -0.00000      -0.00000
    18  H(1)              -0.00000      -0.00000      -0.00000      -0.00000
    19  H(1)               0.00000       0.00000       0.00000       0.00000
    20  H(1)               0.00000       0.00000       0.00000       0.00000
    21  H(1)               0.00000       0.00000       0.00000       0.00000
    22  H(1)               0.00000       0.00000       0.00000       0.00000
    23  H(1)              -0.00000      -0.00000      -0.00000      -0.00000
    24  H(1)              -0.00000      -0.00000      -0.00000      -0.00000
    25  H(1)               0.00000       0.00000       0.00000       0.00000
    26  H(1)               0.00000       0.00000       0.00000       0.00000
    27  H(1)               0.00000       0.00000       0.00000       0.00000
    28  H(1)               0.00000       0.00000       0.00000       0.00000
    29  H(1)              -0.00000      -0.00000      -0.00000      -0.00000
    30  H(1)               0.00000       0.00000       0.00000       0.00000
    31  H(1)              -0.00000      -0.00000      -0.00000      -0.00000
 --------------------------------------------------------
       Center         ----  Spin Dipole Couplings  ----
                      3XX-RR        3YY-RR        3ZZ-RR
 --------------------------------------------------------
     1   Atom        0.000000      0.000000     -0.000000
     2   Atom       -0.000000      0.000000     -0.000000
     3   Atom        0.000000      0.000000     -0.000000
     4   Atom       -0.000000      0.000000      0.000000
     5   Atom       -0.000000      0.000000      0.000000
     6   Atom       -0.000000      0.000000      0.000000
     7   Atom       -0.000000      0.000000     -0.000000
     8   Atom        0.000000      0.000000     -0.000000
     9   Atom        0.000000      0.000000     -0.000000
    10   Atom        0.000000     -0.000000      0.000000
    11   Atom       -0.000000      0.000000     -0.000000
    12   Atom        0.000000      0.000000     -0.000000
    13   Atom       -0.000000      0.000000      0.000000
    14   Atom        0.000000     -0.000000      0.000000
    15   Atom        0.000000     -0.000000     -0.000000
    16   Atom        0.000000     -0.000000      0.000000
    17   Atom        0.000000     -0.000000      0.000000
    18   Atom        0.000000     -0.000000     -0.000000
    19   Atom       -0.000000     -0.000000      0.000000
    20   Atom        0.000000     -0.000000     -0.000000
    21   Atom        0.000000     -0.000000      0.000000
    22   Atom       -0.000000     -0.000000      0.000000
    23   Atom       -0.000000      0.000000     -0.000000
    24   Atom       -0.000000      0.000000     -0.000000
    25   Atom        0.000000      0.000000     -0.000000
    26   Atom        0.000000      0.000000     -0.000000
    27   Atom        0.000000      0.000000     -0.000000
    28   Atom        0.000000      0.000000     -0.000000
    29   Atom       -0.000000     -0.000000      0.000000
    30   Atom        0.000000     -0.000000      0.000000
    31   Atom        0.000000     -0.000000     -0.000000
 --------------------------------------------------------
                        XY            XZ            YZ
 --------------------------------------------------------
     1   Atom       -0.000000      0.000000      0.000000
     2   Atom        0.000000      0.000000     -0.000000
     3   Atom        0.000000      0.000000     -0.000000
     4   Atom       -0.000000      0.000000      0.000000
     5   Atom        0.000000      0.000000     -0.000000
     6   Atom       -0.000000     -0.000000     -0.000000
     7   Atom       -0.000000      0.000000      0.000000
     8   Atom        0.000000     -0.000000      0.000000
     9   Atom        0.000000      0.000000      0.000000
    10   Atom       -0.000000     -0.000000      0.000000
    11   Atom       -0.000000      0.000000     -0.000000
    12   Atom        0.000000      0.000000      0.000000
    13   Atom        0.000000     -0.000000      0.000000
    14   Atom        0.000000     -0.000000      0.000000
    15   Atom        0.000000     -0.000000     -0.000000
    16   Atom       -0.000000      0.000000     -0.000000
    17   Atom        0.000000     -0.000000     -0.000000
    18   Atom       -0.000000      0.000000      0.000000
    19   Atom       -0.000000     -0.000000     -0.000000
    20   Atom        0.000000     -0.000000      0.000000
    21   Atom        0.000000      0.000000      0.000000
    22   Atom       -0.000000      0.000000      0.000000
    23   Atom       -0.000000     -0.000000     -0.000000
    24   Atom        0.000000     -0.000000     -0.000000
    25   Atom       -0.000000      0.000000     -0.000000
    26   Atom        0.000000      0.000000     -0.000000
    27   Atom        0.000000     -0.000000     -0.000000
    28   Atom        0.000000      0.000000     -0.000000
    29   Atom        0.000000      0.000000     -0.000000
    30   Atom        0.000000     -0.000000     -0.000000
    31   Atom       -0.000000      0.000000     -0.000000
 --------------------------------------------------------


 ---------------------------------------------------------------------------------
              Anisotropic Spin Dipole Couplings in Principal Axis System
 ---------------------------------------------------------------------------------

       Atom             a.u.   MegaHertz   Gauss  10(-4) cm-1        Axes

              Baa    -0.0000    -0.000    -0.000    -0.000 -0.1637 -0.1642  0.9727
     1 C(13)  Bbb    -0.0000    -0.000    -0.000    -0.000  0.7600  0.6076  0.2305
              Bcc     0.0000     0.000     0.000     0.000 -0.6289  0.7771  0.0253
 
              Baa    -0.0000    -0.000    -0.000    -0.000  0.8480 -0.2812 -0.4493
     2 C(13)  Bbb     0.0000     0.000     0.000     0.000  0.3706 -0.2916  0.8818
              Bcc     0.0000     0.000     0.000     0.000  0.3790  0.9143  0.1430
 
              Baa    -0.0000    -0.000    -0.000    -0.000 -0.0691  0.1963  0.9781
     3 C(13)  Bbb     0.0000     0.000     0.000     0.000 -0.2767  0.9382 -0.2079
              Bcc     0.0000     0.000     0.000     0.000  0.9585  0.2850  0.0105
 
              Baa    -0.0000     0.000     0.000     0.000  0.6562  0.4321 -0.6186
     4 O(17)  Bbb     0.0000    -0.000    -0.000    -0.000 -0.4463  0.8833  0.1436
              Bcc     0.0000    -0.000    -0.000    -0.000  0.6085  0.1819  0.7724
 
              Baa    -0.0000    -0.000    -0.000    -0.000  0.7144 -0.2598 -0.6497
     5 C(13)  Bbb     0.0000     0.000     0.000     0.000  0.2746  0.9581 -0.0812
              Bcc     0.0000     0.000     0.000     0.000  0.6435 -0.1204  0.7559
 
              Baa    -0.0000    -0.000    -0.000    -0.000  0.9908  0.0681  0.1167
     6 C(13)  Bbb     0.0000     0.000     0.000     0.000 -0.1244  0.1234  0.9845
              Bcc     0.0000     0.000     0.000     0.000 -0.0527  0.9900 -0.1308
 
              Baa    -0.0000    -0.000    -0.000    -0.000 -0.4761 -0.1112  0.8723
     7 C(13)  Bbb    -0.0000    -0.000    -0.000    -0.000  0.8682  0.0986  0.4864
              Bcc     0.0000     0.000     0.000     0.000 -0.1401  0.9889  0.0496
 
              Baa    -0.0000     0.000     0.000     0.000  0.1210 -0.4161  0.9012
     8 O(17)  Bbb     0.0000    -0.000    -0.000    -0.000  0.8083 -0.4857 -0.3328
              Bcc     0.0000    -0.000    -0.000    -0.000  0.5762  0.7687  0.2775
 
              Baa    -0.0000    -0.000    -0.000    -0.000 -0.4264 -0.0027  0.9045
     9 C(13)  Bbb    -0.0000    -0.000    -0.000    -0.000 -0.5377  0.8049 -0.2511
              Bcc     0.0000     0.000     0.000     0.000  0.7273  0.5935  0.3446
 
              Baa    -0.0000    -0.000    -0.000    -0.000  0.5484  0.8092  0.2111
    10 C(13)  Bbb    -0.0000    -0.000    -0.000    -0.000  0.4313 -0.4899  0.7576
              Bcc     0.0000     0.000     0.000     0.000  0.7165 -0.3244 -0.6176
 
              Baa    -0.0000    -0.000    -0.000    -0.000 -0.6416  0.1262  0.7566
    11 C(13)  Bbb     0.0000     0.000     0.000     0.000  0.5769  0.7294  0.3675
              Bcc     0.0000     0.000     0.000     0.000 -0.5055  0.6723 -0.5408
 
              Baa    -0.0000    -0.000    -0.000    -0.000 -0.1070 -0.4373  0.8929
    12 C(13)  Bbb     0.0000     0.000     0.000     0.000 -0.4829  0.8079  0.3378
              Bcc     0.0000     0.000     0.000     0.000  0.8691  0.3950  0.2976
 
              Baa    -0.0000     0.000     0.000     0.000  0.6616 -0.5867  0.4670
    13 O(17)  Bbb    -0.0000     0.000     0.000     0.000  0.7154  0.3073 -0.6275
              Bcc     0.0000    -0.000    -0.000    -0.000  0.2246  0.7492  0.6230
 
              Baa    -0.0000    -0.000    -0.000    -0.000 -0.0286  0.9918 -0.1247
    14 C(13)  Bbb    -0.0000    -0.000    -0.000    -0.000  0.3026  0.1275  0.9445
              Bcc     0.0000     0.000     0.000     0.000  0.9527 -0.0107 -0.3038
 
              Baa    -0.0000    -0.000    -0.000    -0.000  0.0567  0.7158  0.6960
    15 C(13)  Bbb    -0.0000    -0.000    -0.000    -0.000 -0.3559  0.6658 -0.6558
              Bcc     0.0000     0.000     0.000     0.000  0.9328  0.2106 -0.2925
 
              Baa    -0.0000    -0.000    -0.000    -0.000  0.0102  0.8355  0.5493
    16 C(13)  Bbb    -0.0000    -0.000    -0.000    -0.000  0.8454  0.2862 -0.4510
              Bcc     0.0000     0.000     0.000     0.000  0.5341 -0.4690  0.7034
 
              Baa    -0.0000    -0.000    -0.000    -0.000  0.3089  0.7627  0.5682
    17 S(33)  Bbb    -0.0000    -0.000    -0.000    -0.000  0.7044 -0.5848  0.4022
              Bcc     0.0000     0.000     0.000     0.000 -0.6390 -0.2760  0.7179
 
              Baa    -0.0000    -0.000    -0.000    -0.000  0.0622  0.9943 -0.0866
    18 H(1)   Bbb    -0.0000    -0.000    -0.000    -0.000 -0.0999  0.0925  0.9907
              Bcc     0.0000     0.000     0.000     0.000  0.9930 -0.0530  0.1051
 
              Baa    -0.0000    -0.000    -0.000    -0.000  0.4796  0.8714  0.1026
    19 H(1)   Bbb     0.0000     0.000     0.000     0.000  0.8763 -0.4817 -0.0054
              Bcc     0.0000     0.000     0.000     0.000 -0.0447 -0.0925  0.9947
 
              Baa    -0.0000    -0.000    -0.000    -0.000 -0.0539  0.7809 -0.6223
    20 H(1)   Bbb    -0.0000    -0.000    -0.000    -0.000  0.0570  0.6246  0.7788
              Bcc     0.0000     0.000     0.000     0.000  0.9969  0.0065 -0.0782
 
              Baa    -0.0000    -0.000    -0.000    -0.000 -0.0949  0.9952 -0.0219
    21 H(1)   Bbb     0.0000     0.000     0.000     0.000  0.9171  0.0789 -0.3907
              Bcc     0.0000     0.000     0.000     0.000  0.3871  0.0572  0.9203
 
              Baa    -0.0000    -0.000    -0.000    -0.000  0.5652  0.6949 -0.4447
    22 H(1)   Bbb     0.0000     0.000     0.000     0.000 -0.6501  0.7070  0.2786
              Bcc     0.0000     0.000     0.000     0.000  0.5080  0.1316  0.8513
 
              Baa    -0.0000    -0.000    -0.000    -0.000  0.8421  0.1695  0.5120
    23 H(1)   Bbb    -0.0000    -0.000    -0.000    -0.000 -0.5390  0.2322  0.8096
              Bcc     0.0000     0.000     0.000     0.000 -0.0184  0.9578 -0.2869
 
              Baa    -0.0000    -0.000    -0.000    -0.000  0.6803 -0.0598  0.7305
    24 H(1)   Bbb    -0.0000    -0.000    -0.000    -0.000  0.6601 -0.3830 -0.6462
              Bcc     0.0000     0.000     0.000     0.000  0.3184  0.9218 -0.2211
 
              Baa    -0.0000    -0.000    -0.000    -0.000 -0.1768  0.3786  0.9085
    25 H(1)   Bbb     0.0000     0.000     0.000     0.000  0.2606  0.9081 -0.3277
              Bcc     0.0000     0.000     0.000     0.000  0.9491 -0.1788  0.2592
 
              Baa    -0.0000    -0.000    -0.000    -0.000 -0.2661  0.1141  0.9572
    26 H(1)   Bbb    -0.0000    -0.000    -0.000    -0.000 -0.4552  0.8604 -0.2292
              Bcc     0.0000     0.000     0.000     0.000  0.8497  0.4967  0.1770
 
              Baa    -0.0000    -0.000    -0.000    -0.000  0.3573 -0.0117  0.9339
    27 H(1)   Bbb     0.0000     0.000     0.000     0.000  0.8726 -0.3524 -0.3382
              Bcc     0.0000     0.000     0.000     0.000  0.3330  0.9358 -0.1157
 
              Baa    -0.0000    -0.000    -0.000    -0.000 -0.2318  0.2334  0.9444
    28 H(1)   Bbb     0.0000     0.000     0.000     0.000  0.8577 -0.4090  0.3116
              Bcc     0.0000     0.000     0.000     0.000  0.4590  0.8822 -0.1053
 
              Baa    -0.0000    -0.000    -0.000    -0.000 -0.5944  0.7136  0.3707
    29 H(1)   Bbb     0.0000     0.000     0.000     0.000  0.7261  0.2781  0.6289
              Bcc     0.0000     0.000     0.000     0.000 -0.3457 -0.6430  0.6834
 
              Baa    -0.0000    -0.000    -0.000    -0.000  0.3609  0.7781  0.5140
    30 H(1)   Bbb    -0.0000    -0.000    -0.000    -0.000  0.7341 -0.5770  0.3580
              Bcc     0.0000     0.000     0.000     0.000 -0.5752 -0.2482  0.7795
 
              Baa    -0.0000    -0.000    -0.000    -0.000  0.5229  0.7870 -0.3274
    31 H(1)   Bbb    -0.0000    -0.000    -0.000    -0.000 -0.2545  0.5107  0.8212
              Bcc     0.0000     0.000     0.000     0.000  0.8135 -0.3461  0.4674
 

 ---------------------------------------------------------------------------------

 No NMR shielding tensors so no spin-rotation constants.
 Leave Link  601 at Fri Jul 24 23:54:22 2020, MaxMem=  4026531840 cpu:               2.4 elap:               0.3
 (Enter /opt/ohpc/pub/libs/gaussian/g16-A.03/sandybridge/g16/l9999.exe)

 Test job not archived.
 1\1\GINC-SKYLAKE054\FOpt\ULC-wPBE\CC-pVDZ\C13H14O3S1\RDU230\24-Jul-202
 0\0\\#P uLC-wPBE/cc-pVDZ iop(3/107=0489800000, 3/108=0489800000) opt\\
 H14 C13 S1 O3\\0,1\C,3.5194951996,0.3243607116,0.6268990176\C,2.992459
 7584,1.2823401806,-0.2196209812\C,1.6500867024,1.2380271199,-0.5573880
 55\O,1.1588123739,2.1770469413,-1.4158249508\C,0.4464486284,3.21865062
 78,-0.7853892043\C,0.813846836,0.238354739,-0.0612530651\C,1.372903282
 4,-0.7263362997,0.7786507686\O,0.6020684701,-1.740054329,1.2729962881\
 C,0.4397086642,-2.8103263963,0.3696756295\C,2.7117391271,-0.6815910143
 ,1.1269772333\C,-0.6154059926,0.184087949,-0.4033684848\C,-1.657883519
 5,0.1647884331,0.4737358738\O,-1.4668792235,0.328591846,1.801707498\C,
 -2.1192218762,-0.5992383403,2.6331225814\C,-2.9288088519,0.0426424206,
 -0.165238326\C,-2.8086664394,-0.0165946607,-1.5123262612\S,-1.18516485
 37,0.0893888493,-2.0243011935\H,4.5725303,0.3591170713,0.8970316621\H,
 3.6044096848,2.0777595136,-0.6362105443\H,1.1003736359,3.7851595749,-0
 .1086840438\H,0.085538416,3.8802794078,-1.5762711337\H,-0.409642562,2.
 8320508989,-0.2181808053\H,-0.0552519358,-2.4820708777,-0.5536858445\H
 ,-0.1856543499,-3.5571740015,0.8654441628\H,1.4085069399,-3.2628733354
 ,0.1179963392\H,3.1000291645,-1.4492221774,1.7909857873\H,-1.821411075
 7,-0.3644475277,3.6574703519\H,-1.8040397998,-1.6216495071,2.395901399
 5\H,-3.2119623804,-0.5198727098,2.5584383011\H,-3.8787712053,0.0227973
 818,0.3585933344\H,-3.6074631178,-0.0936354896,-2.2418343351\\Version=
 EM64L-G16RevA.03\State=1-A\HF=-1127.0832014\S2=0.\S2-1=0.\S2A=0.\RMSD=
 5.473e-09\RMSF=1.900e-06\Dipole=-0.4814405,-0.3842455,0.2922641\Quadru
 pole=4.9200193,0.8087926,-5.7288118,1.2511757,1.1115375,-1.0997745\PG=
 C01 [X(C13H14O3S1)]\\@


 WE DON'T KNOW ONE MILLIONTH OF ONE PERCENT ABOUT
 ANYTHING.
                                     T. A. EDISON.
 Job cpu time:       0 days 21 hours 35 minutes  6.7 seconds.
 Elapsed time:       0 days  2 hours 43 minutes 19.7 seconds.
 File lengths (MBytes):  RWF=    168 Int=      0 D2E=      0 Chk=     16 Scr=      8
 Normal termination of Gaussian 16 at Fri Jul 24 23:54:22 2020.
