 Entering Gaussian System, Link 0=g16
 Input=mols_55_1_09_COC-COC_opt_0.gjf
 Output=mols_55_1_09_COC-COC_opt_0.log
 Initial command:
 /opt/ohpc/pub/libs/gaussian/g16-A.03/sandybridge/g16/l1.exe "/mnt/gpfs2_4m/scratch/rdu230/ondemand/projects/dihedral_energies/7trial/wtuning/mols_55_1_09_COC-COC/Gau-222867.inp" -scrdir="/mnt/gpfs2_4m/scratch/rdu230/ondemand/projects/dihedral_energies/7trial/wtuning/mols_55_1_09_COC-COC/"
 Entering Link 1 = /opt/ohpc/pub/libs/gaussian/g16-A.03/sandybridge/g16/l1.exe PID=    222870.
  
 Copyright (c) 1988,1990,1992,1993,1995,1998,2003,2009,2016,
            Gaussian, Inc.  All Rights Reserved.
  
 This is part of the Gaussian(R) 16 program.  It is based on
 the Gaussian(R) 09 system (copyright 2009, Gaussian, Inc.),
 the Gaussian(R) 03 system (copyright 2003, Gaussian, Inc.),
 the Gaussian(R) 98 system (copyright 1998, Gaussian, Inc.),
 the Gaussian(R) 94 system (copyright 1995, Gaussian, Inc.),
 the Gaussian 92(TM) system (copyright 1992, Gaussian, Inc.),
 the Gaussian 90(TM) system (copyright 1990, Gaussian, Inc.),
 the Gaussian 88(TM) system (copyright 1988, Gaussian, Inc.),
 the Gaussian 86(TM) system (copyright 1986, Carnegie Mellon
 University), and the Gaussian 82(TM) system (copyright 1983,
 Carnegie Mellon University). Gaussian is a federally registered
 trademark of Gaussian, Inc.
  
 This software contains proprietary and confidential information,
 including trade secrets, belonging to Gaussian, Inc.
  
 This software is provided under written license and may be
 used, copied, transmitted, or stored only in accord with that
 written license.
  
 The following legend is applicable only to US Government
 contracts under FAR:
  
                    RESTRICTED RIGHTS LEGEND
  
 Use, reproduction and disclosure by the US Government is
 subject to restrictions as set forth in subparagraphs (a)
 and (c) of the Commercial Computer Software - Restricted
 Rights clause in FAR 52.227-19.
  
 Gaussian, Inc.
 340 Quinnipiac St., Bldg. 40, Wallingford CT 06492
  
  
 ---------------------------------------------------------------
 Warning -- This program may not be used in any manner that
 competes with the business of Gaussian, Inc. or will provide
 assistance to any competitor of Gaussian, Inc.  The licensee
 of this program is prohibited from giving any competitor of
 Gaussian, Inc. access to this program.  By using this program,
 the user acknowledges that Gaussian, Inc. is engaged in the
 business of creating and licensing software in the field of
 computational chemistry and represents and warrants to the
 licensee that it is not a competitor of Gaussian, Inc. and that
 it will not use this program in any manner prohibited above.
 ---------------------------------------------------------------
  

 Cite this work as:
 Gaussian 16, Revision A.03,
 M. J. Frisch, G. W. Trucks, H. B. Schlegel, G. E. Scuseria, 
 M. A. Robb, J. R. Cheeseman, G. Scalmani, V. Barone, 
 G. A. Petersson, H. Nakatsuji, X. Li, M. Caricato, A. V. Marenich, 
 J. Bloino, B. G. Janesko, R. Gomperts, B. Mennucci, H. P. Hratchian, 
 J. V. Ortiz, A. F. Izmaylov, J. L. Sonnenberg, D. Williams-Young, 
 F. Ding, F. Lipparini, F. Egidi, J. Goings, B. Peng, A. Petrone, 
 T. Henderson, D. Ranasinghe, V. G. Zakrzewski, J. Gao, N. Rega, 
 G. Zheng, W. Liang, M. Hada, M. Ehara, K. Toyota, R. Fukuda, 
 J. Hasegawa, M. Ishida, T. Nakajima, Y. Honda, O. Kitao, H. Nakai, 
 T. Vreven, K. Throssell, J. A. Montgomery, Jr., J. E. Peralta, 
 F. Ogliaro, M. J. Bearpark, J. J. Heyd, E. N. Brothers, K. N. Kudin, 
 V. N. Staroverov, T. A. Keith, R. Kobayashi, J. Normand, 
 K. Raghavachari, A. P. Rendell, J. C. Burant, S. S. Iyengar, 
 J. Tomasi, M. Cossi, J. M. Millam, M. Klene, C. Adamo, R. Cammi, 
 J. W. Ochterski, R. L. Martin, K. Morokuma, O. Farkas, 
 J. B. Foresman, and D. J. Fox, Gaussian, Inc., Wallingford CT, 2016.
 
 ******************************************
 Gaussian 16:  EM64L-G16RevA.03 25-Dec-2016
                24-Jul-2020 
 ******************************************
 %mem=30GB
 %nproc=8
 Will use up to    8 processors via shared memory.
 ---------------------------------------------------------------
 #P uLC-wPBE/cc-pVDZ iop(3/107=0141600000, 3/108=0141600000) opt
 ---------------------------------------------------------------
 1/18=20,19=15,26=3,38=1/1,3;
 2/9=110,12=2,17=6,18=5,40=1/2;
 3/5=16,11=2,25=1,30=1,71=1,74=-41,107=141600000,108=141600000,116=2/1,2,3;
 4//1;
 5/5=2,38=5/2;
 6/7=2,8=2,9=2,10=2,28=1/1;
 7//1,2,3,16;
 1/18=20,19=15,26=3/3(2);
 2/9=110/2;
 99//99;
 2/9=110/2;
 3/5=16,11=2,25=1,30=1,71=1,74=-41,107=141600000,108=141600000,116=2/1,2,3;
 4/5=5,16=3,69=1/1;
 5/5=2,38=5/2;
 7//1,2,3,16;
 1/18=20,19=15,26=3/3(-5);
 2/9=110/2;
 6/7=2,8=2,9=2,10=2,19=2,28=1/1;
 99/9=1/99;
 Leave Link    1 at Fri Jul 24 12:11:57 2020, MaxMem=  4026531840 cpu:               3.1 elap:               0.5
 (Enter /opt/ohpc/pub/libs/gaussian/g16-A.03/sandybridge/g16/l101.exe)
 -------------
 H10 C10 S2 O2
 -------------
 Symbolic Z-matrix:
 Charge =  0 Multiplicity = 1
 C                     2.6408    1.64367  -0.68626 
 C                     2.91431   0.59961   0.06696 
 C                     1.85082  -0.27976   0.29849 
 O                     1.70637  -1.46225   0.99362 
 C                     2.98479  -1.90547   1.47007 
 C                     0.71031   0.29286  -0.30955 
 S                     1.02654   1.73879  -1.06117 
 C                    -0.68693  -0.31708  -0.28146 
 C                    -1.82904   0.23064   0.24804 
 O                    -1.73964   1.37871   0.9626 
 C                    -2.92558   1.90524   1.52911 
 C                    -2.95625  -0.53549   0.02346 
 C                    -2.64086  -1.7415   -0.67574 
 S                    -0.97328  -1.7959   -1.07994 
 H                     3.35391   2.4584   -1.01633 
 H                     3.99422   0.38137   0.4438 
 H                     2.72996  -2.81459   2.03227 
 H                     3.3752   -1.2016    2.20388 
 H                     3.69878  -2.12582   0.69545 
 H                    -3.64833   2.07979   0.71458 
 H                    -3.39034   1.1338    2.24042 
 H                    -2.73367   2.81882   2.05228 
 H                    -4.00187  -0.36353   0.4329 
 H                    -3.3445   -2.49023  -0.94815 
 
 ITRead=  0  0  0  0  0  0  0  0  0  0  0  0  0  0  0  0  0  0  0  0
 ITRead=  0  0  0  0
 MicOpt= -1 -1 -1 -1 -1 -1 -1 -1 -1 -1 -1 -1 -1 -1 -1 -1 -1 -1 -1 -1
 MicOpt= -1 -1 -1 -1
 NAtoms=     24 NQM=       24 NQMF=       0 NMMI=      0 NMMIF=      0
                NMic=       0 NMicF=      0.
                    Isotopes and Nuclear Properties:
 (Nuclear quadrupole moments (NQMom) in fm**2, nuclear magnetic moments (NMagM)
  in nuclear magnetons)

  Atom         1           2           3           4           5           6           7           8           9          10
 IAtWgt=          12          12          12          16          12          12          32          12          12          16
 AtmWgt=  12.0000000  12.0000000  12.0000000  15.9949146  12.0000000  12.0000000  31.9720718  12.0000000  12.0000000  15.9949146
 NucSpn=           0           0           0           0           0           0           0           0           0           0
 AtZEff=  -0.0000000  -0.0000000  -0.0000000  -0.0000000  -0.0000000  -0.0000000  -0.0000000  -0.0000000  -0.0000000  -0.0000000
 NQMom=    0.0000000   0.0000000   0.0000000   0.0000000   0.0000000   0.0000000   0.0000000   0.0000000   0.0000000   0.0000000
 NMagM=    0.0000000   0.0000000   0.0000000   0.0000000   0.0000000   0.0000000   0.0000000   0.0000000   0.0000000   0.0000000
 AtZNuc=   6.0000000   6.0000000   6.0000000   8.0000000   6.0000000   6.0000000  16.0000000   6.0000000   6.0000000   8.0000000

  Atom        11          12          13          14          15          16          17          18          19          20
 IAtWgt=          12          12          12          32           1           1           1           1           1           1
 AtmWgt=  12.0000000  12.0000000  12.0000000  31.9720718   1.0078250   1.0078250   1.0078250   1.0078250   1.0078250   1.0078250
 NucSpn=           0           0           0           0           1           1           1           1           1           1
 AtZEff=  -0.0000000  -0.0000000  -0.0000000  -0.0000000  -0.0000000  -0.0000000  -0.0000000  -0.0000000  -0.0000000  -0.0000000
 NQMom=    0.0000000   0.0000000   0.0000000   0.0000000   0.0000000   0.0000000   0.0000000   0.0000000   0.0000000   0.0000000
 NMagM=    0.0000000   0.0000000   0.0000000   0.0000000   2.7928460   2.7928460   2.7928460   2.7928460   2.7928460   2.7928460
 AtZNuc=   6.0000000   6.0000000   6.0000000  16.0000000   1.0000000   1.0000000   1.0000000   1.0000000   1.0000000   1.0000000

  Atom        21          22          23          24
 IAtWgt=           1           1           1           1
 AtmWgt=   1.0078250   1.0078250   1.0078250   1.0078250
 NucSpn=           1           1           1           1
 AtZEff=  -0.0000000  -0.0000000  -0.0000000  -0.0000000
 NQMom=    0.0000000   0.0000000   0.0000000   0.0000000
 NMagM=    2.7928460   2.7928460   2.7928460   2.7928460
 AtZNuc=   1.0000000   1.0000000   1.0000000   1.0000000
 Leave Link  101 at Fri Jul 24 12:11:58 2020, MaxMem=  4026531840 cpu:               2.6 elap:               0.4
 (Enter /opt/ohpc/pub/libs/gaussian/g16-A.03/sandybridge/g16/l103.exe)

 GradGradGradGradGradGradGradGradGradGradGradGradGradGradGradGradGradGrad
 Berny optimization.
 Initialization pass.
                           ----------------------------
                           !    Initial Parameters    !
                           ! (Angstroms and Degrees)  !
 --------------------------                            --------------------------
 ! Name  Definition              Value          Derivative Info.                !
 --------------------------------------------------------------------------------
 ! R1    R(1,2)                  1.3161         estimate D2E/DX2                !
 ! R2    R(1,7)                  1.66           estimate D2E/DX2                !
 ! R3    R(1,15)                 1.1319         estimate D2E/DX2                !
 ! R4    R(2,3)                  1.3992         estimate D2E/DX2                !
 ! R5    R(2,16)                 1.1644         estimate D2E/DX2                !
 ! R6    R(3,4)                  1.3793         estimate D2E/DX2                !
 ! R7    R(3,6)                  1.4136         estimate D2E/DX2                !
 ! R8    R(4,5)                  1.4345         estimate D2E/DX2                !
 ! R9    R(5,17)                 1.0989         estimate D2E/DX2                !
 ! R10   R(5,18)                 1.0892         estimate D2E/DX2                !
 ! R11   R(5,19)                 1.0763         estimate D2E/DX2                !
 ! R12   R(6,7)                  1.66           estimate D2E/DX2                !
 ! R13   R(6,8)                  1.5248         estimate D2E/DX2                !
 ! R14   R(8,9)                  1.3729         estimate D2E/DX2                !
 ! R15   R(8,14)                 1.7048         estimate D2E/DX2                !
 ! R16   R(9,10)                 1.3552         estimate D2E/DX2                !
 ! R17   R(9,12)                 1.3813         estimate D2E/DX2                !
 ! R18   R(10,11)                1.4158         estimate D2E/DX2                !
 ! R19   R(11,20)                1.1029         estimate D2E/DX2                !
 ! R20   R(11,21)                1.1476         estimate D2E/DX2                !
 ! R21   R(11,22)                1.0701         estimate D2E/DX2                !
 ! R22   R(12,13)                1.4293         estimate D2E/DX2                !
 ! R23   R(12,23)                1.136          estimate D2E/DX2                !
 ! R24   R(13,14)                1.7167         estimate D2E/DX2                !
 ! R25   R(13,24)                1.063          estimate D2E/DX2                !
 ! A1    A(2,1,7)              112.1358         estimate D2E/DX2                !
 ! A2    A(2,1,15)             127.3692         estimate D2E/DX2                !
 ! A3    A(7,1,15)             120.3676         estimate D2E/DX2                !
 ! A4    A(1,2,3)              115.8039         estimate D2E/DX2                !
 ! A5    A(1,2,16)             121.7773         estimate D2E/DX2                !
 ! A6    A(3,2,16)             122.2461         estimate D2E/DX2                !
 ! A7    A(2,3,4)              134.5707         estimate D2E/DX2                !
 ! A8    A(2,3,6)              106.7061         estimate D2E/DX2                !
 ! A9    A(4,3,6)              118.6567         estimate D2E/DX2                !
 ! A10   A(3,4,5)              109.813          estimate D2E/DX2                !
 ! A11   A(4,5,17)             102.6428         estimate D2E/DX2                !
 ! A12   A(4,5,18)             110.0924         estimate D2E/DX2                !
 ! A13   A(4,5,19)             114.5453         estimate D2E/DX2                !
 ! A14   A(17,5,18)            105.8482         estimate D2E/DX2                !
 ! A15   A(17,5,19)            110.6517         estimate D2E/DX2                !
 ! A16   A(18,5,19)            112.2975         estimate D2E/DX2                !
 ! A17   A(3,6,7)              113.1963         estimate D2E/DX2                !
 ! A18   A(3,6,8)              124.7039         estimate D2E/DX2                !
 ! A19   A(7,6,8)              122.0947         estimate D2E/DX2                !
 ! A20   A(1,7,6)               91.8957         estimate D2E/DX2                !
 ! A21   A(6,8,9)              127.5765         estimate D2E/DX2                !
 ! A22   A(6,8,14)             119.4891         estimate D2E/DX2                !
 ! A23   A(9,8,14)             112.7666         estimate D2E/DX2                !
 ! A24   A(8,9,10)             119.1078         estimate D2E/DX2                !
 ! A25   A(8,9,12)             113.2593         estimate D2E/DX2                !
 ! A26   A(10,9,12)            127.5474         estimate D2E/DX2                !
 ! A27   A(9,10,11)            118.0829         estimate D2E/DX2                !
 ! A28   A(10,11,20)           108.196          estimate D2E/DX2                !
 ! A29   A(10,11,21)           109.7079         estimate D2E/DX2                !
 ! A30   A(10,11,22)           111.2773         estimate D2E/DX2                !
 ! A31   A(20,11,21)           107.383          estimate D2E/DX2                !
 ! A32   A(20,11,22)           110.0896         estimate D2E/DX2                !
 ! A33   A(21,11,22)           110.0886         estimate D2E/DX2                !
 ! A34   A(9,12,13)            111.5597         estimate D2E/DX2                !
 ! A35   A(9,12,23)            127.4858         estimate D2E/DX2                !
 ! A36   A(13,12,23)           120.4735         estimate D2E/DX2                !
 ! A37   A(12,13,14)           110.871          estimate D2E/DX2                !
 ! A38   A(12,13,24)           125.0048         estimate D2E/DX2                !
 ! A39   A(14,13,24)           124.0796         estimate D2E/DX2                !
 ! A40   A(8,14,13)             91.455          estimate D2E/DX2                !
 ! D1    D(7,1,2,3)              5.7355         estimate D2E/DX2                !
 ! D2    D(7,1,2,16)          -178.9413         estimate D2E/DX2                !
 ! D3    D(15,1,2,3)          -178.4013         estimate D2E/DX2                !
 ! D4    D(15,1,2,16)           -3.0781         estimate D2E/DX2                !
 ! D5    D(2,1,7,6)             -4.4669         estimate D2E/DX2                !
 ! D6    D(15,1,7,6)           179.3432         estimate D2E/DX2                !
 ! D7    D(1,2,3,4)            179.2148         estimate D2E/DX2                !
 ! D8    D(1,2,3,6)             -3.9159         estimate D2E/DX2                !
 ! D9    D(16,2,3,4)             3.9157         estimate D2E/DX2                !
 ! D10   D(16,2,3,6)          -179.215          estimate D2E/DX2                !
 ! D11   D(2,3,4,5)             -6.3631         estimate D2E/DX2                !
 ! D12   D(6,3,4,5)            177.0543         estimate D2E/DX2                !
 ! D13   D(2,3,6,7)              0.4336         estimate D2E/DX2                !
 ! D14   D(2,3,6,8)           -178.7542         estimate D2E/DX2                !
 ! D15   D(4,3,6,7)            177.8925         estimate D2E/DX2                !
 ! D16   D(4,3,6,8)             -1.2953         estimate D2E/DX2                !
 ! D17   D(3,4,5,17)           177.6896         estimate D2E/DX2                !
 ! D18   D(3,4,5,18)            65.3519         estimate D2E/DX2                !
 ! D19   D(3,4,5,19)           -62.3238         estimate D2E/DX2                !
 ! D20   D(3,6,7,1)              2.2125         estimate D2E/DX2                !
 ! D21   D(8,6,7,1)           -178.5757         estimate D2E/DX2                !
 ! D22   D(3,6,8,9)            119.3849         estimate D2E/DX2                !
 ! D23   D(3,6,8,14)           -65.684          estimate D2E/DX2                !
 ! D24   D(7,6,8,9)            -59.7338         estimate D2E/DX2                !
 ! D25   D(7,6,8,14)           115.1972         estimate D2E/DX2                !
 ! D26   D(6,8,9,10)            -7.6735         estimate D2E/DX2                !
 ! D27   D(6,8,9,12)           175.438          estimate D2E/DX2                !
 ! D28   D(14,8,9,10)          177.1109         estimate D2E/DX2                !
 ! D29   D(14,8,9,12)            0.2224         estimate D2E/DX2                !
 ! D30   D(6,8,14,13)         -177.3736         estimate D2E/DX2                !
 ! D31   D(9,8,14,13)           -1.7289         estimate D2E/DX2                !
 ! D32   D(8,9,10,11)         -178.3311         estimate D2E/DX2                !
 ! D33   D(12,9,10,11)          -1.9372         estimate D2E/DX2                !
 ! D34   D(8,9,12,13)            1.8512         estimate D2E/DX2                !
 ! D35   D(8,9,12,23)          173.832          estimate D2E/DX2                !
 ! D36   D(10,9,12,13)        -174.7196         estimate D2E/DX2                !
 ! D37   D(10,9,12,23)          -2.7388         estimate D2E/DX2                !
 ! D38   D(9,10,11,20)         -57.8852         estimate D2E/DX2                !
 ! D39   D(9,10,11,21)          58.9738         estimate D2E/DX2                !
 ! D40   D(9,10,11,22)        -178.9513         estimate D2E/DX2                !
 ! D41   D(9,12,13,14)          -3.0904         estimate D2E/DX2                !
 ! D42   D(9,12,13,24)         179.2601         estimate D2E/DX2                !
 ! D43   D(23,12,13,14)       -175.7109         estimate D2E/DX2                !
 ! D44   D(23,12,13,24)          6.6396         estimate D2E/DX2                !
 ! D45   D(12,13,14,8)           2.715          estimate D2E/DX2                !
 ! D46   D(24,13,14,8)        -179.6095         estimate D2E/DX2                !
 --------------------------------------------------------------------------------
 Trust Radius=3.00D-01 FncErr=1.00D-07 GrdErr=1.00D-06 EigMax=2.50D+02 EigMin=1.00D-04
 Number of steps in this run=    121 maximum allowed number of steps=    144.
 GradGradGradGradGradGradGradGradGradGradGradGradGradGradGradGradGradGrad

 Leave Link  103 at Fri Jul 24 12:11:58 2020, MaxMem=  4026531840 cpu:               0.2 elap:               0.0
 (Enter /opt/ohpc/pub/libs/gaussian/g16-A.03/sandybridge/g16/l202.exe)
                          Input orientation:                          
 ---------------------------------------------------------------------
 Center     Atomic      Atomic             Coordinates (Angstroms)
 Number     Number       Type             X           Y           Z
 ---------------------------------------------------------------------
      1          6           0        2.640804    1.643666   -0.686259
      2          6           0        2.914307    0.599606    0.066960
      3          6           0        1.850817   -0.279756    0.298489
      4          8           0        1.706367   -1.462247    0.993620
      5          6           0        2.984791   -1.905471    1.470073
      6          6           0        0.710308    0.292859   -0.309547
      7         16           0        1.026543    1.738790   -1.061167
      8          6           0       -0.686932   -0.317081   -0.281462
      9          6           0       -1.829044    0.230641    0.248040
     10          8           0       -1.739644    1.378713    0.962603
     11          6           0       -2.925583    1.905241    1.529106
     12          6           0       -2.956246   -0.535485    0.023463
     13          6           0       -2.640858   -1.741500   -0.675739
     14         16           0       -0.973281   -1.795901   -1.079938
     15          1           0        3.353910    2.458395   -1.016335
     16          1           0        3.994217    0.381373    0.443799
     17          1           0        2.729957   -2.814589    2.032267
     18          1           0        3.375196   -1.201602    2.203875
     19          1           0        3.698776   -2.125818    0.695450
     20          1           0       -3.648325    2.079787    0.714575
     21          1           0       -3.390345    1.133796    2.240416
     22          1           0       -2.733673    2.818822    2.052282
     23          1           0       -4.001874   -0.363530    0.432896
     24          1           0       -3.344499   -2.490228   -0.948150
 ---------------------------------------------------------------------
                    Distance matrix (angstroms):
                    1          2          3          4          5
     1  C    0.000000
     2  C    1.316132   0.000000
     3  C    2.300730   1.399248   0.000000
     4  O    3.652651   2.563017   1.379260   0.000000
     5  C    4.167069   2.872125   2.302489   1.434511   0.000000
     6  C    2.386086   2.256870   1.413632   2.402244   3.629459
     7  S    1.659953   2.476704   2.569556   3.864059   4.850005
     8  C    3.883583   3.732377   2.603441   2.943657   4.367197
     9  C    4.780073   4.761124   3.715431   3.990099   5.406417
    10  O    4.687992   4.802962   4.010359   4.466207   5.776130
    11  C    5.996743   6.160103   5.394685   5.751668   7.032605
    12  C    6.048088   5.979441   4.821710   4.851809   6.266216
    13  C    6.273389   6.073898   4.822962   4.665095   6.023232
    14  S    5.004719   4.708202   3.489167   3.404626   4.709660
    15  H    1.131925   2.195877   3.389030   4.703802   5.036050
    16  H    2.168442   1.164405   2.247748   2.989230   2.702191
    17  H    5.222487   3.943747   3.194409   1.988807   1.098862
    18  H    4.121621   2.832521   2.608453   2.077894   1.089180
    19  H    4.151799   2.904880   2.642059   2.121067   1.076275
    20  H    6.457994   6.758586   5.998428   6.426243   7.775043
    21  H    6.723106   6.690135   5.765326   5.854094   7.104430
    22  H    6.145372   6.384834   5.804698   6.257977   7.440346
    23  H    7.028977   6.992503   5.854833   5.840000   7.229579
    24  H    7.278840   7.053380   5.782007   5.508036   6.800710
                    6          7          8          9         10
     6  C    0.000000
     7  S    1.660016   0.000000
     8  C    1.524826   2.787569   0.000000
     9  C    2.600593   3.484668   1.372877   0.000000
    10  O    2.966430   3.446316   2.351939   1.355235   0.000000
    11  C    4.381795   4.728268   3.637091   2.376513   1.415842
    12  C    3.773681   4.712893   2.300101   1.381292   2.454844
    13  C    3.937388   5.070582   2.449949   2.324166   3.637593
    14  S    2.791217   4.061242   1.704837   2.569577   3.851942
    15  H    3.489660   2.436489   4.956986   5.781396   5.570117
    16  H    3.370374   3.593688   4.788214   5.828500   5.843031
    17  H    4.383983   5.762310   4.823486   5.765534   6.221358
    18  H    3.956303   4.982226   4.843569   5.741143   5.861772
    19  H    3.973784   5.016147   4.843586   6.025767   6.475301
    20  H    4.820749   5.012378   3.937882   2.635674   2.048435
    21  H    4.901514   5.547555   3.971568   2.687548   2.101810
    22  H    4.880546   4.999926   4.412414   3.282122   2.061409
    23  H    4.815260   5.651279   3.391357   2.260177   2.904081
    24  H    4.959319   6.083040   3.497099   3.336256   4.603829
                   11         12         13         14         15
    11  C    0.000000
    12  C    2.867934   0.000000
    13  C    4.270964   1.429274   0.000000
    14  S    4.931232   2.595822   1.716726   0.000000
    15  H    6.798329   7.061343   7.327508   6.068580   0.000000
    16  H    7.168242   7.023265   7.055790   5.633678   2.618397
    17  H    7.383434   6.446899   6.109867   4.943432   6.122716
    18  H    7.057450   6.729418   6.691530   5.481411   4.875016
    19  H    7.799138   6.875321   6.497601   5.008889   4.905522
    20  H    1.102852   2.792178   4.189296   5.039553   7.222928
    21  H    1.147647   2.808883   4.163294   5.044807   7.605653
    22  H    1.070127   3.926451   5.314814   5.848543   6.826784
    23  H    2.739964   1.136020   2.231645   3.675966   8.010686
    24  H    5.062849   2.217159   1.062973   2.474294   8.328397
                   16         17         18         19         20
    16  H    0.000000
    17  H    3.786259   0.000000
    18  H    2.446807   1.745712   0.000000
    19  H    2.537050   1.788881   1.798395   0.000000
    20  H    7.833670   8.147006   7.894009   8.465658   0.000000
    21  H    7.637128   7.286369   7.157371   7.954096   1.813737
    22  H    7.334363   7.847737   7.314716   8.225987   1.781073
    23  H    8.030720   7.340519   7.632817   7.904088   2.484781
    24  H    8.002523   6.774003   7.533268   7.241681   4.872577
                   21         22         23         24
    21  H    0.000000
    22  H    1.818220   0.000000
    23  H    2.425506   3.789210   0.000000
    24  H    4.827277   6.128761   2.619594   0.000000
 Stoichiometry    C10H10O2S2
 Framework group  C1[X(C10H10O2S2)]
 Deg. of freedom    66
 Full point group                 C1      NOp   1
 Largest Abelian subgroup         C1      NOp   1
 Largest concise Abelian subgroup C1      NOp   1
                         Standard orientation:                         
 ---------------------------------------------------------------------
 Center     Atomic      Atomic             Coordinates (Angstroms)
 Number     Number       Type             X           Y           Z
 ---------------------------------------------------------------------
      1          6           0       -2.639948   -1.646363   -0.701452
      2          6           0       -2.908398   -0.607909    0.061276
      3          6           0       -1.841026    0.264906    0.299616
      4          8           0       -1.691000    1.440553    1.005097
      5          6           0       -2.967127    1.884862    1.486670
      6          6           0       -0.703473   -0.307041   -0.314555
      7         16           0       -1.026437   -1.744895   -1.078703
      8          6           0        0.696334    0.296780   -0.282358
      9          6           0        1.836618   -0.260399    0.241183
     10          8           0        1.743054   -1.414397    0.945594
     11          6           0        2.927287   -1.950895    1.506282
     12          6           0        2.966816    0.502976    0.022370
     13          6           0        2.655852    1.716470   -0.665787
     14         16           0        0.988155    1.781433   -1.067923
     15          1           0       -3.356756   -2.455136   -1.038090
     16          1           0       -3.987045   -0.388525    0.441052
     17          1           0       -2.707982    2.787870    2.056685
     18          1           0       -3.359816    1.176132    2.214551
     19          1           0       -3.680880    2.115072    0.714706
     20          1           0        3.648558   -2.121209    0.689554
     21          1           0        3.395916   -1.187757    2.223987
     22          1           0        2.732023   -2.868284    2.021495
     23          1           0        4.012083    0.323017    0.429277
     24          1           0        3.362377    2.464644   -0.932190
 ---------------------------------------------------------------------
 Rotational constants (GHZ):           0.7593422           0.4390218           0.3539227
 Leave Link  202 at Fri Jul 24 12:11:58 2020, MaxMem=  4026531840 cpu:               0.1 elap:               0.0
 (Enter /opt/ohpc/pub/libs/gaussian/g16-A.03/sandybridge/g16/l301.exe)
 Standard basis: CC-pVDZ (5D, 7F)
 Ernie: Thresh=  0.10000D-02 Tol=  0.10000D-05 Strict=F.
 Ernie:  44 primitive shells out of 414 were deleted.
 There are   268 symmetry adapted cartesian basis functions of A   symmetry.
 There are   254 symmetry adapted basis functions of A   symmetry.
   254 basis functions,   608 primitive gaussians,   268 cartesian basis functions
    59 alpha electrons       59 beta electrons
       nuclear repulsion energy      1106.5800359587 Hartrees.
 IExCor=32609 DFT=T Ex+Corr=LC-wPBE ExCW=0 ScaHFX=  1.000000
 ScaDFX=  1.000000  0.000000  1.000000  1.000000 ScalE2=  1.000000  1.000000
 IRadAn=      5 IRanWt=     -1 IRanGd=            0 ICorTp=0 IEmpDi=  4
 HFx  wShort=  0.000000 wLong=  0.141600 cFull=  0.000000 cShort=  0.000000 cLong=  1.000000
 DFx  wShort=  0.000000 wLong=  0.141600 cFull=  0.000000 cShort=  0.000000 cLong=  1.000000
 NAtoms=   24 NActive=   24 NUniq=   24 SFac= 1.00D+00 NAtFMM=   60 NAOKFM=F Big=F
 Integral buffers will be    131072 words long.
 Raffenetti 2 integral format.
 Two-electron integral symmetry is turned on.
 Leave Link  301 at Fri Jul 24 12:11:58 2020, MaxMem=  4026531840 cpu:               0.4 elap:               0.1
 (Enter /opt/ohpc/pub/libs/gaussian/g16-A.03/sandybridge/g16/l302.exe)
 NPDir=0 NMtPBC=     1 NCelOv=     1 NCel=       1 NClECP=     1 NCelD=      1
         NCelK=      1 NCelE2=     1 NClLst=     1 CellRange=     0.0.
 One-electron integrals computed using PRISM.
 One-electron integral symmetry used in STVInt
 NBasis=   254 RedAO= T EigKep=  6.50D-04  NBF=   254
 NBsUse=   254 1.00D-06 EigRej= -1.00D+00 NBFU=   254
 Precomputing XC quadrature grid using
 IXCGrd= 4 IRadAn=           5 IRanWt=          -1 IRanGd=           0 AccXCQ= 0.00D+00.
 Generated NRdTot=       0 NPtTot=           0 NUsed=           0 NTot=          32
 NSgBfM=   267   267   267   267   267 MxSgAt=    24 MxSgA2=    24.
 Leave Link  302 at Fri Jul 24 12:11:58 2020, MaxMem=  4026531840 cpu:               2.2 elap:               0.3
 (Enter /opt/ohpc/pub/libs/gaussian/g16-A.03/sandybridge/g16/l303.exe)
 DipDrv:  MaxL=1.
 Leave Link  303 at Fri Jul 24 12:11:58 2020, MaxMem=  4026531840 cpu:               0.5 elap:               0.1
 (Enter /opt/ohpc/pub/libs/gaussian/g16-A.03/sandybridge/g16/l401.exe)
 ExpMin= 1.22D-01 ExpMax= 1.11D+05 ExpMxC= 1.07D+03 IAcc=3 IRadAn=         5 AccDes= 0.00D+00
 Harris functional with IExCor=32609 and IRadAn=       5 diagonalized for initial guess.
 HarFok:  IExCor=32609 AccDes= 0.00D+00 IRadAn=         5 IDoV= 1 UseB2=F ITyADJ=14
 ICtDFT=  3500011 ScaDFX=  1.000000  1.000000  1.000000  1.000000
 FoFCou: FMM=F IPFlag=           0 FMFlag=      100000 FMFlg1=           0
         NFxFlg=           0 DoJE=T BraDBF=F KetDBF=T FulRan=T
         wScrn=  0.000000 ICntrl=       500 IOpCl=  0 I1Cent=   200000004 NGrid=           0
         NMat0=    1 NMatS0=      1 NMatT0=    0 NMatD0=    1 NMtDS0=    0 NMtDT0=    0
 Petite list used in FoFCou.
 Harris En= -1333.08963545604    
 JPrj=0 DoOrth=F DoCkMO=F.
 Initial guess <Sx>= 0.0000 <Sy>= 0.0000 <Sz>= 0.0000 <S**2>=-0.0000 S=-0.0000
 Leave Link  401 at Fri Jul 24 12:12:00 2020, MaxMem=  4026531840 cpu:              12.7 elap:               1.6
 (Enter /opt/ohpc/pub/libs/gaussian/g16-A.03/sandybridge/g16/l502.exe)
 Integral symmetry usage will be decided dynamically.
 UHF open shell SCF:
 Using DIIS extrapolation, IDIIS=  1040.
 NGot=  4026531840 LenX=  4026383152 LenY=  4026310887
 Requested convergence on RMS density matrix=1.00D-08 within 128 cycles.
 Requested convergence on MAX density matrix=1.00D-06.
 Requested convergence on             energy=1.00D-06.
 No special actions if energy rises.
 Fock matrices will be formed incrementally for  20 cycles.
 Integral accuracy reduced to 1.0D-05 until final iterations.

 Cycle   1  Pass 0  IDiag  1:
 FoFJK:  IHMeth= 1 ICntrl=       0 DoSepK=T KAlg= 0 I1Cent=           0 FoldK=F
 IRaf=         1 NMat=       1 IRICut=       1 DoRegI=T DoRafI=F ISym2E= 0 IDoP0=0 IntGTp=1.
 FoFCou: FMM=F IPFlag=           0 FMFlag=      100000 FMFlg1=           0
         NFxFlg=           0 DoJE=T BraDBF=F KetDBF=F FulRan=T
         wScrn=  0.000000 ICntrl=       500 IOpCl=  0 I1Cent=           0 NGrid=           0
         NMat0=    1 NMatS0=      1 NMatT0=    0 NMatD0=    1 NMtDS0=    0 NMtDT0=    0
 Symmetry not used in FoFCou.
 E= -1332.70440246707    
 DIIS: error= 1.82D-02 at cycle   1 NSaved=   1.
 NSaved= 1 IEnMin= 1 EnMin= -1332.70440246707     IErMin= 1 ErrMin= 1.82D-02
 ErrMax= 1.82D-02  0.00D+00 EMaxC= 1.00D-01 BMatC= 1.26D+00 BMatP= 1.26D+00
 IDIUse=3 WtCom= 8.18D-01 WtEn= 1.82D-01
 Coeff-Com:  0.100D+01
 Coeff-En:   0.100D+01
 Coeff:      0.100D+01
 Gap=     0.213 Goal=   None    Shift=    0.000
 Gap=     0.213 Goal=   None    Shift=    0.000
 GapD=    0.213 DampG=1.000 DampE=0.500 DampFc=0.5000 IDamp=-1.
 Damping current iteration by 5.00D-01
 RMSDP=5.29D-03 MaxDP=1.52D-01              OVMax= 2.09D-01

 Cycle   2  Pass 0  IDiag  1:
 RMSU=  2.64D-03    CP:  9.91D-01
 E= -1332.85629421409     Delta-E=       -0.151891747016 Rises=F Damp=T
 DIIS: error= 4.51D-03 at cycle   2 NSaved=   2.
 NSaved= 2 IEnMin= 2 EnMin= -1332.85629421409     IErMin= 2 ErrMin= 4.51D-03
 ErrMax= 4.51D-03  0.00D+00 EMaxC= 1.00D-01 BMatC= 5.94D-02 BMatP= 1.26D+00
 IDIUse=3 WtCom= 9.55D-01 WtEn= 4.51D-02
 Coeff-Com:  0.110D+00 0.890D+00
 Coeff-En:   0.181D+00 0.819D+00
 Coeff:      0.114D+00 0.886D+00
 Gap=     0.311 Goal=   None    Shift=    0.000
 Gap=     0.311 Goal=   None    Shift=    0.000
 RMSDP=1.01D-03 MaxDP=2.90D-02 DE=-1.52D-01 OVMax= 1.68D-01

 Cycle   3  Pass 0  IDiag  1:
 RMSU=  9.70D-04    CP:  9.90D-01  8.87D-01
 E= -1333.05997810258     Delta-E=       -0.203683888494 Rises=F Damp=F
 DIIS: error= 1.99D-03 at cycle   3 NSaved=   3.
 NSaved= 3 IEnMin= 3 EnMin= -1333.05997810258     IErMin= 3 ErrMin= 1.99D-03
 ErrMax= 1.99D-03  0.00D+00 EMaxC= 1.00D-01 BMatC= 1.85D-02 BMatP= 5.94D-02
 IDIUse=3 WtCom= 9.80D-01 WtEn= 1.99D-02
 Coeff-Com:  0.353D-01 0.342D+00 0.623D+00
 Coeff-En:   0.000D+00 0.000D+00 0.100D+01
 Coeff:      0.346D-01 0.335D+00 0.630D+00
 Gap=     0.253 Goal=   None    Shift=    0.000
 Gap=     0.253 Goal=   None    Shift=    0.000
 RMSDP=3.73D-04 MaxDP=1.01D-02 DE=-2.04D-01 OVMax= 2.52D-02

 Cycle   4  Pass 0  IDiag  1:
 RMSU=  2.88D-04    CP:  9.90D-01  9.28D-01  7.82D-01
 E= -1333.06361244368     Delta-E=       -0.003634341098 Rises=F Damp=F
 DIIS: error= 1.11D-03 at cycle   4 NSaved=   4.
 NSaved= 4 IEnMin= 4 EnMin= -1333.06361244368     IErMin= 4 ErrMin= 1.11D-03
 ErrMax= 1.11D-03  0.00D+00 EMaxC= 1.00D-01 BMatC= 4.98D-03 BMatP= 1.85D-02
 IDIUse=3 WtCom= 9.89D-01 WtEn= 1.11D-02
 Coeff-Com:  0.118D-01 0.590D-01 0.339D+00 0.590D+00
 Coeff-En:   0.000D+00 0.000D+00 0.181D+00 0.819D+00
 Coeff:      0.117D-01 0.584D-01 0.338D+00 0.592D+00
 Gap=     0.254 Goal=   None    Shift=    0.000
 Gap=     0.254 Goal=   None    Shift=    0.000
 RMSDP=1.53D-04 MaxDP=5.26D-03 DE=-3.63D-03 OVMax= 9.62D-03

 Cycle   5  Pass 0  IDiag  1:
 RMSU=  1.03D-04    CP:  9.90D-01  9.17D-01  8.64D-01  7.40D-01
 E= -1333.06478124668     Delta-E=       -0.001168803000 Rises=F Damp=F
 DIIS: error= 4.35D-04 at cycle   5 NSaved=   5.
 NSaved= 5 IEnMin= 5 EnMin= -1333.06478124668     IErMin= 5 ErrMin= 4.35D-04
 ErrMax= 4.35D-04  0.00D+00 EMaxC= 1.00D-01 BMatC= 4.07D-04 BMatP= 4.98D-03
 IDIUse=3 WtCom= 9.96D-01 WtEn= 4.35D-03
 Coeff-Com:  0.521D-02-0.956D-02 0.970D-01 0.276D+00 0.631D+00
 Coeff-En:   0.000D+00 0.000D+00 0.000D+00 0.000D+00 0.100D+01
 Coeff:      0.518D-02-0.952D-02 0.965D-01 0.275D+00 0.633D+00
 Gap=     0.255 Goal=   None    Shift=    0.000
 Gap=     0.255 Goal=   None    Shift=    0.000
 RMSDP=5.46D-05 MaxDP=1.99D-03 DE=-1.17D-03 OVMax= 3.65D-03

 Cycle   6  Pass 0  IDiag  1:
 RMSU=  4.25D-05    CP:  9.90D-01  9.11D-01  8.74D-01  8.22D-01  8.35D-01
 E= -1333.06486952758     Delta-E=       -0.000088280901 Rises=F Damp=F
 DIIS: error= 2.31D-04 at cycle   6 NSaved=   6.
 NSaved= 6 IEnMin= 6 EnMin= -1333.06486952758     IErMin= 6 ErrMin= 2.31D-04
 ErrMax= 2.31D-04  0.00D+00 EMaxC= 1.00D-01 BMatC= 9.42D-05 BMatP= 4.07D-04
 IDIUse=3 WtCom= 9.98D-01 WtEn= 2.31D-03
 Coeff-Com:  0.210D-02-0.168D-01 0.947D-02 0.781D-01 0.369D+00 0.558D+00
 Coeff-En:   0.000D+00 0.000D+00 0.000D+00 0.000D+00 0.766D-01 0.923D+00
 Coeff:      0.209D-02-0.167D-01 0.945D-02 0.780D-01 0.368D+00 0.559D+00
 Gap=     0.255 Goal=   None    Shift=    0.000
 Gap=     0.255 Goal=   None    Shift=    0.000
 RMSDP=2.35D-05 MaxDP=7.00D-04 DE=-8.83D-05 OVMax= 1.92D-03

 Cycle   7  Pass 0  IDiag  1:
 RMSU=  1.71D-05    CP:  9.90D-01  9.11D-01  8.81D-01  8.27D-01  9.38D-01
                    CP:  7.67D-01
 E= -1333.06489281365     Delta-E=       -0.000023286068 Rises=F Damp=F
 DIIS: error= 6.94D-05 at cycle   7 NSaved=   7.
 NSaved= 7 IEnMin= 7 EnMin= -1333.06489281365     IErMin= 7 ErrMin= 6.94D-05
 ErrMax= 6.94D-05  0.00D+00 EMaxC= 1.00D-01 BMatC= 9.99D-06 BMatP= 9.42D-05
 IDIUse=1 WtCom= 1.00D+00 WtEn= 0.00D+00
 Coeff-Com:  0.599D-03-0.725D-02-0.578D-02 0.186D-02 0.899D-01 0.283D+00
 Coeff-Com:  0.638D+00
 Coeff:      0.599D-03-0.725D-02-0.578D-02 0.186D-02 0.899D-01 0.283D+00
 Coeff:      0.638D+00
 Gap=     0.255 Goal=   None    Shift=    0.000
 Gap=     0.255 Goal=   None    Shift=    0.000
 RMSDP=9.74D-06 MaxDP=3.62D-04 DE=-2.33D-05 OVMax= 7.84D-04

 Initial convergence to 1.0D-05 achieved.  Increase integral accuracy.
 Cycle   8  Pass 1  IDiag  1:
 E= -1333.06474003395     Delta-E=        0.000152779700 Rises=F Damp=F
 DIIS: error= 6.31D-05 at cycle   1 NSaved=   1.
 NSaved= 1 IEnMin= 1 EnMin= -1333.06474003395     IErMin= 1 ErrMin= 6.31D-05
 ErrMax= 6.31D-05  0.00D+00 EMaxC= 1.00D-01 BMatC= 2.85D-06 BMatP= 2.85D-06
 IDIUse=1 WtCom= 1.00D+00 WtEn= 0.00D+00
 Coeff-Com:  0.100D+01
 Coeff:      0.100D+01
 Gap=     0.255 Goal=   None    Shift=    0.000
 Gap=     0.255 Goal=   None    Shift=    0.000
 RMSDP=9.74D-06 MaxDP=3.62D-04 DE= 1.53D-04 OVMax= 4.15D-04

 Cycle   9  Pass 1  IDiag  1:
 RMSU=  2.60D-05    CP:  1.00D+00
 E= -1333.06474015723     Delta-E=       -0.000000123283 Rises=F Damp=F
 DIIS: error= 3.91D-05 at cycle   2 NSaved=   2.
 NSaved= 2 IEnMin= 2 EnMin= -1333.06474015723     IErMin= 2 ErrMin= 3.91D-05
 ErrMax= 3.91D-05  0.00D+00 EMaxC= 1.00D-01 BMatC= 3.21D-06 BMatP= 2.85D-06
 IDIUse=1 WtCom= 1.00D+00 WtEn= 0.00D+00
 Coeff-Com:  0.518D+00 0.482D+00
 Coeff:      0.518D+00 0.482D+00
 Gap=     0.255 Goal=   None    Shift=    0.000
 Gap=     0.255 Goal=   None    Shift=    0.000
 RMSDP=4.33D-06 MaxDP=2.21D-04 DE=-1.23D-07 OVMax= 3.61D-04

 Cycle  10  Pass 1  IDiag  1:
 RMSU=  4.32D-06    CP:  1.00D+00  9.95D-01
 E= -1333.06474084119     Delta-E=       -0.000000683958 Rises=F Damp=F
 DIIS: error= 1.54D-05 at cycle   3 NSaved=   3.
 NSaved= 3 IEnMin= 3 EnMin= -1333.06474084119     IErMin= 3 ErrMin= 1.54D-05
 ErrMax= 1.54D-05  0.00D+00 EMaxC= 1.00D-01 BMatC= 4.24D-07 BMatP= 2.85D-06
 IDIUse=1 WtCom= 1.00D+00 WtEn= 0.00D+00
 Coeff-Com:  0.630D-01 0.263D+00 0.674D+00
 Coeff:      0.630D-01 0.263D+00 0.674D+00
 Gap=     0.255 Goal=   None    Shift=    0.000
 Gap=     0.255 Goal=   None    Shift=    0.000
 RMSDP=1.79D-06 MaxDP=6.26D-05 DE=-6.84D-07 OVMax= 1.24D-04

 Cycle  11  Pass 1  IDiag  1:
 RMSU=  1.15D-06    CP:  1.00D+00  1.03D+00  7.79D-01
 E= -1333.06474094166     Delta-E=       -0.000000100464 Rises=F Damp=F
 DIIS: error= 5.12D-06 at cycle   4 NSaved=   4.
 NSaved= 4 IEnMin= 4 EnMin= -1333.06474094166     IErMin= 4 ErrMin= 5.12D-06
 ErrMax= 5.12D-06  0.00D+00 EMaxC= 1.00D-01 BMatC= 8.22D-08 BMatP= 4.24D-07
 IDIUse=1 WtCom= 1.00D+00 WtEn= 0.00D+00
 Coeff-Com: -0.295D-01 0.101D+00 0.402D+00 0.526D+00
 Coeff:     -0.295D-01 0.101D+00 0.402D+00 0.526D+00
 Gap=     0.255 Goal=   None    Shift=    0.000
 Gap=     0.255 Goal=   None    Shift=    0.000
 RMSDP=6.47D-07 MaxDP=2.14D-05 DE=-1.00D-07 OVMax= 4.89D-05

 Cycle  12  Pass 1  IDiag  1:
 RMSU=  5.21D-07    CP:  1.00D+00  1.04D+00  8.38D-01  8.11D-01
 E= -1333.06474096374     Delta-E=       -0.000000022085 Rises=F Damp=F
 DIIS: error= 1.25D-06 at cycle   5 NSaved=   5.
 NSaved= 5 IEnMin= 5 EnMin= -1333.06474096374     IErMin= 5 ErrMin= 1.25D-06
 ErrMax= 1.25D-06  0.00D+00 EMaxC= 1.00D-01 BMatC= 2.66D-09 BMatP= 8.22D-08
 IDIUse=1 WtCom= 1.00D+00 WtEn= 0.00D+00
 Coeff-Com: -0.129D-01 0.144D-01 0.666D-01 0.155D+00 0.777D+00
 Coeff:     -0.129D-01 0.144D-01 0.666D-01 0.155D+00 0.777D+00
 Gap=     0.255 Goal=   None    Shift=    0.000
 Gap=     0.255 Goal=   None    Shift=    0.000
 RMSDP=2.33D-07 MaxDP=5.53D-06 DE=-2.21D-08 OVMax= 2.13D-05

 Cycle  13  Pass 1  IDiag  1:
 RMSU=  1.62D-07    CP:  1.00D+00  1.04D+00  8.41D-01  9.37D-01  1.14D+00
 E= -1333.06474096508     Delta-E=       -0.000000001341 Rises=F Damp=F
 DIIS: error= 6.29D-07 at cycle   6 NSaved=   6.
 NSaved= 6 IEnMin= 6 EnMin= -1333.06474096508     IErMin= 6 ErrMin= 6.29D-07
 ErrMax= 6.29D-07  0.00D+00 EMaxC= 1.00D-01 BMatC= 1.27D-09 BMatP= 2.66D-09
 IDIUse=1 WtCom= 1.00D+00 WtEn= 0.00D+00
 Coeff-Com:  0.291D-02-0.258D-01-0.104D+00-0.961D-01 0.466D+00 0.757D+00
 Coeff:      0.291D-02-0.258D-01-0.104D+00-0.961D-01 0.466D+00 0.757D+00
 Gap=     0.255 Goal=   None    Shift=    0.000
 Gap=     0.255 Goal=   None    Shift=    0.000
 RMSDP=1.65D-07 MaxDP=3.50D-06 DE=-1.34D-09 OVMax= 1.67D-05

 Cycle  14  Pass 1  IDiag  1:
 RMSU=  5.89D-08    CP:  1.00D+00  1.04D+00  8.46D-01  1.01D+00  1.38D+00
                    CP:  8.44D-01
 E= -1333.06474096566     Delta-E=       -0.000000000577 Rises=F Damp=F
 DIIS: error= 1.76D-07 at cycle   7 NSaved=   7.
 NSaved= 7 IEnMin= 7 EnMin= -1333.06474096566     IErMin= 7 ErrMin= 1.76D-07
 ErrMax= 1.76D-07  0.00D+00 EMaxC= 1.00D-01 BMatC= 1.07D-10 BMatP= 1.27D-09
 IDIUse=1 WtCom= 1.00D+00 WtEn= 0.00D+00
 Coeff-Com:  0.246D-02-0.151D-01-0.619D-01-0.638D-01 0.188D+00 0.398D+00
 Coeff-Com:  0.552D+00
 Coeff:      0.246D-02-0.151D-01-0.619D-01-0.638D-01 0.188D+00 0.398D+00
 Coeff:      0.552D+00
 Gap=     0.255 Goal=   None    Shift=    0.000
 Gap=     0.255 Goal=   None    Shift=    0.000
 RMSDP=3.16D-08 MaxDP=7.04D-07 DE=-5.77D-10 OVMax= 1.98D-06

 Cycle  15  Pass 1  IDiag  1:
 RMSU=  1.94D-08    CP:  1.00D+00  1.04D+00  8.47D-01  1.02D+00  1.42D+00
                    CP:  9.10D-01  8.51D-01
 E= -1333.06474096567     Delta-E=       -0.000000000016 Rises=F Damp=F
 DIIS: error= 5.00D-08 at cycle   8 NSaved=   8.
 NSaved= 8 IEnMin= 8 EnMin= -1333.06474096567     IErMin= 8 ErrMin= 5.00D-08
 ErrMax= 5.00D-08  0.00D+00 EMaxC= 1.00D-01 BMatC= 5.09D-12 BMatP= 1.07D-10
 IDIUse=1 WtCom= 1.00D+00 WtEn= 0.00D+00
 Coeff-Com:  0.587D-03-0.270D-02-0.117D-01-0.121D-01 0.223D-01 0.704D-01
 Coeff-Com:  0.204D+00 0.729D+00
 Coeff:      0.587D-03-0.270D-02-0.117D-01-0.121D-01 0.223D-01 0.704D-01
 Coeff:      0.204D+00 0.729D+00
 Gap=     0.255 Goal=   None    Shift=    0.000
 Gap=     0.255 Goal=   None    Shift=    0.000
 RMSDP=7.80D-09 MaxDP=1.90D-07 DE=-1.59D-11 OVMax= 6.62D-07

 SCF Done:  E(ULC-wPBE) =  -1333.06474097     A.U. after   15 cycles
            NFock= 15  Conv=0.78D-08     -V/T= 2.0036
 <Sx>= 0.0000 <Sy>= 0.0000 <Sz>= 0.0000 <S**2>=-0.0000 S=-0.0000
 <L.S>= 0.000000000000E+00
 KE= 1.328309799346D+03 PE=-5.358555221830D+03 EE= 1.590600645560D+03
 Annihilation of the first spin contaminant:
 S**2 before annihilation    -0.0000,   after    -0.0000
 Leave Link  502 at Fri Jul 24 12:13:17 2020, MaxMem=  4026531840 cpu:             612.6 elap:              76.9
 (Enter /opt/ohpc/pub/libs/gaussian/g16-A.03/sandybridge/g16/l601.exe)
 Copying SCF densities to generalized density rwf, IOpCl= 1 IROHF=0.

 **********************************************************************

            Population analysis using the SCF density.

 **********************************************************************

 Orbital symmetries:
 Alpha Orbitals:
       Occupied  (A) (A) (A) (A) (A) (A) (A) (A) (A) (A) (A) (A)
                 (A) (A) (A) (A) (A) (A) (A) (A) (A) (A) (A) (A)
                 (A) (A) (A) (A) (A) (A) (A) (A) (A) (A) (A) (A)
                 (A) (A) (A) (A) (A) (A) (A) (A) (A) (A) (A) (A)
                 (A) (A) (A) (A) (A) (A) (A) (A) (A) (A) (A)
       Virtual   (A) (A) (A) (A) (A) (A) (A) (A) (A) (A) (A) (A)
                 (A) (A) (A) (A) (A) (A) (A) (A) (A) (A) (A) (A)
                 (A) (A) (A) (A) (A) (A) (A) (A) (A) (A) (A) (A)
                 (A) (A) (A) (A) (A) (A) (A) (A) (A) (A) (A) (A)
                 (A) (A) (A) (A) (A) (A) (A) (A) (A) (A) (A) (A)
                 (A) (A) (A) (A) (A) (A) (A) (A) (A) (A) (A) (A)
                 (A) (A) (A) (A) (A) (A) (A) (A) (A) (A) (A) (A)
                 (A) (A) (A) (A) (A) (A) (A) (A) (A) (A) (A) (A)
                 (A) (A) (A) (A) (A) (A) (A) (A) (A) (A) (A) (A)
                 (A) (A) (A) (A) (A) (A) (A) (A) (A) (A) (A) (A)
                 (A) (A) (A) (A) (A) (A) (A) (A) (A) (A) (A) (A)
                 (A) (A) (A) (A) (A) (A) (A) (A) (A) (A) (A) (A)
                 (A) (A) (A) (A) (A) (A) (A) (A) (A) (A) (A) (A)
                 (A) (A) (A) (A) (A) (A) (A) (A) (A) (A) (A) (A)
                 (A) (A) (A) (A) (A) (A) (A) (A) (A) (A) (A) (A)
                 (A) (A) (A) (A) (A) (A) (A) (A) (A) (A) (A) (A)
                 (A) (A) (A)
 Beta  Orbitals:
       Occupied  (A) (A) (A) (A) (A) (A) (A) (A) (A) (A) (A) (A)
                 (A) (A) (A) (A) (A) (A) (A) (A) (A) (A) (A) (A)
                 (A) (A) (A) (A) (A) (A) (A) (A) (A) (A) (A) (A)
                 (A) (A) (A) (A) (A) (A) (A) (A) (A) (A) (A) (A)
                 (A) (A) (A) (A) (A) (A) (A) (A) (A) (A) (A)
       Virtual   (A) (A) (A) (A) (A) (A) (A) (A) (A) (A) (A) (A)
                 (A) (A) (A) (A) (A) (A) (A) (A) (A) (A) (A) (A)
                 (A) (A) (A) (A) (A) (A) (A) (A) (A) (A) (A) (A)
                 (A) (A) (A) (A) (A) (A) (A) (A) (A) (A) (A) (A)
                 (A) (A) (A) (A) (A) (A) (A) (A) (A) (A) (A) (A)
                 (A) (A) (A) (A) (A) (A) (A) (A) (A) (A) (A) (A)
                 (A) (A) (A) (A) (A) (A) (A) (A) (A) (A) (A) (A)
                 (A) (A) (A) (A) (A) (A) (A) (A) (A) (A) (A) (A)
                 (A) (A) (A) (A) (A) (A) (A) (A) (A) (A) (A) (A)
                 (A) (A) (A) (A) (A) (A) (A) (A) (A) (A) (A) (A)
                 (A) (A) (A) (A) (A) (A) (A) (A) (A) (A) (A) (A)
                 (A) (A) (A) (A) (A) (A) (A) (A) (A) (A) (A) (A)
                 (A) (A) (A) (A) (A) (A) (A) (A) (A) (A) (A) (A)
                 (A) (A) (A) (A) (A) (A) (A) (A) (A) (A) (A) (A)
                 (A) (A) (A) (A) (A) (A) (A) (A) (A) (A) (A) (A)
                 (A) (A) (A) (A) (A) (A) (A) (A) (A) (A) (A) (A)
                 (A) (A) (A)
 The electronic state is 1-A.
 Alpha  occ. eigenvalues --  -88.17283 -88.16848 -18.87813 -18.86863 -10.02839
 Alpha  occ. eigenvalues --  -10.02466 -10.02280 -10.02243  -9.99652  -9.99425
 Alpha  occ. eigenvalues --   -9.99380  -9.98998  -9.97947  -9.97634  -7.77608
 Alpha  occ. eigenvalues --   -7.77451  -5.79643  -5.79462  -5.79202  -5.79005
 Alpha  occ. eigenvalues --   -5.78869  -5.78696  -1.05536  -1.05169  -0.90411
 Alpha  occ. eigenvalues --   -0.88038  -0.76556  -0.75823  -0.75328  -0.72480
 Alpha  occ. eigenvalues --   -0.69923  -0.68147  -0.60334  -0.58568  -0.57130
 Alpha  occ. eigenvalues --   -0.56424  -0.55309  -0.50829  -0.49418  -0.48665
 Alpha  occ. eigenvalues --   -0.48342  -0.47206  -0.46358  -0.45408  -0.43968
 Alpha  occ. eigenvalues --   -0.42543  -0.41556  -0.40806  -0.39939  -0.37743
 Alpha  occ. eigenvalues --   -0.37507  -0.36938  -0.35583  -0.35373  -0.34671
 Alpha  occ. eigenvalues --   -0.29121  -0.27677  -0.25411  -0.23326
 Alpha virt. eigenvalues --    0.02188   0.04553   0.08274   0.09497   0.10539
 Alpha virt. eigenvalues --    0.11199   0.11852   0.12276   0.12924   0.14093
 Alpha virt. eigenvalues --    0.15348   0.15812   0.17021   0.17341   0.17963
 Alpha virt. eigenvalues --    0.18219   0.19085   0.19395   0.20079   0.20786
 Alpha virt. eigenvalues --    0.24849   0.28970   0.29245   0.30913   0.32750
 Alpha virt. eigenvalues --    0.37092   0.39182   0.43117   0.43574   0.45017
 Alpha virt. eigenvalues --    0.45875   0.46609   0.47195   0.47586   0.48136
 Alpha virt. eigenvalues --    0.48867   0.48906   0.49214   0.50297   0.50901
 Alpha virt. eigenvalues --    0.52423   0.52500   0.52638   0.53127   0.53825
 Alpha virt. eigenvalues --    0.53895   0.54382   0.55455   0.56331   0.57006
 Alpha virt. eigenvalues --    0.58837   0.59552   0.60515   0.61539   0.61895
 Alpha virt. eigenvalues --    0.62531   0.64231   0.64733   0.65869   0.66668
 Alpha virt. eigenvalues --    0.67344   0.68034   0.68615   0.69623   0.70869
 Alpha virt. eigenvalues --    0.71392   0.72032   0.72594   0.74092   0.75058
 Alpha virt. eigenvalues --    0.77745   0.78429   0.79142   0.81362   0.81909
 Alpha virt. eigenvalues --    0.84231   0.85595   0.86336   0.89085   0.89256
 Alpha virt. eigenvalues --    0.90440   0.93965   0.96325   0.96803   0.97810
 Alpha virt. eigenvalues --    0.98212   0.98812   0.99914   1.02507   1.03234
 Alpha virt. eigenvalues --    1.03666   1.04618   1.05702   1.07150   1.09699
 Alpha virt. eigenvalues --    1.11739   1.13452   1.15852   1.18620   1.19598
 Alpha virt. eigenvalues --    1.20601   1.22662   1.23518   1.24974   1.25733
 Alpha virt. eigenvalues --    1.26010   1.29866   1.32226   1.33582   1.35489
 Alpha virt. eigenvalues --    1.36275   1.37290   1.38983   1.39641   1.41001
 Alpha virt. eigenvalues --    1.41434   1.42262   1.43427   1.50652   1.51226
 Alpha virt. eigenvalues --    1.53337   1.53744   1.54681   1.55928   1.57143
 Alpha virt. eigenvalues --    1.58580   1.60225   1.61371   1.62603   1.63625
 Alpha virt. eigenvalues --    1.64785   1.65161   1.66009   1.67874   1.68601
 Alpha virt. eigenvalues --    1.69003   1.69192   1.70583   1.71594   1.73004
 Alpha virt. eigenvalues --    1.75139   1.76592   1.76920   1.77764   1.80436
 Alpha virt. eigenvalues --    1.84920   1.87307   1.87770   1.90975   1.91389
 Alpha virt. eigenvalues --    1.92265   1.93831   1.95672   1.97405   1.99043
 Alpha virt. eigenvalues --    2.01932   2.02351   2.03391   2.05512   2.07193
 Alpha virt. eigenvalues --    2.08886   2.10853   2.12490   2.13600   2.15120
 Alpha virt. eigenvalues --    2.18997   2.19571   2.23807   2.27832   2.30609
 Alpha virt. eigenvalues --    2.34623   2.37304   2.38508   2.40125   2.42583
 Alpha virt. eigenvalues --    2.43523   2.45302   2.47269   2.47906   2.50199
 Alpha virt. eigenvalues --    2.51362   2.56334   2.57436   2.87924   2.89015
 Alpha virt. eigenvalues --    2.92861   2.94117   2.99151   3.01043   3.03088
 Alpha virt. eigenvalues --    3.03533   3.27515   3.35940   3.41933   3.44869
  Beta  occ. eigenvalues --  -88.17283 -88.16848 -18.87813 -18.86863 -10.02839
  Beta  occ. eigenvalues --  -10.02466 -10.02280 -10.02243  -9.99652  -9.99425
  Beta  occ. eigenvalues --   -9.99380  -9.98998  -9.97947  -9.97634  -7.77608
  Beta  occ. eigenvalues --   -7.77451  -5.79643  -5.79462  -5.79202  -5.79005
  Beta  occ. eigenvalues --   -5.78869  -5.78696  -1.05536  -1.05169  -0.90411
  Beta  occ. eigenvalues --   -0.88038  -0.76556  -0.75823  -0.75328  -0.72480
  Beta  occ. eigenvalues --   -0.69923  -0.68147  -0.60334  -0.58568  -0.57130
  Beta  occ. eigenvalues --   -0.56424  -0.55309  -0.50829  -0.49418  -0.48665
  Beta  occ. eigenvalues --   -0.48342  -0.47206  -0.46358  -0.45408  -0.43968
  Beta  occ. eigenvalues --   -0.42543  -0.41556  -0.40806  -0.39939  -0.37743
  Beta  occ. eigenvalues --   -0.37507  -0.36938  -0.35583  -0.35373  -0.34671
  Beta  occ. eigenvalues --   -0.29121  -0.27677  -0.25411  -0.23326
  Beta virt. eigenvalues --    0.02188   0.04553   0.08274   0.09497   0.10539
  Beta virt. eigenvalues --    0.11199   0.11852   0.12276   0.12924   0.14093
  Beta virt. eigenvalues --    0.15348   0.15812   0.17021   0.17341   0.17963
  Beta virt. eigenvalues --    0.18219   0.19085   0.19395   0.20079   0.20786
  Beta virt. eigenvalues --    0.24849   0.28970   0.29245   0.30913   0.32750
  Beta virt. eigenvalues --    0.37092   0.39182   0.43117   0.43574   0.45017
  Beta virt. eigenvalues --    0.45875   0.46609   0.47195   0.47586   0.48136
  Beta virt. eigenvalues --    0.48867   0.48906   0.49214   0.50297   0.50901
  Beta virt. eigenvalues --    0.52423   0.52500   0.52638   0.53127   0.53825
  Beta virt. eigenvalues --    0.53895   0.54382   0.55455   0.56331   0.57006
  Beta virt. eigenvalues --    0.58837   0.59552   0.60515   0.61539   0.61895
  Beta virt. eigenvalues --    0.62531   0.64231   0.64733   0.65869   0.66668
  Beta virt. eigenvalues --    0.67344   0.68034   0.68615   0.69623   0.70869
  Beta virt. eigenvalues --    0.71392   0.72032   0.72594   0.74092   0.75058
  Beta virt. eigenvalues --    0.77745   0.78429   0.79142   0.81362   0.81909
  Beta virt. eigenvalues --    0.84231   0.85595   0.86336   0.89085   0.89256
  Beta virt. eigenvalues --    0.90440   0.93965   0.96325   0.96803   0.97810
  Beta virt. eigenvalues --    0.98212   0.98812   0.99914   1.02507   1.03234
  Beta virt. eigenvalues --    1.03666   1.04618   1.05702   1.07150   1.09699
  Beta virt. eigenvalues --    1.11739   1.13452   1.15852   1.18620   1.19598
  Beta virt. eigenvalues --    1.20601   1.22662   1.23518   1.24974   1.25733
  Beta virt. eigenvalues --    1.26010   1.29866   1.32226   1.33582   1.35489
  Beta virt. eigenvalues --    1.36275   1.37290   1.38983   1.39641   1.41001
  Beta virt. eigenvalues --    1.41434   1.42262   1.43427   1.50652   1.51226
  Beta virt. eigenvalues --    1.53337   1.53744   1.54681   1.55928   1.57143
  Beta virt. eigenvalues --    1.58580   1.60225   1.61371   1.62603   1.63625
  Beta virt. eigenvalues --    1.64785   1.65161   1.66009   1.67874   1.68601
  Beta virt. eigenvalues --    1.69003   1.69192   1.70583   1.71594   1.73004
  Beta virt. eigenvalues --    1.75139   1.76592   1.76920   1.77764   1.80436
  Beta virt. eigenvalues --    1.84920   1.87307   1.87770   1.90975   1.91389
  Beta virt. eigenvalues --    1.92265   1.93831   1.95672   1.97405   1.99043
  Beta virt. eigenvalues --    2.01932   2.02351   2.03391   2.05512   2.07193
  Beta virt. eigenvalues --    2.08886   2.10853   2.12490   2.13600   2.15120
  Beta virt. eigenvalues --    2.18997   2.19571   2.23807   2.27832   2.30609
  Beta virt. eigenvalues --    2.34623   2.37304   2.38508   2.40125   2.42583
  Beta virt. eigenvalues --    2.43523   2.45302   2.47269   2.47906   2.50199
  Beta virt. eigenvalues --    2.51362   2.56334   2.57436   2.87924   2.89015
  Beta virt. eigenvalues --    2.92861   2.94117   2.99151   3.01043   3.03088
  Beta virt. eigenvalues --    3.03533   3.27515   3.35940   3.41933   3.44869
          Condensed to atoms (all electrons):
               1          2          3          4          5          6
     1  C    4.959838   0.570549  -0.021670   0.003532   0.001049  -0.096382
     2  C    0.570549   4.915854   0.351427  -0.061709  -0.008372  -0.065082
     3  C   -0.021670   0.351427   4.859872   0.449497  -0.077497   0.487915
     4  O    0.003532  -0.061709   0.449497   7.633453   0.348010  -0.074758
     5  C    0.001049  -0.008372  -0.077497   0.348010   4.480122   0.008461
     6  C   -0.096382  -0.065082   0.487915  -0.074758   0.008461   5.400481
     7  S    0.374292  -0.096263  -0.096805   0.002990  -0.000214   0.391920
     8  C    0.003876   0.012445  -0.044547   0.007279  -0.000309   0.204374
     9  C    0.000163  -0.000078   0.002791  -0.000422   0.000016  -0.042559
    10  O    0.000043   0.000034  -0.000493  -0.000002  -0.000001   0.007700
    11  C    0.000000  -0.000002   0.000023  -0.000000   0.000000  -0.000386
    12  C    0.000001   0.000016  -0.000201   0.000033  -0.000002   0.013201
    13  C   -0.000001   0.000001   0.000152   0.000023  -0.000000   0.003355
    14  S   -0.000090   0.000088  -0.005142   0.002734  -0.000004  -0.060817
    15  H    0.380737  -0.017332   0.008942  -0.000048   0.000006   0.001999
    16  H   -0.046329   0.375404  -0.049836  -0.003242   0.005152   0.008058
    17  H   -0.000044  -0.000040   0.004888  -0.020766   0.391364  -0.000587
    18  H   -0.000007   0.010956  -0.010332  -0.030923   0.388414   0.000402
    19  H   -0.000033   0.007726  -0.004458  -0.027962   0.387307   0.001202
    20  H   -0.000001   0.000001  -0.000007  -0.000000  -0.000000   0.000052
    21  H    0.000001  -0.000000   0.000002   0.000000   0.000000   0.000128
    22  H   -0.000001  -0.000000   0.000003  -0.000000  -0.000000  -0.000044
    23  H   -0.000000  -0.000000   0.000003   0.000000  -0.000000  -0.000304
    24  H   -0.000000  -0.000000  -0.000002   0.000000   0.000000  -0.000268
               7          8          9         10         11         12
     1  C    0.374292   0.003876   0.000163   0.000043   0.000000   0.000001
     2  C   -0.096263   0.012445  -0.000078   0.000034  -0.000002   0.000016
     3  C   -0.096805  -0.044547   0.002791  -0.000493   0.000023  -0.000201
     4  O    0.002990   0.007279  -0.000422  -0.000002  -0.000000   0.000033
     5  C   -0.000214  -0.000309   0.000016  -0.000001   0.000000  -0.000002
     6  C    0.391920   0.204374  -0.042559   0.007700  -0.000386   0.013201
     7  S   15.330482  -0.063586  -0.004892   0.002912  -0.000028   0.000069
     8  C   -0.063586   5.420578   0.503091  -0.080280   0.008502  -0.067080
     9  C   -0.004892   0.503091   4.762100   0.475182  -0.071424   0.347442
    10  O    0.002912  -0.080280   0.475182   7.618751   0.357682  -0.072630
    11  C   -0.000028   0.008502  -0.071424   0.357682   4.477546  -0.006387
    12  C    0.000069  -0.067080   0.347442  -0.072630  -0.006387   5.000929
    13  C   -0.000033  -0.087130  -0.021675   0.003860   0.000649   0.523404
    14  S    0.002113   0.371190  -0.085976   0.002815  -0.000161  -0.088075
    15  H   -0.047275  -0.000240  -0.000003   0.000001   0.000000  -0.000000
    16  H    0.010363  -0.000419  -0.000000   0.000000  -0.000000   0.000000
    17  H    0.000031  -0.000013   0.000001  -0.000000  -0.000000  -0.000000
    18  H   -0.000151   0.000071   0.000007   0.000000   0.000000  -0.000000
    19  H   -0.000126   0.000058  -0.000005  -0.000000  -0.000000   0.000000
    20  H   -0.000010   0.000910  -0.008503  -0.034582   0.381348   0.012691
    21  H    0.000020   0.000563  -0.008074  -0.033997   0.375397   0.011979
    22  H    0.000030  -0.000526   0.002841  -0.015639   0.399231  -0.000417
    23  H    0.000003   0.007110  -0.041615  -0.004644   0.004398   0.383297
    24  H    0.000005   0.001321   0.008833  -0.000070   0.000003  -0.019705
              13         14         15         16         17         18
     1  C   -0.000001  -0.000090   0.380737  -0.046329  -0.000044  -0.000007
     2  C    0.000001   0.000088  -0.017332   0.375404  -0.000040   0.010956
     3  C    0.000152  -0.005142   0.008942  -0.049836   0.004888  -0.010332
     4  O    0.000023   0.002734  -0.000048  -0.003242  -0.020766  -0.030923
     5  C   -0.000000  -0.000004   0.000006   0.005152   0.391364   0.388414
     6  C    0.003355  -0.060817   0.001999   0.008058  -0.000587   0.000402
     7  S   -0.000033   0.002113  -0.047275   0.010363   0.000031  -0.000151
     8  C   -0.087130   0.371190  -0.000240  -0.000419  -0.000013   0.000071
     9  C   -0.021675  -0.085976  -0.000003  -0.000000   0.000001   0.000007
    10  O    0.003860   0.002815   0.000001   0.000000  -0.000000   0.000000
    11  C    0.000649  -0.000161   0.000000  -0.000000  -0.000000   0.000000
    12  C    0.523404  -0.088075  -0.000000   0.000000  -0.000000  -0.000000
    13  C    4.977281   0.365026  -0.000000  -0.000000  -0.000001   0.000001
    14  S    0.365026  15.336669   0.000004   0.000005   0.000040   0.000020
    15  H   -0.000000   0.000004   0.661910  -0.011139   0.000000   0.000003
    16  H   -0.000000   0.000005  -0.011139   0.712353  -0.000257   0.001933
    17  H   -0.000001   0.000040   0.000000  -0.000257   0.640039  -0.027092
    18  H    0.000001   0.000020   0.000003   0.001933  -0.027092   0.679170
    19  H   -0.000001  -0.000018   0.000013   0.001677  -0.027328  -0.050672
    20  H   -0.000140  -0.000076  -0.000000   0.000000  -0.000000   0.000000
    21  H   -0.000138  -0.000162   0.000000  -0.000000   0.000000  -0.000000
    22  H   -0.000028   0.000024  -0.000000  -0.000000  -0.000000   0.000000
    23  H   -0.042390   0.007587   0.000000   0.000000  -0.000000  -0.000000
    24  H    0.389292  -0.042479   0.000000  -0.000000  -0.000000   0.000000
              19         20         21         22         23         24
     1  C   -0.000033  -0.000001   0.000001  -0.000001  -0.000000  -0.000000
     2  C    0.007726   0.000001  -0.000000  -0.000000  -0.000000  -0.000000
     3  C   -0.004458  -0.000007   0.000002   0.000003   0.000003  -0.000002
     4  O   -0.027962  -0.000000   0.000000  -0.000000   0.000000   0.000000
     5  C    0.387307  -0.000000   0.000000  -0.000000  -0.000000   0.000000
     6  C    0.001202   0.000052   0.000128  -0.000044  -0.000304  -0.000268
     7  S   -0.000126  -0.000010   0.000020   0.000030   0.000003   0.000005
     8  C    0.000058   0.000910   0.000563  -0.000526   0.007110   0.001321
     9  C   -0.000005  -0.008503  -0.008074   0.002841  -0.041615   0.008833
    10  O   -0.000000  -0.034582  -0.033997  -0.015639  -0.004644  -0.000070
    11  C   -0.000000   0.381348   0.375397   0.399231   0.004398   0.000003
    12  C    0.000000   0.012691   0.011979  -0.000417   0.383297  -0.019705
    13  C   -0.000001  -0.000140  -0.000138  -0.000028  -0.042390   0.389292
    14  S   -0.000018  -0.000076  -0.000162   0.000024   0.007587  -0.042479
    15  H    0.000013  -0.000000   0.000000  -0.000000   0.000000   0.000000
    16  H    0.001677   0.000000  -0.000000  -0.000000   0.000000  -0.000000
    17  H   -0.027328  -0.000000   0.000000  -0.000000  -0.000000  -0.000000
    18  H   -0.050672   0.000000  -0.000000   0.000000  -0.000000   0.000000
    19  H    0.673139  -0.000000   0.000000  -0.000000   0.000000  -0.000000
    20  H   -0.000000   0.690319  -0.048974  -0.030046   0.002504   0.000007
    21  H    0.000000  -0.048974   0.693172  -0.029687   0.002382   0.000016
    22  H   -0.000000  -0.030046  -0.029687   0.635393  -0.000227   0.000000
    23  H    0.000000   0.002504   0.002382  -0.000227   0.687050  -0.008253
    24  H   -0.000000   0.000007   0.000016   0.000000  -0.008253   0.673806
          Atomic-Atomic Spin Densities.
               1          2          3          4          5          6
     1  C    0.000000  -0.000000   0.000000   0.000000  -0.000000  -0.000000
     2  C   -0.000000   0.000000  -0.000000  -0.000000  -0.000000   0.000000
     3  C    0.000000  -0.000000   0.000000   0.000000   0.000000  -0.000000
     4  O    0.000000  -0.000000   0.000000   0.000000   0.000000  -0.000000
     5  C   -0.000000  -0.000000   0.000000   0.000000   0.000000  -0.000000
     6  C   -0.000000   0.000000  -0.000000  -0.000000  -0.000000   0.000000
     7  S   -0.000000   0.000000   0.000000  -0.000000   0.000000  -0.000000
     8  C   -0.000000   0.000000  -0.000000   0.000000  -0.000000  -0.000000
     9  C    0.000000  -0.000000   0.000000   0.000000  -0.000000  -0.000000
    10  O    0.000000  -0.000000   0.000000  -0.000000   0.000000  -0.000000
    11  C    0.000000   0.000000  -0.000000  -0.000000  -0.000000   0.000000
    12  C    0.000000   0.000000  -0.000000   0.000000  -0.000000   0.000000
    13  C   -0.000000  -0.000000  -0.000000   0.000000  -0.000000  -0.000000
    14  S   -0.000000   0.000000   0.000000  -0.000000   0.000000  -0.000000
    15  H    0.000000  -0.000000   0.000000   0.000000  -0.000000  -0.000000
    16  H   -0.000000   0.000000  -0.000000  -0.000000  -0.000000   0.000000
    17  H    0.000000  -0.000000  -0.000000   0.000000   0.000000  -0.000000
    18  H   -0.000000   0.000000  -0.000000   0.000000   0.000000   0.000000
    19  H   -0.000000  -0.000000  -0.000000  -0.000000  -0.000000   0.000000
    20  H   -0.000000   0.000000  -0.000000  -0.000000   0.000000  -0.000000
    21  H    0.000000  -0.000000   0.000000   0.000000   0.000000   0.000000
    22  H   -0.000000   0.000000  -0.000000  -0.000000  -0.000000  -0.000000
    23  H   -0.000000   0.000000   0.000000   0.000000   0.000000   0.000000
    24  H   -0.000000   0.000000   0.000000   0.000000  -0.000000  -0.000000
               7          8          9         10         11         12
     1  C   -0.000000  -0.000000   0.000000   0.000000   0.000000   0.000000
     2  C    0.000000   0.000000  -0.000000  -0.000000   0.000000   0.000000
     3  C    0.000000  -0.000000   0.000000   0.000000  -0.000000  -0.000000
     4  O   -0.000000   0.000000   0.000000  -0.000000  -0.000000   0.000000
     5  C    0.000000  -0.000000  -0.000000   0.000000  -0.000000  -0.000000
     6  C   -0.000000  -0.000000  -0.000000  -0.000000   0.000000   0.000000
     7  S    0.000000  -0.000000  -0.000000  -0.000000  -0.000000  -0.000000
     8  C   -0.000000   0.000000  -0.000000  -0.000000  -0.000000   0.000000
     9  C   -0.000000  -0.000000   0.000000   0.000000   0.000000  -0.000000
    10  O   -0.000000  -0.000000   0.000000   0.000000   0.000000  -0.000000
    11  C   -0.000000  -0.000000   0.000000   0.000000   0.000000   0.000000
    12  C   -0.000000   0.000000  -0.000000  -0.000000   0.000000  -0.000000
    13  C    0.000000  -0.000000   0.000000   0.000000  -0.000000   0.000000
    14  S   -0.000000   0.000000  -0.000000   0.000000  -0.000000  -0.000000
    15  H   -0.000000  -0.000000   0.000000   0.000000   0.000000  -0.000000
    16  H    0.000000   0.000000  -0.000000   0.000000  -0.000000   0.000000
    17  H   -0.000000   0.000000   0.000000  -0.000000   0.000000  -0.000000
    18  H   -0.000000   0.000000   0.000000   0.000000   0.000000  -0.000000
    19  H    0.000000  -0.000000  -0.000000  -0.000000  -0.000000   0.000000
    20  H    0.000000   0.000000   0.000000  -0.000000  -0.000000  -0.000000
    21  H   -0.000000   0.000000   0.000000  -0.000000  -0.000000  -0.000000
    22  H   -0.000000  -0.000000  -0.000000  -0.000000   0.000000  -0.000000
    23  H    0.000000   0.000000  -0.000000  -0.000000   0.000000  -0.000000
    24  H    0.000000  -0.000000   0.000000   0.000000  -0.000000   0.000000
              13         14         15         16         17         18
     1  C   -0.000000  -0.000000   0.000000  -0.000000   0.000000  -0.000000
     2  C   -0.000000   0.000000  -0.000000   0.000000  -0.000000   0.000000
     3  C   -0.000000   0.000000   0.000000  -0.000000  -0.000000  -0.000000
     4  O    0.000000  -0.000000   0.000000  -0.000000   0.000000   0.000000
     5  C   -0.000000   0.000000  -0.000000  -0.000000   0.000000   0.000000
     6  C   -0.000000  -0.000000  -0.000000   0.000000  -0.000000   0.000000
     7  S    0.000000  -0.000000  -0.000000   0.000000  -0.000000  -0.000000
     8  C   -0.000000   0.000000  -0.000000   0.000000   0.000000   0.000000
     9  C    0.000000  -0.000000   0.000000  -0.000000   0.000000   0.000000
    10  O    0.000000   0.000000   0.000000   0.000000  -0.000000   0.000000
    11  C   -0.000000  -0.000000   0.000000  -0.000000   0.000000   0.000000
    12  C    0.000000  -0.000000  -0.000000   0.000000  -0.000000  -0.000000
    13  C    0.000000   0.000000  -0.000000   0.000000  -0.000000   0.000000
    14  S    0.000000  -0.000000  -0.000000   0.000000   0.000000  -0.000000
    15  H   -0.000000  -0.000000   0.000000  -0.000000   0.000000  -0.000000
    16  H    0.000000   0.000000  -0.000000   0.000000  -0.000000   0.000000
    17  H   -0.000000   0.000000   0.000000  -0.000000  -0.000000  -0.000000
    18  H    0.000000  -0.000000  -0.000000   0.000000  -0.000000  -0.000000
    19  H   -0.000000   0.000000  -0.000000  -0.000000   0.000000   0.000000
    20  H   -0.000000  -0.000000  -0.000000   0.000000   0.000000  -0.000000
    21  H    0.000000  -0.000000   0.000000  -0.000000   0.000000  -0.000000
    22  H    0.000000   0.000000  -0.000000  -0.000000  -0.000000   0.000000
    23  H   -0.000000   0.000000  -0.000000   0.000000   0.000000  -0.000000
    24  H   -0.000000   0.000000  -0.000000   0.000000  -0.000000   0.000000
              19         20         21         22         23         24
     1  C   -0.000000  -0.000000   0.000000  -0.000000  -0.000000  -0.000000
     2  C   -0.000000   0.000000  -0.000000   0.000000   0.000000   0.000000
     3  C   -0.000000  -0.000000   0.000000  -0.000000   0.000000   0.000000
     4  O   -0.000000  -0.000000   0.000000  -0.000000   0.000000   0.000000
     5  C   -0.000000   0.000000   0.000000  -0.000000   0.000000  -0.000000
     6  C    0.000000  -0.000000   0.000000  -0.000000   0.000000  -0.000000
     7  S    0.000000   0.000000  -0.000000  -0.000000   0.000000   0.000000
     8  C   -0.000000   0.000000   0.000000  -0.000000   0.000000  -0.000000
     9  C   -0.000000   0.000000   0.000000  -0.000000  -0.000000   0.000000
    10  O   -0.000000  -0.000000  -0.000000  -0.000000  -0.000000   0.000000
    11  C   -0.000000  -0.000000  -0.000000   0.000000   0.000000  -0.000000
    12  C    0.000000  -0.000000  -0.000000  -0.000000  -0.000000   0.000000
    13  C   -0.000000  -0.000000   0.000000   0.000000  -0.000000  -0.000000
    14  S    0.000000  -0.000000  -0.000000   0.000000   0.000000   0.000000
    15  H   -0.000000  -0.000000   0.000000  -0.000000  -0.000000  -0.000000
    16  H   -0.000000   0.000000  -0.000000  -0.000000   0.000000   0.000000
    17  H    0.000000   0.000000   0.000000  -0.000000   0.000000  -0.000000
    18  H    0.000000  -0.000000  -0.000000   0.000000  -0.000000   0.000000
    19  H    0.000000   0.000000  -0.000000  -0.000000   0.000000  -0.000000
    20  H    0.000000  -0.000000   0.000000   0.000000   0.000000  -0.000000
    21  H   -0.000000   0.000000  -0.000000  -0.000000   0.000000  -0.000000
    22  H   -0.000000   0.000000  -0.000000   0.000000  -0.000000   0.000000
    23  H    0.000000   0.000000   0.000000  -0.000000   0.000000  -0.000000
    24  H   -0.000000  -0.000000  -0.000000   0.000000  -0.000000   0.000000
 Mulliken charges and spin densities:
               1          2
     1  C   -0.129523  -0.000000
     2  C    0.004377   0.000000
     3  C    0.145474  -0.000000
     4  O   -0.227720   0.000000
     5  C    0.076498   0.000000
     6  C   -0.188061  -0.000000
     7  S    0.194153   0.000000
     8  C   -0.197240  -0.000000
     9  C    0.182760   0.000000
    10  O   -0.226643   0.000000
    11  C    0.073609   0.000000
    12  C   -0.038566  -0.000000
    13  C   -0.111508   0.000000
    14  S    0.194685  -0.000000
    15  H    0.022423   0.000000
    16  H   -0.003725   0.000000
    17  H    0.039765   0.000000
    18  H    0.038199  -0.000000
    19  H    0.039482   0.000000
    20  H    0.034505  -0.000000
    21  H    0.037373  -0.000000
    22  H    0.039092  -0.000000
    23  H    0.003098  -0.000000
    24  H   -0.002506   0.000000
 Sum of Mulliken charges =  -0.00000  -0.00000
 Mulliken charges and spin densities with hydrogens summed into heavy atoms:
               1          2
     1  C   -0.107100  -0.000000
     2  C    0.000651   0.000000
     3  C    0.145474  -0.000000
     4  O   -0.227720   0.000000
     5  C    0.193945   0.000000
     6  C   -0.188061  -0.000000
     7  S    0.194153   0.000000
     8  C   -0.197240  -0.000000
     9  C    0.182760   0.000000
    10  O   -0.226643   0.000000
    11  C    0.184578   0.000000
    12  C   -0.035467  -0.000000
    13  C   -0.114014   0.000000
    14  S    0.194685  -0.000000
 Electronic spatial extent (au):  <R**2>=           3411.1769
 Charge=              0.0000 electrons
 Dipole moment (field-independent basis, Debye):
    X=             -0.2326    Y=             -0.1746    Z=              1.1457  Tot=              1.1820
 Quadrupole moment (field-independent basis, Debye-Ang):
   XX=            -76.1400   YY=            -89.0035   ZZ=            -94.7411
   XY=             -3.1432   XZ=              0.3934   YZ=             -0.1820
 Traceless Quadrupole moment (field-independent basis, Debye-Ang):
   XX=             10.4882   YY=             -2.3753   ZZ=             -8.1129
   XY=             -3.1432   XZ=              0.3934   YZ=             -0.1820
 Octapole moment (field-independent basis, Debye-Ang**2):
  XXX=             -2.0807  YYY=             -2.6235  ZZZ=             17.1527  XYY=              0.5525
  XXY=              0.3877  XXZ=             22.8100  XZZ=             -1.5806  YZZ=             -0.9300
  YYZ=              2.6647  XYZ=            -21.5842
 Hexadecapole moment (field-independent basis, Debye-Ang**3):
 XXXX=          -2446.7097 YYYY=          -1231.7218 ZZZZ=           -603.3575 XXXY=            -41.0457
 XXXZ=              4.2847 YYYX=            -24.2222 YYYZ=             -4.6560 ZZZX=             -0.3969
 ZZZY=              0.9098 XXYY=           -566.1752 XXZZ=           -530.2694 YYZZ=           -289.5728
 XXYZ=              0.9273 YYXZ=              5.3679 ZZXY=            -29.1976
 N-N= 1.106580035959D+03 E-N=-5.358555216959D+03  KE= 1.328309799346D+03
                          Isotropic Fermi Contact Couplings
        Atom                 a.u.       MegaHertz       Gauss      10(-4) cm-1
     1  C(13)             -0.00000      -0.00000      -0.00000      -0.00000
     2  C(13)             -0.00000      -0.00000      -0.00000      -0.00000
     3  C(13)             -0.00000      -0.00000      -0.00000      -0.00000
     4  O(17)             -0.00000       0.00000       0.00000       0.00000
     5  C(13)             -0.00000      -0.00000      -0.00000      -0.00000
     6  C(13)              0.00000       0.00000       0.00000       0.00000
     7  S(33)              0.00000       0.00000       0.00000       0.00000
     8  C(13)             -0.00000      -0.00000      -0.00000      -0.00000
     9  C(13)             -0.00000      -0.00000      -0.00000      -0.00000
    10  O(17)             -0.00000       0.00000       0.00000       0.00000
    11  C(13)              0.00000       0.00000       0.00000       0.00000
    12  C(13)             -0.00000      -0.00000      -0.00000      -0.00000
    13  C(13)             -0.00000      -0.00000      -0.00000      -0.00000
    14  S(33)              0.00000       0.00000       0.00000       0.00000
    15  H(1)              -0.00000      -0.00000      -0.00000      -0.00000
    16  H(1)               0.00000       0.00000       0.00000       0.00000
    17  H(1)              -0.00000      -0.00000      -0.00000      -0.00000
    18  H(1)              -0.00000      -0.00000      -0.00000      -0.00000
    19  H(1)               0.00000       0.00000       0.00000       0.00000
    20  H(1)              -0.00000      -0.00000      -0.00000      -0.00000
    21  H(1)               0.00000       0.00000       0.00000       0.00000
    22  H(1)               0.00000       0.00000       0.00000       0.00000
    23  H(1)               0.00000       0.00000       0.00000       0.00000
    24  H(1)              -0.00000      -0.00000      -0.00000      -0.00000
 --------------------------------------------------------
       Center         ----  Spin Dipole Couplings  ----
                      3XX-RR        3YY-RR        3ZZ-RR
 --------------------------------------------------------
     1   Atom        0.000000      0.000000     -0.000000
     2   Atom        0.000000     -0.000000     -0.000000
     3   Atom       -0.000000      0.000000      0.000000
     4   Atom       -0.000000     -0.000000      0.000000
     5   Atom       -0.000000      0.000000      0.000000
     6   Atom        0.000000      0.000000     -0.000000
     7   Atom       -0.000000     -0.000000      0.000000
     8   Atom       -0.000000      0.000000     -0.000000
     9   Atom       -0.000000      0.000000     -0.000000
    10   Atom        0.000000     -0.000000      0.000000
    11   Atom       -0.000000      0.000000     -0.000000
    12   Atom        0.000000      0.000000     -0.000000
    13   Atom       -0.000000     -0.000000      0.000000
    14   Atom       -0.000000      0.000000     -0.000000
    15   Atom        0.000000     -0.000000      0.000000
    16   Atom        0.000000     -0.000000     -0.000000
    17   Atom       -0.000000      0.000000     -0.000000
    18   Atom       -0.000000      0.000000     -0.000000
    19   Atom       -0.000000     -0.000000      0.000000
    20   Atom       -0.000000     -0.000000      0.000000
    21   Atom        0.000000     -0.000000      0.000000
    22   Atom       -0.000000      0.000000     -0.000000
    23   Atom        0.000000     -0.000000      0.000000
    24   Atom       -0.000000      0.000000      0.000000
 --------------------------------------------------------
                        XY            XZ            YZ
 --------------------------------------------------------
     1   Atom        0.000000      0.000000     -0.000000
     2   Atom       -0.000000     -0.000000      0.000000
     3   Atom        0.000000      0.000000      0.000000
     4   Atom       -0.000000     -0.000000     -0.000000
     5   Atom        0.000000      0.000000      0.000000
     6   Atom       -0.000000      0.000000     -0.000000
     7   Atom       -0.000000      0.000000      0.000000
     8   Atom        0.000000      0.000000     -0.000000
     9   Atom        0.000000      0.000000     -0.000000
    10   Atom       -0.000000      0.000000     -0.000000
    11   Atom       -0.000000      0.000000     -0.000000
    12   Atom       -0.000000      0.000000      0.000000
    13   Atom       -0.000000      0.000000     -0.000000
    14   Atom       -0.000000     -0.000000     -0.000000
    15   Atom       -0.000000     -0.000000      0.000000
    16   Atom        0.000000     -0.000000      0.000000
    17   Atom        0.000000      0.000000     -0.000000
    18   Atom        0.000000     -0.000000     -0.000000
    19   Atom        0.000000      0.000000      0.000000
    20   Atom       -0.000000     -0.000000      0.000000
    21   Atom        0.000000      0.000000      0.000000
    22   Atom       -0.000000      0.000000      0.000000
    23   Atom       -0.000000      0.000000     -0.000000
    24   Atom       -0.000000      0.000000      0.000000
 --------------------------------------------------------


 ---------------------------------------------------------------------------------
              Anisotropic Spin Dipole Couplings in Principal Axis System
 ---------------------------------------------------------------------------------

       Atom             a.u.   MegaHertz   Gauss  10(-4) cm-1        Axes

              Baa    -0.0000    -0.000    -0.000    -0.000 -0.3661  0.6330  0.6821
     1 C(13)  Bbb     0.0000     0.000     0.000     0.000  0.8331 -0.1036  0.5433
              Bcc     0.0000     0.000     0.000     0.000  0.4146  0.7672 -0.4895
 
              Baa    -0.0000    -0.000    -0.000    -0.000  0.1730  0.0251  0.9846
     2 C(13)  Bbb    -0.0000    -0.000    -0.000    -0.000  0.3818  0.9198 -0.0905
              Bcc     0.0000     0.000     0.000     0.000  0.9079 -0.3916 -0.1495
 
[...]
     8  C    0.000000  -0.000000   0.000000   0.000000  -0.000000  -0.000000
     9  C   -0.000000  -0.000000   0.000000  -0.000000  -0.000000   0.000000
    10  O   -0.000000   0.000000   0.000000   0.000000   0.000000  -0.000000
    11  C    0.000000  -0.000000  -0.000000   0.000000   0.000000  -0.000000
    12  C    0.000000   0.000000   0.000000  -0.000000   0.000000  -0.000000
    13  C   -0.000000  -0.000000  -0.000000   0.000000  -0.000000   0.000000
    14  S   -0.000000   0.000000  -0.000000   0.000000   0.000000  -0.000000
    15  H   -0.000000  -0.000000  -0.000000   0.000000  -0.000000   0.000000
    16  H    0.000000   0.000000   0.000000  -0.000000   0.000000  -0.000000
    17  H   -0.000000   0.000000  -0.000000   0.000000  -0.000000   0.000000
    18  H    0.000000  -0.000000   0.000000  -0.000000   0.000000   0.000000
    19  H    0.000000   0.000000   0.000000  -0.000000  -0.000000  -0.000000
    20  H   -0.000000  -0.000000   0.000000  -0.000000   0.000000   0.000000
    21  H   -0.000000  -0.000000   0.000000  -0.000000  -0.000000   0.000000
    22  H   -0.000000   0.000000  -0.000000   0.000000  -0.000000  -0.000000
    23  H    0.000000   0.000000   0.000000   0.000000   0.000000  -0.000000
    24  H    0.000000  -0.000000  -0.000000   0.000000  -0.000000   0.000000
              19         20         21         22         23         24
     1  C    0.000000   0.000000   0.000000  -0.000000   0.000000  -0.000000
     2  C    0.000000  -0.000000  -0.000000   0.000000  -0.000000  -0.000000
     3  C   -0.000000   0.000000   0.000000  -0.000000  -0.000000  -0.000000
     4  O    0.000000   0.000000   0.000000  -0.000000  -0.000000   0.000000
     5  C    0.000000   0.000000   0.000000  -0.000000   0.000000   0.000000
     6  C   -0.000000   0.000000   0.000000  -0.000000   0.000000   0.000000
     7  S    0.000000   0.000000  -0.000000   0.000000   0.000000   0.000000
     8  C   -0.000000  -0.000000  -0.000000   0.000000  -0.000000   0.000000
     9  C    0.000000  -0.000000  -0.000000   0.000000  -0.000000   0.000000
    10  O   -0.000000   0.000000   0.000000   0.000000  -0.000000   0.000000
    11  C   -0.000000  -0.000000   0.000000   0.000000  -0.000000   0.000000
    12  C   -0.000000   0.000000  -0.000000  -0.000000   0.000000  -0.000000
    13  C    0.000000  -0.000000  -0.000000  -0.000000   0.000000   0.000000
    14  S    0.000000  -0.000000  -0.000000   0.000000   0.000000  -0.000000
    15  H    0.000000   0.000000   0.000000  -0.000000   0.000000  -0.000000
    16  H   -0.000000  -0.000000  -0.000000   0.000000   0.000000   0.000000
    17  H   -0.000000   0.000000  -0.000000  -0.000000   0.000000  -0.000000
    18  H   -0.000000   0.000000   0.000000  -0.000000  -0.000000   0.000000
    19  H    0.000000   0.000000   0.000000  -0.000000  -0.000000   0.000000
    20  H    0.000000   0.000000  -0.000000  -0.000000  -0.000000  -0.000000
    21  H    0.000000  -0.000000  -0.000000   0.000000  -0.000000  -0.000000
    22  H   -0.000000  -0.000000   0.000000  -0.000000   0.000000  -0.000000
    23  H   -0.000000  -0.000000  -0.000000   0.000000  -0.000000  -0.000000
    24  H    0.000000  -0.000000  -0.000000  -0.000000  -0.000000   0.000000
 Mulliken charges and spin densities:
               1          2
     1  C   -0.130651   0.000000
     2  C    0.035476  -0.000000
     3  C    0.126036   0.000000
     4  O   -0.248762  -0.000000
     5  C    0.064620   0.000000
     6  C   -0.134438  -0.000000
     7  S    0.157679  -0.000000
     8  C   -0.134435  -0.000000
     9  C    0.126051   0.000000
    10  O   -0.248745   0.000000
    11  C    0.064620  -0.000000
    12  C    0.035461   0.000000
    13  C   -0.130656  -0.000000
    14  S    0.157689   0.000000
    15  H    0.014173   0.000000
    16  H   -0.017799  -0.000000
    17  H    0.049440  -0.000000
    18  H    0.042115   0.000000
    19  H    0.042110   0.000000
    20  H    0.042099   0.000000
    21  H    0.042102  -0.000000
    22  H    0.049436   0.000000
    23  H   -0.017793  -0.000000
    24  H    0.014173   0.000000
 Sum of Mulliken charges =  -0.00000  -0.00000
 Mulliken charges and spin densities with hydrogens summed into heavy atoms:
               1          2
     1  C   -0.116478   0.000000
     2  C    0.017677  -0.000000
     3  C    0.126036   0.000000
     4  O   -0.248762  -0.000000
     5  C    0.198285   0.000000
     6  C   -0.134438  -0.000000
     7  S    0.157679  -0.000000
     8  C   -0.134435  -0.000000
     9  C    0.126051   0.000000
    10  O   -0.248745   0.000000
    11  C    0.198257   0.000000
    12  C    0.017668   0.000000
    13  C   -0.116483   0.000000
    14  S    0.157689   0.000000
 Electronic spatial extent (au):  <R**2>=           3521.7829
 Charge=             -0.0000 electrons
 Dipole moment (field-independent basis, Debye):
    X=             -0.0002    Y=              0.0001    Z=             -0.0060  Tot=              0.0060
 Quadrupole moment (field-independent basis, Debye-Ang):
   XX=            -70.8850   YY=            -87.6215   ZZ=           -100.0620
   XY=             -3.7846   XZ=              0.0067   YZ=             -0.0045
 Traceless Quadrupole moment (field-independent basis, Debye-Ang):
   XX=             15.3045   YY=             -1.4320   ZZ=            -13.8725
   XY=             -3.7846   XZ=              0.0067   YZ=             -0.0045
 Octapole moment (field-independent basis, Debye-Ang**2):
  XXX=             -0.0041  YYY=             -0.0005  ZZZ=             -0.0049  XYY=              0.0008
  XXY=              0.0036  XXZ=             -0.0538  XZZ=             -0.0010  YZZ=              0.0004
  YYZ=             -0.0223  XYZ=              0.0294
 Hexadecapole moment (field-independent basis, Debye-Ang**3):
 XXXX=          -2511.0659 YYYY=          -1560.3745 ZZZZ=           -124.3619 XXXY=           -123.2084
 XXXZ=              0.0123 YYYX=             -3.9615 YYYZ=              0.0023 ZZZX=              0.0023
 ZZZY=              0.0074 XXYY=           -651.5006 XXZZ=           -525.1440 YYZZ=           -325.4501
 XXYZ=             -0.0320 YYXZ=              0.0265 ZZXY=            -27.9944
 N-N= 1.102734264751D+03 E-N=-5.350409282138D+03  KE= 1.327777906655D+03
                          Isotropic Fermi Contact Couplings
        Atom                 a.u.       MegaHertz       Gauss      10(-4) cm-1
     1  C(13)              0.00000       0.00000       0.00000       0.00000
     2  C(13)             -0.00000      -0.00000      -0.00000      -0.00000
     3  C(13)              0.00000       0.00000       0.00000       0.00000
     4  O(17)             -0.00000       0.00000       0.00000       0.00000
     5  C(13)              0.00000       0.00000       0.00000       0.00000
     6  C(13)             -0.00000      -0.00000      -0.00000      -0.00000
     7  S(33)             -0.00000      -0.00000      -0.00000      -0.00000
     8  C(13)              0.00000       0.00000       0.00000       0.00000
     9  C(13)             -0.00000      -0.00000      -0.00000      -0.00000
    10  O(17)              0.00000      -0.00000      -0.00000      -0.00000
    11  C(13)              0.00000       0.00000       0.00000       0.00000
    12  C(13)              0.00000       0.00000       0.00000       0.00000
    13  C(13)             -0.00000      -0.00000      -0.00000      -0.00000
    14  S(33)             -0.00000      -0.00000      -0.00000      -0.00000
    15  H(1)              -0.00000      -0.00000      -0.00000      -0.00000
    16  H(1)              -0.00000      -0.00000      -0.00000      -0.00000
    17  H(1)              -0.00000      -0.00000      -0.00000      -0.00000
    18  H(1)               0.00000       0.00000       0.00000       0.00000
    19  H(1)              -0.00000      -0.00000      -0.00000      -0.00000
    20  H(1)               0.00000       0.00000       0.00000       0.00000
    21  H(1)               0.00000       0.00000       0.00000       0.00000
    22  H(1)              -0.00000      -0.00000      -0.00000      -0.00000
    23  H(1)               0.00000       0.00000       0.00000       0.00000
    24  H(1)              -0.00000      -0.00000      -0.00000      -0.00000
 --------------------------------------------------------
       Center         ----  Spin Dipole Couplings  ----
                      3XX-RR        3YY-RR        3ZZ-RR
 --------------------------------------------------------
     1   Atom       -0.000000      0.000000     -0.000000
     2   Atom        0.000000     -0.000000      0.000000
     3   Atom       -0.000000      0.000000      0.000000
     4   Atom       -0.000000      0.000000     -0.000000
     5   Atom        0.000000      0.000000     -0.000000
     6   Atom        0.000000      0.000000     -0.000000
     7   Atom       -0.000000      0.000000     -0.000000
     8   Atom       -0.000000      0.000000      0.000000
     9   Atom       -0.000000     -0.000000      0.000000
    10   Atom        0.000000     -0.000000      0.000000
    11   Atom        0.000000     -0.000000     -0.000000
    12   Atom       -0.000000      0.000000      0.000000
    13   Atom       -0.000000      0.000000      0.000000
    14   Atom        0.000000     -0.000000     -0.000000
    15   Atom        0.000000     -0.000000     -0.000000
    16   Atom       -0.000000     -0.000000      0.000000
    17   Atom        0.000000     -0.000000      0.000000
    18   Atom       -0.000000     -0.000000      0.000000
    19   Atom       -0.000000      0.000000      0.000000
    20   Atom        0.000000      0.000000     -0.000000
    21   Atom       -0.000000      0.000000     -0.000000
    22   Atom        0.000000     -0.000000      0.000000
    23   Atom       -0.000000      0.000000      0.000000
    24   Atom       -0.000000     -0.000000      0.000000
 --------------------------------------------------------
                        XY            XZ            YZ
 --------------------------------------------------------
     1   Atom        0.000000     -0.000000      0.000000
     2   Atom        0.000000      0.000000     -0.000000
     3   Atom        0.000000     -0.000000      0.000000
     4   Atom        0.000000     -0.000000      0.000000
     5   Atom        0.000000      0.000000     -0.000000
     6   Atom       -0.000000     -0.000000     -0.000000
     7   Atom       -0.000000      0.000000      0.000000
     8   Atom        0.000000      0.000000     -0.000000
     9   Atom        0.000000      0.000000     -0.000000
    10   Atom        0.000000     -0.000000     -0.000000
    11   Atom        0.000000      0.000000      0.000000
    12   Atom       -0.000000     -0.000000     -0.000000
    13   Atom       -0.000000      0.000000     -0.000000
    14   Atom        0.000000      0.000000      0.000000
    15   Atom        0.000000      0.000000      0.000000
    16   Atom        0.000000      0.000000     -0.000000
    17   Atom        0.000000      0.000000      0.000000
    18   Atom       -0.000000      0.000000      0.000000
    19   Atom        0.000000     -0.000000     -0.000000
    20   Atom        0.000000      0.000000      0.000000
    21   Atom       -0.000000     -0.000000     -0.000000
    22   Atom       -0.000000     -0.000000     -0.000000
    23   Atom        0.000000     -0.000000     -0.000000
    24   Atom       -0.000000      0.000000     -0.000000
 --------------------------------------------------------


 ---------------------------------------------------------------------------------
              Anisotropic Spin Dipole Couplings in Principal Axis System
 ---------------------------------------------------------------------------------

       Atom             a.u.   MegaHertz   Gauss  10(-4) cm-1        Axes

              Baa    -0.0000    -0.000    -0.000    -0.000  0.1445 -0.0630  0.9875
     1 C(13)  Bbb    -0.0000    -0.000    -0.000    -0.000  0.9270 -0.3405 -0.1574
              Bcc     0.0000     0.000     0.000     0.000  0.3462  0.9381  0.0092
 
              Baa    -0.0000    -0.000    -0.000    -0.000 -0.2788  0.9603  0.0092
     2 C(13)  Bbb     0.0000     0.000     0.000     0.000 -0.1535 -0.0540  0.9867
              Bcc     0.0000     0.000     0.000     0.000  0.9480  0.2737  0.1624
 
              Baa    -0.0000    -0.000    -0.000    -0.000  0.9988 -0.0492  0.0042
     3 C(13)  Bbb     0.0000     0.000     0.000     0.000 -0.0063 -0.0407  0.9992
              Bcc     0.0000     0.000     0.000     0.000  0.0490  0.9980  0.0409
 
              Baa    -0.0000     0.000     0.000     0.000  0.8532 -0.3282  0.4054
     4 O(17)  Bbb    -0.0000     0.000     0.000     0.000 -0.4168  0.0383  0.9082
              Bcc     0.0000    -0.000    -0.000    -0.000  0.3136  0.9438  0.1041
 
              Baa    -0.0000    -0.000    -0.000    -0.000 -0.5467  0.4684  0.6941
     5 C(13)  Bbb     0.0000     0.000     0.000     0.000 -0.0033  0.8277 -0.5612
              Bcc     0.0000     0.000     0.000     0.000  0.8373  0.3091  0.4510
 
              Baa    -0.0000    -0.000    -0.000    -0.000  0.0123  0.0077  0.9999
     6 C(13)  Bbb    -0.0000    -0.000    -0.000    -0.000  0.5426  0.8399 -0.0132
              Bcc     0.0000     0.000     0.000     0.000  0.8399 -0.5427 -0.0061
 
              Baa    -0.0000    -0.000    -0.000    -0.000  0.9193  0.3799 -0.1025
     7 S(33)  Bbb    -0.0000    -0.000    -0.000    -0.000  0.1018  0.0221  0.9946
              Bcc     0.0000     0.000     0.000     0.000 -0.3801  0.9248  0.0184
 
              Baa    -0.0000    -0.000    -0.000    -0.000  0.9993 -0.0352 -0.0113
     8 C(13)  Bbb     0.0000     0.000     0.000     0.000  0.0113  0.0000  0.9999
              Bcc     0.0000     0.000     0.000     0.000  0.0352  0.9994 -0.0004
 
              Baa    -0.0000    -0.000    -0.000    -0.000 -0.7067  0.7069  0.0296
     9 C(13)  Bbb     0.0000     0.000     0.000     0.000 -0.0101 -0.0520  0.9986
              Bcc     0.0000     0.000     0.000     0.000  0.7075  0.7054  0.0438
 
              Baa    -0.0000     0.000     0.000     0.000 -0.4535  0.8899  0.0489
    10 O(17)  Bbb     0.0000    -0.000    -0.000    -0.000  0.8748  0.4340  0.2151
              Bcc     0.0000    -0.000    -0.000    -0.000 -0.1702 -0.1404  0.9754
 
              Baa    -0.0000    -0.000    -0.000    -0.000 -0.0502  0.7446 -0.6657
    11 C(13)  Bbb    -0.0000    -0.000    -0.000    -0.000 -0.4215  0.5884  0.6900
              Bcc     0.0000     0.000     0.000     0.000  0.9054  0.3152  0.2843
 
              Baa    -0.0000    -0.000    -0.000    -0.000  0.9777  0.1959  0.0758
    12 C(13)  Bbb     0.0000     0.000     0.000     0.000 -0.2049  0.8097  0.5498
              Bcc     0.0000     0.000     0.000     0.000  0.0463 -0.5531  0.8318
 
              Baa    -0.0000    -0.000    -0.000    -0.000  0.9919  0.1270 -0.0082
    13 C(13)  Bbb     0.0000     0.000     0.000     0.000  0.0068  0.0116  0.9999
              Bcc     0.0000     0.000     0.000     0.000 -0.1270  0.9918 -0.0107
 
              Baa    -0.0000    -0.000    -0.000    -0.000 -0.3975  0.9174 -0.0189
    14 S(33)  Bbb    -0.0000    -0.000    -0.000    -0.000 -0.0353  0.0053  0.9994
              Bcc     0.0000     0.000     0.000     0.000  0.9169  0.3979  0.0303
 
              Baa    -0.0000    -0.000    -0.000    -0.000 -0.5466  0.8374 -0.0012
    15 H(1)   Bbb    -0.0000    -0.000    -0.000    -0.000 -0.0012  0.0007  1.0000
              Bcc     0.0000     0.000     0.000     0.000  0.8374  0.5466  0.0006
 
              Baa    -0.0000    -0.000    -0.000    -0.000 -0.2126  0.9768  0.0252
    16 H(1)   Bbb    -0.0000    -0.000    -0.000    -0.000  0.9771  0.2126  0.0025
              Bcc     0.0000     0.000     0.000     0.000  0.0029 -0.0251  0.9997
 
              Baa    -0.0000    -0.000    -0.000    -0.000 -0.0313  0.8523 -0.5222
    17 H(1)   Bbb     0.0000     0.000     0.000     0.000  0.9401 -0.1523 -0.3049
              Bcc     0.0000     0.000     0.000     0.000  0.3393  0.5005  0.7965
 
              Baa    -0.0000    -0.000    -0.000    -0.000  0.6231  0.6083 -0.4917
    18 H(1)   Bbb     0.0000     0.000     0.000     0.000  0.7669 -0.5986  0.2314
              Bcc     0.0000     0.000     0.000     0.000  0.1536  0.5212  0.8395
 
              Baa    -0.0000    -0.000    -0.000    -0.000  0.9652 -0.1625  0.2047
    19 H(1)   Bbb    -0.0000    -0.000    -0.000    -0.000 -0.1065  0.4705  0.8759
              Bcc     0.0000     0.000     0.000     0.000  0.2386  0.8673 -0.4368
 
              Baa    -0.0000    -0.000    -0.000    -0.000 -0.5794  0.0830  0.8108
    20 H(1)   Bbb     0.0000     0.000     0.000     0.000 -0.5657  0.6752 -0.4734
              Bcc     0.0000     0.000     0.000     0.000  0.5868  0.7329  0.3442
 
              Baa    -0.0000    -0.000    -0.000    -0.000  0.5921  0.1995  0.7808
    21 H(1)   Bbb     0.0000     0.000     0.000     0.000  0.8058 -0.1299 -0.5778
              Bcc     0.0000     0.000     0.000     0.000 -0.0139  0.9713 -0.2376
 
              Baa    -0.0000    -0.000    -0.000    -0.000  0.1309  0.8917  0.4332
    22 H(1)   Bbb     0.0000     0.000     0.000     0.000 -0.3869 -0.3564  0.8505
              Bcc     0.0000     0.000     0.000     0.000  0.9128 -0.2789  0.2984
 
              Baa    -0.0000    -0.000    -0.000    -0.000  0.9334 -0.3571  0.0354
    23 H(1)   Bbb     0.0000     0.000     0.000     0.000  0.3063  0.8443  0.4398
              Bcc     0.0000     0.000     0.000     0.000 -0.1869 -0.3996  0.8974
 
              Baa    -0.0000    -0.000    -0.000    -0.000  0.6492  0.7605  0.0107
    24 H(1)   Bbb     0.0000     0.000     0.000     0.000  0.7601 -0.6481 -0.0474
              Bcc     0.0000     0.000     0.000     0.000  0.0292 -0.0389  0.9988
 

 ---------------------------------------------------------------------------------

 No NMR shielding tensors so no spin-rotation constants.
 Leave Link  601 at Fri Jul 24 12:30:22 2020, MaxMem=  4026531840 cpu:               1.8 elap:               0.3
 (Enter /opt/ohpc/pub/libs/gaussian/g16-A.03/sandybridge/g16/l9999.exe)

 Test job not archived.
 1\1\GINC-SKYLAKE014\FOpt\ULC-wPBE\CC-pVDZ\C10H10O2S2\RDU230\24-Jul-202
 0\0\\#P uLC-wPBE/cc-pVDZ iop(3/107=0141600000, 3/108=0141600000) opt\\
 H10 C10 S2 O2\\0,1\C,2.5943733423,1.896602536,0.4263554979\C,3.0117020
 777,0.5833394594,0.4282120069\C,1.9086385895,-0.3250836063,0.431069024
 9\O,1.9680758367,-1.6923433842,0.4338295369\C,3.2650047467,-2.27671248
 01,0.429285261\C,0.6580283694,0.2985544828,0.431241115\S,0.8710541646,
 2.0424483494,0.4281931882\C,-0.6484070381,-0.3295776738,0.4334966984\C
 ,-1.899016851,0.2941013094,0.4335114376\O,-1.9584096239,1.6613681421,0
 .4314537695\C,-3.2552758024,2.2457921035,0.4305361196\C,-3.0020618433,
 -0.6143022838,0.4357953055\C,-2.5847656448,-1.9275778204,0.4374813038\
 S,-0.8614553748,-2.0734385176,0.4363640945\H,3.2155197256,2.7976690973
 ,0.4240832007\H,4.0654575894,0.2850113519,0.4275403149\H,3.1079749323,
 -3.3698428883,0.4305272366\H,3.8463616816,-1.9901502758,1.3326506681\H
 ,3.8395760911,-1.9910583449,-0.478679726\H,-3.8334445802,1.9580159925,
 -0.4744907598\H,-3.8331863357,1.9614311535,1.336802909\H,-3.0982234381
 ,3.3389220473,0.4284829789\H,-4.0558579958,-0.3160776101,0.4362039915\
 H,-3.2059736185,-2.8286101399,0.4393718264\\Version=EM64L-G16RevA.03\S
 tate=1-A\HF=-1333.1057461\S2=0.\S2-1=0.\S2A=0.\RMSD=8.917e-09\RMSF=7.2
 39e-06\Dipole=0.0000566,-0.0000554,-0.0023543\Quadrupole=10.2059325,0.
 1078816,-10.3138141,-4.597039,-0.0190631,-0.006596\PG=C01 [X(C10H10O2S
 2)]\\@


 HONESTY IN A LAWYER IS LIKE A HEN'S HIND LEGS.
  -- MAGNUS OLESON, LAKE WOBEGON PATRIARCH, C.1875
 Job cpu time:       0 days  2 hours 24 minutes 49.6 seconds.
 Elapsed time:       0 days  0 hours 18 minutes 24.1 seconds.
 File lengths (MBytes):  RWF=    132 Int=      0 D2E=      0 Chk=     12 Scr=      8
 Normal termination of Gaussian 16 at Fri Jul 24 12:30:22 2020.
