 Entering Gaussian System, Link 0=g16
 Input=mols_66_1_09_c-c-cF-cF_opt_0.gjf
 Output=mols_66_1_09_c-c-cF-cF_opt_0.log
 Initial command:
 /opt/ohpc/pub/libs/gaussian/g16-A.03/sandybridge/g16/l1.exe "/mnt/gpfs2_4m/scratch/rdu230/ondemand/projects/dihedral_energies/7trial/wtuning/mols_66_1_09_c-c-cF-cF/Gau-350724.inp" -scrdir="/mnt/gpfs2_4m/scratch/rdu230/ondemand/projects/dihedral_energies/7trial/wtuning/mols_66_1_09_c-c-cF-cF/"
 Entering Link 1 = /opt/ohpc/pub/libs/gaussian/g16-A.03/sandybridge/g16/l1.exe PID=    350727.
  
 Copyright (c) 1988,1990,1992,1993,1995,1998,2003,2009,2016,
            Gaussian, Inc.  All Rights Reserved.
  
 This is part of the Gaussian(R) 16 program.  It is based on
 the Gaussian(R) 09 system (copyright 2009, Gaussian, Inc.),
 the Gaussian(R) 03 system (copyright 2003, Gaussian, Inc.),
 the Gaussian(R) 98 system (copyright 1998, Gaussian, Inc.),
 the Gaussian(R) 94 system (copyright 1995, Gaussian, Inc.),
 the Gaussian 92(TM) system (copyright 1992, Gaussian, Inc.),
 the Gaussian 90(TM) system (copyright 1990, Gaussian, Inc.),
 the Gaussian 88(TM) system (copyright 1988, Gaussian, Inc.),
 the Gaussian 86(TM) system (copyright 1986, Carnegie Mellon
 University), and the Gaussian 82(TM) system (copyright 1983,
 Carnegie Mellon University). Gaussian is a federally registered
 trademark of Gaussian, Inc.
  
 This software contains proprietary and confidential information,
 including trade secrets, belonging to Gaussian, Inc.
  
 This software is provided under written license and may be
 used, copied, transmitted, or stored only in accord with that
 written license.
  
 The following legend is applicable only to US Government
 contracts under FAR:
  
                    RESTRICTED RIGHTS LEGEND
  
 Use, reproduction and disclosure by the US Government is
 subject to restrictions as set forth in subparagraphs (a)
 and (c) of the Commercial Computer Software - Restricted
 Rights clause in FAR 52.227-19.
  
 Gaussian, Inc.
 340 Quinnipiac St., Bldg. 40, Wallingford CT 06492
  
  
 ---------------------------------------------------------------
 Warning -- This program may not be used in any manner that
 competes with the business of Gaussian, Inc. or will provide
 assistance to any competitor of Gaussian, Inc.  The licensee
 of this program is prohibited from giving any competitor of
 Gaussian, Inc. access to this program.  By using this program,
 the user acknowledges that Gaussian, Inc. is engaged in the
 business of creating and licensing software in the field of
 computational chemistry and represents and warrants to the
 licensee that it is not a competitor of Gaussian, Inc. and that
 it will not use this program in any manner prohibited above.
 ---------------------------------------------------------------
  

 Cite this work as:
 Gaussian 16, Revision A.03,
 M. J. Frisch, G. W. Trucks, H. B. Schlegel, G. E. Scuseria, 
 M. A. Robb, J. R. Cheeseman, G. Scalmani, V. Barone, 
 G. A. Petersson, H. Nakatsuji, X. Li, M. Caricato, A. V. Marenich, 
 J. Bloino, B. G. Janesko, R. Gomperts, B. Mennucci, H. P. Hratchian, 
 J. V. Ortiz, A. F. Izmaylov, J. L. Sonnenberg, D. Williams-Young, 
 F. Ding, F. Lipparini, F. Egidi, J. Goings, B. Peng, A. Petrone, 
 T. Henderson, D. Ranasinghe, V. G. Zakrzewski, J. Gao, N. Rega, 
 G. Zheng, W. Liang, M. Hada, M. Ehara, K. Toyota, R. Fukuda, 
 J. Hasegawa, M. Ishida, T. Nakajima, Y. Honda, O. Kitao, H. Nakai, 
 T. Vreven, K. Throssell, J. A. Montgomery, Jr., J. E. Peralta, 
 F. Ogliaro, M. J. Bearpark, J. J. Heyd, E. N. Brothers, K. N. Kudin, 
 V. N. Staroverov, T. A. Keith, R. Kobayashi, J. Normand, 
 K. Raghavachari, A. P. Rendell, J. C. Burant, S. S. Iyengar, 
 J. Tomasi, M. Cossi, J. M. Millam, M. Klene, C. Adamo, R. Cammi, 
 J. W. Ochterski, R. L. Martin, K. Morokuma, O. Farkas, 
 J. B. Foresman, and D. J. Fox, Gaussian, Inc., Wallingford CT, 2016.
 
 ******************************************
 Gaussian 16:  EM64L-G16RevA.03 25-Dec-2016
                23-Jul-2020 
 ******************************************
 %mem=30GB
 %nproc=8
 Will use up to    8 processors via shared memory.
 ---------------------------------------------------------------
 #P uLC-wPBE/cc-pVDZ iop(3/107=0355600000, 3/108=0355600000) opt
 ---------------------------------------------------------------
 1/18=20,19=15,26=3,38=1/1,3;
 2/9=110,12=2,17=6,18=5,40=1/2;
 3/5=16,11=2,25=1,30=1,71=1,74=-41,107=355600000,108=355600000,116=2/1,2,3;
 4//1;
 5/5=2,38=5/2;
 6/7=2,8=2,9=2,10=2,28=1/1;
 7//1,2,3,16;
 1/18=20,19=15,26=3/3(2);
 2/9=110/2;
 99//99;
 2/9=110/2;
 3/5=16,11=2,25=1,30=1,71=1,74=-41,107=355600000,108=355600000,116=2/1,2,3;
 4/5=5,16=3,69=1/1;
 5/5=2,38=5/2;
 7//1,2,3,16;
 1/18=20,19=15,26=3/3(-5);
 2/9=110/2;
 6/7=2,8=2,9=2,10=2,19=2,28=1/1;
 99/9=1/99;
 Leave Link    1 at Thu Jul 23 10:00:15 2020, MaxMem=  4026531840 cpu:               2.8 elap:               0.4
 (Enter /opt/ohpc/pub/libs/gaussian/g16-A.03/sandybridge/g16/l101.exe)
 ---------
 H8 C12 F2
 ---------
 Symbolic Z-matrix:
 Charge =  0 Multiplicity = 1
 C                     3.5167    0.32057  -0.14594 
 C                     2.90023  -0.67255   0.52706 
 C                     1.44613  -0.68147   0.52669 
 F                     0.827    -1.71063   1.17367 
 C                     0.73488   0.37809  -0.04994 
 C                     1.39039   1.40599  -0.65699 
 C                     2.78588   1.38269  -0.67623 
 C                    -0.76346   0.37448   0.03305 
 C                    -1.41371   1.35276   0.6121 
 C                    -2.78993   1.36317   0.69898 
 C                    -3.54722   0.29589   0.13916 
 C                    -2.88506  -0.74336  -0.46157 
 C                    -1.52087  -0.67277  -0.5628 
 F                    -0.91618  -1.73668  -1.19062 
 H                     4.65735   0.30939  -0.13325 
 H                     3.45552  -1.50863   0.90829 
 H                     0.91492   2.2102   -1.06155 
 H                     3.40129   2.19385  -1.19109 
 H                    -0.90215   2.20405   1.05626 
 H                    -3.33647   2.25541   1.18475 
 H                    -4.6798    0.33157   0.19566 
 H                    -3.45971  -1.56556  -0.93372 
 
 ITRead=  0  0  0  0  0  0  0  0  0  0  0  0  0  0  0  0  0  0  0  0
 ITRead=  0  0
 MicOpt= -1 -1 -1 -1 -1 -1 -1 -1 -1 -1 -1 -1 -1 -1 -1 -1 -1 -1 -1 -1
 MicOpt= -1 -1
 NAtoms=     22 NQM=       22 NQMF=       0 NMMI=      0 NMMIF=      0
                NMic=       0 NMicF=      0.
                    Isotopes and Nuclear Properties:
 (Nuclear quadrupole moments (NQMom) in fm**2, nuclear magnetic moments (NMagM)
  in nuclear magnetons)

  Atom         1           2           3           4           5           6           7           8           9          10
 IAtWgt=          12          12          12          19          12          12          12          12          12          12
 AtmWgt=  12.0000000  12.0000000  12.0000000  18.9984033  12.0000000  12.0000000  12.0000000  12.0000000  12.0000000  12.0000000
 NucSpn=           0           0           0           1           0           0           0           0           0           0
 AtZEff=  -0.0000000  -0.0000000  -0.0000000  -0.0000000  -0.0000000  -0.0000000  -0.0000000  -0.0000000  -0.0000000  -0.0000000
 NQMom=    0.0000000   0.0000000   0.0000000   0.0000000   0.0000000   0.0000000   0.0000000   0.0000000   0.0000000   0.0000000
 NMagM=    0.0000000   0.0000000   0.0000000   2.6288670   0.0000000   0.0000000   0.0000000   0.0000000   0.0000000   0.0000000
 AtZNuc=   6.0000000   6.0000000   6.0000000   9.0000000   6.0000000   6.0000000   6.0000000   6.0000000   6.0000000   6.0000000

  Atom        11          12          13          14          15          16          17          18          19          20
 IAtWgt=          12          12          12          19           1           1           1           1           1           1
 AtmWgt=  12.0000000  12.0000000  12.0000000  18.9984033   1.0078250   1.0078250   1.0078250   1.0078250   1.0078250   1.0078250
 NucSpn=           0           0           0           1           1           1           1           1           1           1
 AtZEff=  -0.0000000  -0.0000000  -0.0000000  -0.0000000  -0.0000000  -0.0000000  -0.0000000  -0.0000000  -0.0000000  -0.0000000
 NQMom=    0.0000000   0.0000000   0.0000000   0.0000000   0.0000000   0.0000000   0.0000000   0.0000000   0.0000000   0.0000000
 NMagM=    0.0000000   0.0000000   0.0000000   2.6288670   2.7928460   2.7928460   2.7928460   2.7928460   2.7928460   2.7928460
 AtZNuc=   6.0000000   6.0000000   6.0000000   9.0000000   1.0000000   1.0000000   1.0000000   1.0000000   1.0000000   1.0000000

  Atom        21          22
 IAtWgt=           1           1
 AtmWgt=   1.0078250   1.0078250
 NucSpn=           1           1
 AtZEff=  -0.0000000  -0.0000000
 NQMom=    0.0000000   0.0000000
 NMagM=    2.7928460   2.7928460
 AtZNuc=   1.0000000   1.0000000
 Leave Link  101 at Thu Jul 23 10:00:15 2020, MaxMem=  4026531840 cpu:               2.3 elap:               0.4
 (Enter /opt/ohpc/pub/libs/gaussian/g16-A.03/sandybridge/g16/l103.exe)

 GradGradGradGradGradGradGradGradGradGradGradGradGradGradGradGradGradGrad
 Berny optimization.
 Initialization pass.
                           ----------------------------
                           !    Initial Parameters    !
                           ! (Angstroms and Degrees)  !
 --------------------------                            --------------------------
 ! Name  Definition              Value          Derivative Info.                !
 --------------------------------------------------------------------------------
 ! R1    R(1,2)                  1.3488         estimate D2E/DX2                !
 ! R2    R(1,7)                  1.3941         estimate D2E/DX2                !
 ! R3    R(1,15)                 1.1408         estimate D2E/DX2                !
 ! R4    R(2,3)                  1.4541         estimate D2E/DX2                !
 ! R5    R(2,16)                 1.0736         estimate D2E/DX2                !
 ! R6    R(3,4)                  1.3642         estimate D2E/DX2                !
 ! R7    R(3,5)                  1.4004         estimate D2E/DX2                !
 ! R8    R(5,6)                  1.3619         estimate D2E/DX2                !
 ! R9    R(5,8)                  1.5006         estimate D2E/DX2                !
 ! R10   R(6,7)                  1.3958         estimate D2E/DX2                !
 ! R11   R(6,17)                 1.0181         estimate D2E/DX2                !
 ! R12   R(7,18)                 1.141          estimate D2E/DX2                !
 ! R13   R(8,9)                  1.3096         estimate D2E/DX2                !
 ! R14   R(8,13)                 1.4232         estimate D2E/DX2                !
 ! R15   R(9,10)                 1.379          estimate D2E/DX2                !
 ! R16   R(9,19)                 1.088          estimate D2E/DX2                !
 ! R17   R(10,11)                1.4234         estimate D2E/DX2                !
 ! R18   R(10,20)                1.1536         estimate D2E/DX2                !
 ! R19   R(11,12)                1.3709         estimate D2E/DX2                !
 ! R20   R(11,21)                1.1345         estimate D2E/DX2                !
 ! R21   R(12,13)                1.3698         estimate D2E/DX2                !
 ! R22   R(12,22)                1.1087         estimate D2E/DX2                !
 ! R23   R(13,14)                1.3754         estimate D2E/DX2                !
 ! A1    A(2,1,7)              120.7422         estimate D2E/DX2                !
 ! A2    A(2,1,15)             116.3746         estimate D2E/DX2                !
 ! A3    A(7,1,15)             122.4035         estimate D2E/DX2                !
 ! A4    A(1,2,3)              117.4799         estimate D2E/DX2                !
 ! A5    A(1,2,16)             120.9413         estimate D2E/DX2                !
 ! A6    A(3,2,16)             120.8309         estimate D2E/DX2                !
 ! A7    A(2,3,4)              117.2798         estimate D2E/DX2                !
 ! A8    A(2,3,5)              120.2223         estimate D2E/DX2                !
 ! A9    A(4,3,5)              122.3827         estimate D2E/DX2                !
 ! A10   A(3,5,6)              120.6732         estimate D2E/DX2                !
 ! A11   A(3,5,8)              118.8509         estimate D2E/DX2                !
 ! A12   A(6,5,8)              120.4674         estimate D2E/DX2                !
 ! A13   A(5,6,7)              118.3435         estimate D2E/DX2                !
 ! A14   A(5,6,17)             123.2663         estimate D2E/DX2                !
 ! A15   A(7,6,17)             118.3348         estimate D2E/DX2                !
 ! A16   A(1,7,6)              122.1127         estimate D2E/DX2                !
 ! A17   A(1,7,18)             115.5027         estimate D2E/DX2                !
 ! A18   A(6,7,18)             122.2495         estimate D2E/DX2                !
 ! A19   A(5,8,9)              121.2253         estimate D2E/DX2                !
 ! A20   A(5,8,13)             120.6632         estimate D2E/DX2                !
 ! A21   A(9,8,13)             118.0699         estimate D2E/DX2                !
 ! A22   A(8,9,10)             121.9379         estimate D2E/DX2                !
 ! A23   A(8,9,19)             122.1092         estimate D2E/DX2                !
 ! A24   A(10,9,19)            115.9526         estimate D2E/DX2                !
 ! A25   A(9,10,11)            120.0352         estimate D2E/DX2                !
 ! A26   A(9,10,20)            120.3433         estimate D2E/DX2                !
 ! A27   A(11,10,20)           119.5714         estimate D2E/DX2                !
 ! A28   A(10,11,12)           118.9333         estimate D2E/DX2                !
 ! A29   A(10,11,21)           119.2058         estimate D2E/DX2                !
 ! A30   A(12,11,21)           121.8595         estimate D2E/DX2                !
 ! A31   A(11,12,13)           118.3181         estimate D2E/DX2                !
 ! A32   A(11,12,22)           119.8977         estimate D2E/DX2                !
 ! A33   A(13,12,22)           121.531          estimate D2E/DX2                !
 ! A34   A(8,13,12)            122.4803         estimate D2E/DX2                !
 ! A35   A(8,13,14)            121.7585         estimate D2E/DX2                !
 ! A36   A(12,13,14)           115.5773         estimate D2E/DX2                !
 ! D1    D(7,1,2,3)              7.7575         estimate D2E/DX2                !
 ! D2    D(7,1,2,16)           177.9305         estimate D2E/DX2                !
 ! D3    D(15,1,2,3)           179.9984         estimate D2E/DX2                !
 ! D4    D(15,1,2,16)           -9.8286         estimate D2E/DX2                !
 ! D5    D(2,1,7,6)             -6.5193         estimate D2E/DX2                !
 ! D6    D(2,1,7,18)           177.6194         estimate D2E/DX2                !
 ! D7    D(15,1,7,6)          -178.2827         estimate D2E/DX2                !
 ! D8    D(15,1,7,18)            5.856          estimate D2E/DX2                !
 ! D9    D(1,2,3,4)            178.0258         estimate D2E/DX2                !
 ! D10   D(1,2,3,5)             -5.7822         estimate D2E/DX2                !
 ! D11   D(16,2,3,4)             7.8413         estimate D2E/DX2                !
 ! D12   D(16,2,3,5)          -175.9666         estimate D2E/DX2                !
 ! D13   D(2,3,5,6)              2.2567         estimate D2E/DX2                !
 ! D14   D(2,3,5,8)           -176.6867         estimate D2E/DX2                !
 ! D15   D(4,3,5,6)            178.2487         estimate D2E/DX2                !
 ! D16   D(4,3,5,8)             -0.6947         estimate D2E/DX2                !
 ! D17   D(3,5,6,7)             -0.6866         estimate D2E/DX2                !
 ! D18   D(3,5,6,17)          -177.93           estimate D2E/DX2                !
 ! D19   D(8,5,6,7)            178.2397         estimate D2E/DX2                !
 ! D20   D(8,5,6,17)             0.9963         estimate D2E/DX2                !
 ! D21   D(3,5,8,9)            120.9464         estimate D2E/DX2                !
 ! D22   D(3,5,8,13)           -61.4434         estimate D2E/DX2                !
 ! D23   D(6,5,8,9)            -57.9992         estimate D2E/DX2                !
 ! D24   D(6,5,8,13)           119.6109         estimate D2E/DX2                !
 ! D25   D(5,6,7,1)              2.6923         estimate D2E/DX2                !
 ! D26   D(5,6,7,18)           178.275          estimate D2E/DX2                !
 ! D27   D(17,6,7,1)          -179.9262         estimate D2E/DX2                !
 ! D28   D(17,6,7,18)           -4.3435         estimate D2E/DX2                !
 ! D29   D(5,8,9,10)          -179.8698         estimate D2E/DX2                !
 ! D30   D(5,8,9,19)            -0.0757         estimate D2E/DX2                !
 ! D31   D(13,8,9,10)            2.4599         estimate D2E/DX2                !
 ! D32   D(13,8,9,19)         -177.746          estimate D2E/DX2                !
 ! D33   D(5,8,13,12)          177.1774         estimate D2E/DX2                !
 ! D34   D(5,8,13,14)            2.3255         estimate D2E/DX2                !
 ! D35   D(9,8,13,12)           -5.1386         estimate D2E/DX2                !
 ! D36   D(9,8,13,14)         -179.9905         estimate D2E/DX2                !
 ! D37   D(8,9,10,11)           -0.5914         estimate D2E/DX2                !
 ! D38   D(8,9,10,20)         -178.0074         estimate D2E/DX2                !
 ! D39   D(19,9,10,11)         179.6025         estimate D2E/DX2                !
 ! D40   D(19,9,10,20)           2.1866         estimate D2E/DX2                !
 ! D41   D(9,10,11,12)           1.11           estimate D2E/DX2                !
 ! D42   D(9,10,11,21)        -178.4741         estimate D2E/DX2                !
 ! D43   D(20,10,11,12)        178.5459         estimate D2E/DX2                !
 ! D44   D(20,10,11,21)         -1.0382         estimate D2E/DX2                !
 ! D45   D(10,11,12,13)         -3.5783         estimate D2E/DX2                !
 ! D46   D(10,11,12,22)       -177.8863         estimate D2E/DX2                !
 ! D47   D(21,11,12,13)        175.9943         estimate D2E/DX2                !
 ! D48   D(21,11,12,22)          1.6864         estimate D2E/DX2                !
 ! D49   D(11,12,13,8)           5.6789         estimate D2E/DX2                !
 ! D50   D(11,12,13,14)       -179.1732         estimate D2E/DX2                !
 ! D51   D(22,12,13,8)         179.8893         estimate D2E/DX2                !
 ! D52   D(22,12,13,14)         -4.9628         estimate D2E/DX2                !
 --------------------------------------------------------------------------------
 Trust Radius=3.00D-01 FncErr=1.00D-07 GrdErr=1.00D-06 EigMax=2.50D+02 EigMin=1.00D-04
 Number of steps in this run=    121 maximum allowed number of steps=    132.
 GradGradGradGradGradGradGradGradGradGradGradGradGradGradGradGradGradGrad

 Leave Link  103 at Thu Jul 23 10:00:15 2020, MaxMem=  4026531840 cpu:               0.1 elap:               0.0
 (Enter /opt/ohpc/pub/libs/gaussian/g16-A.03/sandybridge/g16/l202.exe)
                          Input orientation:                          
 ---------------------------------------------------------------------
 Center     Atomic      Atomic             Coordinates (Angstroms)
 Number     Number       Type             X           Y           Z
 ---------------------------------------------------------------------
      1          6           0        3.516703    0.320568   -0.145937
      2          6           0        2.900227   -0.672552    0.527057
      3          6           0        1.446131   -0.681471    0.526687
      4          9           0        0.826999   -1.710629    1.173667
      5          6           0        0.734877    0.378090   -0.049941
      6          6           0        1.390390    1.405992   -0.656986
      7          6           0        2.785882    1.382694   -0.676231
      8          6           0       -0.763464    0.374484    0.033053
      9          6           0       -1.413709    1.352763    0.612100
     10          6           0       -2.789933    1.363168    0.698977
     11          6           0       -3.547219    0.295890    0.139157
     12          6           0       -2.885056   -0.743356   -0.461572
     13          6           0       -1.520872   -0.672765   -0.562803
     14          9           0       -0.916184   -1.736680   -1.190621
     15          1           0        4.657354    0.309387   -0.133245
     16          1           0        3.455516   -1.508626    0.908287
     17          1           0        0.914915    2.210204   -1.061551
     18          1           0        3.401288    2.193848   -1.191091
     19          1           0       -0.902154    2.204047    1.056257
     20          1           0       -3.336471    2.255410    1.184751
     21          1           0       -4.679799    0.331567    0.195663
     22          1           0       -3.459705   -1.565556   -0.933717
 ---------------------------------------------------------------------
                    Distance matrix (angstroms):
                    1          2          3          4          5
     1  C    0.000000
     2  C    1.348796   0.000000
     3  C    2.396617   1.454123   0.000000
     4  F    3.619616   2.407069   1.364212   0.000000
     5  C    2.784076   2.474978   1.400376   2.422488   0.000000
     6  C    2.441418   2.828765   2.400352   3.658145   1.361904
     7  C    1.394067   2.384327   2.739110   4.102194   2.368141
     8  C    4.284247   3.842259   2.498204   2.859767   1.500642
     9  C    5.094017   4.766464   3.510568   3.836730   2.450450
    10  C    6.447833   6.045795   4.706854   4.770299   3.735712
    11  C    7.069716   6.531302   5.102838   4.922409   4.287057
    12  C    6.497236   5.869574   4.442934   4.170009   3.811954
    13  C    5.151471   4.553450   3.160723   3.099192   2.540812
    14  F    4.997411   4.318307   3.105341   2.937554   2.915374
    15  H    1.140776   2.118419   3.424801   4.523285   3.923963
    16  H    2.112128   1.073640   2.206226   2.649591   3.446705
    17  H    3.343408   3.843881   3.341628   4.514074   2.100574
    18  H    2.148219   3.379252   3.878255   5.240609   3.421834
    19  H    4.951673   4.797184   3.757805   4.281173   2.690291
    20  H    7.244331   6.921122   5.650805   5.750137   4.650233
    21  H    8.203625   7.653422   6.217945   5.954148   5.420443
    22  H    7.269686   6.586353   5.194383   4.778906   4.706733
                    6          7          8          9         10
     6  C    0.000000
     7  C    1.395819   0.000000
     8  C    2.485810   3.757317   0.000000
     9  C    3.078374   4.392864   1.309635   0.000000
    10  C    4.394948   5.742934   2.351069   1.379003   0.000000
    11  C    5.123100   6.477204   2.786885   2.427451   1.423363
    12  C    4.789292   6.060174   2.448545   2.776931   2.406941
    13  C    3.578484   4.773459   1.423180   2.344066   2.710651
    14  F    3.934646   4.868304   2.444937   3.611370   4.085410
    15  H    3.485671   2.224686   5.423759   6.204996   7.567373
    16  H    3.899977   3.364348   4.702332   5.655495   6.877256
    17  H    1.018090   2.081769   2.717532   2.993126   4.188416
    18  H    2.224791   1.140954   4.706779   5.209906   6.526378
    19  H    2.971170   4.156651   2.100829   1.087956   2.097245
    20  H    5.143610   6.458180   3.388902   2.199935   1.153593
    21  H    6.223230   7.589563   3.919944   3.447260   2.211135
    22  H    5.694743   6.911283   3.459496   3.884873   3.419314
                   11         12         13         14         15
    11  C    0.000000
    12  C    1.370900   0.000000
    13  C    2.353109   1.369755   0.000000
    14  F    3.580781   2.322641   1.375397   0.000000
    15  H    8.209105   7.622599   6.270536   6.030652   0.000000
    16  H    7.272286   6.531845   5.256159   4.854810   2.415445
    17  H    5.001693   4.850079   3.807009   4.352870   4.298919
    18  H    7.324859   6.976925   5.730609   5.838631   2.499587
    19  H    3.387994   3.863016   3.358603   4.536297   5.992727
    20  H    2.231009   3.450616   3.863231   5.238031   8.332188
    21  H    1.134550   2.192834   3.400408   4.512674   9.342971
    22  H    2.150279   1.108673   2.166501   2.562183   8.369158
                   16         17         18         19         20
    16  H    0.000000
    17  H    4.915751   0.000000
    18  H    4.256600   2.489799   0.000000
    19  H    5.726703   2.790500   4.854924   0.000000
    20  H    7.770166   4.808555   7.144635   2.438247   0.000000
    21  H    8.371230   6.034127   8.408040   4.303185   2.546369
    22  H    7.156570   5.780139   7.827681   4.971013   4.370684
                   21         22
    21  H    0.000000
    22  H    2.522539   0.000000
 Stoichiometry    C12H8F2
 Framework group  C1[X(C12H8F2)]
 Deg. of freedom    60
 Full point group                 C1      NOp   1
 Largest Abelian subgroup         C1      NOp   1
 Largest concise Abelian subgroup C1      NOp   1
                         Standard orientation:                         
 ---------------------------------------------------------------------
 Center     Atomic      Atomic             Coordinates (Angstroms)
 Number     Number       Type             X           Y           Z
 ---------------------------------------------------------------------
      1          6           0        3.536522   -0.281451    0.146091
      2          6           0        2.909605    0.703340   -0.529491
      3          6           0        1.455498    0.696413   -0.529850
      4          9           0        0.825520    1.717272   -1.179503
      5          6           0        0.755537   -0.369507    0.048873
      6          6           0        1.421901   -1.388805    0.658606
      7          6           0        2.817046   -1.350256    0.678477
      8          6           0       -0.742712   -0.382421   -0.034858
      9          6           0       -1.381961   -1.369057   -0.611965
     10          6           0       -2.757946   -1.394660   -0.699487
     11          6           0       -3.527103   -0.334413   -0.142499
     12          6           0       -2.876611    0.713367    0.456154
     13          6           0       -1.511791    0.657880    0.558212
     14          9           0       -0.919054    1.729763    1.183870
     15          1           0        4.676989   -0.257870    0.133929
     16          1           0        3.455946    1.544537   -0.912378
     17          1           0        0.955010   -2.197218    1.064793
     18          1           0        3.440991   -2.153469    1.195506
     19          1           0       -0.860933   -2.215736   -1.053908
     20          1           0       -3.294480   -2.293920   -1.183469
     21          1           0       -4.659198   -0.382560   -0.199474
     22          1           0       -3.460427    1.530340    0.926122
 ---------------------------------------------------------------------
 Rotational constants (GHZ):           1.4389622           0.4972441           0.4287912
 Leave Link  202 at Thu Jul 23 10:00:15 2020, MaxMem=  4026531840 cpu:               0.1 elap:               0.0
 (Enter /opt/ohpc/pub/libs/gaussian/g16-A.03/sandybridge/g16/l301.exe)
 Standard basis: CC-pVDZ (5D, 7F)
 Ernie: Thresh=  0.10000D-02 Tol=  0.10000D-05 Strict=F.
 Ernie:  28 primitive shells out of 348 were deleted.
 There are   250 symmetry adapted cartesian basis functions of A   symmetry.
 There are   236 symmetry adapted basis functions of A   symmetry.
   236 basis functions,   518 primitive gaussians,   250 cartesian basis functions
    49 alpha electrons       49 beta electrons
       nuclear repulsion energy       828.7392759227 Hartrees.
 IExCor=32609 DFT=T Ex+Corr=LC-wPBE ExCW=0 ScaHFX=  1.000000
 ScaDFX=  1.000000  0.000000  1.000000  1.000000 ScalE2=  1.000000  1.000000
 IRadAn=      5 IRanWt=     -1 IRanGd=            0 ICorTp=0 IEmpDi=  4
 HFx  wShort=  0.000000 wLong=  0.355600 cFull=  0.000000 cShort=  0.000000 cLong=  1.000000
 DFx  wShort=  0.000000 wLong=  0.355600 cFull=  0.000000 cShort=  0.000000 cLong=  1.000000
 NAtoms=   22 NActive=   22 NUniq=   22 SFac= 1.00D+00 NAtFMM=   60 NAOKFM=F Big=F
 Integral buffers will be    131072 words long.
 Raffenetti 2 integral format.
 Two-electron integral symmetry is turned on.
 Leave Link  301 at Thu Jul 23 10:00:16 2020, MaxMem=  4026531840 cpu:               0.5 elap:               0.1
 (Enter /opt/ohpc/pub/libs/gaussian/g16-A.03/sandybridge/g16/l302.exe)
 NPDir=0 NMtPBC=     1 NCelOv=     1 NCel=       1 NClECP=     1 NCelD=      1
         NCelK=      1 NCelE2=     1 NClLst=     1 CellRange=     0.0.
 One-electron integrals computed using PRISM.
 One-electron integral symmetry used in STVInt
 NBasis=   236 RedAO= T EigKep=  3.26D-04  NBF=   236
 NBsUse=   236 1.00D-06 EigRej= -1.00D+00 NBFU=   236
 Precomputing XC quadrature grid using
 IXCGrd= 4 IRadAn=           5 IRanWt=          -1 IRanGd=           0 AccXCQ= 0.00D+00.
 Generated NRdTot=       0 NPtTot=           0 NUsed=           0 NTot=          32
 NSgBfM=   250   250   250   250   250 MxSgAt=    22 MxSgA2=    22.
 Leave Link  302 at Thu Jul 23 10:00:16 2020, MaxMem=  4026531840 cpu:               2.0 elap:               0.3
 (Enter /opt/ohpc/pub/libs/gaussian/g16-A.03/sandybridge/g16/l303.exe)
 DipDrv:  MaxL=1.
 Leave Link  303 at Thu Jul 23 10:00:17 2020, MaxMem=  4026531840 cpu:               0.4 elap:               0.2
 (Enter /opt/ohpc/pub/libs/gaussian/g16-A.03/sandybridge/g16/l401.exe)
 ExpMin= 1.22D-01 ExpMax= 1.47D+04 ExpMxC= 5.03D+02 IAcc=3 IRadAn=         5 AccDes= 0.00D+00
 Harris functional with IExCor=32609 and IRadAn=       5 diagonalized for initial guess.
 HarFok:  IExCor=32609 AccDes= 0.00D+00 IRadAn=         5 IDoV= 1 UseB2=F ITyADJ=14
 ICtDFT=  3500011 ScaDFX=  1.000000  1.000000  1.000000  1.000000
 FoFCou: FMM=F IPFlag=           0 FMFlag=      100000 FMFlg1=           0
         NFxFlg=           0 DoJE=T BraDBF=F KetDBF=T FulRan=T
         wScrn=  0.000000 ICntrl=       500 IOpCl=  0 I1Cent=   200000004 NGrid=           0
         NMat0=    1 NMatS0=      1 NMatT0=    0 NMatD0=    1 NMtDS0=    0 NMtDT0=    0
 Petite list used in FoFCou.
 Harris En= -661.255262749260    
 JPrj=0 DoOrth=F DoCkMO=F.
 Initial guess <Sx>= 0.0000 <Sy>= 0.0000 <Sz>= 0.0000 <S**2>=-0.0000 S=-0.0000
 Leave Link  401 at Thu Jul 23 10:00:18 2020, MaxMem=  4026531840 cpu:              10.5 elap:               1.5
 (Enter /opt/ohpc/pub/libs/gaussian/g16-A.03/sandybridge/g16/l502.exe)
 Integral symmetry usage will be decided dynamically.
 UHF open shell SCF:
 Using DIIS extrapolation, IDIIS=  1040.
 NGot=  4026531840 LenX=  4026402186 LenY=  4026339245
 Requested convergence on RMS density matrix=1.00D-08 within 128 cycles.
 Requested convergence on MAX density matrix=1.00D-06.
 Requested convergence on             energy=1.00D-06.
 No special actions if energy rises.
 Fock matrices will be formed incrementally for  20 cycles.
 Integral accuracy reduced to 1.0D-05 until final iterations.

 Cycle   1  Pass 0  IDiag  1:
 FoFJK:  IHMeth= 1 ICntrl=       0 DoSepK=T KAlg= 0 I1Cent=           0 FoldK=F
 IRaf=         1 NMat=       1 IRICut=       1 DoRegI=T DoRafI=F ISym2E= 0 IDoP0=0 IntGTp=1.
 FoFCou: FMM=F IPFlag=           0 FMFlag=      100000 FMFlg1=           0
         NFxFlg=           0 DoJE=T BraDBF=F KetDBF=F FulRan=T
         wScrn=  0.000000 ICntrl=       500 IOpCl=  0 I1Cent=           0 NGrid=           0
         NMat0=    1 NMatS0=      1 NMatT0=    0 NMatD0=    1 NMtDS0=    0 NMtDT0=    0
 Symmetry not used in FoFCou.
 E= -661.053737862858    
 DIIS: error= 1.90D-02 at cycle   1 NSaved=   1.
 NSaved= 1 IEnMin= 1 EnMin= -661.053737862858     IErMin= 1 ErrMin= 1.90D-02
 ErrMax= 1.90D-02  0.00D+00 EMaxC= 1.00D-01 BMatC= 8.80D-01 BMatP= 8.80D-01
 IDIUse=3 WtCom= 8.10D-01 WtEn= 1.90D-01
 Coeff-Com:  0.100D+01
 Coeff-En:   0.100D+01
 Coeff:      0.100D+01
 Gap=     0.418 Goal=   None    Shift=    0.000
 Gap=     0.418 Goal=   None    Shift=    0.000
 GapD=    0.418 DampG=2.000 DampE=0.500 DampFc=1.0000 IDamp=-1.
 RMSDP=3.68D-03 MaxDP=7.25D-02              OVMax= 1.62D-01

 Cycle   2  Pass 0  IDiag  1:
 RMSU=  3.59D-03    CP:  9.65D-01
 E= -661.171518478595     Delta-E=       -0.117780615738 Rises=F Damp=F
 DIIS: error= 1.34D-02 at cycle   2 NSaved=   2.
 NSaved= 2 IEnMin= 2 EnMin= -661.171518478595     IErMin= 2 ErrMin= 1.34D-02
 ErrMax= 1.34D-02  0.00D+00 EMaxC= 1.00D-01 BMatC= 5.32D-01 BMatP= 8.80D-01
 IDIUse=3 WtCom= 8.66D-01 WtEn= 1.34D-01
 Coeff-Com:  0.433D+00 0.567D+00
 Coeff-En:   0.296D+00 0.704D+00
 Coeff:      0.415D+00 0.585D+00
 Gap=     0.413 Goal=   None    Shift=    0.000
 Gap=     0.413 Goal=   None    Shift=    0.000
 RMSDP=1.64D-03 MaxDP=4.73D-02 DE=-1.18D-01 OVMax= 9.55D-02

 Cycle   3  Pass 0  IDiag  1:
 RMSU=  1.22D-03    CP:  9.75D-01  7.01D-01
 E= -661.299973031913     Delta-E=       -0.128454553318 Rises=F Damp=F
 DIIS: error= 2.89D-03 at cycle   3 NSaved=   3.
 NSaved= 3 IEnMin= 3 EnMin= -661.299973031913     IErMin= 3 ErrMin= 2.89D-03
 ErrMax= 2.89D-03  0.00D+00 EMaxC= 1.00D-01 BMatC= 1.82D-02 BMatP= 5.32D-01
 IDIUse=3 WtCom= 9.71D-01 WtEn= 2.89D-02
 Coeff-Com:  0.114D+00 0.214D+00 0.672D+00
 Coeff-En:   0.000D+00 0.000D+00 0.100D+01
 Coeff:      0.110D+00 0.208D+00 0.681D+00
 Gap=     0.384 Goal=   None    Shift=    0.000
 Gap=     0.384 Goal=   None    Shift=    0.000
 RMSDP=3.50D-04 MaxDP=1.30D-02 DE=-1.28D-01 OVMax= 2.63D-02

 Cycle   4  Pass 0  IDiag  1:
 RMSU=  2.68D-04    CP:  9.74D-01  7.28D-01  8.35D-01
 E= -661.304378765495     Delta-E=       -0.004405733582 Rises=F Damp=F
 DIIS: error= 8.42D-04 at cycle   4 NSaved=   4.
 NSaved= 4 IEnMin= 4 EnMin= -661.304378765495     IErMin= 4 ErrMin= 8.42D-04
 ErrMax= 8.42D-04  0.00D+00 EMaxC= 1.00D-01 BMatC= 1.46D-03 BMatP= 1.82D-02
 IDIUse=3 WtCom= 9.92D-01 WtEn= 8.42D-03
 Coeff-Com:  0.535D-03 0.139D-01 0.234D+00 0.751D+00
 Coeff-En:   0.000D+00 0.000D+00 0.000D+00 0.100D+01
 Coeff:      0.531D-03 0.138D-01 0.232D+00 0.753D+00
 Gap=     0.383 Goal=   None    Shift=    0.000
 Gap=     0.383 Goal=   None    Shift=    0.000
 RMSDP=1.05D-04 MaxDP=1.80D-03 DE=-4.41D-03 OVMax= 5.58D-03

 Cycle   5  Pass 0  IDiag  1:
 RMSU=  6.24D-05    CP:  9.74D-01  7.30D-01  8.92D-01  8.30D-01
 E= -661.304757419775     Delta-E=       -0.000378654280 Rises=F Damp=F
 DIIS: error= 1.78D-04 at cycle   5 NSaved=   5.
 NSaved= 5 IEnMin= 5 EnMin= -661.304757419775     IErMin= 5 ErrMin= 1.78D-04
 ErrMax= 1.78D-04  0.00D+00 EMaxC= 1.00D-01 BMatC= 7.70D-05 BMatP= 1.46D-03
 IDIUse=3 WtCom= 9.98D-01 WtEn= 1.78D-03
 Coeff-Com: -0.594D-02-0.877D-02 0.378D-01 0.219D+00 0.758D+00
 Coeff-En:   0.000D+00 0.000D+00 0.000D+00 0.000D+00 0.100D+01
 Coeff:     -0.593D-02-0.875D-02 0.378D-01 0.219D+00 0.758D+00
 Gap=     0.383 Goal=   None    Shift=    0.000
 Gap=     0.383 Goal=   None    Shift=    0.000
 RMSDP=3.28D-05 MaxDP=8.85D-04 DE=-3.79D-04 OVMax= 1.94D-03

 Cycle   6  Pass 0  IDiag  1:
 RMSU=  2.37D-05    CP:  9.74D-01  7.32D-01  9.06D-01  8.81D-01  9.77D-01
 E= -661.304779398327     Delta-E=       -0.000021978552 Rises=F Damp=F
 DIIS: error= 1.20D-04 at cycle   6 NSaved=   6.
 NSaved= 6 IEnMin= 6 EnMin= -661.304779398327     IErMin= 6 ErrMin= 1.20D-04
 ErrMax= 1.20D-04  0.00D+00 EMaxC= 1.00D-01 BMatC= 1.65D-05 BMatP= 7.70D-05
 IDIUse=3 WtCom= 9.99D-01 WtEn= 1.20D-03
 Coeff-Com: -0.245D-02-0.608D-02-0.107D-01-0.515D-02 0.297D+00 0.727D+00
 Coeff-En:   0.000D+00 0.000D+00 0.000D+00 0.000D+00 0.000D+00 0.100D+01
 Coeff:     -0.244D-02-0.607D-02-0.107D-01-0.514D-02 0.297D+00 0.727D+00
 Gap=     0.383 Goal=   None    Shift=    0.000
 Gap=     0.383 Goal=   None    Shift=    0.000
 RMSDP=1.18D-05 MaxDP=2.81D-04 DE=-2.20D-05 OVMax= 7.72D-04

 Cycle   7  Pass 0  IDiag  1:
 RMSU=  7.99D-06    CP:  9.74D-01  7.32D-01  9.09D-01  8.85D-01  1.10D+00
                    CP:  9.59D-01
 E= -661.304785537116     Delta-E=       -0.000006138789 Rises=F Damp=F
 DIIS: error= 4.01D-05 at cycle   7 NSaved=   7.
 NSaved= 7 IEnMin= 7 EnMin= -661.304785537116     IErMin= 7 ErrMin= 4.01D-05
 ErrMax= 4.01D-05  0.00D+00 EMaxC= 1.00D-01 BMatC= 1.97D-06 BMatP= 1.65D-05
 IDIUse=1 WtCom= 1.00D+00 WtEn= 0.00D+00
 Coeff-Com:  0.284D-03-0.197D-03-0.423D-02-0.340D-01-0.818D-01 0.130D+00
 Coeff-Com:  0.990D+00
 Coeff:      0.284D-03-0.197D-03-0.423D-02-0.340D-01-0.818D-01 0.130D+00
 Coeff:      0.990D+00
 Gap=     0.383 Goal=   None    Shift=    0.000
 Gap=     0.383 Goal=   None    Shift=    0.000
 RMSDP=8.29D-06 MaxDP=1.94D-04 DE=-6.14D-06 OVMax= 5.17D-04

 Initial convergence to 1.0D-05 achieved.  Increase integral accuracy.
 Cycle   8  Pass 1  IDiag  1:
 E= -661.304591284603     Delta-E=        0.000194252513 Rises=F Damp=F
 DIIS: error= 7.57D-05 at cycle   1 NSaved=   1.
 NSaved= 1 IEnMin= 1 EnMin= -661.304591284603     IErMin= 1 ErrMin= 7.57D-05
 ErrMax= 7.57D-05  0.00D+00 EMaxC= 1.00D-01 BMatC= 3.10D-06 BMatP= 3.10D-06
 IDIUse=1 WtCom= 1.00D+00 WtEn= 0.00D+00
 Coeff-Com:  0.100D+01
 Coeff:      0.100D+01
 Gap=     0.383 Goal=   None    Shift=    0.000
 Gap=     0.383 Goal=   None    Shift=    0.000
 RMSDP=8.29D-06 MaxDP=1.94D-04 DE= 1.94D-04 OVMax= 1.78D-04

 Cycle   9  Pass 1  IDiag  1:
 RMSU=  6.27D-05    CP:  1.00D+00
 E= -661.304591902707     Delta-E=       -0.000000618104 Rises=F Damp=F
 DIIS: error= 1.61D-05 at cycle   2 NSaved=   2.
 NSaved= 2 IEnMin= 2 EnMin= -661.304591902707     IErMin= 2 ErrMin= 1.61D-05
 ErrMax= 1.61D-05  0.00D+00 EMaxC= 1.00D-01 BMatC= 3.18D-07 BMatP= 3.10D-06
 IDIUse=1 WtCom= 1.00D+00 WtEn= 0.00D+00
 Coeff-Com:  0.125D+00 0.875D+00
 Coeff:      0.125D+00 0.875D+00
 Gap=     0.383 Goal=   None    Shift=    0.000
 Gap=     0.383 Goal=   None    Shift=    0.000
 RMSDP=4.00D-06 MaxDP=6.22D-05 DE=-6.18D-07 OVMax= 1.36D-04

 Cycle  10  Pass 1  IDiag  1:
 RMSU=  2.45D-06    CP:  1.00D+00  1.05D+00
 E= -661.304591949581     Delta-E=       -0.000000046874 Rises=F Damp=F
 DIIS: error= 1.01D-05 at cycle   3 NSaved=   3.
 NSaved= 3 IEnMin= 3 EnMin= -661.304591949581     IErMin= 3 ErrMin= 1.01D-05
 ErrMax= 1.01D-05  0.00D+00 EMaxC= 1.00D-01 BMatC= 2.13D-07 BMatP= 3.18D-07
 IDIUse=1 WtCom= 1.00D+00 WtEn= 0.00D+00
 Coeff-Com: -0.266D-01 0.447D+00 0.580D+00
 Coeff:     -0.266D-01 0.447D+00 0.580D+00
 Gap=     0.383 Goal=   None    Shift=    0.000
 Gap=     0.383 Goal=   None    Shift=    0.000
 RMSDP=1.18D-06 MaxDP=2.31D-05 DE=-4.69D-08 OVMax= 5.84D-05

 Cycle  11  Pass 1  IDiag  1:
 RMSU=  6.98D-07    CP:  1.00D+00  1.06D+00  7.55D-01
 E= -661.304591997573     Delta-E=       -0.000000047992 Rises=F Damp=F
 DIIS: error= 2.42D-06 at cycle   4 NSaved=   4.
 NSaved= 4 IEnMin= 4 EnMin= -661.304591997573     IErMin= 4 ErrMin= 2.42D-06
 ErrMax= 2.42D-06  0.00D+00 EMaxC= 1.00D-01 BMatC= 6.67D-09 BMatP= 2.13D-07
 IDIUse=1 WtCom= 1.00D+00 WtEn= 0.00D+00
 Coeff-Com: -0.108D-01 0.537D-01 0.971D-01 0.860D+00
 Coeff:     -0.108D-01 0.537D-01 0.971D-01 0.860D+00
 Gap=     0.383 Goal=   None    Shift=    0.000
 Gap=     0.383 Goal=   None    Shift=    0.000
 RMSDP=3.87D-07 MaxDP=8.32D-06 DE=-4.80D-08 OVMax= 3.35D-05

 Cycle  12  Pass 1  IDiag  1:
 RMSU=  2.51D-07    CP:  1.00D+00  1.06D+00  8.42D-01  1.25D+00
 E= -661.304592002654     Delta-E=       -0.000000005081 Rises=F Damp=F
 DIIS: error= 1.33D-06 at cycle   5 NSaved=   5.
 NSaved= 5 IEnMin= 5 EnMin= -661.304592002654     IErMin= 5 ErrMin= 1.33D-06
 ErrMax= 1.33D-06  0.00D+00 EMaxC= 1.00D-01 BMatC= 2.27D-09 BMatP= 6.67D-09
 IDIUse=1 WtCom= 1.00D+00 WtEn= 0.00D+00
 Coeff-Com:  0.960D-02-0.213D+00-0.275D+00 0.325D+00 0.115D+01
 Coeff:      0.960D-02-0.213D+00-0.275D+00 0.325D+00 0.115D+01
 Gap=     0.383 Goal=   None    Shift=    0.000
 Gap=     0.383 Goal=   None    Shift=    0.000
 RMSDP=3.93D-07 MaxDP=7.91D-06 DE=-5.08D-09 OVMax= 4.02D-05

 Cycle  13  Pass 1  IDiag  1:
 RMSU=  1.77D-07    CP:  1.00D+00  1.06D+00  9.01D-01  1.66D+00  1.55D+00
 E= -661.304592005541     Delta-E=       -0.000000002887 Rises=F Damp=F
 DIIS: error= 2.33D-07 at cycle   6 NSaved=   6.
 NSaved= 6 IEnMin= 6 EnMin= -661.304592005541     IErMin= 6 ErrMin= 2.33D-07
 ErrMax= 2.33D-07  0.00D+00 EMaxC= 1.00D-01 BMatC= 8.80D-11 BMatP= 2.27D-09
 IDIUse=1 WtCom= 1.00D+00 WtEn= 0.00D+00
 Coeff-Com:  0.221D-02-0.405D-01-0.529D-01 0.233D-01 0.220D+00 0.848D+00
 Coeff:      0.221D-02-0.405D-01-0.529D-01 0.233D-01 0.220D+00 0.848D+00
 Gap=     0.383 Goal=   None    Shift=    0.000
 Gap=     0.383 Goal=   None    Shift=    0.000
 RMSDP=5.76D-08 MaxDP=1.05D-06 DE=-2.89D-09 OVMax= 4.77D-06

 Cycle  14  Pass 1  IDiag  1:
 RMSU=  3.27D-08    CP:  1.00D+00  1.06D+00  9.02D-01  1.67D+00  1.65D+00
                    CP:  1.14D+00
 E= -661.304592005611     Delta-E=       -0.000000000071 Rises=F Damp=F
 DIIS: error= 1.37D-07 at cycle   7 NSaved=   7.
 NSaved= 7 IEnMin= 7 EnMin= -661.304592005611     IErMin= 7 ErrMin= 1.37D-07
 ErrMax= 1.37D-07  0.00D+00 EMaxC= 1.00D-01 BMatC= 2.37D-11 BMatP= 8.80D-11
 IDIUse=1 WtCom= 1.00D+00 WtEn= 0.00D+00
 Coeff-Com: -0.118D-02 0.281D-01 0.361D-01-0.552D-01-0.174D+00 0.216D+00
 Coeff-Com:  0.950D+00
 Coeff:     -0.118D-02 0.281D-01 0.361D-01-0.552D-01-0.174D+00 0.216D+00
 Coeff:      0.950D+00
 Gap=     0.383 Goal=   None    Shift=    0.000
 Gap=     0.383 Goal=   None    Shift=    0.000
 RMSDP=3.60D-08 MaxDP=8.16D-07 DE=-7.09D-11 OVMax= 3.37D-06

 Cycle  15  Pass 1  IDiag  1:
 RMSU=  1.79D-08    CP:  1.00D+00  1.06D+00  9.01D-01  1.68D+00  1.71D+00
                    CP:  1.26D+00  1.25D+00
 E= -661.304592005647     Delta-E=       -0.000000000035 Rises=F Damp=F
 DIIS: error= 6.05D-08 at cycle   8 NSaved=   8.
 NSaved= 8 IEnMin= 8 EnMin= -661.304592005647     IErMin= 8 ErrMin= 6.05D-08
 ErrMax= 6.05D-08  0.00D+00 EMaxC= 1.00D-01 BMatC= 5.19D-12 BMatP= 2.37D-11
 IDIUse=1 WtCom= 1.00D+00 WtEn= 0.00D+00
 Coeff-Com: -0.569D-03 0.115D-01 0.152D-01-0.576D-02-0.694D-01-0.121D+00
 Coeff-Com:  0.204D+00 0.966D+00
 Coeff:     -0.569D-03 0.115D-01 0.152D-01-0.576D-02-0.694D-01-0.121D+00
 Coeff:      0.204D+00 0.966D+00
 Gap=     0.383 Goal=   None    Shift=    0.000
 Gap=     0.383 Goal=   None    Shift=    0.000
 RMSDP=1.35D-08 MaxDP=2.71D-07 DE=-3.55D-11 OVMax= 1.08D-06

 Cycle  16  Pass 1  IDiag  1:
 RMSU=  6.46D-09    CP:  1.00D+00  1.06D+00  9.00D-01  1.68D+00  1.71D+00
                    CP:  1.28D+00  1.52D+00  1.33D+00
 E= -661.304592005638     Delta-E=        0.000000000009 Rises=F Damp=F
 DIIS: error= 2.63D-08 at cycle   9 NSaved=   9.
 NSaved= 9 IEnMin= 8 EnMin= -661.304592005647     IErMin= 9 ErrMin= 2.63D-08
 ErrMax= 2.63D-08  0.00D+00 EMaxC= 1.00D-01 BMatC= 9.52D-13 BMatP= 5.19D-12
 IDIUse=1 WtCom= 1.00D+00 WtEn= 0.00D+00
 Coeff-Com:  0.159D-03-0.462D-02-0.569D-02 0.156D-01 0.247D-01-0.117D+00
 Coeff-Com: -0.194D+00 0.348D+00 0.933D+00
 Coeff:      0.159D-03-0.462D-02-0.569D-02 0.156D-01 0.247D-01-0.117D+00
 Coeff:     -0.194D+00 0.348D+00 0.933D+00
 Gap=     0.383 Goal=   None    Shift=    0.000
 Gap=     0.383 Goal=   None    Shift=    0.000
 RMSDP=7.48D-09 MaxDP=1.67D-07 DE= 9.09D-12 OVMax= 7.92D-07

 SCF Done:  E(ULC-wPBE) =  -661.304592006     A.U. after   16 cycles
            NFock= 16  Conv=0.75D-08     -V/T= 2.0063
 <Sx>= 0.0000 <Sy>= 0.0000 <Sz>= 0.0000 <S**2>=-0.0000 S=-0.0000
 <L.S>= 0.000000000000E+00
 KE= 6.571626502008D+02 PE=-3.204417605554D+03 EE= 1.057211087425D+03
 Annihilation of the first spin contaminant:
 S**2 before annihilation    -0.0000,   after     0.0000
 Leave Link  502 at Thu Jul 23 10:01:26 2020, MaxMem=  4026531840 cpu:             537.0 elap:              67.4
 (Enter /opt/ohpc/pub/libs/gaussian/g16-A.03/sandybridge/g16/l601.exe)
 Copying SCF densities to generalized density rwf, IOpCl= 1 IROHF=0.

 **********************************************************************

            Population analysis using the SCF density.

 **********************************************************************

 Orbital symmetries:
 Alpha Orbitals:
       Occupied  (A) (A) (A) (A) (A) (A) (A) (A) (A) (A) (A) (A)
                 (A) (A) (A) (A) (A) (A) (A) (A) (A) (A) (A) (A)
                 (A) (A) (A) (A) (A) (A) (A) (A) (A) (A) (A) (A)
                 (A) (A) (A) (A) (A) (A) (A) (A) (A) (A) (A) (A)
                 (A)
       Virtual   (A) (A) (A) (A) (A) (A) (A) (A) (A) (A) (A) (A)
                 (A) (A) (A) (A) (A) (A) (A) (A) (A) (A) (A) (A)
                 (A) (A) (A) (A) (A) (A) (A) (A) (A) (A) (A) (A)
                 (A) (A) (A) (A) (A) (A) (A) (A) (A) (A) (A) (A)
                 (A) (A) (A) (A) (A) (A) (A) (A) (A) (A) (A) (A)
                 (A) (A) (A) (A) (A) (A) (A) (A) (A) (A) (A) (A)
                 (A) (A) (A) (A) (A) (A) (A) (A) (A) (A) (A) (A)
                 (A) (A) (A) (A) (A) (A) (A) (A) (A) (A) (A) (A)
                 (A) (A) (A) (A) (A) (A) (A) (A) (A) (A) (A) (A)
                 (A) (A) (A) (A) (A) (A) (A) (A) (A) (A) (A) (A)
                 (A) (A) (A) (A) (A) (A) (A) (A) (A) (A) (A) (A)
                 (A) (A) (A) (A) (A) (A) (A) (A) (A) (A) (A) (A)
                 (A) (A) (A) (A) (A) (A) (A) (A) (A) (A) (A) (A)
                 (A) (A) (A) (A) (A) (A) (A) (A) (A) (A) (A) (A)
                 (A) (A) (A) (A) (A) (A) (A) (A) (A) (A) (A) (A)
                 (A) (A) (A) (A) (A) (A) (A)
 Beta  Orbitals:
       Occupied  (A) (A) (A) (A) (A) (A) (A) (A) (A) (A) (A) (A)
                 (A) (A) (A) (A) (A) (A) (A) (A) (A) (A) (A) (A)
                 (A) (A) (A) (A) (A) (A) (A) (A) (A) (A) (A) (A)
                 (A) (A) (A) (A) (A) (A) (A) (A) (A) (A) (A) (A)
                 (A)
       Virtual   (A) (A) (A) (A) (A) (A) (A) (A) (A) (A) (A) (A)
                 (A) (A) (A) (A) (A) (A) (A) (A) (A) (A) (A) (A)
                 (A) (A) (A) (A) (A) (A) (A) (A) (A) (A) (A) (A)
                 (A) (A) (A) (A) (A) (A) (A) (A) (A) (A) (A) (A)
                 (A) (A) (A) (A) (A) (A) (A) (A) (A) (A) (A) (A)
                 (A) (A) (A) (A) (A) (A) (A) (A) (A) (A) (A) (A)
                 (A) (A) (A) (A) (A) (A) (A) (A) (A) (A) (A) (A)
                 (A) (A) (A) (A) (A) (A) (A) (A) (A) (A) (A) (A)
                 (A) (A) (A) (A) (A) (A) (A) (A) (A) (A) (A) (A)
                 (A) (A) (A) (A) (A) (A) (A) (A) (A) (A) (A) (A)
                 (A) (A) (A) (A) (A) (A) (A) (A) (A) (A) (A) (A)
                 (A) (A) (A) (A) (A) (A) (A) (A) (A) (A) (A) (A)
                 (A) (A) (A) (A) (A) (A) (A) (A) (A) (A) (A) (A)
                 (A) (A) (A) (A) (A) (A) (A) (A) (A) (A) (A) (A)
                 (A) (A) (A) (A) (A) (A) (A) (A) (A) (A) (A) (A)
                 (A) (A) (A) (A) (A) (A) (A)
 The electronic state is 1-A.
 Alpha  occ. eigenvalues --  -24.47782 -24.47038 -10.19131 -10.18446 -10.12097
 Alpha  occ. eigenvalues --  -10.11751 -10.11610 -10.11086 -10.11028 -10.10951
 Alpha  occ. eigenvalues --  -10.10905 -10.10648 -10.10582 -10.10233  -1.31460
 Alpha  occ. eigenvalues --   -1.30494  -1.01842  -0.99466  -0.92467  -0.88596
 Alpha  occ. eigenvalues --   -0.87627  -0.85542  -0.75975  -0.75146  -0.73342
 Alpha  occ. eigenvalues --   -0.71393  -0.66982  -0.64543  -0.61911  -0.60831
 Alpha  occ. eigenvalues --   -0.60354  -0.58155  -0.57118  -0.56428  -0.56328
 Alpha  occ. eigenvalues --   -0.55463  -0.54346  -0.51193  -0.50526  -0.49133
 Alpha  occ. eigenvalues --   -0.48637  -0.47616  -0.47462  -0.45544  -0.43331
 Alpha  occ. eigenvalues --   -0.38824  -0.36634  -0.34400  -0.33225
 Alpha virt. eigenvalues --    0.05067   0.06042   0.07578   0.08953   0.13908
 Alpha virt. eigenvalues --    0.14604   0.17978   0.19228   0.20973   0.21383
 Alpha virt. eigenvalues --    0.22560   0.23123   0.23790   0.24595   0.26153
 Alpha virt. eigenvalues --    0.26422   0.33079   0.34793   0.38510   0.38955
 Alpha virt. eigenvalues --    0.39347   0.40273   0.41246   0.42200   0.45124
 Alpha virt. eigenvalues --    0.49919   0.52236   0.52958   0.54338   0.54888
 Alpha virt. eigenvalues --    0.55806   0.56931   0.57451   0.58228   0.59146
 Alpha virt. eigenvalues --    0.59822   0.60537   0.61069   0.61364   0.61951
 Alpha virt. eigenvalues --    0.62584   0.63219   0.63571   0.64881   0.66812
 Alpha virt. eigenvalues --    0.67193   0.68294   0.69313   0.69777   0.70664
 Alpha virt. eigenvalues --    0.72616   0.73292   0.73674   0.75145   0.75698
 Alpha virt. eigenvalues --    0.77473   0.78577   0.79191   0.81597   0.82787
 Alpha virt. eigenvalues --    0.83261   0.84990   0.87739   0.88998   0.92882
 Alpha virt. eigenvalues --    0.93607   0.95891   0.97725   0.99235   0.99953
 Alpha virt. eigenvalues --    1.01609   1.02592   1.04407   1.05523   1.07703
 Alpha virt. eigenvalues --    1.10049   1.10593   1.11316   1.11753   1.12756
 Alpha virt. eigenvalues --    1.13473   1.15111   1.15259   1.18227   1.18781
 Alpha virt. eigenvalues --    1.19431   1.21515   1.23196   1.24423   1.25763
 Alpha virt. eigenvalues --    1.27359   1.31252   1.31706   1.36051   1.38953
 Alpha virt. eigenvalues --    1.41134   1.42352   1.43975   1.47136   1.48075
 Alpha virt. eigenvalues --    1.54518   1.54904   1.55614   1.58080   1.58986
 Alpha virt. eigenvalues --    1.59613   1.60765   1.61881   1.62426   1.64188
 Alpha virt. eigenvalues --    1.67754   1.69499   1.70472   1.71905   1.72587
 Alpha virt. eigenvalues --    1.72837   1.73207   1.73266   1.74445   1.75430
 Alpha virt. eigenvalues --    1.76946   1.77985   1.78923   1.80170   1.81315
 Alpha virt. eigenvalues --    1.81684   1.83061   1.85392   1.85810   1.87802
 Alpha virt. eigenvalues --    1.88521   1.89530   1.92272   1.93524   1.94109
 Alpha virt. eigenvalues --    1.94619   1.95054   1.96755   1.98952   2.00236
 Alpha virt. eigenvalues --    2.01567   2.03752   2.04568   2.05015   2.06138
 Alpha virt. eigenvalues --    2.09346   2.10887   2.11303   2.14160   2.22404
 Alpha virt. eigenvalues --    2.23343   2.27341   2.30035   2.31810   2.37782
 Alpha virt. eigenvalues --    2.38454   2.40646   2.42439   2.43943   2.50942
 Alpha virt. eigenvalues --    2.51694   2.54849   2.60660   2.61877   2.64676
 Alpha virt. eigenvalues --    2.67184   2.72022   2.73201   2.73281   2.79599
 Alpha virt. eigenvalues --    2.82144   2.85085   2.86083   2.93951   3.02738
 Alpha virt. eigenvalues --    3.47293   3.55765   3.66320   3.67228   3.69465
 Alpha virt. eigenvalues --    3.70574   3.84037   3.84318   4.03274   4.04734
 Alpha virt. eigenvalues --    4.24578   4.29730
  Beta  occ. eigenvalues --  -24.47782 -24.47038 -10.19131 -10.18446 -10.12097
  Beta  occ. eigenvalues --  -10.11751 -10.11610 -10.11086 -10.11028 -10.10951
  Beta  occ. eigenvalues --  -10.10905 -10.10648 -10.10582 -10.10233  -1.31460
  Beta  occ. eigenvalues --   -1.30494  -1.01842  -0.99466  -0.92467  -0.88596
  Beta  occ. eigenvalues --   -0.87627  -0.85542  -0.75975  -0.75146  -0.73342
  Beta  occ. eigenvalues --   -0.71393  -0.66982  -0.64543  -0.61911  -0.60831
  Beta  occ. eigenvalues --   -0.60354  -0.58155  -0.57118  -0.56428  -0.56328
  Beta  occ. eigenvalues --   -0.55463  -0.54346  -0.51193  -0.50526  -0.49133
  Beta  occ. eigenvalues --   -0.48637  -0.47616  -0.47462  -0.45544  -0.43331
  Beta  occ. eigenvalues --   -0.38824  -0.36634  -0.34400  -0.33225
  Beta virt. eigenvalues --    0.05067   0.06042   0.07578   0.08953   0.13908
  Beta virt. eigenvalues --    0.14604   0.17978   0.19228   0.20973   0.21383
  Beta virt. eigenvalues --    0.22560   0.23123   0.23790   0.24595   0.26153
  Beta virt. eigenvalues --    0.26422   0.33079   0.34793   0.38510   0.38955
  Beta virt. eigenvalues --    0.39347   0.40273   0.41246   0.42200   0.45124
  Beta virt. eigenvalues --    0.49919   0.52236   0.52958   0.54338   0.54888
  Beta virt. eigenvalues --    0.55806   0.56931   0.57451   0.58228   0.59146
  Beta virt. eigenvalues --    0.59822   0.60537   0.61069   0.61364   0.61951
  Beta virt. eigenvalues --    0.62584   0.63219   0.63571   0.64881   0.66812
  Beta virt. eigenvalues --    0.67193   0.68294   0.69313   0.69777   0.70664
  Beta virt. eigenvalues --    0.72616   0.73292   0.73674   0.75145   0.75698
  Beta virt. eigenvalues --    0.77473   0.78577   0.79191   0.81597   0.82787
  Beta virt. eigenvalues --    0.83261   0.84990   0.87739   0.88998   0.92882
  Beta virt. eigenvalues --    0.93607   0.95891   0.97725   0.99235   0.99953
  Beta virt. eigenvalues --    1.01609   1.02592   1.04407   1.05523   1.07703
  Beta virt. eigenvalues --    1.10049   1.10593   1.11316   1.11753   1.12756
  Beta virt. eigenvalues --    1.13473   1.15111   1.15259   1.18227   1.18781
  Beta virt. eigenvalues --    1.19431   1.21515   1.23196   1.24423   1.25763
  Beta virt. eigenvalues --    1.27359   1.31252   1.31706   1.36051   1.38953
  Beta virt. eigenvalues --    1.41134   1.42352   1.43975   1.47136   1.48075
  Beta virt. eigenvalues --    1.54518   1.54904   1.55614   1.58080   1.58986
  Beta virt. eigenvalues --    1.59613   1.60765   1.61881   1.62426   1.64188
  Beta virt. eigenvalues --    1.67754   1.69499   1.70472   1.71905   1.72587
  Beta virt. eigenvalues --    1.72837   1.73207   1.73266   1.74445   1.75430
  Beta virt. eigenvalues --    1.76946   1.77985   1.78923   1.80170   1.81315
  Beta virt. eigenvalues --    1.81684   1.83061   1.85392   1.85810   1.87802
  Beta virt. eigenvalues --    1.88521   1.89530   1.92272   1.93524   1.94109
  Beta virt. eigenvalues --    1.94619   1.95054   1.96755   1.98952   2.00236
  Beta virt. eigenvalues --    2.01567   2.03752   2.04568   2.05015   2.06138
  Beta virt. eigenvalues --    2.09346   2.10887   2.11303   2.14160   2.22404
  Beta virt. eigenvalues --    2.23343   2.27341   2.30035   2.31810   2.37782
  Beta virt. eigenvalues --    2.38454   2.40646   2.42439   2.43943   2.50942
  Beta virt. eigenvalues --    2.51694   2.54849   2.60660   2.61877   2.64676
  Beta virt. eigenvalues --    2.67184   2.72022   2.73201   2.73281   2.79599
  Beta virt. eigenvalues --    2.82144   2.85085   2.86083   2.93951   3.02738
  Beta virt. eigenvalues --    3.47293   3.55765   3.66320   3.67228   3.69465
  Beta virt. eigenvalues --    3.70574   3.84037   3.84318   4.03274   4.04734
  Beta virt. eigenvalues --    4.24578   4.29730
          Condensed to atoms (all electrons):
               1          2          3          4          5          6
     1  C    4.776999   0.467647   0.016404   0.004257  -0.070882   0.003530
     2  C    0.467647   4.899534   0.413418  -0.054229  -0.014432  -0.084696
     3  C    0.016404   0.413418   4.923984   0.442679   0.248039   0.042458
     4  F    0.004257  -0.054229   0.442679   8.805224  -0.076711   0.003824
     5  C   -0.070882  -0.014432   0.248039  -0.076711   5.459112   0.434498
     6  C    0.003530  -0.084696   0.042458   0.003824   0.434498   4.697017
     7  C    0.487520   0.002351  -0.083793  -0.000291   0.020421   0.494660
     8  C   -0.000338   0.007737  -0.100248   0.005778   0.293995  -0.082719
     9  C    0.000035  -0.000345   0.000480  -0.000542  -0.090246  -0.011272
    10  C   -0.000001   0.000010  -0.000197  -0.000002   0.009193   0.000107
    11  C    0.000000  -0.000001  -0.000016   0.000003  -0.001278   0.000021
    12  C   -0.000002   0.000016   0.000314  -0.000108   0.011240  -0.000282
    13  C   -0.000101   0.000651  -0.006084   0.002911  -0.107294  -0.000965
    14  F   -0.000016   0.000210   0.005444  -0.000606   0.002658  -0.000650
    15  H    0.396735  -0.036516   0.008137  -0.000042  -0.001116   0.007835
    16  H   -0.035880   0.388504  -0.036825   0.001042   0.010569  -0.000287
    17  H    0.010506  -0.001709   0.012727  -0.000004  -0.047824   0.415520
    18  H   -0.044200   0.009050  -0.000215   0.000001   0.009372  -0.044519
    19  H   -0.000015  -0.000066   0.000623   0.000005  -0.019413   0.001500
    20  H    0.000000  -0.000000   0.000001   0.000000  -0.000234  -0.000002
    21  H   -0.000000   0.000000   0.000001   0.000000   0.000009  -0.000000
    22  H   -0.000000  -0.000000  -0.000019   0.000009  -0.000201   0.000007
               7          8          9         10         11         12
     1  C    0.487520  -0.000338   0.000035  -0.000001   0.000000  -0.000002
     2  C    0.002351   0.007737  -0.000345   0.000010  -0.000001   0.000016
     3  C   -0.083793  -0.100248   0.000480  -0.000197  -0.000016   0.000314
     4  F   -0.000291   0.005778  -0.000542  -0.000002   0.000003  -0.000108
     5  C    0.020421   0.293995  -0.090246   0.009193  -0.001278   0.011240
     6  C    0.494660  -0.082719  -0.011272   0.000107   0.000021  -0.000282
     7  C    4.803199   0.007596   0.000028   0.000008  -0.000001   0.000012
     8  C    0.007596   5.415445   0.441188   0.020074  -0.084166   0.002018
     9  C    0.000028   0.441188   4.748959   0.490281   0.011311  -0.097833
    10  C    0.000008   0.020074   0.490281   4.818051   0.480917   0.010262
    11  C   -0.000001  -0.084166   0.011311   0.480917   4.841771   0.401742
    12  C    0.000012   0.002018  -0.097833   0.010262   0.401742   4.974849
    13  C   -0.000016   0.243565   0.063837  -0.090733   0.043045   0.390920
    14  F    0.000021  -0.076365   0.004423  -0.000336   0.005101  -0.062469
    15  H   -0.044346   0.000014   0.000000   0.000000   0.000000   0.000000
    16  H    0.008542  -0.000318   0.000002   0.000000  -0.000000  -0.000000
    17  H   -0.047815  -0.019332   0.001919  -0.000094  -0.000007  -0.000068
    18  H    0.398182  -0.000270  -0.000001  -0.000000  -0.000000  -0.000000
    19  H   -0.000138  -0.052083   0.412228  -0.045860   0.010486  -0.001764
    20  H   -0.000000   0.011179  -0.039031   0.397918  -0.047869   0.008193
    21  H    0.000000  -0.000815   0.008256  -0.042046   0.402475  -0.042976
    22  H   -0.000000   0.011504  -0.000942   0.007997  -0.046554   0.393516
              13         14         15         16         17         18
     1  C   -0.000101  -0.000016   0.396735  -0.035880   0.010506  -0.044200
     2  C    0.000651   0.000210  -0.036516   0.388504  -0.001709   0.009050
     3  C   -0.006084   0.005444   0.008137  -0.036825   0.012727  -0.000215
     4  F    0.002911  -0.000606  -0.000042   0.001042  -0.000004   0.000001
     5  C   -0.107294   0.002658  -0.001116   0.010569  -0.047824   0.009372
     6  C   -0.000965  -0.000650   0.007835  -0.000287   0.415520  -0.044519
     7  C   -0.000016   0.000021  -0.044346   0.008542  -0.047815   0.398182
     8  C    0.243565  -0.076365   0.000014  -0.000318  -0.019332  -0.000270
     9  C    0.063837   0.004423   0.000000   0.000002   0.001919  -0.000001
    10  C   -0.090733  -0.000336   0.000000   0.000000  -0.000094  -0.000000
    11  C    0.043045   0.005101   0.000000  -0.000000  -0.000007  -0.000000
    12  C    0.390920  -0.062469   0.000000  -0.000000  -0.000068  -0.000000
    13  C    4.907121   0.444886  -0.000000   0.000001   0.000222   0.000004
    14  F    0.444886   8.824237  -0.000000   0.000015  -0.000008   0.000000
    15  H   -0.000000  -0.000000   0.671176  -0.014569  -0.000161  -0.012283
    16  H    0.000001   0.000015  -0.014569   0.665953   0.000043  -0.000225
    17  H    0.000222  -0.000008  -0.000161   0.000043   0.726857  -0.013211
    18  H    0.000004   0.000000  -0.012283  -0.000225  -0.013211   0.678333
    19  H    0.011976  -0.000017  -0.000001   0.000001   0.001133   0.000012
    20  H   -0.000609   0.000001  -0.000000   0.000000   0.000010   0.000000
    21  H    0.007994  -0.000031  -0.000000  -0.000000  -0.000001  -0.000000
    22  H   -0.036131  -0.000043  -0.000000   0.000000   0.000001   0.000000
              19         20         21         22
     1  C   -0.000015   0.000000  -0.000000  -0.000000
     2  C   -0.000066  -0.000000   0.000000  -0.000000
     3  C    0.000623   0.000001   0.000001  -0.000019
     4  F    0.000005   0.000000   0.000000   0.000009
     5  C   -0.019413  -0.000234   0.000009  -0.000201
     6  C    0.001500  -0.000002  -0.000000   0.000007
     7  C   -0.000138  -0.000000   0.000000  -0.000000
     8  C   -0.052083   0.011179  -0.000815   0.011504
     9  C    0.412228  -0.039031   0.008256  -0.000942
    10  C   -0.045860   0.397918  -0.042046   0.007997
    11  C    0.010486  -0.047869   0.402475  -0.046554
    12  C   -0.001764   0.008193  -0.042976   0.393516
    13  C    0.011976  -0.000609   0.007994  -0.036131
    14  F   -0.000017   0.000001  -0.000031  -0.000043
    15  H   -0.000001  -0.000000  -0.000000  -0.000000
    16  H    0.000001   0.000000  -0.000000   0.000000
    17  H    0.001133   0.000010  -0.000001   0.000001
    18  H    0.000012   0.000000  -0.000000   0.000000
    19  H    0.702186  -0.014734  -0.000199   0.000041
    20  H   -0.014734   0.672259  -0.010539  -0.000145
    21  H   -0.000199  -0.010539   0.665022  -0.012372
    22  H    0.000041  -0.000145  -0.012372   0.657111
          Atomic-Atomic Spin Densities.
               1          2          3          4          5          6
     1  C    0.000000  -0.000000   0.000000   0.000000  -0.000000   0.000000
     2  C   -0.000000   0.000000  -0.000000  -0.000000  -0.000000  -0.000000
     3  C    0.000000  -0.000000  -0.000000  -0.000000   0.000000   0.000000
     4  F    0.000000  -0.000000  -0.000000  -0.000000   0.000000   0.000000
     5  C   -0.000000  -0.000000   0.000000   0.000000   0.000000  -0.000000
     6  C    0.000000  -0.000000   0.000000   0.000000  -0.000000   0.000000
     7  C   -0.000000   0.000000  -0.000000  -0.000000   0.000000  -0.000000
     8  C   -0.000000   0.000000   0.000000  -0.000000   0.000000  -0.000000
     9  C   -0.000000   0.000000  -0.000000  -0.000000  -0.000000   0.000000
    10  C   -0.000000   0.000000   0.000000   0.000000  -0.000000  -0.000000
    11  C   -0.000000   0.000000  -0.000000   0.000000   0.000000   0.000000
    12  C    0.000000  -0.000000  -0.000000  -0.000000  -0.000000  -0.000000
    13  C   -0.000000   0.000000  -0.000000   0.000000  -0.000000   0.000000
    14  F   -0.000000  -0.000000  -0.000000  -0.000000  -0.000000   0.000000
    15  H    0.000000   0.000000   0.000000   0.000000  -0.000000   0.000000
    16  H    0.000000  -0.000000   0.000000  -0.000000  -0.000000  -0.000000
    17  H    0.000000  -0.000000  -0.000000   0.000000  -0.000000   0.000000
    18  H   -0.000000   0.000000  -0.000000  -0.000000   0.000000  -0.000000
    19  H   -0.000000   0.000000  -0.000000  -0.000000   0.000000   0.000000
    20  H    0.000000  -0.000000  -0.000000   0.000000   0.000000   0.000000
    21  H   -0.000000   0.000000   0.000000  -0.000000  -0.000000  -0.000000
    22  H    0.000000  -0.000000  -0.000000  -0.000000   0.000000   0.000000
               7          8          9         10         11         12
     1  C   -0.000000  -0.000000  -0.000000  -0.000000  -0.000000   0.000000
     2  C    0.000000   0.000000   0.000000   0.000000   0.000000  -0.000000
     3  C   -0.000000   0.000000  -0.000000   0.000000  -0.000000  -0.000000
     4  F   -0.000000  -0.000000  -0.000000   0.000000   0.000000  -0.000000
     5  C    0.000000   0.000000  -0.000000  -0.000000   0.000000  -0.000000
     6  C   -0.000000  -0.000000   0.000000  -0.000000   0.000000  -0.000000
     7  C   -0.000000   0.000000   0.000000  -0.000000   0.000000  -0.000000
     8  C    0.000000   0.000000   0.000000   0.000000   0.000000  -0.000000
     9  C    0.000000   0.000000  -0.000000  -0.000000  -0.000000   0.000000
    10  C   -0.000000   0.000000  -0.000000   0.000000   0.000000  -0.000000
    11  C    0.000000   0.000000  -0.000000   0.000000  -0.000000   0.000000
    12  C   -0.000000  -0.000000   0.000000  -0.000000   0.000000   0.000000
    13  C    0.000000   0.000000  -0.000000   0.000000  -0.000000   0.000000
    14  F    0.000000   0.000000  -0.000000   0.000000  -0.000000  -0.000000
    15  H   -0.000000  -0.000000  -0.000000   0.000000  -0.000000   0.000000
    16  H    0.000000   0.000000   0.000000  -0.000000   0.000000  -0.000000
    17  H   -0.000000   0.000000  -0.000000  -0.000000  -0.000000   0.000000
    18  H    0.000000  -0.000000   0.000000  -0.000000   0.000000  -0.000000
    19  H    0.000000   0.000000  -0.000000  -0.000000  -0.000000   0.000000
    20  H   -0.000000   0.000000  -0.000000   0.000000   0.000000   0.000000
    21  H    0.000000   0.000000   0.000000  -0.000000  -0.000000  -0.000000
    22  H   -0.000000  -0.000000   0.000000  -0.000000   0.000000   0.000000
              13         14         15         16         17         18
     1  C   -0.000000  -0.000000   0.000000   0.000000   0.000000  -0.000000
     2  C    0.000000  -0.000000   0.000000  -0.000000  -0.000000   0.000000
     3  C   -0.000000  -0.000000   0.000000   0.000000  -0.000000  -0.000000
     4  F    0.000000  -0.000000   0.000000  -0.000000   0.000000  -0.000000
     5  C   -0.000000  -0.000000  -0.000000  -0.000000  -0.000000   0.000000
     6  C    0.000000   0.000000   0.000000  -0.000000   0.000000  -0.000000
     7  C    0.000000   0.000000  -0.000000   0.000000  -0.000000   0.000000
     8  C    0.000000   0.000000  -0.000000   0.000000   0.000000  -0.000000
     9  C   -0.000000  -0.000000  -0.000000   0.000000  -0.000000   0.000000
    10  C    0.000000   0.000000   0.000000  -0.000000  -0.000000  -0.000000
    11  C   -0.000000  -0.000000  -0.000000   0.000000  -0.000000   0.000000
    12  C    0.000000  -0.000000   0.000000  -0.000000   0.000000  -0.000000
    13  C   -0.000000   0.000000   0.000000  -0.000000  -0.000000   0.000000
    14  F    0.000000   0.000000  -0.000000  -0.000000  -0.000000   0.000000
    15  H    0.000000  -0.000000   0.000000  -0.000000   0.000000  -0.000000
    16  H   -0.000000  -0.000000  -0.000000  -0.000000  -0.000000   0.000000
    17  H   -0.000000  -0.000000   0.000000  -0.000000   0.000000  -0.000000
    18  H    0.000000   0.000000  -0.000000   0.000000  -0.000000   0.000000
    19  H   -0.000000  -0.000000  -0.000000   0.000000  -0.000000   0.000000
    20  H    0.000000   0.000000   0.000000  -0.000000   0.000000  -0.000000
    21  H    0.000000  -0.000000  -0.000000   0.000000  -0.000000   0.000000
    22  H   -0.000000  -0.000000   0.000000  -0.000000   0.000000  -0.000000
              19         20         21         22
     1  C   -0.000000   0.000000  -0.000000   0.000000
     2  C    0.000000  -0.000000   0.000000  -0.000000
     3  C   -0.000000  -0.000000   0.000000  -0.000000
     4  F   -0.000000   0.000000  -0.000000  -0.000000
     5  C    0.000000   0.000000  -0.000000   0.000000
     6  C    0.000000   0.000000  -0.000000   0.000000
     7  C    0.000000  -0.000000   0.000000  -0.000000
     8  C    0.000000   0.000000   0.000000  -0.000000
     9  C   -0.000000  -0.000000   0.000000   0.000000
    10  C   -0.000000   0.000000  -0.000000  -0.000000
    11  C   -0.000000   0.000000  -0.000000   0.000000
    12  C    0.000000   0.000000  -0.000000   0.000000
    13  C   -0.000000   0.000000   0.000000  -0.000000
    14  F   -0.000000   0.000000  -0.000000  -0.000000
    15  H   -0.000000   0.000000  -0.000000   0.000000
    16  H    0.000000  -0.000000   0.000000  -0.000000
    17  H   -0.000000   0.000000  -0.000000   0.000000
    18  H    0.000000  -0.000000   0.000000  -0.000000
    19  H   -0.000000   0.000000  -0.000000   0.000000
    20  H    0.000000   0.000000  -0.000000  -0.000000
    21  H   -0.000000  -0.000000   0.000000  -0.000000
    22  H    0.000000  -0.000000  -0.000000  -0.000000
 Mulliken charges and spin densities:
               1          2
     1  C   -0.012197   0.000000
     2  C    0.002866   0.000000
     3  C    0.112687  -0.000000
     4  F   -0.133197   0.000000
     5  C   -0.069474  -0.000000
     6  C    0.124416   0.000000
     7  C   -0.046140  -0.000000
     8  C   -0.043441   0.000000
     9  C    0.057264  -0.000000
    10  C   -0.055550   0.000000
    11  C   -0.016980  -0.000000
    12  C    0.012419   0.000000
    13  C    0.124802  -0.000000
    14  F   -0.146455   0.000000
    15  H    0.025137   0.000000
    16  H    0.013434  -0.000000
    17  H   -0.038705   0.000000
    18  H    0.019971   0.000000
    19  H   -0.005902  -0.000000
    20  H    0.023602   0.000000
    21  H    0.025220   0.000000
    22  H    0.026222   0.000000
 Sum of Mulliken charges =  -0.00000  -0.00000
 Mulliken charges and spin densities with hydrogens summed into heavy atoms:
               1          2
     1  C    0.012940   0.000000
     2  C    0.016300   0.000000
     3  C    0.112687  -0.000000
     4  F   -0.133197   0.000000
     5  C   -0.069474  -0.000000
     6  C    0.085711   0.000000
     7  C   -0.026169  -0.000000
     8  C   -0.043441   0.000000
     9  C    0.051362  -0.000000
    10  C   -0.031948   0.000000
    11  C    0.008240  -0.000000
    12  C    0.038641   0.000000
    13  C    0.124802  -0.000000
    14  F   -0.146455   0.000000
 Electronic spatial extent (au):  <R**2>=           2638.2935
 Charge=             -0.0000 electrons
 Dipole moment (field-independent basis, Debye):
    X=              0.0467    Y=             -1.9110    Z=              0.0176  Tot=              1.9117
 Quadrupole moment (field-independent basis, Debye-Ang):
   XX=            -63.4746   YY=            -76.0674   ZZ=            -81.2999
   XY=              0.4364   XZ=              0.3219   YZ=             -0.1383
 Traceless Quadrupole moment (field-independent basis, Debye-Ang):
   XX=             10.1394   YY=             -2.4534   ZZ=             -7.6860
   XY=              0.4364   XZ=              0.3219   YZ=             -0.1383
 Octapole moment (field-independent basis, Debye-Ang**2):
  XXX=              0.0412  YYY=             15.0737  ZZZ=              0.3748  XYY=             -0.3666
  XXY=             13.7929  XXZ=              0.5815  XZZ=             -0.2076  YZZ=              5.4913
  YYZ=             -0.4783  XYZ=            -12.6122
 Hexadecapole moment (field-independent basis, Debye-Ang**3):
 XXXX=          -2226.0610 YYYY=           -642.4762 ZZZZ=           -287.4594 XXXY=              2.6116
 XXXZ=            -17.4482 YYYX=              2.3562 YYYZ=              0.6523 ZZZX=            -20.1232
 ZZZY=             -0.5731 XXYY=           -503.8585 XXZZ=           -494.9940 YYZZ=           -151.7332
 XXYZ=              0.0328 YYXZ=              9.7332 ZZXY=             -0.8331
 N-N= 8.287392759227D+02 E-N=-3.204417608353D+03  KE= 6.571626502008D+02
                          Isotropic Fermi Contact Couplings
        Atom                 a.u.       MegaHertz       Gauss      10(-4) cm-1
     1  C(13)             -0.00000      -0.00000      -0.00000      -0.00000
     2  C(13)             -0.00000      -0.00000      -0.00000      -0.00000
     3  C(13)             -0.00000      -0.00000      -0.00000      -0.00000
     4  F(19)             -0.00000      -0.00000      -0.00000      -0.00000
     5  C(13)             -0.00000      -0.00000      -0.00000      -0.00000
     6  C(13)              0.00000       0.00000       0.00000       0.00000
     7  C(13)             -0.00000      -0.00000      -0.00000      -0.00000
     8  C(13)              0.00000       0.00000       0.00000       0.00000
     9  C(13)              0.00000       0.00000       0.00000       0.00000
    10  C(13)             -0.00000      -0.00000      -0.00000      -0.00000
    11  C(13)              0.00000       0.00000       0.00000       0.00000
    12  C(13)              0.00000       0.00000       0.00000       0.00000
    13  C(13)             -0.00000      -0.00000      -0.00000      -0.00000
    14  F(19)             -0.00000      -0.00000      -0.00000      -0.00000
    15  H(1)               0.00000       0.00000       0.00000       0.00000
    16  H(1)              -0.00000      -0.00000      -0.00000      -0.00000
    17  H(1)              -0.00000      -0.00000      -0.00000      -0.00000
    18  H(1)               0.00000       0.00000       0.00000       0.00000
    19  H(1)              -0.00000      -0.00000      -0.00000      -0.00000
    20  H(1)               0.00000       0.00000       0.00000       0.00000
    21  H(1)               0.00000       0.00000       0.00000       0.00000
    22  H(1)              -0.00000      -0.00000      -0.00000      -0.00000
 --------------------------------------------------------
       Center         ----  Spin Dipole Couplings  ----
                      3XX-RR        3YY-RR        3ZZ-RR
 --------------------------------------------------------
     1   Atom        0.000000     -0.000000      0.000000
     2   Atom       -0.000000      0.000000      0.000000
     3   Atom        0.000000      0.000000     -0.000000
     4   Atom        0.000000     -0.000000     -0.000000
     5   Atom        0.000000     -0.000000     -0.000000
     6   Atom        0.000000      0.000000     -0.000000
     7   Atom        0.000000      0.000000     -0.000000
     8   Atom        0.000000      0.000000     -0.000000
     9   Atom        0.000000     -0.000000     -0.000000
    10   Atom       -0.000000     -0.000000      0.000000
    11   Atom       -0.000000      0.000000      0.000000
    12   Atom        0.000000      0.000000     -0.000000
    13   Atom       -0.000000      0.000000      0.000000
    14   Atom        0.000000     -0.000000     -0.000000
    15   Atom        0.000000     -0.000000     -0.000000
    16   Atom        0.000000     -0.000000      0.000000
    17   Atom        0.000000     -0.000000      0.000000
    18   Atom        0.000000     -0.000000     -0.000000
    19   Atom        0.000000     -0.000000      0.000000
    20   Atom        0.000000      0.000000     -0.000000
    21   Atom       -0.000000      0.000000      0.000000
    22   Atom       -0.000000     -0.000000      0.000000
 --------------------------------------------------------
                        XY            XZ            YZ
 --------------------------------------------------------
     1   Atom       -0.000000      0.000000      0.000000
     2   Atom       -0.000000     -0.000000     -0.000000
     3   Atom       -0.000000      0.000000     -0.000000
     4   Atom       -0.000000      0.000000      0.000000
     5   Atom       -0.000000     -0.000000      0.000000
     6   Atom       -0.000000      0.000000     -0.000000
     7   Atom       -0.000000      0.000000     -0.000000
     8   Atom       -0.000000      0.000000      0.000000
     9   Atom        0.000000      0.000000     -0.000000
    10   Atom       -0.000000      0.000000      0.000000
    11   Atom       -0.000000     -0.000000     -0.000000
    12   Atom       -0.000000      0.000000      0.000000
    13   Atom       -0.000000     -0.000000     -0.000000
    14   Atom       -0.000000     -0.000000     -0.000000
    15   Atom        0.000000     -0.000000     -0.000000
    16   Atom       -0.000000      0.000000      0.000000
    17   Atom        0.000000     -0.000000     -0.000000
    18   Atom       -0.000000      0.000000     -0.000000
    19   Atom       -0.000000     -0.000000     -0.000000
    20   Atom        0.000000      0.000000      0.000000
    21   Atom       -0.000000      0.000000      0.000000
    22   Atom        0.000000     -0.000000     -0.000000
 --------------------------------------------------------


 ---------------------------------------------------------------------------------
              Anisotropic Spin Dipole Couplings in Principal Axis System
 ---------------------------------------------------------------------------------

       Atom             a.u.   MegaHertz   Gauss  10(-4) cm-1        Axes

              Baa    -0.0000    -0.000    -0.000    -0.000  0.0059  0.9984 -0.0566
     1 C(13)  Bbb     0.0000     0.000     0.000     0.000 -0.1676  0.0568  0.9842
              Bcc     0.0000     0.000     0.000     0.000  0.9858  0.0037  0.1677
 
              Baa    -0.0000    -0.000    -0.000    -0.000  0.9722  0.1163  0.2034
     2 C(13)  Bbb     0.0000     0.000     0.000     0.000 -0.1129  0.9932 -0.0284
              Bcc     0.0000     0.000     0.000     0.000 -0.2053  0.0047  0.9787
 
              Baa    -0.0000    -0.000    -0.000    -0.000  0.1823  0.5751  0.7975
     3 C(13)  Bbb    -0.0000    -0.000    -0.000    -0.000  0.8934  0.2419 -0.3786
              Bcc     0.0000     0.000     0.000     0.000 -0.4107  0.7815 -0.4697
 
              Baa    -0.0000    -0.000    -0.000    -0.000  0.2983  0.9308 -0.2111
     4 F(19)  Bbb    -0.0000    -0.000    -0.000    -0.000 -0.3127  0.3043  0.8998
              Bcc     0.0000     0.000     0.000     0.000  0.9018 -0.2024  0.3819
 
              Baa    -0.0000    -0.000    -0.000    -0.000  0.0711  0.9611 -0.2668
     5 C(13)  Bbb    -0.0000    -0.000    -0.000    -0.000  0.1448  0.2547  0.9561
              Bcc     0.0000     0.000     0.000     0.000  0.9869 -0.1066 -0.1211
 
              Baa    -0.0000    -0.000    -0.000    -0.000  0.1445  0.3129  0.9387
     6 C(13)  Bbb    -0.0000    -0.000    -0.000    -0.000  0.8359  0.4690 -0.2851
              Bcc     0.0000     0.000     0.000     0.000 -0.5295  0.8259 -0.1938
 
              Baa    -0.0000    -0.000    -0.000    -0.000 -0.0972  0.3037  0.9478
     7 C(13)  Bbb    -0.0000    -0.000    -0.000    -0.000  0.7627  0.6346 -0.1252
              Bcc     0.0000     0.000     0.000     0.000 -0.6394  0.7107 -0.2933
 
              Baa    -0.0000    -0.000    -0.000    -0.000 -0.4011 -0.3195  0.8585
     8 C(13)  Bbb     0.0000     0.000     0.000     0.000  0.4057  0.7783  0.4792
              Bcc     0.0000     0.000     0.000     0.000  0.8213 -0.5405  0.1826
 
              Baa    -0.0000    -0.000    -0.000    -0.000 -0.4195  0.6911  0.5885
     9 C(13)  Bbb     0.0000     0.000     0.000     0.000  0.0083 -0.6454  0.7638
              Bcc     0.0000     0.000     0.000     0.000  0.9077  0.3253  0.2650
 
              Baa    -0.0000    -0.000    -0.000    -0.000  0.4705  0.6438 -0.6035
    10 C(13)  Bbb     0.0000     0.000     0.000     0.000  0.8339 -0.5480  0.0655
              Bcc     0.0000     0.000     0.000     0.000  0.2886  0.5340  0.7947
 
              Baa    -0.0000    -0.000    -0.000    -0.000  0.9083  0.1411  0.3938
    11 C(13)  Bbb     0.0000     0.000     0.000     0.000 -0.3642 -0.1963  0.9104
              Bcc     0.0000     0.000     0.000     0.000 -0.2058  0.9703  0.1269
 
              Baa    -0.0000    -0.000    -0.000    -0.000 -0.1112 -0.4221  0.8997
    12 C(13)  Bbb     0.0000     0.000     0.000     0.000  0.9936 -0.0658  0.0919
              Bcc     0.0000     0.000     0.000     0.000  0.0204  0.9042  0.4267
 
              Baa    -0.0000    -0.000    -0.000    -0.000  0.9133  0.2986  0.2769
    13 C(13)  Bbb     0.0000     0.000     0.000     0.000 -0.3763  0.3591  0.8541
              Bcc     0.0000     0.000     0.000     0.000 -0.1556  0.8842 -0.4404
 
              Baa    -0.0000    -0.000    -0.000    -0.000  0.2442  0.8615  0.4451
    14 F(19)  Bbb     0.0000     0.000     0.000     0.000 -0.1395 -0.4230  0.8953
              Bcc     0.0000     0.000     0.000     0.000  0.9596 -0.2807  0.0168
 
              Baa    -0.0000    -0.000    -0.000    -0.000  0.0106  0.3351  0.9421
    15 H(1)   Bbb    -0.0000    -0.000    -0.000    -0.000 -0.2348  0.9167 -0.3234
              Bcc     0.0000     0.000     0.000     0.000  0.9720  0.2178 -0.0884
 
              Baa    -0.0000    -0.000    -0.000    -0.000  0.1109  0.9269 -0.3586
    16 H(1)   Bbb     0.0000     0.000     0.000     0.000 -0.0105  0.3619  0.9321
              Bcc     0.0000     0.000     0.000     0.000  0.9938 -0.0996  0.0498
 
              Baa    -0.0000    -0.000    -0.000    -0.000 -0.3497  0.9284  0.1256
    17 H(1)   Bbb    -0.0000    -0.000    -0.000    -0.000  0.5852  0.1118  0.8032
              Bcc     0.0000     0.000     0.000     0.000  0.7316  0.3544 -0.5824
 
              Baa    -0.0000    -0.000    -0.000    -0.000 -0.2208  0.4142  0.8830
[...]
     8  C   -0.000000   0.000000   0.000000   0.000000  -0.000000   0.000000
     9  C   -0.000000   0.000000   0.000000  -0.000000   0.000000  -0.000000
    10  C   -0.000000   0.000000  -0.000000   0.000000  -0.000000   0.000000
    11  C   -0.000000  -0.000000   0.000000  -0.000000   0.000000  -0.000000
    12  C   -0.000000   0.000000  -0.000000   0.000000  -0.000000   0.000000
    13  C    0.000000  -0.000000   0.000000  -0.000000   0.000000  -0.000000
    14  F   -0.000000  -0.000000  -0.000000  -0.000000  -0.000000  -0.000000
    15  H    0.000000  -0.000000  -0.000000  -0.000000  -0.000000   0.000000
    16  H    0.000000  -0.000000  -0.000000   0.000000   0.000000   0.000000
    17  H    0.000000   0.000000   0.000000   0.000000   0.000000  -0.000000
    18  H   -0.000000  -0.000000  -0.000000  -0.000000   0.000000  -0.000000
    19  H    0.000000  -0.000000   0.000000  -0.000000   0.000000  -0.000000
    20  H    0.000000  -0.000000   0.000000   0.000000  -0.000000   0.000000
    21  H   -0.000000  -0.000000   0.000000  -0.000000   0.000000  -0.000000
    22  H    0.000000   0.000000  -0.000000   0.000000   0.000000   0.000000
              13         14         15         16         17         18
     1  C   -0.000000  -0.000000   0.000000  -0.000000  -0.000000   0.000000
     2  C    0.000000   0.000000   0.000000  -0.000000   0.000000  -0.000000
     3  C   -0.000000  -0.000000  -0.000000  -0.000000  -0.000000   0.000000
     4  F   -0.000000   0.000000  -0.000000   0.000000  -0.000000   0.000000
     5  C   -0.000000   0.000000  -0.000000   0.000000   0.000000  -0.000000
     6  C   -0.000000  -0.000000  -0.000000   0.000000  -0.000000   0.000000
     7  C    0.000000  -0.000000   0.000000   0.000000   0.000000  -0.000000
     8  C   -0.000000  -0.000000  -0.000000  -0.000000   0.000000  -0.000000
     9  C    0.000000  -0.000000  -0.000000  -0.000000   0.000000  -0.000000
    10  C   -0.000000  -0.000000  -0.000000   0.000000   0.000000  -0.000000
    11  C    0.000000  -0.000000  -0.000000   0.000000   0.000000   0.000000
    12  C   -0.000000  -0.000000   0.000000   0.000000  -0.000000  -0.000000
    13  C    0.000000   0.000000  -0.000000   0.000000  -0.000000   0.000000
    14  F    0.000000  -0.000000   0.000000   0.000000   0.000000   0.000000
    15  H   -0.000000   0.000000  -0.000000  -0.000000  -0.000000   0.000000
    16  H    0.000000   0.000000  -0.000000   0.000000   0.000000  -0.000000
    17  H   -0.000000   0.000000  -0.000000   0.000000  -0.000000   0.000000
    18  H    0.000000   0.000000   0.000000  -0.000000   0.000000  -0.000000
    19  H    0.000000  -0.000000  -0.000000   0.000000   0.000000   0.000000
    20  H   -0.000000  -0.000000  -0.000000  -0.000000  -0.000000   0.000000
    21  H    0.000000   0.000000   0.000000   0.000000   0.000000   0.000000
    22  H   -0.000000   0.000000   0.000000  -0.000000  -0.000000  -0.000000
              19         20         21         22
     1  C   -0.000000  -0.000000   0.000000   0.000000
     2  C    0.000000   0.000000  -0.000000  -0.000000
     3  C    0.000000  -0.000000   0.000000   0.000000
     4  F    0.000000  -0.000000  -0.000000   0.000000
     5  C    0.000000  -0.000000  -0.000000  -0.000000
     6  C   -0.000000   0.000000   0.000000   0.000000
     7  C    0.000000   0.000000  -0.000000   0.000000
     8  C   -0.000000  -0.000000  -0.000000   0.000000
     9  C    0.000000   0.000000   0.000000  -0.000000
    10  C   -0.000000   0.000000  -0.000000   0.000000
    11  C    0.000000  -0.000000   0.000000   0.000000
    12  C   -0.000000   0.000000  -0.000000   0.000000
    13  C    0.000000  -0.000000   0.000000  -0.000000
    14  F   -0.000000  -0.000000   0.000000   0.000000
    15  H   -0.000000  -0.000000   0.000000   0.000000
    16  H    0.000000  -0.000000   0.000000  -0.000000
    17  H    0.000000  -0.000000   0.000000  -0.000000
    18  H    0.000000   0.000000   0.000000  -0.000000
    19  H    0.000000  -0.000000   0.000000  -0.000000
    20  H   -0.000000   0.000000  -0.000000   0.000000
    21  H    0.000000  -0.000000   0.000000  -0.000000
    22  H   -0.000000   0.000000  -0.000000   0.000000
 Mulliken charges and spin densities:
               1          2
     1  C    0.015894   0.000000
     2  C   -0.002878  -0.000000
     3  C    0.117137   0.000000
     4  F   -0.122584   0.000000
     5  C   -0.062506   0.000000
     6  C    0.017217  -0.000000
     7  C    0.011423   0.000000
     8  C   -0.062505  -0.000000
     9  C    0.017207   0.000000
    10  C    0.011420   0.000000
    11  C    0.015872  -0.000000
    12  C   -0.002890  -0.000000
    13  C    0.117153   0.000000
    14  F   -0.122555  -0.000000
    15  H    0.008016   0.000000
    16  H    0.016315  -0.000000
    17  H   -0.000984  -0.000000
    18  H    0.002932  -0.000000
    19  H   -0.000957   0.000000
    20  H    0.002937   0.000000
    21  H    0.008012   0.000000
    22  H    0.016322   0.000000
 Sum of Mulliken charges =  -0.00000  -0.00000
 Mulliken charges and spin densities with hydrogens summed into heavy atoms:
               1          2
     1  C    0.023911   0.000000
     2  C    0.013437  -0.000000
     3  C    0.117137   0.000000
     4  F   -0.122584   0.000000
     5  C   -0.062506   0.000000
     6  C    0.016232  -0.000000
     7  C    0.014356   0.000000
     8  C   -0.062505  -0.000000
     9  C    0.016250   0.000000
    10  C    0.014357   0.000000
    11  C    0.023884  -0.000000
    12  C    0.013432  -0.000000
    13  C    0.117153   0.000000
    14  F   -0.122555  -0.000000
 Electronic spatial extent (au):  <R**2>=           2639.9895
 Charge=             -0.0000 electrons
 Dipole moment (field-independent basis, Debye):
    X=              0.0000    Y=             -1.7617    Z=              0.0000  Tot=              1.7617
 Quadrupole moment (field-independent basis, Debye-Ang):
   XX=            -63.6149   YY=            -75.5800   ZZ=            -81.1651
   XY=              0.0001   XZ=              0.3770   YZ=              0.0000
 Traceless Quadrupole moment (field-independent basis, Debye-Ang):
   XX=              9.8384   YY=             -2.1266   ZZ=             -7.7118
   XY=              0.0001   XZ=              0.3770   YZ=              0.0000
 Octapole moment (field-independent basis, Debye-Ang**2):
  XXX=             -0.0046  YYY=             15.7023  ZZZ=             -0.0005  XYY=              0.0014
  XXY=             11.2599  XXZ=             -0.0006  XZZ=              0.0001  YZZ=              6.8719
  YYZ=              0.0003  XYZ=            -12.7669
 Hexadecapole moment (field-independent basis, Debye-Ang**3):
 XXXX=          -2246.9315 YYYY=           -661.8817 ZZZZ=           -257.9814 XXXY=              0.0099
 XXXZ=            -10.6193 YYYX=             -0.0024 YYYZ=             -0.0033 ZZZX=            -17.8672
 ZZZY=              0.0001 XXYY=           -504.1679 XXZZ=           -492.9069 YYZZ=           -150.6440
 XXYZ=             -0.0012 YYXZ=              9.7956 ZZXY=             -0.0013
 N-N= 8.308968778210D+02 E-N=-3.208765352355D+03  KE= 6.571854498829D+02
                          Isotropic Fermi Contact Couplings
        Atom                 a.u.       MegaHertz       Gauss      10(-4) cm-1
     1  C(13)              0.00000       0.00000       0.00000       0.00000
     2  C(13)             -0.00000      -0.00000      -0.00000      -0.00000
     3  C(13)             -0.00000      -0.00000      -0.00000      -0.00000
     4  F(19)              0.00000       0.00000       0.00000       0.00000
     5  C(13)             -0.00000      -0.00000      -0.00000      -0.00000
     6  C(13)             -0.00000      -0.00000      -0.00000      -0.00000
     7  C(13)             -0.00000      -0.00000      -0.00000      -0.00000
     8  C(13)              0.00000       0.00000       0.00000       0.00000
     9  C(13)             -0.00000      -0.00000      -0.00000      -0.00000
    10  C(13)              0.00000       0.00000       0.00000       0.00000
    11  C(13)              0.00000       0.00000       0.00000       0.00000
    12  C(13)              0.00000       0.00000       0.00000       0.00000
    13  C(13)              0.00000       0.00000       0.00000       0.00000
    14  F(19)             -0.00000      -0.00000      -0.00000      -0.00000
    15  H(1)              -0.00000      -0.00000      -0.00000      -0.00000
    16  H(1)               0.00000       0.00000       0.00000       0.00000
    17  H(1)              -0.00000      -0.00000      -0.00000      -0.00000
    18  H(1)              -0.00000      -0.00000      -0.00000      -0.00000
    19  H(1)              -0.00000      -0.00000      -0.00000      -0.00000
    20  H(1)              -0.00000      -0.00000      -0.00000      -0.00000
    21  H(1)               0.00000       0.00000       0.00000       0.00000
    22  H(1)               0.00000       0.00000       0.00000       0.00000
 --------------------------------------------------------
       Center         ----  Spin Dipole Couplings  ----
                      3XX-RR        3YY-RR        3ZZ-RR
 --------------------------------------------------------
     1   Atom        0.000000     -0.000000     -0.000000
     2   Atom       -0.000000     -0.000000      0.000000
     3   Atom       -0.000000      0.000000      0.000000
     4   Atom       -0.000000      0.000000     -0.000000
     5   Atom       -0.000000      0.000000      0.000000
     6   Atom        0.000000     -0.000000      0.000000
     7   Atom        0.000000     -0.000000     -0.000000
     8   Atom        0.000000     -0.000000     -0.000000
     9   Atom       -0.000000      0.000000      0.000000
    10   Atom        0.000000      0.000000     -0.000000
    11   Atom        0.000000     -0.000000      0.000000
    12   Atom        0.000000     -0.000000      0.000000
    13   Atom        0.000000      0.000000     -0.000000
    14   Atom       -0.000000     -0.000000      0.000000
    15   Atom        0.000000     -0.000000     -0.000000
    16   Atom       -0.000000      0.000000     -0.000000
    17   Atom        0.000000     -0.000000      0.000000
    18   Atom        0.000000     -0.000000      0.000000
    19   Atom        0.000000      0.000000     -0.000000
    20   Atom       -0.000000      0.000000      0.000000
    21   Atom       -0.000000      0.000000     -0.000000
    22   Atom       -0.000000      0.000000     -0.000000
 --------------------------------------------------------
                        XY            XZ            YZ
 --------------------------------------------------------
     1   Atom        0.000000     -0.000000      0.000000
     2   Atom        0.000000     -0.000000      0.000000
     3   Atom        0.000000     -0.000000      0.000000
     4   Atom        0.000000      0.000000     -0.000000
     5   Atom        0.000000     -0.000000      0.000000
     6   Atom       -0.000000     -0.000000      0.000000
     7   Atom        0.000000     -0.000000      0.000000
     8   Atom       -0.000000     -0.000000      0.000000
     9   Atom       -0.000000      0.000000      0.000000
    10   Atom       -0.000000      0.000000      0.000000
    11   Atom       -0.000000      0.000000      0.000000
    12   Atom       -0.000000      0.000000     -0.000000
    13   Atom        0.000000      0.000000      0.000000
    14   Atom        0.000000      0.000000     -0.000000
    15   Atom       -0.000000      0.000000     -0.000000
    16   Atom        0.000000      0.000000     -0.000000
    17   Atom       -0.000000      0.000000      0.000000
    18   Atom        0.000000     -0.000000      0.000000
    19   Atom       -0.000000     -0.000000     -0.000000
    20   Atom       -0.000000     -0.000000      0.000000
    21   Atom       -0.000000     -0.000000      0.000000
    22   Atom       -0.000000     -0.000000      0.000000
 --------------------------------------------------------


 ---------------------------------------------------------------------------------
              Anisotropic Spin Dipole Couplings in Principal Axis System
 ---------------------------------------------------------------------------------

       Atom             a.u.   MegaHertz   Gauss  10(-4) cm-1        Axes

              Baa    -0.0000    -0.000    -0.000    -0.000  0.1139 -0.3141  0.9425
     1 C(13)  Bbb    -0.0000    -0.000    -0.000    -0.000 -0.2429  0.9111  0.3330
              Bcc     0.0000     0.000     0.000     0.000  0.9633  0.2669 -0.0275
 
              Baa    -0.0000    -0.000    -0.000    -0.000  0.6908 -0.6381  0.3401
     2 C(13)  Bbb     0.0000     0.000     0.000     0.000  0.7065  0.6958 -0.1296
              Bcc     0.0000     0.000     0.000     0.000 -0.1539  0.3298  0.9314
 
              Baa    -0.0000    -0.000    -0.000    -0.000  0.9642 -0.2053  0.1678
     3 C(13)  Bbb     0.0000     0.000     0.000     0.000  0.2639  0.6835 -0.6805
              Bcc     0.0000     0.000     0.000     0.000  0.0250  0.7005  0.7133
 
              Baa    -0.0000    -0.000    -0.000    -0.000 -0.6352  0.2359  0.7355
     4 F(19)  Bbb     0.0000     0.000     0.000     0.000  0.7700  0.1188  0.6269
              Bcc     0.0000     0.000     0.000     0.000  0.0605  0.9645 -0.2571
 
              Baa    -0.0000    -0.000    -0.000    -0.000  0.8332 -0.4892  0.2579
     5 C(13)  Bbb     0.0000     0.000     0.000     0.000 -0.1520  0.2458  0.9573
              Bcc     0.0000     0.000     0.000     0.000  0.5317  0.8368 -0.1304
 
              Baa    -0.0000    -0.000    -0.000    -0.000  0.0772  0.9462 -0.3141
     6 C(13)  Bbb    -0.0000    -0.000    -0.000    -0.000  0.9399  0.0360  0.3395
              Bcc     0.0000     0.000     0.000     0.000 -0.3326  0.3215  0.8866
 
              Baa    -0.0000    -0.000    -0.000    -0.000 -0.5907  0.6419 -0.4890
     7 C(13)  Bbb     0.0000     0.000     0.000     0.000 -0.3561  0.3365  0.8718
              Bcc     0.0000     0.000     0.000     0.000  0.7241  0.6890  0.0298
 
              Baa    -0.0000    -0.000    -0.000    -0.000  0.0972  0.8573 -0.5056
     8 C(13)  Bbb    -0.0000    -0.000    -0.000    -0.000  0.0931  0.4979  0.8622
              Bcc     0.0000     0.000     0.000     0.000  0.9909 -0.1309 -0.0315
 
              Baa    -0.0000    -0.000    -0.000    -0.000  0.8966  0.3278 -0.2979
     9 C(13)  Bbb    -0.0000    -0.000    -0.000    -0.000  0.4089 -0.3541  0.8411
              Bcc     0.0000     0.000     0.000     0.000 -0.1702  0.8759  0.4515
 
              Baa    -0.0000    -0.000    -0.000    -0.000 -0.1921 -0.5636  0.8034
    10 C(13)  Bbb     0.0000     0.000     0.000     0.000  0.8719  0.2777  0.4033
              Bcc     0.0000     0.000     0.000     0.000 -0.4504  0.7780  0.4381
 
              Baa    -0.0000    -0.000    -0.000    -0.000  0.2907  0.8295 -0.4769
    11 C(13)  Bbb     0.0000     0.000     0.000     0.000 -0.5638  0.5513  0.6150
              Bcc     0.0000     0.000     0.000     0.000  0.7730  0.0901  0.6279
 
              Baa    -0.0000    -0.000    -0.000    -0.000  0.1322  0.9763  0.1711
    12 C(13)  Bbb     0.0000     0.000     0.000     0.000 -0.1959 -0.1435  0.9701
              Bcc     0.0000     0.000     0.000     0.000  0.9717 -0.1618  0.1723
 
              Baa    -0.0000    -0.000    -0.000    -0.000  0.0173 -0.5203  0.8538
    13 C(13)  Bbb    -0.0000    -0.000    -0.000    -0.000  0.8972 -0.3688 -0.2429
              Bcc     0.0000     0.000     0.000     0.000  0.4412  0.7703  0.4605
 
              Baa    -0.0000    -0.000    -0.000    -0.000 -0.5217  0.7931  0.3145
    14 F(19)  Bbb     0.0000     0.000     0.000     0.000  0.7598  0.2642  0.5940
              Bcc     0.0000     0.000     0.000     0.000 -0.3880 -0.5488  0.7404
 
              Baa    -0.0000    -0.000    -0.000    -0.000  0.3945  0.9030 -0.1703
    15 H(1)   Bbb    -0.0000    -0.000    -0.000    -0.000 -0.1461  0.2446  0.9586
              Bcc     0.0000     0.000     0.000     0.000  0.9072 -0.3532  0.2284
 
              Baa    -0.0000    -0.000    -0.000    -0.000 -0.2365  0.3915  0.8893
    16 H(1)   Bbb    -0.0000    -0.000    -0.000    -0.000  0.9715  0.1078  0.2109
              Bcc     0.0000     0.000     0.000     0.000 -0.0133  0.9138 -0.4058
 
              Baa    -0.0000    -0.000    -0.000    -0.000  0.4590  0.6896 -0.5602
    17 H(1)   Bbb     0.0000     0.000     0.000     0.000  0.8719 -0.4707  0.1350
              Bcc     0.0000     0.000     0.000     0.000  0.1705  0.5504  0.8173
 
              Baa    -0.0000    -0.000    -0.000    -0.000 -0.4037  0.8321 -0.3802
    18 H(1)   Bbb     0.0000     0.000     0.000     0.000  0.9110  0.4040 -0.0831
              Bcc     0.0000     0.000     0.000     0.000 -0.0844  0.3799  0.9212
 
              Baa    -0.0000    -0.000    -0.000    -0.000  0.3762  0.4610  0.8037
    19 H(1)   Bbb    -0.0000    -0.000    -0.000    -0.000  0.5271  0.6069 -0.5949
              Bcc     0.0000     0.000     0.000     0.000  0.7620 -0.6475  0.0147
 
              Baa    -0.0000    -0.000    -0.000    -0.000  0.9098  0.1752  0.3763
    20 H(1)   Bbb     0.0000     0.000     0.000     0.000 -0.2948 -0.3654  0.8829
              Bcc     0.0000     0.000     0.000     0.000 -0.2921  0.9142  0.2808
 
              Baa    -0.0000    -0.000    -0.000    -0.000  0.7346  0.3161  0.6004
    21 H(1)   Bbb    -0.0000    -0.000    -0.000    -0.000 -0.2740 -0.6713  0.6887
              Bcc     0.0000     0.000     0.000     0.000 -0.6208  0.6704  0.4065
 
              Baa    -0.0000    -0.000    -0.000    -0.000 -0.0622 -0.3846  0.9210
    22 H(1)   Bbb    -0.0000    -0.000    -0.000    -0.000  0.8607  0.4465  0.2446
              Bcc     0.0000     0.000     0.000     0.000 -0.5053  0.8079  0.3032
 

 ---------------------------------------------------------------------------------

 No NMR shielding tensors so no spin-rotation constants.
 Leave Link  601 at Thu Jul 23 10:10:07 2020, MaxMem=  4026531840 cpu:               1.6 elap:               0.2
 (Enter /opt/ohpc/pub/libs/gaussian/g16-A.03/sandybridge/g16/l9999.exe)

 Test job not archived.
 1\1\GINC-SKYLAKE038\FOpt\ULC-wPBE\CC-pVDZ\C12H8F2\RDU230\23-Jul-2020\0
 \\#P uLC-wPBE/cc-pVDZ iop(3/107=0355600000, 3/108=0355600000) opt\\H8 
 C12 F2\\0,1\C,3.5408492284,0.3426003297,-0.1314701411\C,2.8712885597,-
 0.727538635,0.4510704054\C,1.4869010363,-0.7138623127,0.4894207398\F,0
 .8511275963,-1.7416608625,1.0764213691\C,0.7329150888,0.332456218,-0.0
 38504789\C,1.4311130045,1.3970946525,-0.6130251535\C,2.8208859638,1.40
 8220968,-0.6625369356\C,-0.7496886267,0.332766555,0.0377228061\C,-1.44
 76123311,1.4003467874,0.6070386755\C,-2.8373306129,1.412211201,0.65637
 31468\C,-3.5576006842,0.3441132883,0.1306188808\C,-2.8882949431,-0.729
 0032826,-0.4466755041\C,-1.5039188856,-0.715907665,-0.4851451659\F,-0.
 8684253572,-1.7467807356,-1.0669675097\H,4.6330453918,0.3413075682,-0.
 168164677\H,3.4024133613,-1.5769041522,0.8850865096\H,0.8606118298,2.2
 260119708,-1.0405598079\H,3.3424921565,2.2502528567,-1.123138411\H,-0.
 8767093953,2.2310655929,1.0306950493\H,-3.3587825914,2.2566164674,1.11
 28190654\H,-4.6497882098,0.3433839875,0.1673553504\H,-3.41977558,-1.58
 03137979,-0.8764729034\\Version=EM64L-G16RevA.03\State=1-A\HF=-661.339
 21\S2=0.\S2-1=0.\S2A=0.\RMSD=5.590e-09\RMSF=2.040e-05\Dipole=0.0000953
 ,0.6930851,-0.001722\Quadrupole=7.3107145,-1.5811177,-5.7295968,-0.002
 0523,-0.3597809,-0.0101302\PG=C01 [X(C12H8F2)]\\@


 EVERYBODY NEEDS BEAUTY AS WELL AS BREAD, PLACES TO PLAY IN AND PRAY IN,
 WHERE NATURE MAY HEAL AND CHEER AND GIVE STRENGTH TO BODY AND SOUL ALIKE.

                                    -- JOHN MUIR
 Job cpu time:       0 days  1 hours 17 minutes 59.8 seconds.
 Elapsed time:       0 days  0 hours  9 minutes 51.2 seconds.
 File lengths (MBytes):  RWF=    124 Int=      0 D2E=      0 Chk=     12 Scr=      8
 Normal termination of Gaussian 16 at Thu Jul 23 10:10:08 2020.
