 Entering Gaussian System, Link 0=g16
 Input=mols_65_3_15_c-cOC-COC_opt_0.gjf
 Output=mols_65_3_15_c-cOC-COC_opt_0.log
 Initial command:
 /opt/ohpc/pub/libs/gaussian/g16-A.03/sandybridge/g16/l1.exe "/mnt/gpfs2_4m/scratch/rdu230/ondemand/projects/dihedral_energies/7trial/wtuning/redos_512cycles/mols_65_3_15_c-cOC-COC/Gau-372943.inp" -scrdir="/mnt/gpfs2_4m/scratch/rdu230/ondemand/projects/dihedral_energies/7trial/wtuning/redos_512cycles/mols_65_3_15_c-cOC-COC/"
 Entering Link 1 = /opt/ohpc/pub/libs/gaussian/g16-A.03/sandybridge/g16/l1.exe PID=    372944.
  
 Copyright (c) 1988,1990,1992,1993,1995,1998,2003,2009,2016,
            Gaussian, Inc.  All Rights Reserved.
  
 This is part of the Gaussian(R) 16 program.  It is based on
 the Gaussian(R) 09 system (copyright 2009, Gaussian, Inc.),
 the Gaussian(R) 03 system (copyright 2003, Gaussian, Inc.),
 the Gaussian(R) 98 system (copyright 1998, Gaussian, Inc.),
 the Gaussian(R) 94 system (copyright 1995, Gaussian, Inc.),
 the Gaussian 92(TM) system (copyright 1992, Gaussian, Inc.),
 the Gaussian 90(TM) system (copyright 1990, Gaussian, Inc.),
 the Gaussian 88(TM) system (copyright 1988, Gaussian, Inc.),
 the Gaussian 86(TM) system (copyright 1986, Carnegie Mellon
 University), and the Gaussian 82(TM) system (copyright 1983,
 Carnegie Mellon University). Gaussian is a federally registered
 trademark of Gaussian, Inc.
  
 This software contains proprietary and confidential information,
 including trade secrets, belonging to Gaussian, Inc.
  
 This software is provided under written license and may be
 used, copied, transmitted, or stored only in accord with that
 written license.
  
 The following legend is applicable only to US Government
 contracts under FAR:
  
                    RESTRICTED RIGHTS LEGEND
  
 Use, reproduction and disclosure by the US Government is
 subject to restrictions as set forth in subparagraphs (a)
 and (c) of the Commercial Computer Software - Restricted
 Rights clause in FAR 52.227-19.
  
 Gaussian, Inc.
 340 Quinnipiac St., Bldg. 40, Wallingford CT 06492
  
  
 ---------------------------------------------------------------
 Warning -- This program may not be used in any manner that
 competes with the business of Gaussian, Inc. or will provide
 assistance to any competitor of Gaussian, Inc.  The licensee
 of this program is prohibited from giving any competitor of
 Gaussian, Inc. access to this program.  By using this program,
 the user acknowledges that Gaussian, Inc. is engaged in the
 business of creating and licensing software in the field of
 computational chemistry and represents and warrants to the
 licensee that it is not a competitor of Gaussian, Inc. and that
 it will not use this program in any manner prohibited above.
 ---------------------------------------------------------------
  

 Cite this work as:
 Gaussian 16, Revision A.03,
 M. J. Frisch, G. W. Trucks, H. B. Schlegel, G. E. Scuseria, 
 M. A. Robb, J. R. Cheeseman, G. Scalmani, V. Barone, 
 G. A. Petersson, H. Nakatsuji, X. Li, M. Caricato, A. V. Marenich, 
 J. Bloino, B. G. Janesko, R. Gomperts, B. Mennucci, H. P. Hratchian, 
 J. V. Ortiz, A. F. Izmaylov, J. L. Sonnenberg, D. Williams-Young, 
 F. Ding, F. Lipparini, F. Egidi, J. Goings, B. Peng, A. Petrone, 
 T. Henderson, D. Ranasinghe, V. G. Zakrzewski, J. Gao, N. Rega, 
 G. Zheng, W. Liang, M. Hada, M. Ehara, K. Toyota, R. Fukuda, 
 J. Hasegawa, M. Ishida, T. Nakajima, Y. Honda, O. Kitao, H. Nakai, 
 T. Vreven, K. Throssell, J. A. Montgomery, Jr., J. E. Peralta, 
 F. Ogliaro, M. J. Bearpark, J. J. Heyd, E. N. Brothers, K. N. Kudin, 
 V. N. Staroverov, T. A. Keith, R. Kobayashi, J. Normand, 
 K. Raghavachari, A. P. Rendell, J. C. Burant, S. S. Iyengar, 
 J. Tomasi, M. Cossi, J. M. Millam, M. Klene, C. Adamo, R. Cammi, 
 J. W. Ochterski, R. L. Martin, K. Morokuma, O. Farkas, 
 J. B. Foresman, and D. J. Fox, Gaussian, Inc., Wallingford CT, 2016.
 
 ******************************************
 Gaussian 16:  EM64L-G16RevA.03 25-Dec-2016
                26-Jul-2020 
 ******************************************
 %mem=30GB
 %nproc=8
 Will use up to    8 processors via shared memory.
 ---------------------------------------------------------------
 #P uLC-wPBE/cc-pVDZ iop(3/107=0460900000, 3/108=0460900000) opt
 ---------------------------------------------------------------
 1/18=20,19=15,26=3,38=1/1,3;
 2/9=110,12=2,17=6,18=5,40=1/2;
 3/5=16,11=2,25=1,30=1,71=1,74=-41,107=460900000,108=460900000,116=2/1,2,3;
 4//1;
 5/5=2,38=5/2;
 6/7=2,8=2,9=2,10=2,28=1/1;
 7//1,2,3,16;
 1/18=20,19=15,26=3/3(2);
 2/9=110/2;
 99//99;
 2/9=110/2;
 3/5=16,11=2,25=1,30=1,71=1,74=-41,107=460900000,108=460900000,116=2/1,2,3;
 4/5=5,16=3,69=1/1;
 5/5=2,38=5/2;
 7//1,2,3,16;
 1/18=20,19=15,26=3/3(-5);
 2/9=110/2;
 6/7=2,8=2,9=2,10=2,19=2,28=1/1;
 99/9=1/99;
 Leave Link    1 at Sun Jul 26 12:21:17 2020, MaxMem=  4026531840 cpu:               1.6 elap:               0.3
 (Enter /opt/ohpc/pub/libs/gaussian/g16-A.03/sandybridge/g16/l101.exe)
 -------------
 H32 C36 S3 O6
 -------------
 Symbolic Z-matrix:
 Charge =  0 Multiplicity = 1
 C                    -11.43951  -0.5967   -0.551 
 C                    -10.81518   0.40432  -1.45569 
 C                    -9.50792   0.81126  -1.1674 
 C                    -8.79103   0.23298  -0.15126 
 C                    -9.36098  -0.76908   0.62532 
 O                    -8.66463  -1.21611   1.74453 
 C                    -8.70384  -2.6414    1.81897 
 C                    -10.70022  -1.14739   0.40962 
 C                    -7.34304   0.66054   0.00255 
 C                    -6.82665   1.85605   0.39036 
 O                    -7.75857   2.87283   0.69007 
 C                    -7.15352   4.13886   0.96524 
 C                    -5.42504   1.85982   0.4786 
 C                    -4.89304   0.69904   0.07936 
 S                    -6.13703  -0.49313  -0.2441 
 C                    -3.48012   0.30322  -0.01328 
 C                    -2.94881  -0.6923    0.83583 
 C                    -1.65106  -1.12066   0.7121 
 C                    -0.75047  -0.4622   -0.2154 
 C                    -1.26529   0.63806  -0.99443 
 O                    -0.46888   1.22932  -1.91822 
 C                    -0.32532   2.65355  -1.65267 
 C                    -2.64769   0.95524  -0.80891 
 C                     0.61443  -0.86307  -0.31152 
 C                     1.17589  -2.14667  -0.63028 
 O                     0.27788  -3.09672  -0.85816 
 C                     0.94919  -4.41211  -1.16111 
 C                     2.54981  -2.15484  -0.62612 
 C                     3.17846  -0.92131  -0.25917 
 S                     1.93303   0.19476   0.10651 
 C                     4.50995  -0.53362  -0.18366 
 C                     5.09609   0.5405   -0.93256 
 C                     6.4411    0.85625  -0.84092 
 C                     7.26014   0.09849  -0.04355 
 C                     6.81932  -0.99408   0.61615 
 O                     7.67592  -1.6938    1.4604 
 C                     7.53927  -3.03333   1.32903 
 C                     5.38269  -1.3128    0.61739 
 C                     8.67293   0.52521  -0.04004 
 C                     9.33237   1.6091    0.42807 
 O                     8.54541   2.56253   1.08831 
 C                     9.19537   3.69205   1.51976 
 C                     10.73514   1.68931   0.21941 
 C                     11.13761   0.56855  -0.40602 
 S                     9.87259  -0.56001  -0.83854 
 H                    -12.48132  -0.82082  -0.76299 
 H                    -11.41742   0.85851  -2.25439 
 H                    -9.02862   1.47007  -1.83539 
 H                    -8.53555  -3.1099    0.8715 
 H                    -7.82266  -2.95305   2.4775 
 H                    -9.60147  -3.05431   2.25506 
 H                    -11.15583  -1.87401   1.14801 
 H                    -6.49051   4.54469   0.19765 
 H                    -7.9683    4.88506   1.14795 
 H                    -6.58424   4.08987   1.93818 
 H                    -4.8325    2.70136   0.72573 
 H                    -3.58394  -1.26262   1.46353 
 H                    -1.24162  -1.91784   1.26959 
 H                    -0.26653   2.88885  -0.57946 
 H                     0.44892   3.02175  -2.17686 
 H                    -1.28254   3.1818   -2.06848 
 H                    -3.0025    1.73177  -1.51879 
 H                     0.10205  -5.09672  -1.26969 
 H                     1.4823   -4.33181  -2.02157 
 H                     1.49474  -4.72816  -0.26325 
 H                     3.17618  -3.01127  -0.77111 
 H                     4.43124   1.08886  -1.5551 
 H                     6.75625   1.6545   -1.43838 
 H                     8.5222   -3.54701   1.71059 
 H                     7.44473  -3.38082   0.24979 
 H                     6.75558  -3.48268   1.90876 
 H                     5.0573   -2.08271   1.17103 
 H                     8.45649   4.43518   1.97389 
 H                     9.74756   4.28208   0.65466 
 H                     9.94652   3.43315   2.25728 
 H                     11.40739   2.4505    0.59123 
 H                     12.11983   0.30373  -0.71099 
 
 ITRead=  0  0  0  0  0  0  0  0  0  0  0  0  0  0  0  0  0  0  0  0
 ITRead=  0  0  0  0  0  0  0  0  0  0  0  0  0  0  0  0  0  0  0  0
 ITRead=  0  0  0  0  0  0  0  0  0  0  0  0  0  0  0  0  0  0  0  0
 ITRead=  0  0  0  0  0  0  0  0  0  0  0  0  0  0  0  0  0
 MicOpt= -1 -1 -1 -1 -1 -1 -1 -1 -1 -1 -1 -1 -1 -1 -1 -1 -1 -1 -1 -1
 MicOpt= -1 -1 -1 -1 -1 -1 -1 -1 -1 -1 -1 -1 -1 -1 -1 -1 -1 -1 -1 -1
 MicOpt= -1 -1 -1 -1 -1 -1 -1 -1 -1 -1 -1 -1 -1 -1 -1 -1 -1 -1 -1 -1
 MicOpt= -1 -1 -1 -1 -1 -1 -1 -1 -1 -1 -1 -1 -1 -1 -1 -1 -1
 NAtoms=     77 NQM=       77 NQMF=       0 NMMI=      0 NMMIF=      0
                NMic=       0 NMicF=      0.
                    Isotopes and Nuclear Properties:
 (Nuclear quadrupole moments (NQMom) in fm**2, nuclear magnetic moments (NMagM)
  in nuclear magnetons)

  Atom         1           2           3           4           5           6           7           8           9          10
 IAtWgt=          12          12          12          12          12          16          12          12          12          12
 AtmWgt=  12.0000000  12.0000000  12.0000000  12.0000000  12.0000000  15.9949146  12.0000000  12.0000000  12.0000000  12.0000000
 NucSpn=           0           0           0           0           0           0           0           0           0           0
 AtZEff=  -0.0000000  -0.0000000  -0.0000000  -0.0000000  -0.0000000  -0.0000000  -0.0000000  -0.0000000  -0.0000000  -0.0000000
 NQMom=    0.0000000   0.0000000   0.0000000   0.0000000   0.0000000   0.0000000   0.0000000   0.0000000   0.0000000   0.0000000
 NMagM=    0.0000000   0.0000000   0.0000000   0.0000000   0.0000000   0.0000000   0.0000000   0.0000000   0.0000000   0.0000000
 AtZNuc=   6.0000000   6.0000000   6.0000000   6.0000000   6.0000000   8.0000000   6.0000000   6.0000000   6.0000000   6.0000000

  Atom        11          12          13          14          15          16          17          18          19          20
 IAtWgt=          16          12          12          12          32          12          12          12          12          12
 AtmWgt=  15.9949146  12.0000000  12.0000000  12.0000000  31.9720718  12.0000000  12.0000000  12.0000000  12.0000000  12.0000000
 NucSpn=           0           0           0           0           0           0           0           0           0           0
 AtZEff=  -0.0000000  -0.0000000  -0.0000000  -0.0000000  -0.0000000  -0.0000000  -0.0000000  -0.0000000  -0.0000000  -0.0000000
 NQMom=    0.0000000   0.0000000   0.0000000   0.0000000   0.0000000   0.0000000   0.0000000   0.0000000   0.0000000   0.0000000
 NMagM=    0.0000000   0.0000000   0.0000000   0.0000000   0.0000000   0.0000000   0.0000000   0.0000000   0.0000000   0.0000000
 AtZNuc=   8.0000000   6.0000000   6.0000000   6.0000000  16.0000000   6.0000000   6.0000000   6.0000000   6.0000000   6.0000000

  Atom        21          22          23          24          25          26          27          28          29          30
 IAtWgt=          16          12          12          12          12          16          12          12          12          32
 AtmWgt=  15.9949146  12.0000000  12.0000000  12.0000000  12.0000000  15.9949146  12.0000000  12.0000000  12.0000000  31.9720718
 NucSpn=           0           0           0           0           0           0           0           0           0           0
 AtZEff=  -0.0000000  -0.0000000  -0.0000000  -0.0000000  -0.0000000  -0.0000000  -0.0000000  -0.0000000  -0.0000000  -0.0000000
 NQMom=    0.0000000   0.0000000   0.0000000   0.0000000   0.0000000   0.0000000   0.0000000   0.0000000   0.0000000   0.0000000
 NMagM=    0.0000000   0.0000000   0.0000000   0.0000000   0.0000000   0.0000000   0.0000000   0.0000000   0.0000000   0.0000000
 AtZNuc=   8.0000000   6.0000000   6.0000000   6.0000000   6.0000000   8.0000000   6.0000000   6.0000000   6.0000000  16.0000000

  Atom        31          32          33          34          35          36          37          38          39          40
 IAtWgt=          12          12          12          12          12          16          12          12          12          12
 AtmWgt=  12.0000000  12.0000000  12.0000000  12.0000000  12.0000000  15.9949146  12.0000000  12.0000000  12.0000000  12.0000000
 NucSpn=           0           0           0           0           0           0           0           0           0           0
 AtZEff=  -0.0000000  -0.0000000  -0.0000000  -0.0000000  -0.0000000  -0.0000000  -0.0000000  -0.0000000  -0.0000000  -0.0000000
 NQMom=    0.0000000   0.0000000   0.0000000   0.0000000   0.0000000   0.0000000   0.0000000   0.0000000   0.0000000   0.0000000
 NMagM=    0.0000000   0.0000000   0.0000000   0.0000000   0.0000000   0.0000000   0.0000000   0.0000000   0.0000000   0.0000000
 AtZNuc=   6.0000000   6.0000000   6.0000000   6.0000000   6.0000000   8.0000000   6.0000000   6.0000000   6.0000000   6.0000000

  Atom        41          42          43          44          45          46          47          48          49          50
 IAtWgt=          16          12          12          12          32           1           1           1           1           1
 AtmWgt=  15.9949146  12.0000000  12.0000000  12.0000000  31.9720718   1.0078250   1.0078250   1.0078250   1.0078250   1.0078250
 NucSpn=           0           0           0           0           0           1           1           1           1           1
 AtZEff=  -0.0000000  -0.0000000  -0.0000000  -0.0000000  -0.0000000  -0.0000000  -0.0000000  -0.0000000  -0.0000000  -0.0000000
 NQMom=    0.0000000   0.0000000   0.0000000   0.0000000   0.0000000   0.0000000   0.0000000   0.0000000   0.0000000   0.0000000
 NMagM=    0.0000000   0.0000000   0.0000000   0.0000000   0.0000000   2.7928460   2.7928460   2.7928460   2.7928460   2.7928460
 AtZNuc=   8.0000000   6.0000000   6.0000000   6.0000000  16.0000000   1.0000000   1.0000000   1.0000000   1.0000000   1.0000000

  Atom        51          52          53          54          55          56          57          58          59          60
 IAtWgt=           1           1           1           1           1           1           1           1           1           1
 AtmWgt=   1.0078250   1.0078250   1.0078250   1.0078250   1.0078250   1.0078250   1.0078250   1.0078250   1.0078250   1.0078250
 NucSpn=           1           1           1           1           1           1           1           1           1           1
 AtZEff=  -0.0000000  -0.0000000  -0.0000000  -0.0000000  -0.0000000  -0.0000000  -0.0000000  -0.0000000  -0.0000000  -0.0000000
 NQMom=    0.0000000   0.0000000   0.0000000   0.0000000   0.0000000   0.0000000   0.0000000   0.0000000   0.0000000   0.0000000
 NMagM=    2.7928460   2.7928460   2.7928460   2.7928460   2.7928460   2.7928460   2.7928460   2.7928460   2.7928460   2.7928460
 AtZNuc=   1.0000000   1.0000000   1.0000000   1.0000000   1.0000000   1.0000000   1.0000000   1.0000000   1.0000000   1.0000000

  Atom        61          62          63          64          65          66          67          68          69          70
 IAtWgt=           1           1           1           1           1           1           1           1           1           1
 AtmWgt=   1.0078250   1.0078250   1.0078250   1.0078250   1.0078250   1.0078250   1.0078250   1.0078250   1.0078250   1.0078250
 NucSpn=           1           1           1           1           1           1           1           1           1           1
 AtZEff=  -0.0000000  -0.0000000  -0.0000000  -0.0000000  -0.0000000  -0.0000000  -0.0000000  -0.0000000  -0.0000000  -0.0000000
 NQMom=    0.0000000   0.0000000   0.0000000   0.0000000   0.0000000   0.0000000   0.0000000   0.0000000   0.0000000   0.0000000
 NMagM=    2.7928460   2.7928460   2.7928460   2.7928460   2.7928460   2.7928460   2.7928460   2.7928460   2.7928460   2.7928460
 AtZNuc=   1.0000000   1.0000000   1.0000000   1.0000000   1.0000000   1.0000000   1.0000000   1.0000000   1.0000000   1.0000000

  Atom        71          72          73          74          75          76          77
 IAtWgt=           1           1           1           1           1           1           1
 AtmWgt=   1.0078250   1.0078250   1.0078250   1.0078250   1.0078250   1.0078250   1.0078250
 NucSpn=           1           1           1           1           1           1           1
 AtZEff=  -0.0000000  -0.0000000  -0.0000000  -0.0000000  -0.0000000  -0.0000000  -0.0000000
 NQMom=    0.0000000   0.0000000   0.0000000   0.0000000   0.0000000   0.0000000   0.0000000
 NMagM=    2.7928460   2.7928460   2.7928460   2.7928460   2.7928460   2.7928460   2.7928460
 AtZNuc=   1.0000000   1.0000000   1.0000000   1.0000000   1.0000000   1.0000000   1.0000000
 Leave Link  101 at Sun Jul 26 12:21:18 2020, MaxMem=  4026531840 cpu:               2.7 elap:               0.5
 (Enter /opt/ohpc/pub/libs/gaussian/g16-A.03/sandybridge/g16/l103.exe)

 GradGradGradGradGradGradGradGradGradGradGradGradGradGradGradGradGradGrad
 Berny optimization.
 Initialization pass.
                           ----------------------------
                           !    Initial Parameters    !
                           ! (Angstroms and Degrees)  !
 --------------------------                            --------------------------
 ! Name  Definition              Value          Derivative Info.                !
 --------------------------------------------------------------------------------
 ! R1    R(1,2)                  1.4867         estimate D2E/DX2                !
 ! R2    R(1,8)                  1.3314         estimate D2E/DX2                !
 ! R3    R(1,46)                 1.0865         estimate D2E/DX2                !
 ! R4    R(2,3)                  1.3992         estimate D2E/DX2                !
 ! R5    R(2,47)                 1.0986         estimate D2E/DX2                !
 ! R6    R(3,4)                  1.3714         estimate D2E/DX2                !
 ! R7    R(3,48)                 1.0536         estimate D2E/DX2                !
 ! R8    R(4,5)                  1.39           estimate D2E/DX2                !
 ! R9    R(4,9)                  1.5176         estimate D2E/DX2                !
 ! R10   R(5,6)                  1.3919         estimate D2E/DX2                !
 ! R11   R(5,8)                  1.4083         estimate D2E/DX2                !
 ! R12   R(6,7)                  1.4278         estimate D2E/DX2                !
 ! R13   R(7,49)                 1.0703         estimate D2E/DX2                !
 ! R14   R(7,50)                 1.1434         estimate D2E/DX2                !
 ! R15   R(7,51)                 1.08           estimate D2E/DX2                !
 ! R16   R(8,52)                 1.1317         estimate D2E/DX2                !
 ! R17   R(9,10)                 1.3588         estimate D2E/DX2                !
 ! R18   R(9,15)                 1.6871         estimate D2E/DX2                !
 ! R19   R(10,11)                1.4114         estimate D2E/DX2                !
 ! R20   R(10,13)                1.4044         estimate D2E/DX2                !
 ! R21   R(11,12)                1.4299         estimate D2E/DX2                !
 ! R22   R(12,53)                1.0925         estimate D2E/DX2                !
 ! R23   R(12,54)                1.1199         estimate D2E/DX2                !
 ! R24   R(12,55)                1.1283         estimate D2E/DX2                !
 ! R25   R(13,14)                1.3378         estimate D2E/DX2                !
 ! R26   R(13,56)                1.0585         estimate D2E/DX2                !
 ! R27   R(14,15)                1.7531         estimate D2E/DX2                !
 ! R28   R(14,16)                1.4702         estimate D2E/DX2                !
 ! R29   R(16,17)                1.4122         estimate D2E/DX2                !
 ! R30   R(16,23)                1.3233         estimate D2E/DX2                !
 ! R31   R(17,18)                1.3722         estimate D2E/DX2                !
 ! R32   R(17,57)                1.0596         estimate D2E/DX2                !
 ! R33   R(18,19)                1.4508         estimate D2E/DX2                !
 ! R34   R(18,58)                1.0554         estimate D2E/DX2                !
 ! R35   R(19,20)                1.4431         estimate D2E/DX2                !
 ! R36   R(19,24)                1.4258         estimate D2E/DX2                !
 ! R37   R(20,21)                1.3555         estimate D2E/DX2                !
 ! R38   R(20,23)                1.4304         estimate D2E/DX2                !
 ! R39   R(21,22)                1.4559         estimate D2E/DX2                !
 ! R40   R(22,59)                1.1003         estimate D2E/DX2                !
 ! R41   R(22,60)                1.0049         estimate D2E/DX2                !
 ! R42   R(22,61)                1.1697         estimate D2E/DX2                !
 ! R43   R(23,62)                1.1103         estimate D2E/DX2                !
 ! R44   R(24,25)                1.4368         estimate D2E/DX2                !
 ! R45   R(24,30)                1.7414         estimate D2E/DX2                !
 ! R46   R(25,26)                1.327          estimate D2E/DX2                !
 ! R47   R(25,28)                1.3739         estimate D2E/DX2                !
 ! R48   R(26,27)                1.5075         estimate D2E/DX2                !
 ! R49   R(27,63)                1.0946         estimate D2E/DX2                !
 ! R50   R(27,64)                1.0154         estimate D2E/DX2                !
 ! R51   R(27,65)                1.0971         estimate D2E/DX2                !
 ! R52   R(28,29)                1.4323         estimate D2E/DX2                !
 ! R53   R(28,66)                1.0709         estimate D2E/DX2                !
 ! R54   R(29,30)                1.7118         estimate D2E/DX2                !
 ! R55   R(29,31)                1.3888         estimate D2E/DX2                !
 ! R56   R(31,32)                1.4346         estimate D2E/DX2                !
 ! R57   R(31,38)                1.4179         estimate D2E/DX2                !
 ! R58   R(32,33)                1.3846         estimate D2E/DX2                !
 ! R59   R(32,67)                1.0631         estimate D2E/DX2                !
 ! R60   R(33,34)                1.3714         estimate D2E/DX2                !
 ! R61   R(33,68)                1.0457         estimate D2E/DX2                !
 ! R62   R(34,35)                1.3503         estimate D2E/DX2                !
 ! R63   R(34,39)                1.4758         estimate D2E/DX2                !
 ! R64   R(35,36)                1.3914         estimate D2E/DX2                !
 ! R65   R(35,38)                1.4716         estimate D2E/DX2                !
 ! R66   R(36,37)                1.3529         estimate D2E/DX2                !
 ! R67   R(37,69)                1.1729         estimate D2E/DX2                !
 ! R68   R(37,70)                1.1377         estimate D2E/DX2                !
 ! R69   R(37,71)                1.0734         estimate D2E/DX2                !
 ! R70   R(38,72)                1.0026         estimate D2E/DX2                !
 ! R71   R(39,40)                1.3523         estimate D2E/DX2                !
 ! R72   R(39,45)                1.804          estimate D2E/DX2                !
 ! R73   R(40,41)                1.4015         estimate D2E/DX2                !
 ! R74   R(40,43)                1.4205         estimate D2E/DX2                !
 ! R75   R(41,42)                1.3727         estimate D2E/DX2                !
 ! R76   R(42,73)                1.1421         estimate D2E/DX2                !
 ! R77   R(42,74)                1.1838         estimate D2E/DX2                !
 ! R78   R(42,75)                1.0841         estimate D2E/DX2                !
 ! R79   R(43,44)                1.3451         estimate D2E/DX2                !
 ! R80   R(43,76)                1.0815         estimate D2E/DX2                !
 ! R81   R(44,45)                1.7496         estimate D2E/DX2                !
 ! R82   R(44,77)                1.062          estimate D2E/DX2                !
 ! A1    A(2,1,8)              118.9713         estimate D2E/DX2                !
 ! A2    A(2,1,46)             115.0123         estimate D2E/DX2                !
 ! A3    A(8,1,46)             126.0069         estimate D2E/DX2                !
 ! A4    A(1,2,3)              117.5682         estimate D2E/DX2                !
 ! A5    A(1,2,47)             119.378          estimate D2E/DX2                !
 ! A6    A(3,2,47)             122.8025         estimate D2E/DX2                !
 ! A7    A(2,3,4)              121.2262         estimate D2E/DX2                !
 ! A8    A(2,3,48)             118.4433         estimate D2E/DX2                !
 ! A9    A(4,3,48)             119.712          estimate D2E/DX2                !
 ! A10   A(3,4,5)              120.2381         estimate D2E/DX2                !
 ! A11   A(3,4,9)              117.0675         estimate D2E/DX2                !
 ! A12   A(5,4,9)              122.5281         estimate D2E/DX2                !
 ! A13   A(4,5,6)              118.4011         estimate D2E/DX2                !
 ! A14   A(4,5,8)              119.8701         estimate D2E/DX2                !
 ! A15   A(6,5,8)              120.8403         estimate D2E/DX2                !
 ! A16   A(5,6,7)              110.4137         estimate D2E/DX2                !
 ! A17   A(6,7,49)             112.7367         estimate D2E/DX2                !
 ! A18   A(6,7,50)             106.3186         estimate D2E/DX2                !
 ! A19   A(6,7,51)             115.1847         estimate D2E/DX2                !
 ! A20   A(49,7,50)            105.6265         estimate D2E/DX2                !
 ! A21   A(49,7,51)            108.7099         estimate D2E/DX2                !
 ! A22   A(50,7,51)            107.6846         estimate D2E/DX2                !
 ! A23   A(1,8,5)              121.8339         estimate D2E/DX2                !
 ! A24   A(1,8,52)             120.8484         estimate D2E/DX2                !
 ! A25   A(5,8,52)             117.091          estimate D2E/DX2                !
 ! A26   A(4,9,10)             129.7477         estimate D2E/DX2                !
 ! A27   A(4,9,15)             118.332          estimate D2E/DX2                !
 ! A28   A(10,9,15)            111.8214         estimate D2E/DX2                !
 ! A29   A(9,10,11)            116.3277         estimate D2E/DX2                !
 ! A30   A(9,10,13)            113.5516         estimate D2E/DX2                !
 ! A31   A(11,10,13)           130.0672         estimate D2E/DX2                !
 ! A32   A(10,11,12)           113.5344         estimate D2E/DX2                !
 ! A33   A(11,12,53)           116.7759         estimate D2E/DX2                !
 ! A34   A(11,12,54)           108.2701         estimate D2E/DX2                !
 ! A35   A(11,12,55)           109.9373         estimate D2E/DX2                !
 ! A36   A(53,12,54)           107.9786         estimate D2E/DX2                !
 ! A37   A(53,12,55)           108.4093         estimate D2E/DX2                !
 ! A38   A(54,12,55)           104.7931         estimate D2E/DX2                !
 ! A39   A(10,13,14)           112.0733         estimate D2E/DX2                !
 ! A40   A(10,13,56)           125.1343         estimate D2E/DX2                !
 ! A41   A(14,13,56)           122.4723         estimate D2E/DX2                !
 ! A42   A(13,14,15)           111.2793         estimate D2E/DX2                !
 ! A43   A(13,14,16)           129.3866         estimate D2E/DX2                !
 ! A44   A(15,14,16)           119.1579         estimate D2E/DX2                !
 ! A45   A(9,15,14)             90.8739         estimate D2E/DX2                !
 ! A46   A(14,16,17)           120.8941         estimate D2E/DX2                !
 ! A47   A(14,16,23)           120.6484         estimate D2E/DX2                !
 ! A48   A(17,16,23)           118.1764         estimate D2E/DX2                !
 ! A49   A(16,17,18)           121.443          estimate D2E/DX2                !
 ! A50   A(16,17,57)           120.672          estimate D2E/DX2                !
 ! A51   A(18,17,57)           116.8909         estimate D2E/DX2                !
 ! A52   A(17,18,19)           120.2005         estimate D2E/DX2                !
 ! A53   A(17,18,58)           123.7135         estimate D2E/DX2                !
 ! A54   A(19,18,58)           116.0832         estimate D2E/DX2                !
 ! A55   A(18,19,20)           118.0145         estimate D2E/DX2                !
 ! A56   A(18,19,24)           120.6457         estimate D2E/DX2                !
 ! A57   A(20,19,24)           121.2976         estimate D2E/DX2                !
 ! A58   A(19,20,21)           119.3992         estimate D2E/DX2                !
 ! A59   A(19,20,23)           116.3482         estimate D2E/DX2                !
 ! A60   A(21,20,23)           124.0218         estimate D2E/DX2                !
 ! A61   A(20,21,22)           111.1223         estimate D2E/DX2                !
 ! A62   A(21,22,59)           113.1031         estimate D2E/DX2                !
 ! A63   A(21,22,60)           109.8334         estimate D2E/DX2                !
 ! A64   A(21,22,61)           107.2332         estimate D2E/DX2                !
 ! A65   A(59,22,60)           112.9098         estimate D2E/DX2                !
 ! A66   A(59,22,61)           107.0902         estimate D2E/DX2                !
 ! A67   A(60,22,61)           106.2366         estimate D2E/DX2                !
 ! A68   A(16,23,20)           125.2168         estimate D2E/DX2                !
 ! A69   A(16,23,62)           121.8693         estimate D2E/DX2                !
 ! A70   A(20,23,62)           112.3954         estimate D2E/DX2                !
 ! A71   A(19,24,25)           129.8071         estimate D2E/DX2                !
 ! A72   A(19,24,30)           122.5403         estimate D2E/DX2                !
 ! A73   A(25,24,30)           107.4604         estimate D2E/DX2                !
 ! A74   A(24,25,26)           114.4088         estimate D2E/DX2                !
 ! A75   A(24,25,28)           113.2907         estimate D2E/DX2                !
 ! A76   A(26,25,28)           132.2964         estimate D2E/DX2                !
 ! A77   A(25,26,27)           110.9678         estimate D2E/DX2                !
 ! A78   A(26,27,63)           102.7693         estimate D2E/DX2                !
 ! A79   A(26,27,64)           109.5782         estimate D2E/DX2                !
 ! A80   A(26,27,65)           107.9584         estimate D2E/DX2                !
 ! A81   A(63,27,64)           111.8225         estimate D2E/DX2                !
 ! A82   A(63,27,65)           106.6092         estimate D2E/DX2                !
 ! A83   A(64,27,65)           117.0787         estimate D2E/DX2                !
 ! A84   A(25,28,29)           115.757          estimate D2E/DX2                !
 ! A85   A(25,28,66)           126.1024         estimate D2E/DX2                !
 ! A86   A(29,28,66)           117.8215         estimate D2E/DX2                !
 ! A87   A(28,29,30)           107.2714         estimate D2E/DX2                !
 ! A88   A(28,29,31)           132.4639         estimate D2E/DX2                !
 ! A89   A(30,29,31)           120.2575         estimate D2E/DX2                !
 ! A90   A(24,30,29)            95.9448         estimate D2E/DX2                !
 ! A91   A(29,31,32)           124.9119         estimate D2E/DX2                !
 ! A92   A(29,31,38)           117.8665         estimate D2E/DX2                !
 ! A93   A(32,31,38)           117.0566         estimate D2E/DX2                !
 ! A94   A(31,32,33)           122.2131         estimate D2E/DX2                !
 ! A95   A(31,32,67)           115.8712         estimate D2E/DX2                !
 ! A96   A(33,32,67)           121.9116         estimate D2E/DX2                !
 ! A97   A(32,33,34)           119.5127         estimate D2E/DX2                !
 ! A98   A(32,33,68)           115.4053         estimate D2E/DX2                !
 ! A99   A(34,33,68)           125.029          estimate D2E/DX2                !
 ! A100  A(33,34,35)           122.4235         estimate D2E/DX2                !
 ! A101  A(33,34,39)           114.4141         estimate D2E/DX2                !
 ! A102  A(35,34,39)           123.0461         estimate D2E/DX2                !
 ! A103  A(34,35,36)           120.156          estimate D2E/DX2                !
 ! A104  A(34,35,38)           119.6291         estimate D2E/DX2                !
 ! A105  A(36,35,38)           119.4439         estimate D2E/DX2                !
 ! A106  A(35,36,37)           112.1361         estimate D2E/DX2                !
 ! A107  A(36,37,69)           108.5061         estimate D2E/DX2                !
 ! A108  A(36,37,70)           113.7606         estimate D2E/DX2                !
 ! A109  A(36,37,71)           115.8363         estimate D2E/DX2                !
 ! A110  A(69,37,70)           104.1506         estimate D2E/DX2                !
 ! A111  A(69,37,71)           104.6443         estimate D2E/DX2                !
 ! A112  A(70,37,71)           108.8927         estimate D2E/DX2                !
 ! A113  A(31,38,35)           118.7768         estimate D2E/DX2                !
 ! A114  A(31,38,72)           122.2901         estimate D2E/DX2                !
 ! A115  A(35,38,72)           118.9238         estimate D2E/DX2                !
 ! A116  A(34,39,40)           134.3768         estimate D2E/DX2                !
 ! A117  A(34,39,45)           117.4901         estimate D2E/DX2                !
 ! A118  A(40,39,45)           108.1247         estimate D2E/DX2                !
 ! A119  A(39,40,41)           115.7535         estimate D2E/DX2                !
 ! A120  A(39,40,43)           118.4223         estimate D2E/DX2                !
 ! A121  A(41,40,43)           125.8242         estimate D2E/DX2                !
 ! A122  A(40,41,42)           116.2285         estimate D2E/DX2                !
 ! A123  A(41,42,73)           110.7346         estimate D2E/DX2                !
 ! A124  A(41,42,74)           113.6581         estimate D2E/DX2                !
 ! A125  A(41,42,75)           110.2058         estimate D2E/DX2                !
 ! A126  A(73,42,74)           105.5474         estimate D2E/DX2                !
 ! A127  A(73,42,75)           109.46           estimate D2E/DX2                !
 ! A128  A(74,42,75)           107.0368         estimate D2E/DX2                !
 ! A129  A(40,43,44)           108.4661         estimate D2E/DX2                !
 ! A130  A(40,43,76)           127.092          estimate D2E/DX2                !
 ! A131  A(44,43,76)           124.0789         estimate D2E/DX2                !
 ! A132  A(43,44,45)           115.8536         estimate D2E/DX2                !
 ! A133  A(43,44,77)           128.1723         estimate D2E/DX2                !
 ! A134  A(45,44,77)           115.9047         estimate D2E/DX2                !
 ! A135  A(39,45,44)            89.0467         estimate D2E/DX2                !
 ! D1    D(8,1,2,3)             -5.957          estimate D2E/DX2                !
 ! D2    D(8,1,2,47)           179.6397         estimate D2E/DX2                !
 ! D3    D(46,1,2,3)           175.0947         estimate D2E/DX2                !
 ! D4    D(46,1,2,47)            0.6915         estimate D2E/DX2                !
 ! D5    D(2,1,8,5)              2.5752         estimate D2E/DX2                !
 ! D6    D(2,1,8,52)           176.9453         estimate D2E/DX2                !
 ! D7    D(46,1,8,5)          -178.603          estimate D2E/DX2                !
 ! D8    D(46,1,8,52)           -4.2329         estimate D2E/DX2                !
 ! D9    D(1,2,3,4)              4.9672         estimate D2E/DX2                !
 ! D10   D(1,2,3,48)           175.9229         estimate D2E/DX2                !
 ! D11   D(47,2,3,4)           179.1643         estimate D2E/DX2                !
 ! D12   D(47,2,3,48)           -9.88           estimate D2E/DX2                !
 ! D13   D(2,3,4,5)             -0.5906         estimate D2E/DX2                !
 ! D14   D(2,3,4,9)            174.8407         estimate D2E/DX2                !
 ! D15   D(48,3,4,5)          -171.4332         estimate D2E/DX2                !
 ! D16   D(48,3,4,9)             3.9981         estimate D2E/DX2                !
 ! D17   D(3,4,5,6)           -172.3395         estimate D2E/DX2                !
 ! D18   D(3,4,5,8)             -3.0349         estimate D2E/DX2                !
 ! D19   D(9,4,5,6)             12.4863         estimate D2E/DX2                !
 ! D20   D(9,4,5,8)           -178.2091         estimate D2E/DX2                !
 ! D21   D(3,4,9,10)            68.4187         estimate D2E/DX2                !
 ! D22   D(3,4,9,15)          -115.524          estimate D2E/DX2                !
 ! D23   D(5,4,9,10)          -116.2631         estimate D2E/DX2                !
 ! D24   D(5,4,9,15)            59.7943         estimate D2E/DX2                !
 ! D25   D(4,5,6,7)           -136.1133         estimate D2E/DX2                !
 ! D26   D(8,5,6,7)             54.69           estimate D2E/DX2                !
 ! D27   D(4,5,8,1)              1.9285         estimate D2E/DX2                !
 ! D28   D(4,5,8,52)          -172.643          estimate D2E/DX2                !
 ! D29   D(6,5,8,1)            170.9678         estimate D2E/DX2                !
 ! D30   D(6,5,8,52)            -3.6037         estimate D2E/DX2                !
 ! D31   D(5,6,7,49)            43.4621         estimate D2E/DX2                !
 ! D32   D(5,6,7,50)           158.7401         estimate D2E/DX2                !
 ! D33   D(5,6,7,51)           -82.0868         estimate D2E/DX2                !
 ! D34   D(4,9,10,11)           -0.5912         estimate D2E/DX2                !
 ! D35   D(4,9,10,13)          177.0198         estimate D2E/DX2                !
 ! D36   D(15,9,10,11)        -176.8533         estimate D2E/DX2                !
 ! D37   D(15,9,10,13)           0.7577         estimate D2E/DX2                !
 ! D38   D(4,9,15,14)          179.5742         estimate D2E/DX2                !
 ! D39   D(10,9,15,14)          -3.6903         estimate D2E/DX2                !
 ! D40   D(9,10,11,12)        -174.2894         estimate D2E/DX2                !
 ! D41   D(13,10,11,12)          8.5726         estimate D2E/DX2                !
 ! D42   D(9,10,13,14)           3.8468         estimate D2E/DX2                !
 ! D43   D(9,10,13,56)         177.4603         estimate D2E/DX2                !
 ! D44   D(11,10,13,14)       -178.9514         estimate D2E/DX2                !
 ! D45   D(11,10,13,56)         -5.3379         estimate D2E/DX2                !
 ! D46   D(10,11,12,53)         55.6216         estimate D2E/DX2                !
 ! D47   D(10,11,12,54)        177.6729         estimate D2E/DX2                !
 ! D48   D(10,11,12,55)        -68.3873         estimate D2E/DX2                !
 ! D49   D(10,13,14,15)         -6.4948         estimate D2E/DX2                !
 ! D50   D(10,13,14,16)        178.4523         estimate D2E/DX2                !
 ! D51   D(56,13,14,15)        179.6953         estimate D2E/DX2                !
 ! D52   D(56,13,14,16)          4.6424         estimate D2E/DX2                !
 ! D53   D(13,14,15,9)           5.9178         estimate D2E/DX2                !
 ! D54   D(16,14,15,9)        -178.4594         estimate D2E/DX2                !
 ! D55   D(13,14,16,17)        112.7057         estimate D2E/DX2                !
 ! D56   D(13,14,16,23)        -61.0933         estimate D2E/DX2                !
 ! D57   D(15,14,16,17)        -62.0147         estimate D2E/DX2                !
 ! D58   D(15,14,16,23)        124.1864         estimate D2E/DX2                !
 ! D59   D(14,16,17,18)        176.5048         estimate D2E/DX2                !
 ! D60   D(14,16,17,57)          8.266          estimate D2E/DX2                !
 ! D61   D(23,16,17,18)         -9.5467         estimate D2E/DX2                !
 ! D62   D(23,16,17,57)       -177.7855         estimate D2E/DX2                !
 ! D63   D(14,16,23,20)       -178.6738         estimate D2E/DX2                !
 ! D64   D(14,16,23,62)         -7.5725         estimate D2E/DX2                !
 ! D65   D(17,16,23,20)          7.3622         estimate D2E/DX2                !
 ! D66   D(17,16,23,62)        178.4635         estimate D2E/DX2                !
 ! D67   D(16,17,18,19)          6.0976         estimate D2E/DX2                !
 ! D68   D(16,17,18,58)       -174.5393         estimate D2E/DX2                !
 ! D69   D(57,17,18,19)        174.761          estimate D2E/DX2                !
 ! D70   D(57,17,18,58)         -5.8759         estimate D2E/DX2                !
 ! D71   D(17,18,19,20)         -0.287          estimate D2E/DX2                !
 ! D72   D(17,18,19,24)        177.3814         estimate D2E/DX2                !
 ! D73   D(58,18,19,20)       -179.6971         estimate D2E/DX2                !
 ! D74   D(58,18,19,24)         -2.0287         estimate D2E/DX2                !
 ! D75   D(18,19,20,21)       -176.6598         estimate D2E/DX2                !
 ! D76   D(18,19,20,23)         -1.9572         estimate D2E/DX2                !
 ! D77   D(24,19,20,21)          5.6878         estimate D2E/DX2                !
 ! D78   D(24,19,20,23)       -179.6096         estimate D2E/DX2                !
 ! D79   D(18,19,24,25)         58.29           estimate D2E/DX2                !
 ! D80   D(18,19,24,30)       -116.0131         estimate D2E/DX2                !
 ! D81   D(20,19,24,25)       -124.119          estimate D2E/DX2                !
 ! D82   D(20,19,24,30)         61.5779         estimate D2E/DX2                !
 ! D83   D(19,20,21,22)       -122.3887         estimate D2E/DX2                !
 ! D84   D(23,20,21,22)         63.3402         estimate D2E/DX2                !
 ! D85   D(19,20,23,16)         -1.7141         estimate D2E/DX2                !
 ! D86   D(19,20,23,62)       -173.5454         estimate D2E/DX2                !
 ! D87   D(21,20,23,16)        172.7167         estimate D2E/DX2                !
 ! D88   D(21,20,23,62)          0.8853         estimate D2E/DX2                !
 ! D89   D(20,21,22,59)         37.4123         estimate D2E/DX2                !
 ! D90   D(20,21,22,60)        164.5532         estimate D2E/DX2                !
 ! D91   D(20,21,22,61)        -80.4173         estimate D2E/DX2                !
 ! D92   D(19,24,25,26)         -0.5448         estimate D2E/DX2                !
 ! D93   D(19,24,25,28)       -179.9013         estimate D2E/DX2                !
 ! D94   D(30,24,25,26)        174.4225         estimate D2E/DX2                !
 ! D95   D(30,24,25,28)         -4.934          estimate D2E/DX2                !
 ! D96   D(19,24,30,29)       -179.5966         estimate D2E/DX2                !
 ! D97   D(25,24,30,29)          4.9885         estimate D2E/DX2                !
 ! D98   D(24,25,26,27)       -179.04           estimate D2E/DX2                !
 ! D99   D(28,25,26,27)          0.1609         estimate D2E/DX2                !
 ! D100  D(24,25,28,29)          2.3853         estimate D2E/DX2                !
 ! D101  D(24,25,28,66)        175.7207         estimate D2E/DX2                !
 ! D102  D(26,25,28,29)       -176.8225         estimate D2E/DX2                !
 ! D103  D(26,25,28,66)         -3.4871         estimate D2E/DX2                !
 ! D104  D(25,26,27,63)        177.0227         estimate D2E/DX2                !
 ! D105  D(25,26,27,64)        -63.955          estimate D2E/DX2                !
 ! D106  D(25,26,27,65)         64.5926         estimate D2E/DX2                !
 ! D107  D(25,28,29,30)          1.4238         estimate D2E/DX2                !
 ! D108  D(25,28,29,31)       -177.5726         estimate D2E/DX2                !
 ! D109  D(66,28,29,30)       -172.49           estimate D2E/DX2                !
 ! D110  D(66,28,29,31)          8.5136         estimate D2E/DX2                !
 ! D111  D(28,29,30,24)         -3.7277         estimate D2E/DX2                !
 ! D112  D(31,29,30,24)        175.4152         estimate D2E/DX2                !
 ! D113  D(28,29,31,32)        120.1687         estimate D2E/DX2                !
 ! D114  D(28,29,31,38)        -55.0132         estimate D2E/DX2                !
 ! D115  D(30,29,31,32)        -58.7218         estimate D2E/DX2                !
 ! D116  D(30,29,31,38)        126.0963         estimate D2E/DX2                !
 ! D117  D(29,31,32,33)       -178.1878         estimate D2E/DX2                !
 ! D118  D(29,31,32,67)          2.5358         estimate D2E/DX2                !
 ! D119  D(38,31,32,33)         -2.9706         estimate D2E/DX2                !
 ! D120  D(38,31,32,67)        177.7531         estimate D2E/DX2                !
 ! D121  D(29,31,38,35)        174.5453         estimate D2E/DX2                !
 ! D122  D(29,31,38,72)         -4.333          estimate D2E/DX2                !
 ! D123  D(32,31,38,35)         -1.0189         estimate D2E/DX2                !
 ! D124  D(32,31,38,72)       -179.8972         estimate D2E/DX2                !
 ! D125  D(31,32,33,34)          2.1117         estimate D2E/DX2                !
 ! D126  D(31,32,33,68)        179.5967         estimate D2E/DX2                !
 ! D127  D(67,32,33,34)       -178.6554         estimate D2E/DX2                !
 ! D128  D(67,32,33,68)         -1.1703         estimate D2E/DX2                !
 ! D129  D(32,33,34,35)          3.2005         estimate D2E/DX2                !
 ! D130  D(32,33,34,39)        179.3886         estimate D2E/DX2                !
 ! D131  D(68,33,34,35)       -174.025          estimate D2E/DX2                !
 ! D132  D(68,33,34,39)          2.1631         estimate D2E/DX2                !
 ! D133  D(33,34,35,36)       -177.0908         estimate D2E/DX2                !
 ! D134  D(33,34,35,38)         -7.2021         estimate D2E/DX2                !
 ! D135  D(39,34,35,36)          7.0506         estimate D2E/DX2                !
 ! D136  D(39,34,35,38)        176.9394         estimate D2E/DX2                !
 ! D137  D(33,34,39,40)         68.4131         estimate D2E/DX2                !
 ! D138  D(33,34,39,45)       -110.3866         estimate D2E/DX2                !
 ! D139  D(35,34,39,40)       -115.4255         estimate D2E/DX2                !
 ! D140  D(35,34,39,45)         65.7748         estimate D2E/DX2                !
 ! D141  D(34,35,36,37)       -138.2358         estimate D2E/DX2                !
 ! D142  D(38,35,36,37)         51.8567         estimate D2E/DX2                !
 ! D143  D(34,35,38,31)          6.0014         estimate D2E/DX2                !
 ! D144  D(34,35,38,72)       -175.082          estimate D2E/DX2                !
 ! D145  D(36,35,38,31)        175.9627         estimate D2E/DX2                !
 ! D146  D(36,35,38,72)         -5.1207         estimate D2E/DX2                !
 ! D147  D(35,36,37,69)        157.9168         estimate D2E/DX2                !
 ! D148  D(35,36,37,70)         42.5108         estimate D2E/DX2                !
 ! D149  D(35,36,37,71)        -84.807          estimate D2E/DX2                !
 ! D150  D(34,39,40,41)          1.3595         estimate D2E/DX2                !
 ! D151  D(34,39,40,43)       -178.7521         estimate D2E/DX2                !
 ! D152  D(45,39,40,41)       -179.7609         estimate D2E/DX2                !
 ! D153  D(45,39,40,43)          0.1275         estimate D2E/DX2                !
 ! D154  D(34,39,45,44)       -179.5445         estimate D2E/DX2                !
 ! D155  D(40,39,45,44)          1.3582         estimate D2E/DX2                !
 ! D156  D(39,40,41,42)       -177.4496         estimate D2E/DX2                !
 ! D157  D(43,40,41,42)          2.6714         estimate D2E/DX2                !
 ! D158  D(39,40,43,44)         -2.0856         estimate D2E/DX2                !
 ! D159  D(39,40,43,76)       -175.3407         estimate D2E/DX2                !
 ! D160  D(41,40,43,44)        177.7905         estimate D2E/DX2                !
 ! D161  D(41,40,43,76)          4.5354         estimate D2E/DX2                !
 ! D162  D(40,41,42,73)        175.8561         estimate D2E/DX2                !
 ! D163  D(40,41,42,74)         57.253          estimate D2E/DX2                !
 ! D164  D(40,41,42,75)        -62.885          estimate D2E/DX2                !
 ! D165  D(40,43,44,45)          3.1723         estimate D2E/DX2                !
 ! D166  D(40,43,44,77)        179.9909         estimate D2E/DX2                !
 ! D167  D(76,43,44,45)        176.6776         estimate D2E/DX2                !
 ! D168  D(76,43,44,77)         -6.5038         estimate D2E/DX2                !
 ! D169  D(43,44,45,39)         -2.7316         estimate D2E/DX2                !
 ! D170  D(77,44,45,39)       -179.9515         estimate D2E/DX2                !
 --------------------------------------------------------------------------------
 Trust Radius=3.00D-01 FncErr=1.00D-07 GrdErr=1.00D-06 EigMax=2.50D+02 EigMin=1.00D-04
 Number of steps in this run=    397 maximum allowed number of steps=    462.
 GradGradGradGradGradGradGradGradGradGradGradGradGradGradGradGradGradGrad

 Leave Link  103 at Sun Jul 26 12:21:18 2020, MaxMem=  4026531840 cpu:               0.2 elap:               0.1
 (Enter /opt/ohpc/pub/libs/gaussian/g16-A.03/sandybridge/g16/l202.exe)
 Stoichiometry    C36H32O6S3
 Framework group  C1[X(C36H32O6S3)]
 Deg. of freedom   225
 Full point group                 C1      NOp   1
 Largest Abelian subgroup         C1      NOp   1
 Largest concise Abelian subgroup C1      NOp   1
                         Standard orientation:                         
 ---------------------------------------------------------------------
 Center     Atomic      Atomic             Coordinates (Angstroms)
 Number     Number       Type             X           Y           Z
 ---------------------------------------------------------------------
      1          6           0      -11.436207   -0.605112   -0.543325
      2          6           0      -10.812592    0.393294   -1.451386
      3          6           0       -9.505551    0.801988   -1.164577
      4          6           0       -8.788209    0.227518   -0.146605
      5          6           0       -9.357459   -0.772313    0.633341
      6          8           0       -8.660726   -1.215205    1.753957
      7          6           0       -8.699042   -2.640262    1.833123
      8          6           0      -10.696483   -1.152160    0.419036
      9          6           0       -7.340463    0.656482    0.005645
     10          6           0       -6.824777    1.853589    0.389438
     11          8           0       -7.757296    2.870776    0.685879
     12          6           0       -7.152994    4.138082    0.956792
     13          6           0       -5.423158    1.858513    0.477524
     14          6           0       -4.890479    0.696751    0.082077
     15         16           0       -6.133764   -0.497255   -0.237305
     16          6           0       -3.477322    0.301495   -0.009400
     17          6           0       -2.945318   -0.690876    0.842953
     18          6           0       -1.647313   -1.118847    0.720506
     19          6           0       -0.747221   -0.462903   -0.209259
     20          6           0       -1.262798    0.634454   -0.991873
     21          8           0       -0.466849    1.223150   -1.917696
     22          6           0       -0.324139    2.648332   -1.656879
     23          6           0       -2.645377    0.951391   -0.807267
     24          6           0        0.617915   -0.863246   -0.304190
     25          6           0        1.180136   -2.147541   -0.618758
     26          8           0        0.282688   -3.098899   -0.843397
     27          6           0        0.954786   -4.414865   -1.142067
     28          6           0        2.554060   -2.154850   -0.614708
     29          6           0        3.181980   -0.919725   -0.251906
     30         16           0        1.935896    0.196778    0.110201
     31          6           0        4.513238   -0.530968   -0.177814
     32          6           0        5.098647    0.541029   -0.930328
     33          6           0        6.443470    0.857911   -0.839863
     34          6           0        7.263052    0.103298   -0.040081
     35          6           0        6.822977   -0.987348    0.623276
     36          8           0        7.680090   -1.683739    1.469756
     37          6           0        7.544252   -3.023787    1.342833
     38          6           0        5.386541   -1.306956    0.625721
     39          6           0        8.675583    0.530905   -0.038118
     40          6           0        9.334399    1.616743    0.426329
     41          8           0        8.546909    2.571866    1.083489
     42          6           0        9.196214    3.703208    1.511135
     43          6           0       10.737097    1.697126    0.217261
     44          6           0       11.140200    0.574553   -0.404495
     45         16           0        9.875835   -0.556213   -0.833146
     46          1           0      -12.477901   -0.830571   -0.754466
     47          1           0      -11.415192    0.844467   -2.251523
     48          1           0       -9.026724    1.458888   -1.834792
     49          1           0       -8.530559   -3.111794    0.887185
     50          1           0       -7.817605   -2.949195    2.492582
     51          1           0       -9.596376   -3.052287    2.270667
     52          1           0      -11.151578   -1.876620    1.159869
     53          1           0       -6.490320    4.541785    0.187794
     54          1           0       -7.968221    4.884382    1.137117
     55          1           0       -6.583591    4.092670    1.929833
     56          1           0       -4.831117    2.701238    0.721807
     57          1           0       -3.580032   -1.259505    1.472602
     58          1           0       -1.237329   -1.913917    1.280592
     59          1           0       -0.265393    2.887219   -0.584452
     60          1           0        0.449818    3.015281   -2.182356
     61          1           0       -1.281732    3.174616   -2.074334
     62          1           0       -3.000743    1.725352   -1.519676
     63          1           0        0.108051   -5.100362   -1.248292
     64          1           0        1.487760   -4.337089   -2.002843
     65          1           0        1.500619   -4.727612   -0.243218
     66          1           0        3.180944   -3.011370   -0.756924
     67          1           0        4.433397    1.086916   -1.554613
     68          1           0        6.758067    1.654379   -1.439995
     69          1           0        8.527537   -3.535591    1.725992
     70          1           0        7.449820   -3.374906    0.264760
     71          1           0        6.760907   -3.471702    1.924125
     72          1           0        5.061680   -2.075228    1.181942
     73          1           0        8.456920    4.447378    1.962874
     74          1           0        9.747960    4.290715    0.644035
     75          1           0        9.947599    3.447215    2.249433
     76          1           0       11.408911    2.459959    0.586498
     77          1           0       12.122552    0.309328   -0.708688
 ---------------------------------------------------------------------
 Rotational constants (GHZ):           0.1879758           0.0160199           0.0152637
 Leave Link  202 at Sun Jul 26 12:21:18 2020, MaxMem=  4026531840 cpu:               0.2 elap:               0.1
 (Enter /opt/ohpc/pub/libs/gaussian/g16-A.03/sandybridge/g16/l301.exe)
 Standard basis: CC-pVDZ (5D, 7F)
 Ernie: Thresh=  0.10000D-02 Tol=  0.10000D-05 Strict=F.
 Ernie:  114 primitive shells out of 1234 were deleted.
 There are   847 symmetry adapted cartesian basis functions of A   symmetry.
 There are   802 symmetry adapted basis functions of A   symmetry.
   802 basis functions,  1823 primitive gaussians,   847 cartesian basis functions
   172 alpha electrons      172 beta electrons
       nuclear repulsion energy      5439.5081560999 Hartrees.
 IExCor=32609 DFT=T Ex+Corr=LC-wPBE ExCW=0 ScaHFX=  1.000000
 ScaDFX=  1.000000  0.000000  1.000000  1.000000 ScalE2=  1.000000  1.000000
 IRadAn=      5 IRanWt=     -1 IRanGd=            0 ICorTp=0 IEmpDi=  4
 HFx  wShort=  0.000000 wLong=  0.460900 cFull=  0.000000 cShort=  0.000000 cLong=  1.000000
 DFx  wShort=  0.000000 wLong=  0.460900 cFull=  0.000000 cShort=  0.000000 cLong=  1.000000
 NAtoms=   77 NActive=   77 NUniq=   77 SFac= 1.00D+00 NAtFMM=   60 NAOKFM=T Big=T
 Integral buffers will be    131072 words long.
 Raffenetti 2 integral format.
 Two-electron integral symmetry is turned on.
 Leave Link  301 at Sun Jul 26 12:21:18 2020, MaxMem=  4026531840 cpu:               0.6 elap:               0.2
 (Enter /opt/ohpc/pub/libs/gaussian/g16-A.03/sandybridge/g16/l302.exe)
 NPDir=0 NMtPBC=     1 NCelOv=     1 NCel=       1 NClECP=     1 NCelD=      1
         NCelK=      1 NCelE2=     1 NClLst=     1 CellRange=     0.0.
 One-electron integrals computed using PRISM.
 One-electron integral symmetry used in STVInt
 NBasis=   802 RedAO= T EigKep=  2.73D-04  NBF=   802
 NBsUse=   802 1.00D-06 EigRej= -1.00D+00 NBFU=   802
 Precomputing XC quadrature grid using
 IXCGrd= 4 IRadAn=           5 IRanWt=          -1 IRanGd=           0 AccXCQ= 0.00D+00.
 Generated NRdTot=       0 NPtTot=           0 NUsed=           0 NTot=          32
 NSgBfM=   740   722   727   738   740 MxSgAt=    77 MxSgA2=    77.
 Leave Link  302 at Sun Jul 26 12:21:25 2020, MaxMem=  4026531840 cpu:              38.0 elap:               6.6
 (Enter /opt/ohpc/pub/libs/gaussian/g16-A.03/sandybridge/g16/l303.exe)
 DipDrv:  MaxL=1.
 Leave Link  303 at Sun Jul 26 12:21:25 2020, MaxMem=  4026531840 cpu:               1.9 elap:               0.5
 (Enter /opt/ohpc/pub/libs/gaussian/g16-A.03/sandybridge/g16/l401.exe)
 ExpMin= 1.22D-01 ExpMax= 1.11D+05 ExpMxC= 1.07D+03 IAcc=3 IRadAn=         5 AccDes= 0.00D+00
 Harris functional with IExCor=32609 and IRadAn=       5 diagonalized for initial guess.
 HarFok:  IExCor=32609 AccDes= 0.00D+00 IRadAn=         5 IDoV= 1 UseB2=F ITyADJ=14
 ICtDFT=  3500011 ScaDFX=  1.000000  1.000000  1.000000  1.000000
 FoFCou: FMM=F IPFlag=           0 FMFlag=      100000 FMFlg1=        2001
         NFxFlg=           0 DoJE=T BraDBF=F KetDBF=T FulRan=T
         wScrn=  0.000000 ICntrl=       500 IOpCl=  0 I1Cent=   200000004 NGrid=           0
         NMat0=    1 NMatS0=      1 NMatT0=    0 NMatD0=    1 NMtDS0=    0 NMtDT0=    0
 Petite list used in FoFCou.
 Harris En= -3034.91168696226    
 JPrj=0 DoOrth=F DoCkMO=F.
 Initial guess <Sx>= 0.0000 <Sy>= 0.0000 <Sz>= 0.0000 <S**2>=-0.0000 S=-0.0000
 Leave Link  401 at Sun Jul 26 12:21:38 2020, MaxMem=  4026531840 cpu:              98.6 elap:              12.4
 (Enter /opt/ohpc/pub/libs/gaussian/g16-A.03/sandybridge/g16/l502.exe)
 Integral symmetry usage will be decided dynamically.
 UHF open shell SCF:
 Using DIIS extrapolation, IDIIS=  1040.
 NGot=  4026531840 LenX=  4025081431 LenY=  4024363175
 Requested convergence on RMS density matrix=1.00D-08 within 128 cycles.
 Requested convergence on MAX density matrix=1.00D-06.
 Requested convergence on             energy=1.00D-06.
 No special actions if energy rises.
 Fock matrices will be formed incrementally for  20 cycles.
 Integral accuracy reduced to 1.0D-05 until final iterations.

 Cycle   1  Pass 0  IDiag  1:
 FoFJK:  IHMeth= 1 ICntrl=       0 DoSepK=T KAlg= 0 I1Cent=           0 FoldK=F
 IRaf=         1 NMat=       1 IRICut=       1 DoRegI=T DoRafI=F ISym2E= 0 IDoP0=0 IntGTp=1.
 FoFCou: FMM=T IPFlag=           0 FMFlag=      100000 FMFlg1=        2001
         NFxFlg=           0 DoJE=T BraDBF=F KetDBF=F FulRan=T
         wScrn=  0.000000 ICntrl=       500 IOpCl=  0 I1Cent=           0 NGrid=           0
         NMat0=    1 NMatS0=      1 NMatT0=    0 NMatD0=    1 NMtDS0=    0 NMtDT0=    0
 Symmetry not used in FoFCou.
 FMM levels:  10  Number of levels for PrismC:   9
 E= -3034.32851534478    
 DIIS: error= 1.53D-02 at cycle   1 NSaved=   1.
 NSaved= 1 IEnMin= 1 EnMin= -3034.32851534478     IErMin= 1 ErrMin= 1.53D-02
 ErrMax= 1.53D-02  0.00D+00 EMaxC= 1.00D-01 BMatC= 3.38D+00 BMatP= 3.38D+00
 IDIUse=3 WtCom= 8.47D-01 WtEn= 1.53D-01
 Coeff-Com:  0.100D+01
 Coeff-En:   0.100D+01
 Coeff:      0.100D+01
 Gap=     0.337 Goal=   None    Shift=    0.000
 Gap=     0.337 Goal=   None    Shift=    0.000
 GapD=    0.337 DampG=1.000 DampE=0.500 DampFc=0.5000 IDamp=-1.
 Damping current iteration by 5.00D-01
 RMSDP=2.34D-03 MaxDP=1.32D-01              OVMax= 1.75D-01

 Cycle   2  Pass 0  IDiag  1:
 RMSU=  1.15D-03    CP:  9.85D-01
 E= -3034.84309620704     Delta-E=       -0.514580862258 Rises=F Damp=T
 DIIS: error= 4.43D-03 at cycle   2 NSaved=   2.
 NSaved= 2 IEnMin= 2 EnMin= -3034.84309620704     IErMin= 2 ErrMin= 4.43D-03
 ErrMax= 4.43D-03  0.00D+00 EMaxC= 1.00D-01 BMatC= 2.43D-01 BMatP= 3.38D+00
 IDIUse=3 WtCom= 9.56D-01 WtEn= 4.43D-02
 Coeff-Com: -0.188D+00 0.119D+01
 Coeff-En:   0.000D+00 0.100D+01
 Coeff:     -0.180D+00 0.118D+01
 Gap=     0.314 Goal=   None    Shift=    0.000
 Gap=     0.314 Goal=   None    Shift=    0.000
 RMSDP=7.89D-04 MaxDP=3.07D-02 DE=-5.15D-01 OVMax= 9.42D-02

 Cycle   3  Pass 0  IDiag  1:
 RMSU=  6.66D-04    CP:  9.72D-01  1.34D+00
 E= -3035.29356434743     Delta-E=       -0.450468140396 Rises=F Damp=F
 DIIS: error= 1.30D-03 at cycle   3 NSaved=   3.
 NSaved= 3 IEnMin= 3 EnMin= -3035.29356434743     IErMin= 3 ErrMin= 1.30D-03
 ErrMax= 1.30D-03  0.00D+00 EMaxC= 1.00D-01 BMatC= 3.32D-02 BMatP= 2.43D-01
 IDIUse=3 WtCom= 9.87D-01 WtEn= 1.30D-02
 Coeff-Com: -0.727D-01 0.307D+00 0.765D+00
 Coeff-En:   0.000D+00 0.000D+00 0.100D+01
 Coeff:     -0.717D-01 0.303D+00 0.768D+00
 Gap=     0.305 Goal=   None    Shift=    0.000
 Gap=     0.305 Goal=   None    Shift=    0.000
 RMSDP=1.89D-04 MaxDP=1.21D-02 DE=-4.50D-01 OVMax= 2.43D-02

 Cycle   4  Pass 0  IDiag  1:
 RMSU=  1.73D-04    CP:  9.71D-01  1.39D+00  9.27D-01
 E= -3035.30266038844     Delta-E=       -0.009096041005 Rises=F Damp=F
 DIIS: error= 6.69D-04 at cycle   4 NSaved=   4.
 NSaved= 4 IEnMin= 4 EnMin= -3035.30266038844     IErMin= 4 ErrMin= 6.69D-04
 ErrMax= 6.69D-04  0.00D+00 EMaxC= 1.00D-01 BMatC= 7.09D-03 BMatP= 3.32D-02
 IDIUse=3 WtCom= 9.93D-01 WtEn= 6.69D-03
 Coeff-Com: -0.574D-03-0.144D-01 0.286D+00 0.729D+00
 Coeff-En:   0.000D+00 0.000D+00 0.000D+00 0.100D+01
 Coeff:     -0.570D-03-0.143D-01 0.284D+00 0.731D+00
 Gap=     0.306 Goal=   None    Shift=    0.000
 Gap=     0.306 Goal=   None    Shift=    0.000
 RMSDP=7.99D-05 MaxDP=4.86D-03 DE=-9.10D-03 OVMax= 1.01D-02

 Cycle   5  Pass 0  IDiag  1:
 RMSU=  5.89D-05    CP:  9.71D-01  1.39D+00  1.00D+00  9.01D-01
 E= -3035.30491646693     Delta-E=       -0.002256078489 Rises=F Damp=F
 DIIS: error= 2.16D-04 at cycle   5 NSaved=   5.
 NSaved= 5 IEnMin= 5 EnMin= -3035.30491646693     IErMin= 5 ErrMin= 2.16D-04
 ErrMax= 2.16D-04  0.00D+00 EMaxC= 1.00D-01 BMatC= 8.06D-04 BMatP= 7.09D-03
 IDIUse=3 WtCom= 9.98D-01 WtEn= 2.16D-03
 Coeff-Com:  0.973D-02-0.400D-01 0.207D-01 0.232D+00 0.778D+00
 Coeff-En:   0.000D+00 0.000D+00 0.000D+00 0.000D+00 0.100D+01
 Coeff:      0.970D-02-0.400D-01 0.207D-01 0.231D+00 0.778D+00
 Gap=     0.308 Goal=   None    Shift=    0.000
 Gap=     0.308 Goal=   None    Shift=    0.000
 RMSDP=3.59D-05 MaxDP=2.18D-03 DE=-2.26D-03 OVMax= 6.62D-03

 Cycle   6  Pass 0  IDiag  1:
 RMSU=  2.75D-05    CP:  9.71D-01  1.39D+00  1.02D+00  1.00D+00  1.08D+00
 E= -3035.30532712583     Delta-E=       -0.000410658904 Rises=F Damp=F
 DIIS: error= 1.34D-04 at cycle   6 NSaved=   6.
 NSaved= 6 IEnMin= 6 EnMin= -3035.30532712583     IErMin= 6 ErrMin= 1.34D-04
 ErrMax= 1.34D-04  0.00D+00 EMaxC= 1.00D-01 BMatC= 2.28D-04 BMatP= 8.06D-04
 IDIUse=3 WtCom= 9.99D-01 WtEn= 1.34D-03
 Coeff-Com:  0.514D-02-0.161D-01-0.436D-01-0.554D-01 0.312D+00 0.798D+00
 Coeff-En:   0.000D+00 0.000D+00 0.000D+00 0.000D+00 0.000D+00 0.100D+01
 Coeff:      0.513D-02-0.161D-01-0.435D-01-0.553D-01 0.311D+00 0.799D+00
 Gap=     0.308 Goal=   None    Shift=    0.000
 Gap=     0.308 Goal=   None    Shift=    0.000
 RMSDP=2.21D-05 MaxDP=1.43D-03 DE=-4.11D-04 OVMax= 3.41D-03

 Cycle   7  Pass 0  IDiag  1:
 RMSU=  1.37D-05    CP:  9.71D-01  1.39D+00  1.03D+00  1.04D+00  1.32D+00
                    CP:  1.11D+00
 E= -3035.30547902980     Delta-E=       -0.000151903965 Rises=F Damp=F
 DIIS: error= 7.46D-05 at cycle   7 NSaved=   7.
 NSaved= 7 IEnMin= 7 EnMin= -3035.30547902980     IErMin= 7 ErrMin= 7.46D-05
 ErrMax= 7.46D-05  0.00D+00 EMaxC= 1.00D-01 BMatC= 3.90D-05 BMatP= 2.28D-04
 IDIUse=1 WtCom= 1.00D+00 WtEn= 0.00D+00
 Coeff-Com: -0.588D-03 0.444D-02-0.109D-01-0.684D-01-0.116D+00 0.207D+00
 Coeff-Com:  0.985D+00
 Coeff:     -0.588D-03 0.444D-02-0.109D-01-0.684D-01-0.116D+00 0.207D+00
 Coeff:      0.985D+00
 Gap=     0.308 Goal=   None    Shift=    0.000
 Gap=     0.308 Goal=   None    Shift=    0.000
 RMSDP=1.60D-05 MaxDP=8.46D-04 DE=-1.52D-04 OVMax= 2.72D-03

 Cycle   8  Pass 0  IDiag  1:
 RMSU=  8.68D-06    CP:  9.71D-01  1.39D+00  1.04D+00  1.06D+00  1.43D+00
                    CP:  1.46D+00  1.36D+00
 E= -3035.30551936647     Delta-E=       -0.000040336676 Rises=F Damp=F
 DIIS: error= 2.35D-05 at cycle   8 NSaved=   8.
 NSaved= 8 IEnMin= 8 EnMin= -3035.30551936647     IErMin= 8 ErrMin= 2.35D-05
 ErrMax= 2.35D-05  0.00D+00 EMaxC= 1.00D-01 BMatC= 7.89D-06 BMatP= 3.90D-05
 IDIUse=1 WtCom= 1.00D+00 WtEn= 0.00D+00
 Coeff-Com: -0.896D-03 0.380D-02 0.438D-02-0.143D-01-0.922D-01-0.697D-01
 Coeff-Com:  0.321D+00 0.847D+00
 Coeff:     -0.896D-03 0.380D-02 0.438D-02-0.143D-01-0.922D-01-0.697D-01
 Coeff:      0.321D+00 0.847D+00
 Gap=     0.308 Goal=   None    Shift=    0.000
 Gap=     0.308 Goal=   None    Shift=    0.000
 RMSDP=1.08D-05 MaxDP=3.73D-04 DE=-4.03D-05 OVMax= 8.57D-04

 Cycle   9  Pass 0  IDiag  1:
 RMSU=  7.15D-06    CP:  9.71D-01  1.39D+00  1.04D+00  1.06D+00  1.48D+00
                    CP:  1.58D+00  1.76D+00  1.48D+00
 E= -3035.30552396339     Delta-E=       -0.000004596919 Rises=F Damp=F
 DIIS: error= 2.45D-05 at cycle   9 NSaved=   9.
 NSaved= 9 IEnMin= 9 EnMin= -3035.30552396339     IErMin= 8 ErrMin= 2.35D-05
 ErrMax= 2.45D-05  0.00D+00 EMaxC= 1.00D-01 BMatC= 2.07D-06 BMatP= 7.89D-06
 IDIUse=1 WtCom= 1.00D+00 WtEn= 0.00D+00
 Coeff-Com: -0.194D-03 0.631D-03 0.336D-02 0.463D-02-0.166D-01-0.573D-01
 Coeff-Com: -0.272D-01 0.304D+00 0.789D+00
 Coeff:     -0.194D-03 0.631D-03 0.336D-02 0.463D-02-0.166D-01-0.573D-01
 Coeff:     -0.272D-01 0.304D+00 0.789D+00
 Gap=     0.308 Goal=   None    Shift=    0.000
 Gap=     0.308 Goal=   None    Shift=    0.000
 RMSDP=1.09D-05 MaxDP=2.57D-04 DE=-4.60D-06 OVMax= 3.98D-04

 Cycle  10  Pass 0  IDiag  1:
 RMSU=  6.10D-06    CP:  9.71D-01  1.39D+00  1.04D+00  1.06D+00  1.49D+00
                    CP:  1.64D+00  1.97D+00  2.17D+00  1.81D+00
 E= -3035.30552600162     Delta-E=       -0.000002038232 Rises=F Damp=F
 DIIS: error= 2.89D-05 at cycle  10 NSaved=  10.
 NSaved=10 IEnMin=10 EnMin= -3035.30552600162     IErMin= 8 ErrMin= 2.35D-05
 ErrMax= 2.89D-05  0.00D+00 EMaxC= 1.00D-01 BMatC= 2.03D-06 BMatP= 2.07D-06
 IDIUse=1 WtCom= 1.00D+00 WtEn= 0.00D+00
 Coeff-Com: -0.146D-03 0.481D-03 0.262D-02 0.358D-02-0.127D-01-0.445D-01
 Coeff-Com: -0.210D-01 0.233D+00 0.615D+00 0.223D+00
 Coeff:     -0.146D-03 0.481D-03 0.262D-02 0.358D-02-0.127D-01-0.445D-01
 Coeff:     -0.210D-01 0.233D+00 0.615D+00 0.223D+00
 Gap=     0.308 Goal=   None    Shift=    0.000
 Gap=     0.308 Goal=   None    Shift=    0.000
 RMSDP=3.96D-06 MaxDP=1.11D-04 DE=-2.04D-06 OVMax= 2.69D-05

 Initial convergence to 1.0D-05 achieved.  Increase integral accuracy.
 Cycle  11  Pass 1  IDiag  1:
 E= -3035.30489347233     Delta-E=        0.000632529292 Rises=F Damp=F
 DIIS: error= 2.70D-04 at cycle   1 NSaved=   1.
 NSaved= 1 IEnMin= 1 EnMin= -3035.30489347233     IErMin= 1 ErrMin= 2.70D-04
 ErrMax= 2.70D-04  0.00D+00 EMaxC= 1.00D-01 BMatC= 1.68D-04 BMatP= 1.68D-04
 IDIUse=3 WtCom= 9.97D-01 WtEn= 2.70D-03
 Coeff-Com:  0.100D+01
 Coeff-En:   0.100D+01
 Coeff:      0.100D+01
 Gap=     0.308 Goal=   None    Shift=    0.000
 Gap=     0.308 Goal=   None    Shift=    0.000
 RMSDP=3.96D-06 MaxDP=1.11D-04 DE= 6.33D-04 OVMax= 7.19D-04

 Cycle  12  Pass 1  IDiag  1:
 RMSU=  1.72D-04    CP:  1.00D+00
 E= -3035.30492869990     Delta-E=       -0.000035227573 Rises=F Damp=F
 DIIS: error= 1.12D-05 at cycle   2 NSaved=   2.
 NSaved= 2 IEnMin= 2 EnMin= -3035.30492869990     IErMin= 2 ErrMin= 1.12D-05
 ErrMax= 1.12D-05  0.00D+00 EMaxC= 1.00D-01 BMatC= 3.82D-07 BMatP= 1.68D-04
 IDIUse=1 WtCom= 1.00D+00 WtEn= 0.00D+00
 Coeff-Com: -0.373D-01 0.104D+01
 Coeff:     -0.373D-01 0.104D+01
 Gap=     0.308 Goal=   None    Shift=    0.000
 Gap=     0.308 Goal=   None    Shift=    0.000
 RMSDP=9.16D-06 MaxDP=6.02D-04 DE=-3.52D-05 OVMax= 1.06D-04

 Cycle  13  Pass 1  IDiag  1:
 RMSU=  2.52D-06    CP:  1.00D+00  1.05D+00
 E= -3035.30492883146     Delta-E=       -0.000000131557 Rises=F Damp=F
 DIIS: error= 2.32D-06 at cycle   3 NSaved=   3.
 NSaved= 3 IEnMin= 3 EnMin= -3035.30492883146     IErMin= 3 ErrMin= 2.32D-06
 ErrMax= 2.32D-06  0.00D+00 EMaxC= 1.00D-01 BMatC= 6.96D-08 BMatP= 3.82D-07
 IDIUse=1 WtCom= 1.00D+00 WtEn= 0.00D+00
 Coeff-Com: -0.135D-01 0.353D+00 0.660D+00
 Coeff:     -0.135D-01 0.353D+00 0.660D+00
 Gap=     0.308 Goal=   None    Shift=    0.000
 Gap=     0.308 Goal=   None    Shift=    0.000
 RMSDP=3.78D-07 MaxDP=2.11D-05 DE=-1.32D-07 OVMax= 3.79D-05

 Cycle  14  Pass 1  IDiag  1:
 RMSU=  2.84D-07    CP:  1.00D+00  1.05D+00  1.06D+00
 E= -3035.30492885233     Delta-E=       -0.000000020869 Rises=F Damp=F
 DIIS: error= 1.81D-06 at cycle   4 NSaved=   4.
 NSaved= 4 IEnMin= 4 EnMin= -3035.30492885233     IErMin= 4 ErrMin= 1.81D-06
 ErrMax= 1.81D-06  0.00D+00 EMaxC= 1.00D-01 BMatC= 1.72D-08 BMatP= 6.96D-08
 IDIUse=1 WtCom= 1.00D+00 WtEn= 0.00D+00
 Coeff-Com:  0.247D-02-0.785D-01 0.298D+00 0.778D+00
 Coeff:      0.247D-02-0.785D-01 0.298D+00 0.778D+00
 Gap=     0.308 Goal=   None    Shift=    0.000
 Gap=     0.308 Goal=   None    Shift=    0.000
 RMSDP=2.28D-07 MaxDP=1.39D-05 DE=-2.09D-08 OVMax= 3.93D-05

 Cycle  15  Pass 1  IDiag  1:
 RMSU=  1.29D-07    CP:  1.00D+00  1.05D+00  1.12D+00  9.52D-01
 E= -3035.30492885996     Delta-E=       -0.000000007627 Rises=F Damp=F
 DIIS: error= 3.90D-07 at cycle   5 NSaved=   5.
 NSaved= 5 IEnMin= 5 EnMin= -3035.30492885996     IErMin= 5 ErrMin= 3.90D-07
 ErrMax= 3.90D-07  0.00D+00 EMaxC= 1.00D-01 BMatC= 1.46D-09 BMatP= 1.72D-08
 IDIUse=1 WtCom= 1.00D+00 WtEn= 0.00D+00
 Coeff-Com:  0.101D-02-0.267D-01-0.545D-01 0.329D-01 0.105D+01
 Coeff:      0.101D-02-0.267D-01-0.545D-01 0.329D-01 0.105D+01
 Gap=     0.308 Goal=   None    Shift=    0.000
 Gap=     0.308 Goal=   None    Shift=    0.000
 RMSDP=8.13D-08 MaxDP=6.23D-06 DE=-7.63D-09 OVMax= 1.61D-05

 Cycle  16  Pass 1  IDiag  1:
 RMSU=  4.59D-08    CP:  1.00D+00  1.05D+00  1.13D+00  1.07D+00  1.41D+00
 E= -3035.30492886187     Delta-E=       -0.000000001914 Rises=F Damp=F
 DIIS: error= 4.56D-07 at cycle   6 NSaved=   6.
 NSaved= 6 IEnMin= 6 EnMin= -3035.30492886187     IErMin= 5 ErrMin= 3.90D-07
 ErrMax= 4.56D-07  0.00D+00 EMaxC= 1.00D-01 BMatC= 6.81D-10 BMatP= 1.46D-09
 IDIUse=1 WtCom= 1.00D+00 WtEn= 0.00D+00
 Coeff-Com: -0.632D-03 0.229D-01-0.173D+00-0.334D+00 0.556D+00 0.928D+00
 Coeff:     -0.632D-03 0.229D-01-0.173D+00-0.334D+00 0.556D+00 0.928D+00
 Gap=     0.308 Goal=   None    Shift=    0.000
 Gap=     0.308 Goal=   None    Shift=    0.000
 RMSDP=6.54D-08 MaxDP=5.04D-06 DE=-1.91D-09 OVMax= 1.77D-05

 Cycle  17  Pass 1  IDiag  1:
 RMSU=  2.93D-08    CP:  1.00D+00  1.05D+00  1.13D+00  1.15D+00  1.80D+00
                    CP:  1.34D+00
 E= -3035.30492886274     Delta-E=       -0.000000000873 Rises=F Damp=F
 DIIS: error= 8.03D-08 at cycle   7 NSaved=   7.
 NSaved= 7 IEnMin= 7 EnMin= -3035.30492886274     IErMin= 7 ErrMin= 8.03D-08
 ErrMax= 8.03D-08  0.00D+00 EMaxC= 1.00D-01 BMatC= 6.52D-11 BMatP= 6.81D-10
 IDIUse=1 WtCom= 1.00D+00 WtEn= 0.00D+00
 Coeff-Com: -0.346D-03 0.115D-01-0.619D-01-0.130D+00 0.942D-01 0.346D+00
 Coeff-Com:  0.740D+00
 Coeff:     -0.346D-03 0.115D-01-0.619D-01-0.130D+00 0.942D-01 0.346D+00
 Coeff:      0.740D+00
 Gap=     0.308 Goal=   None    Shift=    0.000
 Gap=     0.308 Goal=   None    Shift=    0.000
 RMSDP=1.43D-08 MaxDP=8.98D-07 DE=-8.73D-10 OVMax= 3.11D-06

 Cycle  18  Pass 1  IDiag  1:
 RMSU=  6.40D-09    CP:  1.00D+00  1.05D+00  1.13D+00  1.16D+00  1.86D+00
                    CP:  1.54D+00  1.14D+00
 E= -3035.30492886276     Delta-E=       -0.000000000020 Rises=F Damp=F
 DIIS: error= 2.53D-08 at cycle   8 NSaved=   8.
 NSaved= 8 IEnMin= 8 EnMin= -3035.30492886276     IErMin= 8 ErrMin= 2.53D-08
 ErrMax= 2.53D-08  0.00D+00 EMaxC= 1.00D-01 BMatC= 8.46D-12 BMatP= 6.52D-11
 IDIUse=1 WtCom= 1.00D+00 WtEn= 0.00D+00
 Coeff-Com:  0.307D-04-0.141D-02 0.167D-01 0.326D-01-0.821D-01-0.835D-01
 Coeff-Com:  0.208D+00 0.910D+00
 Coeff:      0.307D-04-0.141D-02 0.167D-01 0.326D-01-0.821D-01-0.835D-01
 Coeff:      0.208D+00 0.910D+00
 Gap=     0.308 Goal=   None    Shift=    0.000
 Gap=     0.308 Goal=   None    Shift=    0.000
 RMSDP=6.68D-09 MaxDP=3.23D-07 DE=-2.00D-11 OVMax= 1.21D-06

 SCF Done:  E(ULC-wPBE) =  -3035.30492886     A.U. after   18 cycles
            NFock= 18  Conv=0.67D-08     -V/T= 2.0050
 <Sx>= 0.0000 <Sy>= 0.0000 <Sz>= 0.0000 <S**2>=-0.0000 S=-0.0000
 <L.S>= 0.000000000000E+00
 KE= 3.020266677925D+03 PE=-1.800697859257D+04 EE= 6.511898829684D+03
 Annihilation of the first spin contaminant:
 S**2 before annihilation    -0.0000,   after    -0.0000
 Leave Link  502 at Sun Jul 26 12:37:42 2020, MaxMem=  4026531840 cpu:            7573.7 elap:             963.8
 (Enter /opt/ohpc/pub/libs/gaussian/g16-A.03/sandybridge/g16/l601.exe)
 Copying SCF densities to generalized density rwf, IOpCl= 1 IROHF=0.

 **********************************************************************

            Population analysis using the SCF density.

 **********************************************************************

 Orbital symmetries:
 Alpha Orbitals:
       Occupied  (A) (A) (A) (A) (A) (A) (A) (A) (A) (A) (A) (A)
                 (A) (A) (A) (A) (A) (A) (A) (A) (A) (A) (A) (A)
                 (A) (A) (A) (A) (A) (A) (A) (A) (A) (A) (A) (A)
                 (A) (A) (A) (A) (A) (A) (A) (A) (A) (A) (A) (A)
                 (A) (A) (A) (A) (A) (A) (A) (A) (A) (A) (A) (A)
                 (A) (A) (A) (A) (A) (A) (A) (A) (A) (A) (A) (A)
                 (A) (A) (A) (A) (A) (A) (A) (A) (A) (A) (A) (A)
                 (A) (A) (A) (A) (A) (A) (A) (A) (A) (A) (A) (A)
                 (A) (A) (A) (A) (A) (A) (A) (A) (A) (A) (A) (A)
                 (A) (A) (A) (A) (A) (A) (A) (A) (A) (A) (A) (A)
                 (A) (A) (A) (A) (A) (A) (A) (A) (A) (A) (A) (A)
                 (A) (A) (A) (A) (A) (A) (A) (A) (A) (A) (A) (A)
                 (A) (A) (A) (A) (A) (A) (A) (A) (A) (A) (A) (A)
                 (A) (A) (A) (A) (A) (A) (A) (A) (A) (A) (A) (A)
                 (A) (A) (A) (A)
       Virtual   (A) (A) (A) (A) (A) (A) (A) (A) (A) (A) (A) (A)
                 (A) (A) (A) (A) (A) (A) (A) (A) (A) (A) (A) (A)
                 (A) (A) (A) (A) (A) (A) (A) (A) (A) (A) (A) (A)
                 (A) (A) (A) (A) (A) (A) (A) (A) (A) (A) (A) (A)
                 (A) (A) (A) (A) (A) (A) (A) (A) (A) (A) (A) (A)
                 (A) (A) (A) (A) (A) (A) (A) (A) (A) (A) (A) (A)
                 (A) (A) (A) (A) (A) (A) (A) (A) (A) (A) (A) (A)
                 (A) (A) (A) (A) (A) (A) (A) (A) (A) (A) (A) (A)
                 (A) (A) (A) (A) (A) (A) (A) (A) (A) (A) (A) (A)
                 (A) (A) (A) (A) (A) (A) (A) (A) (A) (A) (A) (A)
                 (A) (A) (A) (A) (A) (A) (A) (A) (A) (A) (A) (A)
                 (A) (A) (A) (A) (A) (A) (A) (A) (A) (A) (A) (A)
                 (A) (A) (A) (A) (A) (A) (A) (A) (A) (A) (A) (A)
                 (A) (A) (A) (A) (A) (A) (A) (A) (A) (A) (A) (A)
                 (A) (A) (A) (A) (A) (A) (A) (A) (A) (A) (A) (A)
                 (A) (A) (A) (A) (A) (A) (A) (A) (A) (A) (A) (A)
                 (A) (A) (A) (A) (A) (A) (A) (A) (A) (A) (A) (A)
                 (A) (A) (A) (A) (A) (A) (A) (A) (A) (A) (A) (A)
                 (A) (A) (A) (A) (A) (A) (A) (A) (A) (A) (A) (A)
                 (A) (A) (A) (A) (A) (A) (A) (A) (A) (A) (A) (A)
                 (A) (A) (A) (A) (A) (A) (A) (A) (A) (A) (A) (A)
                 (A) (A) (A) (A) (A) (A) (A) (A) (A) (A) (A) (A)
                 (A) (A) (A) (A) (A) (A) (A) (A) (A) (A) (A) (A)
                 (A) (A) (A) (A) (A) (A) (A) (A) (A) (A) (A) (A)
                 (A) (A) (A) (A) (A) (A) (A) (A) (A) (A) (A) (A)
                 (A) (A) (A) (A) (A) (A) (A) (A) (A) (A) (A) (A)
                 (A) (A) (A) (A) (A) (A) (A) (A) (A) (A) (A) (A)
                 (A) (A) (A) (A) (A) (A) (A) (A) (A) (A) (A) (A)
                 (A) (A) (A) (A) (A) (A) (A) (A) (A) (A) (A) (A)
                 (A) (A) (A) (A) (A) (A) (A) (A) (A) (A) (A) (A)
                 (A) (A) (A) (A) (A) (A) (A) (A) (A) (A) (A) (A)
                 (A) (A) (A) (A) (A) (A) (A) (A) (A) (A) (A) (A)
                 (A) (A) (A) (A) (A) (A) (A) (A) (A) (A) (A) (A)
                 (A) (A) (A) (A) (A) (A) (A) (A) (A) (A) (A) (A)
                 (A) (A) (A) (A) (A) (A) (A) (A) (A) (A) (A) (A)
                 (A) (A) (A) (A) (A) (A) (A) (A) (A) (A) (A) (A)
                 (A) (A) (A) (A) (A) (A) (A) (A) (A) (A) (A) (A)
                 (A) (A) (A) (A) (A) (A) (A) (A) (A) (A) (A) (A)
                 (A) (A) (A) (A) (A) (A) (A) (A) (A) (A) (A) (A)
                 (A) (A) (A) (A) (A) (A) (A) (A) (A) (A) (A) (A)
                 (A) (A) (A) (A) (A) (A) (A) (A) (A) (A) (A) (A)
                 (A) (A) (A) (A) (A) (A) (A) (A) (A) (A) (A) (A)
                 (A) (A) (A) (A) (A) (A) (A) (A) (A) (A) (A) (A)
                 (A) (A) (A) (A) (A) (A) (A) (A) (A) (A) (A) (A)
                 (A) (A) (A) (A) (A) (A) (A) (A) (A) (A) (A) (A)
                 (A) (A) (A) (A) (A) (A) (A) (A) (A) (A) (A) (A)
                 (A) (A) (A) (A) (A) (A) (A) (A) (A) (A) (A) (A)
                 (A) (A) (A) (A) (A) (A) (A) (A) (A) (A) (A) (A)
                 (A) (A) (A) (A) (A) (A) (A) (A) (A) (A) (A) (A)
                 (A) (A) (A) (A) (A) (A) (A) (A) (A) (A) (A) (A)
                 (A) (A) (A) (A) (A) (A) (A) (A) (A) (A) (A) (A)
                 (A) (A) (A) (A) (A) (A) (A) (A) (A) (A) (A) (A)
[...]
    17 C(13)  Bbb    -0.0000    -0.000    -0.000    -0.000  0.8127  0.0962 -0.5747
              Bcc     0.0000     0.000     0.000     0.000  0.4004  0.6244  0.6707
 
              Baa    -0.0000    -0.000    -0.000    -0.000  0.2154  0.1874  0.9584
    18 C(13)  Bbb    -0.0000    -0.000    -0.000    -0.000  0.9045 -0.4083 -0.1234
              Bcc     0.0000     0.000     0.000     0.000  0.3682  0.8934 -0.2575
 
              Baa    -0.0000    -0.000    -0.000    -0.000  0.0588  0.9811 -0.1846
    19 C(13)  Bbb     0.0000     0.000     0.000     0.000  0.4091  0.1450  0.9009
              Bcc     0.0000     0.000     0.000     0.000  0.9106 -0.1285 -0.3929
 
              Baa    -0.0000    -0.000    -0.000    -0.000  0.1543  0.3402  0.9276
    20 C(13)  Bbb     0.0000     0.000     0.000     0.000  0.3819  0.8453 -0.3736
              Bcc     0.0000     0.000     0.000     0.000  0.9112 -0.4119 -0.0005
 
              Baa    -0.0000     0.000     0.000     0.000  0.0142  0.2588  0.9658
    21 O(17)  Bbb    -0.0000     0.000     0.000     0.000  0.9806 -0.1927  0.0372
              Bcc     0.0000    -0.000    -0.000    -0.000  0.1957  0.9465 -0.2565
 
              Baa    -0.0000    -0.000    -0.000    -0.000 -0.2696  0.0128  0.9629
    22 C(13)  Bbb    -0.0000    -0.000    -0.000    -0.000  0.8058  0.5504  0.2183
              Bcc     0.0000     0.000     0.000     0.000 -0.5272  0.8348 -0.1587
 
              Baa    -0.0000    -0.000    -0.000    -0.000  0.5067  0.7806 -0.3660
    23 C(13)  Bbb    -0.0000    -0.000    -0.000    -0.000  0.1169  0.3584  0.9262
              Bcc     0.0000     0.000     0.000     0.000  0.8542 -0.5121  0.0903
 
              Baa    -0.0000    -0.000    -0.000    -0.000  0.3417  0.9292  0.1406
    24 C(13)  Bbb     0.0000     0.000     0.000     0.000  0.3688 -0.2701  0.8894
              Bcc     0.0000     0.000     0.000     0.000  0.8644 -0.2520 -0.4350
 
              Baa    -0.0000    -0.000    -0.000    -0.000 -0.3705  0.9118  0.1769
    25 C(13)  Bbb     0.0000     0.000     0.000     0.000  0.0509 -0.1703  0.9841
              Bcc     0.0000     0.000     0.000     0.000  0.9274  0.3736  0.0167
 
              Baa    -0.0000     0.000     0.000     0.000  0.9208 -0.1894  0.3410
    26 O(17)  Bbb     0.0000    -0.000    -0.000    -0.000 -0.2218  0.4647  0.8572
              Bcc     0.0000    -0.000    -0.000    -0.000  0.3208  0.8650 -0.3859
 
              Baa    -0.0000    -0.000    -0.000    -0.000 -0.0457  0.9529 -0.2997
    27 C(13)  Bbb     0.0000     0.000     0.000     0.000 -0.0730  0.2961  0.9524
              Bcc     0.0000     0.000     0.000     0.000  0.9963  0.0654  0.0560
 
              Baa    -0.0000    -0.000    -0.000    -0.000  0.6744  0.7158 -0.1815
    28 C(13)  Bbb     0.0000     0.000     0.000     0.000  0.3240 -0.0660  0.9438
              Bcc     0.0000     0.000     0.000     0.000 -0.6635  0.6952  0.2764
 
              Baa    -0.0000    -0.000    -0.000    -0.000 -0.1310 -0.1595  0.9785
    29 C(13)  Bbb     0.0000     0.000     0.000     0.000  0.9905  0.0209  0.1360
              Bcc     0.0000     0.000     0.000     0.000 -0.0421  0.9870  0.1552
 
              Baa    -0.0000    -0.000    -0.000    -0.000 -0.0547  0.8194 -0.5706
    30 S(33)  Bbb    -0.0000    -0.000    -0.000    -0.000  0.0064  0.5717  0.8204
              Bcc     0.0000     0.000     0.000     0.000  0.9985  0.0412 -0.0365
 
              Baa    -0.0000    -0.000    -0.000    -0.000 -0.1317  0.5692  0.8116
    31 C(13)  Bbb    -0.0000    -0.000    -0.000    -0.000  0.1789  0.8189 -0.5453
              Bcc     0.0000     0.000     0.000     0.000  0.9750 -0.0734  0.2097
 
              Baa    -0.0000    -0.000    -0.000    -0.000 -0.2533  0.9165 -0.3095
    32 C(13)  Bbb    -0.0000    -0.000    -0.000    -0.000  0.9608  0.2758  0.0302
              Bcc     0.0000     0.000     0.000     0.000 -0.1130  0.2897  0.9504
 
              Baa    -0.0000    -0.000    -0.000    -0.000  0.9812 -0.0121  0.1927
    33 C(13)  Bbb    -0.0000    -0.000    -0.000    -0.000 -0.1902  0.1109  0.9755
              Bcc     0.0000     0.000     0.000     0.000  0.0332  0.9938 -0.1065
 
              Baa    -0.0000    -0.000    -0.000    -0.000 -0.1572  0.1508  0.9760
    34 C(13)  Bbb     0.0000     0.000     0.000     0.000 -0.0150  0.9878 -0.1550
              Bcc     0.0000     0.000     0.000     0.000  0.9874  0.0391  0.1530
 
              Baa    -0.0000    -0.000    -0.000    -0.000  0.2079  0.9566 -0.2040
    35 C(13)  Bbb     0.0000     0.000     0.000     0.000  0.8282 -0.2831 -0.4837
              Bcc     0.0000     0.000     0.000     0.000  0.5205  0.0684  0.8511
 
              Baa    -0.0000     0.000     0.000     0.000  0.1340  0.9901 -0.0426
    36 O(17)  Bbb     0.0000    -0.000    -0.000    -0.000  0.9165 -0.1402 -0.3748
              Bcc     0.0000    -0.000    -0.000    -0.000  0.3770 -0.0111  0.9261
 
              Baa    -0.0000    -0.000    -0.000    -0.000  0.8726  0.4357  0.2208
    37 C(13)  Bbb     0.0000     0.000     0.000     0.000 -0.3354  0.2059  0.9193
              Bcc     0.0000     0.000     0.000     0.000 -0.3551  0.8762 -0.3259
 
              Baa    -0.0000    -0.000    -0.000    -0.000  0.8787 -0.4612  0.1233
    38 C(13)  Bbb     0.0000     0.000     0.000     0.000  0.4706  0.8802 -0.0614
              Bcc     0.0000     0.000     0.000     0.000 -0.0802  0.1120  0.9905
 
              Baa    -0.0000    -0.000    -0.000    -0.000 -0.4436  0.3620  0.8199
    39 C(13)  Bbb    -0.0000    -0.000    -0.000    -0.000 -0.3027  0.8005 -0.5172
              Bcc     0.0000     0.000     0.000     0.000  0.8436  0.4776  0.2456
 
              Baa    -0.0000    -0.000    -0.000    -0.000  0.9903 -0.1055 -0.0909
    40 C(13)  Bbb     0.0000     0.000     0.000     0.000  0.0342 -0.4485  0.8931
              Bcc     0.0000     0.000     0.000     0.000  0.1350  0.8875  0.4405
 
              Baa    -0.0000     0.000     0.000     0.000  0.0051 -0.1664  0.9860
    41 O(17)  Bbb    -0.0000     0.000     0.000     0.000  0.9419  0.3321  0.0512
              Bcc     0.0000    -0.000    -0.000    -0.000 -0.3360  0.9284  0.1584
 
              Baa    -0.0000    -0.000    -0.000    -0.000 -0.2903  0.9565  0.0295
    42 C(13)  Bbb     0.0000     0.000     0.000     0.000  0.9418  0.2910 -0.1684
              Bcc     0.0000     0.000     0.000     0.000  0.1696  0.0211  0.9853
 
              Baa    -0.0000    -0.000    -0.000    -0.000  0.3211  0.9450  0.0622
    43 C(13)  Bbb    -0.0000    -0.000    -0.000    -0.000  0.9468 -0.3189 -0.0425
              Bcc     0.0000     0.000     0.000     0.000  0.0203 -0.0725  0.9972
 
              Baa    -0.0000    -0.000    -0.000    -0.000 -0.6718  0.6952  0.2557
    44 C(13)  Bbb     0.0000     0.000     0.000     0.000  0.6908  0.4634  0.5551
              Bcc     0.0000     0.000     0.000     0.000 -0.2674 -0.5495  0.7915
 
              Baa    -0.0000    -0.000    -0.000    -0.000  0.8744 -0.2262 -0.4292
    45 S(33)  Bbb     0.0000     0.000     0.000     0.000  0.4725  0.1961  0.8592
              Bcc     0.0000     0.000     0.000     0.000  0.1102  0.9541 -0.2784
 
              Baa    -0.0000    -0.000    -0.000    -0.000  0.9018  0.4321 -0.0082
    46 H(1)   Bbb     0.0000     0.000     0.000     0.000 -0.3994  0.8261 -0.3975
              Bcc     0.0000     0.000     0.000     0.000 -0.1650  0.3617  0.9176
 
              Baa    -0.0000    -0.000    -0.000    -0.000 -0.1341  0.1509  0.9794
    47 H(1)   Bbb    -0.0000    -0.000    -0.000    -0.000 -0.1965  0.9647 -0.1755
              Bcc     0.0000     0.000     0.000     0.000  0.9713  0.2160  0.0997
 
              Baa    -0.0000    -0.000    -0.000    -0.000 -0.2735  0.2941  0.9158
    48 H(1)   Bbb     0.0000     0.000     0.000     0.000  0.8890  0.4407  0.1240
              Bcc     0.0000     0.000     0.000     0.000 -0.3672  0.8481 -0.3820
 
              Baa    -0.0000    -0.000    -0.000    -0.000  0.9670 -0.1216  0.2237
    49 H(1)   Bbb     0.0000     0.000     0.000     0.000 -0.2509 -0.3056  0.9185
              Bcc     0.0000     0.000     0.000     0.000  0.0434  0.9444  0.3260
 
              Baa    -0.0000    -0.000    -0.000    -0.000  0.4292 -0.0680  0.9006
    50 H(1)   Bbb    -0.0000    -0.000    -0.000    -0.000  0.8896 -0.1405 -0.4346
              Bcc     0.0000     0.000     0.000     0.000  0.1561  0.9877  0.0001
 
              Baa    -0.0000    -0.000    -0.000    -0.000 -0.4246  0.8491 -0.3142
    51 H(1)   Bbb    -0.0000    -0.000    -0.000    -0.000  0.8624  0.4849  0.1452
              Bcc     0.0000     0.000     0.000     0.000 -0.2756  0.2093  0.9382
 
              Baa    -0.0000    -0.000    -0.000    -0.000  0.3927  0.8920 -0.2239
    52 H(1)   Bbb     0.0000     0.000     0.000     0.000  0.8804 -0.2943  0.3718
              Bcc     0.0000     0.000     0.000     0.000 -0.2658  0.3431  0.9009
 
              Baa    -0.0000    -0.000    -0.000    -0.000  0.9782  0.1991 -0.0588
    53 H(1)   Bbb    -0.0000    -0.000    -0.000    -0.000 -0.1950  0.9784  0.0685
              Bcc     0.0000     0.000     0.000     0.000  0.0712 -0.0555  0.9959
 
              Baa    -0.0000    -0.000    -0.000    -0.000  0.3475  0.7020  0.6216
    54 H(1)   Bbb    -0.0000    -0.000    -0.000    -0.000 -0.3713 -0.5058  0.7787
              Bcc     0.0000     0.000     0.000     0.000  0.8611 -0.5014  0.0849
 
              Baa    -0.0000    -0.000    -0.000    -0.000  0.9906  0.0391  0.1308
    55 H(1)   Bbb    -0.0000    -0.000    -0.000    -0.000 -0.1353  0.4077  0.9030
              Bcc     0.0000     0.000     0.000     0.000  0.0181  0.9123 -0.4092
 
              Baa    -0.0000    -0.000    -0.000    -0.000  0.0445 -0.2573  0.9653
    56 H(1)   Bbb    -0.0000    -0.000    -0.000    -0.000  0.8407 -0.5124 -0.1753
              Bcc     0.0000     0.000     0.000     0.000  0.5397  0.8193  0.1935
 
              Baa    -0.0000    -0.000    -0.000    -0.000  0.6059  0.7764 -0.1735
    57 H(1)   Bbb     0.0000     0.000     0.000     0.000  0.6834 -0.3962  0.6132
              Bcc     0.0000     0.000     0.000     0.000 -0.4074  0.4901  0.7706
 
              Baa    -0.0000    -0.000    -0.000    -0.000 -0.4683  0.6063  0.6427
    58 H(1)   Bbb    -0.0000    -0.000    -0.000    -0.000  0.7577 -0.0987  0.6452
              Bcc     0.0000     0.000     0.000     0.000  0.4546  0.7891 -0.4131
 
              Baa    -0.0000    -0.000    -0.000    -0.000  0.6468  0.5647 -0.5127
    59 H(1)   Bbb    -0.0000    -0.000    -0.000    -0.000  0.7571 -0.5564  0.3423
              Bcc     0.0000     0.000     0.000     0.000  0.0919  0.6095  0.7874
 
              Baa    -0.0000    -0.000    -0.000    -0.000  0.7025 -0.3092 -0.6411
    60 H(1)   Bbb     0.0000     0.000     0.000     0.000  0.6971  0.1170  0.7074
              Bcc     0.0000     0.000     0.000     0.000  0.1437  0.9438 -0.2977
 
              Baa    -0.0000    -0.000    -0.000    -0.000  0.6849  0.7252 -0.0711
    61 H(1)   Bbb    -0.0000    -0.000    -0.000    -0.000 -0.6462  0.6495  0.4007
              Bcc     0.0000     0.000     0.000     0.000  0.3368 -0.2285  0.9134
 
              Baa    -0.0000    -0.000    -0.000    -0.000  0.9848  0.1333  0.1115
    62 H(1)   Bbb    -0.0000    -0.000    -0.000    -0.000 -0.1510  0.3382  0.9289
              Bcc     0.0000     0.000     0.000     0.000 -0.0861  0.9316 -0.3532
 
              Baa    -0.0000    -0.000    -0.000    -0.000  0.5650  0.6343  0.5277
    63 H(1)   Bbb     0.0000     0.000     0.000     0.000 -0.6242  0.7469 -0.2294
              Bcc     0.0000     0.000     0.000     0.000 -0.5396 -0.1998  0.8179
 
              Baa    -0.0000    -0.000    -0.000    -0.000 -0.5679  0.3210  0.7579
    64 H(1)   Bbb     0.0000     0.000     0.000     0.000 -0.0548  0.9040 -0.4240
              Bcc     0.0000     0.000     0.000     0.000  0.8212  0.2824  0.4958
 
              Baa    -0.0000    -0.000    -0.000    -0.000  0.7698 -0.4636  0.4387
    65 H(1)   Bbb     0.0000     0.000     0.000     0.000  0.2529  0.8526  0.4573
              Bcc     0.0000     0.000     0.000     0.000 -0.5860 -0.2411  0.7736
 
              Baa    -0.0000    -0.000    -0.000    -0.000 -0.0642  0.8055  0.5891
    66 H(1)   Bbb     0.0000     0.000     0.000     0.000  0.7399  0.4346 -0.5136
              Bcc     0.0000     0.000     0.000     0.000  0.6697 -0.4028  0.6239
 
              Baa    -0.0000    -0.000    -0.000    -0.000  0.6831 -0.4104  0.6041
    67 H(1)   Bbb     0.0000     0.000     0.000     0.000  0.4919  0.8699  0.0347
              Bcc     0.0000     0.000     0.000     0.000 -0.5398  0.2735  0.7961
 
              Baa    -0.0000    -0.000    -0.000    -0.000 -0.2148  0.8582 -0.4662
    68 H(1)   Bbb     0.0000     0.000     0.000     0.000  0.9092  0.3501  0.2255
              Bcc     0.0000     0.000     0.000     0.000 -0.3567  0.3754  0.8554
 
              Baa    -0.0000    -0.000    -0.000    -0.000 -0.6277  0.7438  0.2297
    69 H(1)   Bbb    -0.0000    -0.000    -0.000    -0.000 -0.2288 -0.4583  0.8589
              Bcc     0.0000     0.000     0.000     0.000  0.7441  0.4866  0.4578
 
              Baa    -0.0000    -0.000    -0.000    -0.000 -0.4531  0.3096  0.8360
    70 H(1)   Bbb     0.0000     0.000     0.000     0.000  0.8913  0.1403  0.4311
              Bcc     0.0000     0.000     0.000     0.000  0.0162  0.9405 -0.3395
 
              Baa    -0.0000    -0.000    -0.000    -0.000 -0.2521  0.3854  0.8877
    71 H(1)   Bbb     0.0000     0.000     0.000     0.000  0.7434  0.6643 -0.0773
              Bcc     0.0000     0.000     0.000     0.000 -0.6195  0.6404 -0.4540
 
              Baa    -0.0000    -0.000    -0.000    -0.000  0.8027 -0.5323 -0.2689
    72 H(1)   Bbb    -0.0000    -0.000    -0.000    -0.000  0.3792  0.1075  0.9191
              Bcc     0.0000     0.000     0.000     0.000  0.4603  0.8397 -0.2882
 
              Baa    -0.0000    -0.000    -0.000    -0.000  0.7215  0.3599 -0.5916
    73 H(1)   Bbb    -0.0000    -0.000    -0.000    -0.000  0.3460  0.5526  0.7582
              Bcc     0.0000     0.000     0.000     0.000 -0.5998  0.7518 -0.2741
 
              Baa    -0.0000    -0.000    -0.000    -0.000  0.6984 -0.3982 -0.5947
    74 H(1)   Bbb    -0.0000    -0.000    -0.000    -0.000  0.6984  0.5611  0.4444
              Bcc     0.0000     0.000     0.000     0.000 -0.1567  0.7257 -0.6700
 
              Baa    -0.0000    -0.000    -0.000    -0.000  0.6423  0.5065 -0.5753
    75 H(1)   Bbb    -0.0000    -0.000    -0.000    -0.000 -0.2734  0.8526  0.4454
              Bcc     0.0000     0.000     0.000     0.000  0.7161 -0.1288  0.6860
 
              Baa    -0.0000    -0.000    -0.000    -0.000  0.6515  0.7514  0.1048
    76 H(1)   Bbb     0.0000     0.000     0.000     0.000  0.2443 -0.3385  0.9087
              Bcc     0.0000     0.000     0.000     0.000  0.7183 -0.5664 -0.4041
 
              Baa    -0.0000    -0.000    -0.000    -0.000  0.8473 -0.5281  0.0566
    77 H(1)   Bbb     0.0000     0.000     0.000     0.000  0.5271  0.8492  0.0328
              Bcc     0.0000     0.000     0.000     0.000 -0.0654  0.0020  0.9979
 

 ---------------------------------------------------------------------------------

 No NMR shielding tensors so no spin-rotation constants.
 Leave Link  601 at Sun Jul 26 18:53:21 2020, MaxMem=  4026531840 cpu:              14.2 elap:               1.9
 (Enter /opt/ohpc/pub/libs/gaussian/g16-A.03/sandybridge/g16/l9999.exe)

 Test job not archived.
 1\1\GINC-SKYLAKE052\FOpt\ULC-wPBE\CC-pVDZ\C36H32O6S3\RDU230\26-Jul-202
 0\0\\#P uLC-wPBE/cc-pVDZ iop(3/107=0460900000, 3/108=0460900000) opt\\
 H32 C36 S3 O6\\0,1\C,-11.5247033748,-0.3244413481,-0.2869903401\C,-11.
 0410308313,0.9068958064,-0.6832324374\C,-9.6861649031,1.1789863885,-0.
 5642196309\C,-8.7920780764,0.2465300711,-0.048493806\C,-9.3042657477,-
 1.0034912338,0.3413199612\O,-8.4046863869,-1.8913813382,0.8219851425\C
 ,-8.847014282,-3.1662983984,1.2016738791\C,-10.6584268763,-1.281511551
 3,0.2228229533\C,-7.362674988,0.5790037973,0.0730005712\C,-6.816898761
 7,1.8208210427,0.2870053147\O,-7.6000780367,2.9061476079,0.4931611493\
 C,-6.9615048532,4.0935470958,0.8824032531\C,-5.3952550805,1.8323926615
 ,0.2647616189\C,-4.8685767207,0.5973357295,0.0279065803\S,-6.099450107
 8,-0.5754271915,-0.1535166541\C,-3.4473631686,0.2295434959,-0.05041286
 15\C,-2.9914069155,-1.0069501634,0.3835368737\C,-1.6449079475,-1.32022
 29159,0.3035453849\C,-0.7061890356,-0.4299171976,-0.2065165011\C,-1.17
 80331283,0.8233792119,-0.6365948259\O,-0.2462832561,1.6742464362,-1.12
 12393816\C,-0.6453024781,2.9470479214,-1.5530774771\C,-2.5240596548,1.
 1406905026,-0.5632245481\C,0.714085666,-0.8043091878,-0.2834053309\C,1
 .2312346713,-2.0700512318,-0.4193519481\O,0.4245012952,-3.1453082625,-
 0.5793970257\C,1.0379363734,-4.3678039304,-0.8945781908\C,2.6512046226
 ,-2.1161540468,-0.3725593414\C,3.2062809301,-0.8834763645,-0.195861789
 9\S,2.0045998555,0.328699458,-0.1005002852\C,4.6353661591,-0.548175838
 ,-0.1138968879\C,5.1307161806,0.6483313065,-0.611844084\C,6.4838122486
 ,0.9309572267,-0.526231317\C,7.3890311118,0.0484892914,0.0520794746\C,
 6.877832686,-1.1643153345,0.5471580842\O,7.7790409475,-2.0079660541,1.
 0975036262\C,7.3393840501,-3.2420130152,1.597248315\C,5.525124264,-1.4
 509061457,0.4684211842\C,8.8182385088,0.3906482029,0.1322440327\C,9.36
 24198972,1.648595847,0.2253650859\O,8.5786078757,2.7480519688,0.322861
 4916\C,9.2172755549,3.9697980214,0.5871745351\C,10.78704324,1.65874403
 95,0.1975753697\C,11.2945485467,0.4061958302,0.0749067323\S,10.0820344
 348,-0.7811214598,0.01784534\H,-12.5850983029,-0.5564795779,-0.3741427
 346\H,-11.7116689791,1.6606217045,-1.0911418186\H,-9.3011184128,2.1458
 990611,-0.8743559443\H,-9.2989963852,-3.7064607141,0.3576743687\H,-7.9
 604854137,-3.7091838145,1.5396901013\H,-9.5708552781,-3.1135909481,2.0
 272086544\H,-11.0497381764,-2.247697101,0.5287735572\H,-6.3004885354,4
 .4782233431,0.0923303406\H,-7.7529244653,4.8249997588,1.0668790434\H,-
 6.3802917962,3.9559732202,1.8050856048\H,-4.7822088256,2.7079409229,0.
 4533527525\H,-3.6877125186,-1.7262230149,0.8105795378\H,-1.3025366408,
 -2.2898652607,0.6514308958\H,-1.1057222311,3.5245957074,-0.738925222\H
 ,0.2638837308,3.4564024513,-1.8827275368\H,-1.347425019,2.885534632,-2
 .3963667324\H,-2.8810091109,2.0977188172,-0.9321956441\H,0.2304956992,
 -5.0875621381,-1.0535527276\H,1.63656129,-4.2938257048,-1.8133101473\H
 ,1.6761417306,-4.7260962684,-0.0740342941\H,3.2438549915,-3.0161306479
 ,-0.5018897963\H,4.4607738815,1.3584696638,-1.0929149672\H,6.858301737
 4,1.8692787291,-0.923756354\H,8.2292724436,-3.7537306359,1.9726969341\
 H,6.8769157268,-3.8554587239,0.8109697225\H,6.6255780753,-3.1121529385
 ,2.4227942344\H,5.1364397729,-2.3747020004,0.8867718858\H,8.4253448434
 ,4.7146421195,0.7027260156\H,9.8724656945,4.2741124744,-0.2416774309\H
 ,9.8040934013,3.9258048284,1.5154980645\H,11.4026150929,2.5496855937,0
 .2678568948\H,12.3420554712,0.1239017096,0.0393834536\\Version=EM64L-G
 16RevA.03\State=1-A\HF=-3035.4681015\S2=0.\S2-1=0.\S2A=0.\RMSD=4.661e-
 09\RMSF=3.478e-06\Dipole=0.7509282,0.1049582,0.3367356\Quadrupole=2.67
 02678,23.7188656,-26.3891334,7.238963,0.2223297,-5.8743927\PG=C01 [X(C
 36H32O6S3)]\\@


 ADAM SMITH SAID, "THE REAL PRICE OF ANYTHING IS THE TOIL AND TROUBLE
 OF ACQUIRING IT."  BUT IN ALL UNDERTAKINGS WITH NATURE WE SHOULD FIRST
 READ CAREFULLY THE SMALL PRINT IN THE CONTRACT. THIS MIGHT DISCLOSE
 THAT THE REAL PRICE IS TO BE PAID BY THOSE WHO INHERIT THE DEPLETION
 AND DESPOILATION THAT FOLLOWS.
                               -- E. R. HARRISON IN "COSMOLOGY" (1980)
 Job cpu time:       2 days  3 hours 25 minutes 24.0 seconds.
 Elapsed time:       0 days  6 hours 32 minutes  0.1 seconds.
 File lengths (MBytes):  RWF=    764 Int=      0 D2E=      0 Chk=     68 Scr=      8
 Normal termination of Gaussian 16 at Sun Jul 26 18:53:21 2020.
