 Entering Gaussian System, Link 0=g16
 Input=mols_66_3_09_c-c-cF-cF_opt_0.gjf
 Output=mols_66_3_09_c-c-cF-cF_opt_0.log
 Initial command:
 /opt/ohpc/pub/libs/gaussian/g16-A.03/sandybridge/g16/l1.exe "/mnt/gpfs2_4m/scratch/rdu230/ondemand/projects/dihedral_energies/7trial/wtuning/mols_66_3_09_c-c-cF-cF/Gau-265945.inp" -scrdir="/mnt/gpfs2_4m/scratch/rdu230/ondemand/projects/dihedral_energies/7trial/wtuning/mols_66_3_09_c-c-cF-cF/"
 Entering Link 1 = /opt/ohpc/pub/libs/gaussian/g16-A.03/sandybridge/g16/l1.exe PID=    265946.
  
 Copyright (c) 1988,1990,1992,1993,1995,1998,2003,2009,2016,
            Gaussian, Inc.  All Rights Reserved.
  
 This is part of the Gaussian(R) 16 program.  It is based on
 the Gaussian(R) 09 system (copyright 2009, Gaussian, Inc.),
 the Gaussian(R) 03 system (copyright 2003, Gaussian, Inc.),
 the Gaussian(R) 98 system (copyright 1998, Gaussian, Inc.),
 the Gaussian(R) 94 system (copyright 1995, Gaussian, Inc.),
 the Gaussian 92(TM) system (copyright 1992, Gaussian, Inc.),
 the Gaussian 90(TM) system (copyright 1990, Gaussian, Inc.),
 the Gaussian 88(TM) system (copyright 1988, Gaussian, Inc.),
 the Gaussian 86(TM) system (copyright 1986, Carnegie Mellon
 University), and the Gaussian 82(TM) system (copyright 1983,
 Carnegie Mellon University). Gaussian is a federally registered
 trademark of Gaussian, Inc.
  
 This software contains proprietary and confidential information,
 including trade secrets, belonging to Gaussian, Inc.
  
 This software is provided under written license and may be
 used, copied, transmitted, or stored only in accord with that
 written license.
  
 The following legend is applicable only to US Government
 contracts under FAR:
  
                    RESTRICTED RIGHTS LEGEND
  
 Use, reproduction and disclosure by the US Government is
 subject to restrictions as set forth in subparagraphs (a)
 and (c) of the Commercial Computer Software - Restricted
 Rights clause in FAR 52.227-19.
  
 Gaussian, Inc.
 340 Quinnipiac St., Bldg. 40, Wallingford CT 06492
  
  
 ---------------------------------------------------------------
 Warning -- This program may not be used in any manner that
 competes with the business of Gaussian, Inc. or will provide
 assistance to any competitor of Gaussian, Inc.  The licensee
 of this program is prohibited from giving any competitor of
 Gaussian, Inc. access to this program.  By using this program,
 the user acknowledges that Gaussian, Inc. is engaged in the
 business of creating and licensing software in the field of
 computational chemistry and represents and warrants to the
 licensee that it is not a competitor of Gaussian, Inc. and that
 it will not use this program in any manner prohibited above.
 ---------------------------------------------------------------
  

 Cite this work as:
 Gaussian 16, Revision A.03,
 M. J. Frisch, G. W. Trucks, H. B. Schlegel, G. E. Scuseria, 
 M. A. Robb, J. R. Cheeseman, G. Scalmani, V. Barone, 
 G. A. Petersson, H. Nakatsuji, X. Li, M. Caricato, A. V. Marenich, 
 J. Bloino, B. G. Janesko, R. Gomperts, B. Mennucci, H. P. Hratchian, 
 J. V. Ortiz, A. F. Izmaylov, J. L. Sonnenberg, D. Williams-Young, 
 F. Ding, F. Lipparini, F. Egidi, J. Goings, B. Peng, A. Petrone, 
 T. Henderson, D. Ranasinghe, V. G. Zakrzewski, J. Gao, N. Rega, 
 G. Zheng, W. Liang, M. Hada, M. Ehara, K. Toyota, R. Fukuda, 
 J. Hasegawa, M. Ishida, T. Nakajima, Y. Honda, O. Kitao, H. Nakai, 
 T. Vreven, K. Throssell, J. A. Montgomery, Jr., J. E. Peralta, 
 F. Ogliaro, M. J. Bearpark, J. J. Heyd, E. N. Brothers, K. N. Kudin, 
 V. N. Staroverov, T. A. Keith, R. Kobayashi, J. Normand, 
 K. Raghavachari, A. P. Rendell, J. C. Burant, S. S. Iyengar, 
 J. Tomasi, M. Cossi, J. M. Millam, M. Klene, C. Adamo, R. Cammi, 
 J. W. Ochterski, R. L. Martin, K. Morokuma, O. Farkas, 
 J. B. Foresman, and D. J. Fox, Gaussian, Inc., Wallingford CT, 2016.
 
 ******************************************
 Gaussian 16:  EM64L-G16RevA.03 25-Dec-2016
                25-Jul-2020 
 ******************************************
 %mem=30GB
 %nproc=8
 Will use up to    8 processors via shared memory.
 ---------------------------------------------------------------
 #P uLC-wPBE/cc-pVDZ iop(3/107=0312400000, 3/108=0312400000) opt
 ---------------------------------------------------------------
 1/18=20,19=15,26=3,38=1/1,3;
 2/9=110,12=2,17=6,18=5,40=1/2;
 3/5=16,11=2,25=1,30=1,71=1,74=-41,107=312400000,108=312400000,116=2/1,2,3;
 4//1;
 5/5=2,38=5/2;
 6/7=2,8=2,9=2,10=2,28=1/1;
 7//1,2,3,16;
 1/18=20,19=15,26=3/3(2);
 2/9=110/2;
 99//99;
 2/9=110/2;
 3/5=16,11=2,25=1,30=1,71=1,74=-41,107=312400000,108=312400000,116=2/1,2,3;
 4/5=5,16=3,69=1/1;
 5/5=2,38=5/2;
 7//1,2,3,16;
 1/18=20,19=15,26=3/3(-5);
 2/9=110/2;
 6/7=2,8=2,9=2,10=2,19=2,28=1/1;
 99/9=1/99;
 Leave Link    1 at Sat Jul 25 07:38:53 2020, MaxMem=  4026531840 cpu:               1.7 elap:               0.2
 (Enter /opt/ohpc/pub/libs/gaussian/g16-A.03/sandybridge/g16/l101.exe)
 ----------
 H20 C36 F6
 ----------
 Symbolic Z-matrix:
 Charge =  0 Multiplicity = 1
 C                    -12.19607  -0.06124   0.01327 
 C                    -11.5195   1.21786   0.0016 
 C                    -10.15181   1.15997   0.01138 
 F                    -9.45661   2.32214  -0.00934 
 C                    -9.4136   -0.01941   0.02176 
 C                    -10.1336  -1.20441   0.06945 
 C                    -11.54641  -1.21442   0.02977 
 C                    -7.9022   -0.06658   0.09158 
 C                    -7.17377   0.65229   1.02024 
 C                    -5.82853   0.66314   1.01771 
 C                    -5.07676  -0.08141   0.10031 
 C                    -5.74448  -0.85885  -0.84391 
 C                    -7.21872  -0.82784  -0.88565 
 F                    -7.8214   -1.62883  -1.73674 
 C                    -3.57138  -0.08209   0.06018 
 C                    -2.88147  -0.39056   1.22294 
 C                    -1.50181  -0.45491   1.27059 
 F                    -0.8381   -0.75576   2.42339 
 C                    -0.73683  -0.15676   0.10407 
 C                    -1.49667   0.21333  -1.0385 
 C                    -2.91376   0.19717  -1.07483 
 C                     0.68583  -0.09673   0.09772 
 C                     1.43311  -1.21061   0.60909 
 C                     2.86894  -1.22674   0.54859 
 C                     3.62413  -0.12122   0.10031 
 C                     2.90695   1.01517  -0.41505 
 C                     1.4945    1.03643  -0.3792 
 F                     0.85158   2.08566  -0.82487 
 C                     5.1026   -0.05023   0.08621 
 C                     5.73925  -1.08727  -0.53378 
 C                     7.20774  -1.07004  -0.49786 
 F                     7.79148  -2.10858  -1.19407 
 C                     7.96282  -0.06827   0.09849 
 C                     7.19694   1.00299   0.73761 
 C                     5.79105   0.91105   0.75369 
 C                     9.34648  -0.05685   0.08246 
 C                     10.1661  -1.14885   0.44222 
 C                     11.50627  -1.14795   0.46341 
 C                     12.24175   0.02459   0.05949 
 C                     11.54475   1.09364  -0.25234 
 C                     10.16482   1.09232  -0.29221 
 F                     9.44709   2.2713   -0.63295 
 H                    -13.33191  -0.04658   0.0434 
 H                    -12.05533   2.09716  -0.04222 
 H                    -9.6216   -2.23894   0.15735 
 H                    -12.0907  -2.18753   0.15208 
 H                    -7.67468   1.2659    1.72965 
 H                    -5.23742   1.22531   1.71526 
 H                    -5.31574  -1.52937  -1.57359 
 H                    -3.43495  -0.68651   2.17037 
 H                    -0.90723   0.4965   -1.97919 
 H                    -3.37727   0.49946  -2.02968 
 H                     0.97885  -2.04497   0.9315 
 H                     3.44139  -2.05553   0.99225 
 H                     3.34628   1.84869  -0.80442 
 H                     5.25981  -1.95024  -1.05164 
 H                     7.74075   1.76483   1.2537 
 H                     5.29081   1.75367   1.27057 
 H                     9.60072  -2.06161   0.68282 
 H                     12.08169  -2.10254   0.74265 
 H                     13.29318  -0.03123   0.11587 
 H                     12.03707   2.02595  -0.60742 
 
 ITRead=  0  0  0  0  0  0  0  0  0  0  0  0  0  0  0  0  0  0  0  0
 ITRead=  0  0  0  0  0  0  0  0  0  0  0  0  0  0  0  0  0  0  0  0
 ITRead=  0  0  0  0  0  0  0  0  0  0  0  0  0  0  0  0  0  0  0  0
 ITRead=  0  0
 MicOpt= -1 -1 -1 -1 -1 -1 -1 -1 -1 -1 -1 -1 -1 -1 -1 -1 -1 -1 -1 -1
 MicOpt= -1 -1 -1 -1 -1 -1 -1 -1 -1 -1 -1 -1 -1 -1 -1 -1 -1 -1 -1 -1
 MicOpt= -1 -1 -1 -1 -1 -1 -1 -1 -1 -1 -1 -1 -1 -1 -1 -1 -1 -1 -1 -1
 MicOpt= -1 -1
 NAtoms=     62 NQM=       62 NQMF=       0 NMMI=      0 NMMIF=      0
                NMic=       0 NMicF=      0.
                    Isotopes and Nuclear Properties:
 (Nuclear quadrupole moments (NQMom) in fm**2, nuclear magnetic moments (NMagM)
  in nuclear magnetons)

  Atom         1           2           3           4           5           6           7           8           9          10
 IAtWgt=          12          12          12          19          12          12          12          12          12          12
 AtmWgt=  12.0000000  12.0000000  12.0000000  18.9984033  12.0000000  12.0000000  12.0000000  12.0000000  12.0000000  12.0000000
 NucSpn=           0           0           0           1           0           0           0           0           0           0
 AtZEff=  -0.0000000  -0.0000000  -0.0000000  -0.0000000  -0.0000000  -0.0000000  -0.0000000  -0.0000000  -0.0000000  -0.0000000
 NQMom=    0.0000000   0.0000000   0.0000000   0.0000000   0.0000000   0.0000000   0.0000000   0.0000000   0.0000000   0.0000000
 NMagM=    0.0000000   0.0000000   0.0000000   2.6288670   0.0000000   0.0000000   0.0000000   0.0000000   0.0000000   0.0000000
 AtZNuc=   6.0000000   6.0000000   6.0000000   9.0000000   6.0000000   6.0000000   6.0000000   6.0000000   6.0000000   6.0000000

  Atom        11          12          13          14          15          16          17          18          19          20
 IAtWgt=          12          12          12          19          12          12          12          19          12          12
 AtmWgt=  12.0000000  12.0000000  12.0000000  18.9984033  12.0000000  12.0000000  12.0000000  18.9984033  12.0000000  12.0000000
 NucSpn=           0           0           0           1           0           0           0           1           0           0
 AtZEff=  -0.0000000  -0.0000000  -0.0000000  -0.0000000  -0.0000000  -0.0000000  -0.0000000  -0.0000000  -0.0000000  -0.0000000
 NQMom=    0.0000000   0.0000000   0.0000000   0.0000000   0.0000000   0.0000000   0.0000000   0.0000000   0.0000000   0.0000000
 NMagM=    0.0000000   0.0000000   0.0000000   2.6288670   0.0000000   0.0000000   0.0000000   2.6288670   0.0000000   0.0000000
 AtZNuc=   6.0000000   6.0000000   6.0000000   9.0000000   6.0000000   6.0000000   6.0000000   9.0000000   6.0000000   6.0000000

  Atom        21          22          23          24          25          26          27          28          29          30
 IAtWgt=          12          12          12          12          12          12          12          19          12          12
 AtmWgt=  12.0000000  12.0000000  12.0000000  12.0000000  12.0000000  12.0000000  12.0000000  18.9984033  12.0000000  12.0000000
 NucSpn=           0           0           0           0           0           0           0           1           0           0
 AtZEff=  -0.0000000  -0.0000000  -0.0000000  -0.0000000  -0.0000000  -0.0000000  -0.0000000  -0.0000000  -0.0000000  -0.0000000
 NQMom=    0.0000000   0.0000000   0.0000000   0.0000000   0.0000000   0.0000000   0.0000000   0.0000000   0.0000000   0.0000000
 NMagM=    0.0000000   0.0000000   0.0000000   0.0000000   0.0000000   0.0000000   0.0000000   2.6288670   0.0000000   0.0000000
 AtZNuc=   6.0000000   6.0000000   6.0000000   6.0000000   6.0000000   6.0000000   6.0000000   9.0000000   6.0000000   6.0000000

  Atom        31          32          33          34          35          36          37          38          39          40
 IAtWgt=          12          19          12          12          12          12          12          12          12          12
 AtmWgt=  12.0000000  18.9984033  12.0000000  12.0000000  12.0000000  12.0000000  12.0000000  12.0000000  12.0000000  12.0000000
 NucSpn=           0           1           0           0           0           0           0           0           0           0
 AtZEff=  -0.0000000  -0.0000000  -0.0000000  -0.0000000  -0.0000000  -0.0000000  -0.0000000  -0.0000000  -0.0000000  -0.0000000
 NQMom=    0.0000000   0.0000000   0.0000000   0.0000000   0.0000000   0.0000000   0.0000000   0.0000000   0.0000000   0.0000000
 NMagM=    0.0000000   2.6288670   0.0000000   0.0000000   0.0000000   0.0000000   0.0000000   0.0000000   0.0000000   0.0000000
 AtZNuc=   6.0000000   9.0000000   6.0000000   6.0000000   6.0000000   6.0000000   6.0000000   6.0000000   6.0000000   6.0000000

  Atom        41          42          43          44          45          46          47          48          49          50
 IAtWgt=          12          19           1           1           1           1           1           1           1           1
 AtmWgt=  12.0000000  18.9984033   1.0078250   1.0078250   1.0078250   1.0078250   1.0078250   1.0078250   1.0078250   1.0078250
 NucSpn=           0           1           1           1           1           1           1           1           1           1
 AtZEff=  -0.0000000  -0.0000000  -0.0000000  -0.0000000  -0.0000000  -0.0000000  -0.0000000  -0.0000000  -0.0000000  -0.0000000
 NQMom=    0.0000000   0.0000000   0.0000000   0.0000000   0.0000000   0.0000000   0.0000000   0.0000000   0.0000000   0.0000000
 NMagM=    0.0000000   2.6288670   2.7928460   2.7928460   2.7928460   2.7928460   2.7928460   2.7928460   2.7928460   2.7928460
 AtZNuc=   6.0000000   9.0000000   1.0000000   1.0000000   1.0000000   1.0000000   1.0000000   1.0000000   1.0000000   1.0000000

  Atom        51          52          53          54          55          56          57          58          59          60
 IAtWgt=           1           1           1           1           1           1           1           1           1           1
 AtmWgt=   1.0078250   1.0078250   1.0078250   1.0078250   1.0078250   1.0078250   1.0078250   1.0078250   1.0078250   1.0078250
 NucSpn=           1           1           1           1           1           1           1           1           1           1
 AtZEff=  -0.0000000  -0.0000000  -0.0000000  -0.0000000  -0.0000000  -0.0000000  -0.0000000  -0.0000000  -0.0000000  -0.0000000
 NQMom=    0.0000000   0.0000000   0.0000000   0.0000000   0.0000000   0.0000000   0.0000000   0.0000000   0.0000000   0.0000000
 NMagM=    2.7928460   2.7928460   2.7928460   2.7928460   2.7928460   2.7928460   2.7928460   2.7928460   2.7928460   2.7928460
 AtZNuc=   1.0000000   1.0000000   1.0000000   1.0000000   1.0000000   1.0000000   1.0000000   1.0000000   1.0000000   1.0000000

  Atom        61          62
 IAtWgt=           1           1
 AtmWgt=   1.0078250   1.0078250
 NucSpn=           1           1
 AtZEff=  -0.0000000  -0.0000000
 NQMom=    0.0000000   0.0000000
 NMagM=    2.7928460   2.7928460
 AtZNuc=   1.0000000   1.0000000
 Leave Link  101 at Sat Jul 25 07:38:54 2020, MaxMem=  4026531840 cpu:               2.9 elap:               0.4
 (Enter /opt/ohpc/pub/libs/gaussian/g16-A.03/sandybridge/g16/l103.exe)

 GradGradGradGradGradGradGradGradGradGradGradGradGradGradGradGradGradGrad
 Berny optimization.
 Initialization pass.
                           ----------------------------
                           !    Initial Parameters    !
                           ! (Angstroms and Degrees)  !
 --------------------------                            --------------------------
 ! Name  Definition              Value          Derivative Info.                !
 --------------------------------------------------------------------------------
 ! R1    R(1,2)                  1.4471         estimate D2E/DX2                !
 ! R2    R(1,7)                  1.3237         estimate D2E/DX2                !
 ! R3    R(1,43)                 1.1363         estimate D2E/DX2                !
 ! R4    R(2,3)                  1.3689         estimate D2E/DX2                !
 ! R5    R(2,44)                 1.0306         estimate D2E/DX2                !
 ! R6    R(3,4)                  1.3544         estimate D2E/DX2                !
 ! R7    R(3,5)                  1.3914         estimate D2E/DX2                !
 ! R8    R(5,6)                  1.3874         estimate D2E/DX2                !
 ! R9    R(5,8)                  1.5137         estimate D2E/DX2                !
 ! R10   R(6,7)                  1.4134         estimate D2E/DX2                !
 ! R11   R(6,45)                 1.1576         estimate D2E/DX2                !
 ! R12   R(7,46)                 1.1217         estimate D2E/DX2                !
 ! R13   R(8,9)                  1.382          estimate D2E/DX2                !
 ! R14   R(8,13)                 1.4148         estimate D2E/DX2                !
 ! R15   R(9,10)                 1.3453         estimate D2E/DX2                !
 ! R16   R(9,47)                 1.0633         estimate D2E/DX2                !
 ! R17   R(10,11)                1.4004         estimate D2E/DX2                !
 ! R18   R(10,48)                1.0733         estimate D2E/DX2                !
 ! R19   R(11,12)                1.3935         estimate D2E/DX2                !
 ! R20   R(11,15)                1.5059         estimate D2E/DX2                !
 ! R21   R(12,13)                1.4752         estimate D2E/DX2                !
 ! R22   R(12,49)                1.0797         estimate D2E/DX2                !
 ! R23   R(13,14)                1.315          estimate D2E/DX2                !
 ! R24   R(15,16)                1.3868         estimate D2E/DX2                !
 ! R25   R(15,21)                1.3411         estimate D2E/DX2                !
 ! R26   R(16,17)                1.382          estimate D2E/DX2                !
 ! R27   R(16,50)                1.1365         estimate D2E/DX2                !
 ! R28   R(17,18)                1.3638         estimate D2E/DX2                !
 ! R29   R(17,19)                1.4265         estimate D2E/DX2                !
 ! R30   R(19,20)                1.4212         estimate D2E/DX2                !
 ! R31   R(19,22)                1.4239         estimate D2E/DX2                !
 ! R32   R(20,21)                1.4177         estimate D2E/DX2                !
 ! R33   R(20,51)                1.1456         estimate D2E/DX2                !
 ! R34   R(21,52)                1.1036         estimate D2E/DX2                !
 ! R35   R(22,23)                1.4355         estimate D2E/DX2                !
 ! R36   R(22,27)                1.4715         estimate D2E/DX2                !
 ! R37   R(23,24)                1.4372         estimate D2E/DX2                !
 ! R38   R(23,53)                1.0032         estimate D2E/DX2                !
 ! R39   R(24,25)                1.4119         estimate D2E/DX2                !
 ! R40   R(24,54)                1.1006         estimate D2E/DX2                !
 ! R41   R(25,26)                1.4392         estimate D2E/DX2                !
 ! R42   R(25,29)                1.4802         estimate D2E/DX2                !
 ! R43   R(26,27)                1.4131         estimate D2E/DX2                !
 ! R44   R(26,55)                1.0195         estimate D2E/DX2                !
 ! R45   R(27,28)                1.3088         estimate D2E/DX2                !
 ! R46   R(29,30)                1.3657         estimate D2E/DX2                !
 ! R47   R(29,35)                1.3578         estimate D2E/DX2                !
 ! R48   R(30,31)                1.469          estimate D2E/DX2                !
 ! R49   R(30,56)                1.1148         estimate D2E/DX2                !
 ! R50   R(31,32)                1.3799         estimate D2E/DX2                !
 ! R51   R(31,33)                1.389          estimate D2E/DX2                !
 ! R52   R(33,34)                1.4638         estimate D2E/DX2                !
 ! R53   R(33,36)                1.3838         estimate D2E/DX2                !
 ! R54   R(34,35)                1.409          estimate D2E/DX2                !
 ! R55   R(34,57)                1.0689         estimate D2E/DX2                !
 ! R56   R(35,58)                1.1079         estimate D2E/DX2                !
 ! R57   R(36,37)                1.412          estimate D2E/DX2                !
 ! R58   R(36,41)                1.4597         estimate D2E/DX2                !
 ! R59   R(37,38)                1.3403         estimate D2E/DX2                !
 ! R60   R(37,59)                1.1003         estimate D2E/DX2                !
 ! R61   R(38,39)                1.4418         estimate D2E/DX2                !
 ! R62   R(38,60)                1.149          estimate D2E/DX2                !
 ! R63   R(39,40)                1.3137         estimate D2E/DX2                !
 ! R64   R(39,61)                1.0544         estimate D2E/DX2                !
 ! R65   R(40,41)                1.3805         estimate D2E/DX2                !
 ! R66   R(40,62)                1.1125         estimate D2E/DX2                !
 ! R67   R(41,42)                1.4217         estimate D2E/DX2                !
 ! A1    A(2,1,7)              122.7306         estimate D2E/DX2                !
 ! A2    A(2,1,43)             117.1392         estimate D2E/DX2                !
 ! A3    A(7,1,43)             120.0993         estimate D2E/DX2                !
 ! A4    A(1,2,3)              115.4478         estimate D2E/DX2                !
 ! A5    A(1,2,44)             120.7568         estimate D2E/DX2                !
 ! A6    A(3,2,44)             123.7663         estimate D2E/DX2                !
 ! A7    A(2,3,4)              118.4526         estimate D2E/DX2                !
 ! A8    A(2,3,5)              124.4689         estimate D2E/DX2                !
 ! A9    A(4,3,5)              117.0717         estimate D2E/DX2                !
 ! A10   A(3,5,6)              116.6722         estimate D2E/DX2                !
 ! A11   A(3,5,8)              123.8133         estimate D2E/DX2                !
 ! A12   A(6,5,8)              119.3371         estimate D2E/DX2                !
 ! A13   A(5,6,7)              121.5887         estimate D2E/DX2                !
 ! A14   A(5,6,45)             122.4368         estimate D2E/DX2                !
 ! A15   A(7,6,45)             115.97           estimate D2E/DX2                !
 ! A16   A(1,7,6)              118.9979         estimate D2E/DX2                !
 ! A17   A(1,7,46)             121.2646         estimate D2E/DX2                !
 ! A18   A(6,7,46)             119.2177         estimate D2E/DX2                !
 ! A19   A(5,8,9)              122.7567         estimate D2E/DX2                !
 ! A20   A(5,8,13)             117.8564         estimate D2E/DX2                !
 ! A21   A(9,8,13)             119.3017         estimate D2E/DX2                !
 ! A22   A(8,9,10)             122.0067         estimate D2E/DX2                !
 ! A23   A(8,9,47)             120.0123         estimate D2E/DX2                !
 ! A24   A(10,9,47)            117.8827         estimate D2E/DX2                !
 ! A25   A(9,10,11)            122.2589         estimate D2E/DX2                !
 ! A26   A(9,10,48)            123.622          estimate D2E/DX2                !
 ! A27   A(11,10,48)           114.1153         estimate D2E/DX2                !
 ! A28   A(10,11,12)           118.9006         estimate D2E/DX2                !
 ! A29   A(10,11,15)           123.6647         estimate D2E/DX2                !
 ! A30   A(12,11,15)           117.4309         estimate D2E/DX2                !
 ! A31   A(11,12,13)           119.0982         estimate D2E/DX2                !
 ! A32   A(11,12,49)           127.8877         estimate D2E/DX2                !
 ! A33   A(13,12,49)           113.0017         estimate D2E/DX2                !
 ! A34   A(8,13,12)            118.3312         estimate D2E/DX2                !
 ! A35   A(8,13,14)            123.6002         estimate D2E/DX2                !
 ! A36   A(12,13,14)           117.6159         estimate D2E/DX2                !
 ! A37   A(11,15,16)           118.364          estimate D2E/DX2                !
 ! A38   A(11,15,21)           120.8391         estimate D2E/DX2                !
 ! A39   A(16,15,21)           120.7944         estimate D2E/DX2                !
 ! A40   A(15,16,17)           122.4065         estimate D2E/DX2                !
 ! A41   A(15,16,50)           120.9729         estimate D2E/DX2                !
 ! A42   A(17,16,50)           116.4449         estimate D2E/DX2                !
 ! A43   A(16,17,18)           121.6854         estimate D2E/DX2                !
 ! A44   A(16,17,19)           119.8309         estimate D2E/DX2                !
 ! A45   A(18,17,19)           118.4481         estimate D2E/DX2                !
 ! A46   A(17,19,20)           115.1604         estimate D2E/DX2                !
 ! A47   A(17,19,22)           123.2466         estimate D2E/DX2                !
 ! A48   A(20,19,22)           121.3057         estimate D2E/DX2                !
 ! A49   A(19,20,21)           123.5089         estimate D2E/DX2                !
 ! A50   A(19,20,51)           116.7059         estimate D2E/DX2                !
 ! A51   A(21,20,51)           119.7408         estimate D2E/DX2                !
 ! A52   A(15,21,20)           118.0888         estimate D2E/DX2                !
 ! A53   A(15,21,52)           125.6836         estimate D2E/DX2                !
 ! A54   A(20,21,52)           116.032          estimate D2E/DX2                !
 ! A55   A(19,22,23)           119.0651         estimate D2E/DX2                !
 ! A56   A(19,22,27)           125.6581         estimate D2E/DX2                !
 ! A57   A(23,22,27)           115.2713         estimate D2E/DX2                !
 ! A58   A(22,23,24)           120.9167         estimate D2E/DX2                !
 ! A59   A(22,23,53)           121.6089         estimate D2E/DX2                !
 ! A60   A(24,23,53)           117.1653         estimate D2E/DX2                !
 ! A61   A(23,24,25)           122.6119         estimate D2E/DX2                !
 ! A62   A(23,24,54)           120.7369         estimate D2E/DX2                !
 ! A63   A(25,24,54)           116.0651         estimate D2E/DX2                !
 ! A64   A(24,25,26)           117.7366         estimate D2E/DX2                !
 ! A65   A(24,25,29)           125.087          estimate D2E/DX2                !
 ! A66   A(26,25,29)           117.1575         estimate D2E/DX2                !
 ! A67   A(25,26,27)           120.0594         estimate D2E/DX2                !
 ! A68   A(25,26,55)           124.5814         estimate D2E/DX2                !
 ! A69   A(27,26,55)           115.3487         estimate D2E/DX2                !
 ! A70   A(22,27,26)           123.0882         estimate D2E/DX2                !
 ! A71   A(22,27,28)           117.2425         estimate D2E/DX2                !
 ! A72   A(26,27,28)           119.6336         estimate D2E/DX2                !
 ! A73   A(25,29,30)           115.6907         estimate D2E/DX2                !
 ! A74   A(25,29,35)           122.3924         estimate D2E/DX2                !
 ! A75   A(30,29,35)           121.6279         estimate D2E/DX2                !
 ! A76   A(29,30,31)           116.4869         estimate D2E/DX2                !
 ! A77   A(29,30,56)           126.7422         estimate D2E/DX2                !
 ! A78   A(31,30,56)           116.7659         estimate D2E/DX2                !
 ! A79   A(30,31,32)           113.686          estimate D2E/DX2                !
 ! A80   A(30,31,33)           124.2195         estimate D2E/DX2                !
 ! A81   A(32,31,33)           121.9697         estimate D2E/DX2                !
 ! A82   A(31,33,34)           115.5216         estimate D2E/DX2                !
 ! A83   A(31,33,36)           122.9928         estimate D2E/DX2                !
 ! A84   A(34,33,36)           121.4791         estimate D2E/DX2                !
 ! A85   A(33,34,35)           118.6398         estimate D2E/DX2                !
 ! A86   A(33,34,57)           117.7905         estimate D2E/DX2                !
 ! A87   A(35,34,57)           123.2749         estimate D2E/DX2                !
 ! A88   A(29,35,34)           123.1286         estimate D2E/DX2                !
 ! A89   A(29,35,58)           122.607          estimate D2E/DX2                !
 ! A90   A(34,35,58)           113.9683         estimate D2E/DX2                !
 ! A91   A(33,36,37)           124.8259         estimate D2E/DX2                !
 ! A92   A(33,36,41)           124.7533         estimate D2E/DX2                !
 ! A93   A(37,36,41)           110.4163         estimate D2E/DX2                !
 ! A94   A(36,37,38)           125.7264         estimate D2E/DX2                !
 ! A95   A(36,37,59)           113.5165         estimate D2E/DX2                !
 ! A96   A(38,37,59)           120.7216         estimate D2E/DX2                !
 ! A97   A(37,38,39)           120.4074         estimate D2E/DX2                !
 ! A98   A(37,38,60)           120.2651         estimate D2E/DX2                !
 ! A99   A(39,38,60)           119.2239         estimate D2E/DX2                !
 ! A100  A(38,39,40)           117.2339         estimate D2E/DX2                !
 ! A101  A(38,39,61)           116.7838         estimate D2E/DX2                !
 ! A102  A(40,39,61)           125.7889         estimate D2E/DX2                !
 ! A103  A(39,40,41)           122.4382         estimate D2E/DX2                !
 ! A104  A(39,40,62)           121.5285         estimate D2E/DX2                !
 ! A105  A(41,40,62)           115.7178         estimate D2E/DX2                !
 ! A106  A(36,41,40)           123.6241         estimate D2E/DX2                !
 ! A107  A(36,41,42)           115.554          estimate D2E/DX2                !
 ! A108  A(40,41,42)           120.7138         estimate D2E/DX2                !
 ! D1    D(7,1,2,3)             -0.1216         estimate D2E/DX2                !
 ! D2    D(7,1,2,44)           177.9913         estimate D2E/DX2                !
 ! D3    D(43,1,2,3)           177.8565         estimate D2E/DX2                !
 ! D4    D(43,1,2,44)           -4.0306         estimate D2E/DX2                !
 ! D5    D(2,1,7,6)              1.5342         estimate D2E/DX2                !
 ! D6    D(2,1,7,46)           173.1982         estimate D2E/DX2                !
 ! D7    D(43,1,7,6)          -176.3861         estimate D2E/DX2                !
 ! D8    D(43,1,7,46)           -4.7221         estimate D2E/DX2                !
 ! D9    D(1,2,3,4)            179.4882         estimate D2E/DX2                !
 ! D10   D(1,2,3,5)              0.4691         estimate D2E/DX2                !
 ! D11   D(44,2,3,4)             1.4389         estimate D2E/DX2                !
 ! D12   D(44,2,3,5)          -177.5801         estimate D2E/DX2                !
 ! D13   D(2,3,5,6)             -2.1926         estimate D2E/DX2                !
 ! D14   D(2,3,5,8)           -177.3072         estimate D2E/DX2                !
 ! D15   D(4,3,5,6)            178.776          estimate D2E/DX2                !
 ! D16   D(4,3,5,8)              3.6613         estimate D2E/DX2                !
 ! D17   D(3,5,6,7)              3.6139         estimate D2E/DX2                !
 ! D18   D(3,5,6,45)          -175.5805         estimate D2E/DX2                !
 ! D19   D(8,5,6,7)            178.9583         estimate D2E/DX2                !
 ! D20   D(8,5,6,45)            -0.2362         estimate D2E/DX2                !
 ! D21   D(3,5,8,9)             49.1153         estimate D2E/DX2                !
 ! D22   D(3,5,8,13)          -127.5025         estimate D2E/DX2                !
 ! D23   D(6,5,8,9)           -125.8767         estimate D2E/DX2                !
 ! D24   D(6,5,8,13)            57.5055         estimate D2E/DX2                !
 ! D25   D(5,6,7,1)             -3.3795         estimate D2E/DX2                !
 ! D26   D(5,6,7,46)          -175.2165         estimate D2E/DX2                !
 ! D27   D(45,6,7,1)           175.8643         estimate D2E/DX2                !
 ! D28   D(45,6,7,46)            4.0272         estimate D2E/DX2                !
 ! D29   D(5,8,9,10)          -175.8861         estimate D2E/DX2                !
 ! D30   D(5,8,9,47)             0.431          estimate D2E/DX2                !
 ! D31   D(13,8,9,10)            0.6848         estimate D2E/DX2                !
 ! D32   D(13,8,9,47)          177.002          estimate D2E/DX2                !
 ! D33   D(5,8,13,12)          178.7799         estimate D2E/DX2                !
 ! D34   D(5,8,13,14)           -9.1365         estimate D2E/DX2                !
 ! D35   D(9,8,13,12)            2.0414         estimate D2E/DX2                !
 ! D36   D(9,8,13,14)          174.125          estimate D2E/DX2                !
 ! D37   D(8,9,10,11)           -1.8584         estimate D2E/DX2                !
 ! D38   D(8,9,10,48)          178.8919         estimate D2E/DX2                !
 ! D39   D(47,9,10,11)        -178.2507         estimate D2E/DX2                !
 ! D40   D(47,9,10,48)           2.4997         estimate D2E/DX2                !
 ! D41   D(9,10,11,12)           0.0991         estimate D2E/DX2                !
 ! D42   D(9,10,11,15)         179.3731         estimate D2E/DX2                !
 ! D43   D(48,10,11,12)        179.4145         estimate D2E/DX2                !
 ! D44   D(48,10,11,15)         -1.3114         estimate D2E/DX2                !
 ! D45   D(10,11,12,13)          2.6342         estimate D2E/DX2                !
 ! D46   D(10,11,12,49)       -175.9885         estimate D2E/DX2                !
 ! D47   D(15,11,12,13)       -176.685          estimate D2E/DX2                !
 ! D48   D(15,11,12,49)          4.6922         estimate D2E/DX2                !
 ! D49   D(10,11,15,16)         54.307          estimate D2E/DX2                !
 ! D50   D(10,11,15,21)       -126.2692         estimate D2E/DX2                !
 ! D51   D(12,11,15,16)       -126.409          estimate D2E/DX2                !
 ! D52   D(12,11,15,21)         53.0148         estimate D2E/DX2                !
 ! D53   D(11,12,13,8)          -3.6916         estimate D2E/DX2                !
 ! D54   D(11,12,13,14)       -176.2529         estimate D2E/DX2                !
 ! D55   D(49,12,13,8)         175.1276         estimate D2E/DX2                !
 ! D56   D(49,12,13,14)          2.5663         estimate D2E/DX2                !
 ! D57   D(11,15,16,17)        178.0186         estimate D2E/DX2                !
 ! D58   D(11,15,16,50)          3.0098         estimate D2E/DX2                !
 ! D59   D(21,15,16,17)         -1.4054         estimate D2E/DX2                !
 ! D60   D(21,15,16,50)       -176.4143         estimate D2E/DX2                !
 ! D61   D(11,15,21,20)        178.4289         estimate D2E/DX2                !
 ! D62   D(11,15,21,52)          3.729          estimate D2E/DX2                !
 ! D63   D(16,15,21,20)         -2.1614         estimate D2E/DX2                !
 ! D64   D(16,15,21,52)       -176.8613         estimate D2E/DX2                !
 ! D65   D(15,16,17,18)        179.7987         estimate D2E/DX2                !
 ! D66   D(15,16,17,19)          1.999          estimate D2E/DX2                !
 ! D67   D(50,16,17,18)         -4.9804         estimate D2E/DX2                !
 ! D68   D(50,16,17,19)        177.2199         estimate D2E/DX2                !
 ! D69   D(16,17,19,20)          0.9539         estimate D2E/DX2                !
 ! D70   D(16,17,19,22)        174.8601         estimate D2E/DX2                !
 ! D71   D(18,17,19,20)       -176.9167         estimate D2E/DX2                !
 ! D72   D(18,17,19,22)         -3.0105         estimate D2E/DX2                !
 ! D73   D(17,19,20,21)         -4.6541         estimate D2E/DX2                !
 ! D74   D(17,19,20,51)        177.7804         estimate D2E/DX2                !
 ! D75   D(22,19,20,21)       -178.6898         estimate D2E/DX2                !
 ! D76   D(22,19,20,51)          3.7446         estimate D2E/DX2                !
 ! D77   D(17,19,22,23)         52.9268         estimate D2E/DX2                !
 ! D78   D(17,19,22,27)       -126.1744         estimate D2E/DX2                !
 ! D79   D(20,19,22,23)       -133.5301         estimate D2E/DX2                !
 ! D80   D(20,19,22,27)         47.3686         estimate D2E/DX2                !
 ! D81   D(19,20,21,15)          5.3612         estimate D2E/DX2                !
 ! D82   D(19,20,21,52)       -179.4286         estimate D2E/DX2                !
 ! D83   D(51,20,21,15)       -177.1436         estimate D2E/DX2                !
 ! D84   D(51,20,21,52)         -1.9334         estimate D2E/DX2                !
 ! D85   D(19,22,23,24)        176.2436         estimate D2E/DX2                !
 ! D86   D(19,22,23,53)          2.8107         estimate D2E/DX2                !
 ! D87   D(27,22,23,24)         -4.5639         estimate D2E/DX2                !
 ! D88   D(27,22,23,53)       -177.9969         estimate D2E/DX2                !
 ! D89   D(19,22,27,26)       -177.1381         estimate D2E/DX2                !
 ! D90   D(19,22,27,28)          0.6784         estimate D2E/DX2                !
 ! D91   D(23,22,27,26)          3.7306         estimate D2E/DX2                !
 ! D92   D(23,22,27,28)       -178.4528         estimate D2E/DX2                !
 ! D93   D(22,23,24,25)          5.651          estimate D2E/DX2                !
 ! D94   D(22,23,24,54)        176.524          estimate D2E/DX2                !
 ! D95   D(53,23,24,25)        179.366          estimate D2E/DX2                !
 ! D96   D(53,23,24,54)         -9.7611         estimate D2E/DX2                !
 ! D97   D(23,24,25,26)         -5.2163         estimate D2E/DX2                !
 ! D98   D(23,24,25,29)        176.4141         estimate D2E/DX2                !
 ! D99   D(54,24,25,26)       -176.4863         estimate D2E/DX2                !
 ! D100  D(54,24,25,29)          5.1441         estimate D2E/DX2                !
 ! D101  D(24,25,26,27)          4.1577         estimate D2E/DX2                !
 ! D102  D(24,25,26,55)       -177.0763         estimate D2E/DX2                !
 ! D103  D(29,25,26,27)       -177.3417         estimate D2E/DX2                !
 ! D104  D(29,25,26,55)          1.4243         estimate D2E/DX2                !
 ! D105  D(24,25,29,30)         52.3643         estimate D2E/DX2                !
 ! D106  D(24,25,29,35)       -121.55           estimate D2E/DX2                !
 ! D107  D(26,25,29,30)       -126.0139         estimate D2E/DX2                !
 ! D108  D(26,25,29,35)         60.0719         estimate D2E/DX2                !
 ! D109  D(25,26,27,22)         -3.634          estimate D2E/DX2                !
 ! D110  D(25,26,27,28)        178.5994         estimate D2E/DX2                !
 ! D111  D(55,26,27,22)        177.4903         estimate D2E/DX2                !
 ! D112  D(55,26,27,28)         -0.2763         estimate D2E/DX2                !
 ! D113  D(25,29,30,31)       -176.9567         estimate D2E/DX2                !
 ! D114  D(25,29,30,56)          2.1916         estimate D2E/DX2                !
 ! D115  D(35,29,30,31)         -2.9917         estimate D2E/DX2                !
 ! D116  D(35,29,30,56)        176.1566         estimate D2E/DX2                !
 ! D117  D(25,29,35,34)       -179.1988         estimate D2E/DX2                !
 ! D118  D(25,29,35,58)         -5.8293         estimate D2E/DX2                !
 ! D119  D(30,29,35,34)          7.2435         estimate D2E/DX2                !
 ! D120  D(30,29,35,58)       -179.387          estimate D2E/DX2                !
 ! D121  D(29,30,31,32)       -177.1174         estimate D2E/DX2                !
 ! D122  D(29,30,31,33)         -1.1201         estimate D2E/DX2                !
 ! D123  D(56,30,31,32)          3.647          estimate D2E/DX2                !
 ! D124  D(56,30,31,33)        179.6442         estimate D2E/DX2                !
 ! D125  D(30,31,33,34)          1.0929         estimate D2E/DX2                !
 ! D126  D(30,31,33,36)       -177.9916         estimate D2E/DX2                !
 ! D127  D(32,31,33,34)        176.7714         estimate D2E/DX2                !
 ! D128  D(32,31,33,36)         -2.3131         estimate D2E/DX2                !
 ! D129  D(31,33,34,35)          2.7713         estimate D2E/DX2                !
 ! D130  D(31,33,34,57)        176.7428         estimate D2E/DX2                !
 ! D131  D(36,33,34,35)       -178.129          estimate D2E/DX2                !
 ! D132  D(36,33,34,57)         -4.1575         estimate D2E/DX2                !
 ! D133  D(31,33,36,37)        -49.8645         estimate D2E/DX2                !
 ! D134  D(31,33,36,41)        130.9834         estimate D2E/DX2                !
 ! D135  D(34,33,36,37)        131.1042         estimate D2E/DX2                !
 ! D136  D(34,33,36,41)        -48.0479         estimate D2E/DX2                !
 ! D137  D(33,34,35,29)         -7.0514         estimate D2E/DX2                !
 ! D138  D(33,34,35,58)        179.0591         estimate D2E/DX2                !
 ! D139  D(57,34,35,29)        179.3291         estimate D2E/DX2                !
 ! D140  D(57,34,35,58)          5.4396         estimate D2E/DX2                !
 ! D141  D(33,36,37,38)       -178.3377         estimate D2E/DX2                !
 ! D142  D(33,36,37,59)          3.8312         estimate D2E/DX2                !
 ! D143  D(41,36,37,38)          0.919          estimate D2E/DX2                !
 ! D144  D(41,36,37,59)       -176.9121         estimate D2E/DX2                !
 ! D145  D(33,36,41,40)        177.5003         estimate D2E/DX2                !
 ! D146  D(33,36,41,42)          1.2651         estimate D2E/DX2                !
 ! D147  D(37,36,41,40)         -1.757          estimate D2E/DX2                !
 ! D148  D(37,36,41,42)       -177.9923         estimate D2E/DX2                !
 ! D149  D(36,37,38,39)         -1.9115         estimate D2E/DX2                !
 ! D150  D(36,37,38,60)       -178.1844         estimate D2E/DX2                !
 ! D151  D(59,37,38,39)        175.775          estimate D2E/DX2                !
 ! D152  D(59,37,38,60)         -0.4979         estimate D2E/DX2                !
 ! D153  D(37,38,39,40)          3.626          estimate D2E/DX2                !
 ! D154  D(37,38,39,61)        178.8693         estimate D2E/DX2                !
 ! D155  D(60,38,39,40)        179.9375         estimate D2E/DX2                !
 ! D156  D(60,38,39,61)         -4.8191         estimate D2E/DX2                !
 ! D157  D(38,39,40,41)         -4.5576         estimate D2E/DX2                !
 ! D158  D(38,39,40,62)       -177.8289         estimate D2E/DX2                !
 ! D159  D(61,39,40,41)       -179.3215         estimate D2E/DX2                !
 ! D160  D(61,39,40,62)          7.4071         estimate D2E/DX2                !
 ! D161  D(39,40,41,36)          3.875          estimate D2E/DX2                !
 ! D162  D(39,40,41,42)        179.9241         estimate D2E/DX2                !
 ! D163  D(62,40,41,36)        177.5106         estimate D2E/DX2                !
 ! D164  D(62,40,41,42)         -6.4403         estimate D2E/DX2                !
 --------------------------------------------------------------------------------
 Trust Radius=3.00D-01 FncErr=1.00D-07 GrdErr=1.00D-06 EigMax=2.50D+02 EigMin=1.00D-04
 Number of steps in this run=    349 maximum allowed number of steps=    372.
 GradGradGradGradGradGradGradGradGradGradGradGradGradGradGradGradGradGrad

 Leave Link  103 at Sat Jul 25 07:38:54 2020, MaxMem=  4026531840 cpu:               0.1 elap:               0.0
 (Enter /opt/ohpc/pub/libs/gaussian/g16-A.03/sandybridge/g16/l202.exe)
 Stoichiometry    C36H20F6
 Framework group  C1[X(C36H20F6)]
 Deg. of freedom   180
 Full point group                 C1      NOp   1
 Largest Abelian subgroup         C1      NOp   1
 Largest concise Abelian subgroup C1      NOp   1
                         Standard orientation:                         
 ---------------------------------------------------------------------
 Center     Atomic      Atomic             Coordinates (Angstroms)
 Number     Number       Type             X           Y           Z
 ---------------------------------------------------------------------
      1          6           0      -12.194842   -0.069550   -0.000783
      2          6           0      -11.518708    1.209689   -0.020165
      3          6           0      -10.151009    1.152344   -0.009765
      4          9           0       -9.456207    2.314609   -0.037466
      5          6           0       -9.412385   -0.026696    0.007990
      6          6           0      -10.131982   -1.211633    0.062800
      7          6           0      -11.544777   -1.222376    0.022907
      8          6           0       -7.900987   -0.072911    0.078393
      9          6           0       -7.172982    0.651892    1.002774
     10          6           0       -5.827746    0.663200    1.000435
     11          6           0       -5.075546   -0.086692    0.087764
     12          6           0       -5.742799   -0.870144   -0.851807
     13          6           0       -7.217045   -0.839900   -0.894021
     14          9           0       -7.819279   -1.646300   -1.740303
     15          6           0       -3.570156   -0.087101    0.047927
     16          6           0       -2.880362   -0.388196    1.212698
     17          6           0       -1.500695   -0.451769    1.261006
     18          9           0       -0.837106   -0.745316    2.415762
     19          6           0       -0.735588   -0.160501    0.092826
     20          6           0       -1.495325    0.202312   -1.052135
     21          6           0       -2.912406    0.185433   -1.088634
     22          6           0        0.687059   -0.100018    0.086387
     23          6           0        1.434621   -1.210480    0.604721
     24          6           0        2.870464   -1.226486    0.544601
     25          6           0        3.625363   -0.123470    0.089700
     26          6           0        2.907888    1.009490   -0.432746
     27          6           0        1.495420    1.030479   -0.397307
     28          9           0        0.852227    2.076738   -0.849523
     29          6           0        5.103808   -0.052043    0.075456
     30          6           0        5.740943   -1.092644   -0.538041
     31          6           0        7.209425   -1.074684   -0.501943
     32          9           0        7.793659   -2.117260   -1.191657
     33          6           0        7.964033   -0.069010    0.088403
     34          6           0        7.197653    1.005876    0.720802
     35          6           0        5.791795    0.913549    0.737166
     36          6           0        9.347696   -0.057207    0.072577
     37          6           0       10.167619   -1.146693    0.439179
     38          6           0       11.507786   -1.145198    0.460628
     39          6           0       12.242937    0.025099    0.049673
     40          6           0       11.545632    1.091983   -0.268844
     41          6           0       10.165708    1.089927   -0.308973
     42          9           0        9.447637    2.266546   -0.657068
     43          1           0      -13.330694   -0.055097    0.029031
     44          1           0      -12.054840    2.088518   -0.069474
     45          1           0       -9.619640   -2.245421    0.157136
     46          1           0      -12.088759   -2.194910    0.151068
     47          1           0       -7.674251    1.269664    1.708307
     48          1           0       -5.236971    1.229837    1.694642
     49          1           0       -5.313688   -1.544974   -1.577282
     50          1           0       -3.433926   -0.678524    2.161811
     51          1           0       -0.905804    0.479917   -1.994424
     52          1           0       -3.375832    0.481699   -2.045411
     53          1           0        0.980587   -2.043015    0.932154
     54          1           0        3.443118   -2.052339    0.993449
     55          1           0        3.347009    1.840767   -0.827139
     56          1           0        5.261909   -1.958942   -1.050695
     57          1           0        7.741102    1.771055    1.232320
     58          1           0        5.291160    1.759144    1.248775
     59          1           0        9.602517   -2.058156    0.685259
     60          1           0       12.083482   -2.097855    0.745819
     61          1           0       13.294373   -0.030000    0.106594
     62          1           0       12.037698    2.022269   -0.629536
 ---------------------------------------------------------------------
 Rotational constants (GHZ):           0.4391585           0.0159850           0.0158022
 Leave Link  202 at Sat Jul 25 07:38:54 2020, MaxMem=  4026531840 cpu:               0.1 elap:               0.0
 (Enter /opt/ohpc/pub/libs/gaussian/g16-A.03/sandybridge/g16/l301.exe)
 Standard basis: CC-pVDZ (5D, 7F)
 Ernie: Thresh=  0.10000D-02 Tol=  0.10000D-05 Strict=F.
 Ernie:  84 primitive shells out of 1024 were deleted.
 There are   730 symmetry adapted cartesian basis functions of A   symmetry.
 There are   688 symmetry adapted basis functions of A   symmetry.
   688 basis functions,  1526 primitive gaussians,   730 cartesian basis functions
   145 alpha electrons      145 beta electrons
       nuclear repulsion energy      3994.7375093816 Hartrees.
 IExCor=32609 DFT=T Ex+Corr=LC-wPBE ExCW=0 ScaHFX=  1.000000
 ScaDFX=  1.000000  0.000000  1.000000  1.000000 ScalE2=  1.000000  1.000000
 IRadAn=      5 IRanWt=     -1 IRanGd=            0 ICorTp=0 IEmpDi=  4
 HFx  wShort=  0.000000 wLong=  0.312400 cFull=  0.000000 cShort=  0.000000 cLong=  1.000000
 DFx  wShort=  0.000000 wLong=  0.312400 cFull=  0.000000 cShort=  0.000000 cLong=  1.000000
 NAtoms=   62 NActive=   62 NUniq=   62 SFac= 1.00D+00 NAtFMM=   60 NAOKFM=T Big=T
 Integral buffers will be    131072 words long.
 Raffenetti 2 integral format.
 Two-electron integral symmetry is turned on.
 Leave Link  301 at Sat Jul 25 07:38:54 2020, MaxMem=  4026531840 cpu:               0.4 elap:               0.1
 (Enter /opt/ohpc/pub/libs/gaussian/g16-A.03/sandybridge/g16/l302.exe)
 NPDir=0 NMtPBC=     1 NCelOv=     1 NCel=       1 NClECP=     1 NCelD=      1
         NCelK=      1 NCelE2=     1 NClLst=     1 CellRange=     0.0.
 One-electron integrals computed using PRISM.
 One-electron integral symmetry used in STVInt
 NBasis=   688 RedAO= T EigKep=  3.09D-04  NBF=   688
 NBsUse=   688 1.00D-06 EigRej= -1.00D+00 NBFU=   688
 Precomputing XC quadrature grid using
 IXCGrd= 4 IRadAn=           5 IRanWt=          -1 IRanGd=           0 AccXCQ= 0.00D+00.
 Generated NRdTot=       0 NPtTot=           0 NUsed=           0 NTot=          32
 NSgBfM=   597   589   594   597   597 MxSgAt=    62 MxSgA2=    62.
 Leave Link  302 at Sat Jul 25 07:38:55 2020, MaxMem=  4026531840 cpu:              11.6 elap:               1.5
 (Enter /opt/ohpc/pub/libs/gaussian/g16-A.03/sandybridge/g16/l303.exe)
 DipDrv:  MaxL=1.
 Leave Link  303 at Sat Jul 25 07:38:56 2020, MaxMem=  4026531840 cpu:               1.0 elap:               0.2
 (Enter /opt/ohpc/pub/libs/gaussian/g16-A.03/sandybridge/g16/l401.exe)
 ExpMin= 1.22D-01 ExpMax= 1.47D+04 ExpMxC= 5.03D+02 IAcc=3 IRadAn=         5 AccDes= 0.00D+00
 Harris functional with IExCor=32609 and IRadAn=       5 diagonalized for initial guess.
 HarFok:  IExCor=32609 AccDes= 0.00D+00 IRadAn=         5 IDoV= 1 UseB2=F ITyADJ=14
 ICtDFT=  3500011 ScaDFX=  1.000000  1.000000  1.000000  1.000000
 FoFCou: FMM=F IPFlag=           0 FMFlag=      100000 FMFlg1=        2001
         NFxFlg=           0 DoJE=T BraDBF=F KetDBF=T FulRan=T
         wScrn=  0.000000 ICntrl=       500 IOpCl=  0 I1Cent=   200000004 NGrid=           0
         NMat0=    1 NMatS0=      1 NMatT0=    0 NMatD0=    1 NMtDS0=    0 NMtDT0=    0
 Petite list used in FoFCou.
 Harris En= -1981.31704785823    
 JPrj=0 DoOrth=F DoCkMO=F.
 Initial guess <Sx>= 0.0000 <Sy>= 0.0000 <Sz>= 0.0000 <S**2>=-0.0000 S=-0.0000
 Leave Link  401 at Sat Jul 25 07:39:02 2020, MaxMem=  4026531840 cpu:              53.3 elap:               6.8
 (Enter /opt/ohpc/pub/libs/gaussian/g16-A.03/sandybridge/g16/l502.exe)
 Integral symmetry usage will be decided dynamically.
 UHF open shell SCF:
 Using DIIS extrapolation, IDIIS=  1040.
 NGot=  4026531840 LenX=  4025452850 LenY=  4024919220
 Requested convergence on RMS density matrix=1.00D-08 within 128 cycles.
 Requested convergence on MAX density matrix=1.00D-06.
 Requested convergence on             energy=1.00D-06.
 No special actions if energy rises.
 Fock matrices will be formed incrementally for  20 cycles.
 Integral accuracy reduced to 1.0D-05 until final iterations.

 Cycle   1  Pass 0  IDiag  1:
 FoFJK:  IHMeth= 1 ICntrl=       0 DoSepK=T KAlg= 0 I1Cent=           0 FoldK=F
 IRaf=         1 NMat=       1 IRICut=       1 DoRegI=T DoRafI=F ISym2E= 0 IDoP0=0 IntGTp=1.
 FoFCou: FMM=T IPFlag=           0 FMFlag=      100000 FMFlg1=        2001
         NFxFlg=           0 DoJE=T BraDBF=F KetDBF=F FulRan=T
         wScrn=  0.000000 ICntrl=       500 IOpCl=  0 I1Cent=           0 NGrid=           0
         NMat0=    1 NMatS0=      1 NMatT0=    0 NMatD0=    1 NMtDS0=    0 NMtDT0=    0
 Symmetry not used in FoFCou.
 FMM levels:  10  Number of levels for PrismC:   9
 E= -1980.82191966618    
 DIIS: error= 1.44D-02 at cycle   1 NSaved=   1.
 NSaved= 1 IEnMin= 1 EnMin= -1980.82191966618     IErMin= 1 ErrMin= 1.44D-02
 ErrMax= 1.44D-02  0.00D+00 EMaxC= 1.00D-01 BMatC= 2.23D+00 BMatP= 2.23D+00
 IDIUse=3 WtCom= 8.56D-01 WtEn= 1.44D-01
 Coeff-Com:  0.100D+01
 Coeff-En:   0.100D+01
 Coeff:      0.100D+01
 Gap=     0.335 Goal=   None    Shift=    0.000
 Gap=     0.335 Goal=   None    Shift=    0.000
 GapD=    0.335 DampG=1.000 DampE=0.500 DampFc=0.5000 IDamp=-1.
 Damping current iteration by 5.00D-01
 RMSDP=2.20D-03 MaxDP=8.33D-02              OVMax= 1.69D-01

 Cycle   2  Pass 0  IDiag  1:
 RMSU=  1.08D-03    CP:  9.84D-01
 E= -1981.15248936682     Delta-E=       -0.330569700644 Rises=F Damp=T
 DIIS: error= 4.97D-03 at cycle   2 NSaved=   2.
 NSaved= 2 IEnMin= 2 EnMin= -1981.15248936682     IErMin= 2 ErrMin= 4.97D-03
 ErrMax= 4.97D-03  0.00D+00 EMaxC= 1.00D-01 BMatC= 1.45D-01 BMatP= 2.23D+00
 IDIUse=3 WtCom= 9.50D-01 WtEn= 4.97D-02
 Coeff-Com: -0.118D+00 0.112D+01
 Coeff-En:   0.000D+00 0.100D+01
 Coeff:     -0.112D+00 0.111D+01
 Gap=     0.329 Goal=   None    Shift=    0.000
 Gap=     0.329 Goal=   None    Shift=    0.000
 RMSDP=8.28D-04 MaxDP=1.93D-02 DE=-3.31D-01 OVMax= 9.48D-02

 Cycle   3  Pass 0  IDiag  1:
 RMSU=  6.90D-04    CP:  9.74D-01  1.41D+00
 E= -1981.45013331675     Delta-E=       -0.297643949927 Rises=F Damp=F
 DIIS: error= 2.31D-03 at cycle   3 NSaved=   3.
 NSaved= 3 IEnMin= 3 EnMin= -1981.45013331675     IErMin= 3 ErrMin= 2.31D-03
 ErrMax= 2.31D-03  0.00D+00 EMaxC= 1.00D-01 BMatC= 4.77D-02 BMatP= 1.45D-01
 IDIUse=3 WtCom= 9.77D-01 WtEn= 2.31D-02
 Coeff-Com: -0.817D-01 0.424D+00 0.657D+00
 Coeff-En:   0.000D+00 0.000D+00 0.100D+01
 Coeff:     -0.798D-01 0.415D+00 0.665D+00
 Gap=     0.312 Goal=   None    Shift=    0.000
 Gap=     0.312 Goal=   None    Shift=    0.000
 RMSDP=2.09D-04 MaxDP=1.08D-02 DE=-2.98D-01 OVMax= 2.65D-02

 Cycle   4  Pass 0  IDiag  1:
 RMSU=  1.77D-04    CP:  9.75D-01  1.45D+00  8.53D-01
 E= -1981.46124873287     Delta-E=       -0.011115416126 Rises=F Damp=F
 DIIS: error= 1.07D-03 at cycle   4 NSaved=   4.
 NSaved= 4 IEnMin= 4 EnMin= -1981.46124873287     IErMin= 4 ErrMin= 1.07D-03
 ErrMax= 1.07D-03  0.00D+00 EMaxC= 1.00D-01 BMatC= 6.38D-03 BMatP= 4.77D-02
 IDIUse=3 WtCom= 9.89D-01 WtEn= 1.07D-02
 Coeff-Com: -0.183D-01 0.733D-01 0.289D+00 0.656D+00
 Coeff-En:   0.000D+00 0.000D+00 0.839D-02 0.992D+00
 Coeff:     -0.181D-01 0.725D-01 0.286D+00 0.660D+00
 Gap=     0.312 Goal=   None    Shift=    0.000
 Gap=     0.312 Goal=   None    Shift=    0.000
 RMSDP=7.51D-05 MaxDP=4.30D-03 DE=-1.11D-02 OVMax= 8.98D-03

 Cycle   5  Pass 0  IDiag  1:
 RMSU=  5.30D-05    CP:  9.75D-01  1.45D+00  9.08D-01  7.91D-01
 E= -1981.46282480082     Delta-E=       -0.001576067946 Rises=F Damp=F
 DIIS: error= 3.49D-04 at cycle   5 NSaved=   5.
 NSaved= 5 IEnMin= 5 EnMin= -1981.46282480082     IErMin= 5 ErrMin= 3.49D-04
 ErrMax= 3.49D-04  0.00D+00 EMaxC= 1.00D-01 BMatC= 7.15D-04 BMatP= 6.38D-03
 IDIUse=3 WtCom= 9.97D-01 WtEn= 3.49D-03
 Coeff-Com:  0.141D-02-0.118D-01 0.691D-01 0.301D+00 0.641D+00
 Coeff-En:   0.000D+00 0.000D+00 0.000D+00 0.000D+00 0.100D+01
 Coeff:      0.141D-02-0.117D-01 0.688D-01 0.299D+00 0.642D+00
 Gap=     0.313 Goal=   None    Shift=    0.000
 Gap=     0.313 Goal=   None    Shift=    0.000
 RMSDP=2.82D-05 MaxDP=1.21D-03 DE=-1.58D-03 OVMax= 2.90D-03

 Cycle   6  Pass 0  IDiag  1:
 RMSU=  2.11D-05    CP:  9.75D-01  1.45D+00  9.23D-01  8.65D-01  8.66D-01
 E= -1981.46301381969     Delta-E=       -0.000189018868 Rises=F Damp=F
 DIIS: error= 7.27D-05 at cycle   6 NSaved=   6.
 NSaved= 6 IEnMin= 6 EnMin= -1981.46301381969     IErMin= 6 ErrMin= 7.27D-05
 ErrMax= 7.27D-05  0.00D+00 EMaxC= 1.00D-01 BMatC= 4.17D-05 BMatP= 7.15D-04
 IDIUse=1 WtCom= 1.00D+00 WtEn= 0.00D+00
 Coeff-Com:  0.367D-02-0.136D-01-0.111D-01 0.212D-02 0.150D+00 0.869D+00
 Coeff:      0.367D-02-0.136D-01-0.111D-01 0.212D-02 0.150D+00 0.869D+00
 Gap=     0.313 Goal=   None    Shift=    0.000
 Gap=     0.313 Goal=   None    Shift=    0.000
 RMSDP=1.53D-05 MaxDP=3.55D-04 DE=-1.89D-04 OVMax= 1.47D-03

 Cycle   7  Pass 0  IDiag  1:
 RMSU=  1.20D-05    CP:  9.75D-01  1.45D+00  9.31D-01  8.81D-01  9.89D-01
                    CP:  1.17D+00
 E= -1981.46303179158     Delta-E=       -0.000017971895 Rises=F Damp=F
 DIIS: error= 4.24D-05 at cycle   7 NSaved=   7.
 NSaved= 7 IEnMin= 7 EnMin= -1981.46303179158     IErMin= 7 ErrMin= 4.24D-05
 ErrMax= 4.24D-05  0.00D+00 EMaxC= 1.00D-01 BMatC= 8.57D-06 BMatP= 4.17D-05
 IDIUse=1 WtCom= 1.00D+00 WtEn= 0.00D+00
 Coeff-Com:  0.124D-02-0.335D-02-0.794D-02-0.300D-01-0.433D-01 0.246D+00
 Coeff-Com:  0.837D+00
 Coeff:      0.124D-02-0.335D-02-0.794D-02-0.300D-01-0.433D-01 0.246D+00
 Coeff:      0.837D+00
 Gap=     0.313 Goal=   None    Shift=    0.000
 Gap=     0.313 Goal=   None    Shift=    0.000
 RMSDP=1.54D-05 MaxDP=4.37D-04 DE=-1.80D-05 OVMax= 5.58D-04

 Cycle   8  Pass 0  IDiag  1:
 RMSU=  1.29D-05    CP:  9.75D-01  1.45D+00  9.33D-01  8.88D-01  1.02D+00
                    CP:  1.44D+00  1.46D+00
 E= -1981.46303774939     Delta-E=       -0.000005957811 Rises=F Damp=F
 DIIS: error= 3.25D-05 at cycle   8 NSaved=   8.
 NSaved= 8 IEnMin= 8 EnMin= -1981.46303774939     IErMin= 8 ErrMin= 3.25D-05
 ErrMax= 3.25D-05  0.00D+00 EMaxC= 1.00D-01 BMatC= 3.16D-06 BMatP= 8.57D-06
 IDIUse=1 WtCom= 1.00D+00 WtEn= 0.00D+00
 Coeff-Com:  0.238D-03-0.146D-03-0.200D-02-0.149D-01-0.456D-01 0.872D-02
 Coeff-Com:  0.399D+00 0.655D+00
 Coeff:      0.238D-03-0.146D-03-0.200D-02-0.149D-01-0.456D-01 0.872D-02
 Coeff:      0.399D+00 0.655D+00
 Gap=     0.313 Goal=   None    Shift=    0.000
 Gap=     0.313 Goal=   None    Shift=    0.000
 RMSDP=1.41D-05 MaxDP=3.73D-04 DE=-5.96D-06 OVMax= 2.51D-04

 Cycle   9  Pass 0  IDiag  1:
 RMSU=  8.18D-06    CP:  9.75D-01  1.45D+00  9.34D-01  8.92D-01  1.04D+00
                    CP:  1.58D+00  2.14D+00  1.58D+00
 E= -1981.46303971240     Delta-E=       -0.000001963012 Rises=F Damp=F
 DIIS: error= 3.74D-05 at cycle   9 NSaved=   9.
 NSaved= 9 IEnMin= 9 EnMin= -1981.46303971240     IErMin= 8 ErrMin= 3.25D-05
 ErrMax= 3.74D-05  0.00D+00 EMaxC= 1.00D-01 BMatC= 2.81D-06 BMatP= 3.16D-06
 IDIUse=1 WtCom= 1.00D+00 WtEn= 0.00D+00
 Coeff-Com:  0.235D-03-0.192D-03-0.186D-02-0.135D-01-0.411D-01 0.116D-01
 Coeff-Com:  0.363D+00 0.580D+00 0.101D+00
 Coeff:      0.235D-03-0.192D-03-0.186D-02-0.135D-01-0.411D-01 0.116D-01
 Coeff:      0.363D+00 0.580D+00 0.101D+00
 Gap=     0.313 Goal=   None    Shift=    0.000
 Gap=     0.313 Goal=   None    Shift=    0.000
 RMSDP=2.24D-06 MaxDP=5.33D-05 DE=-1.96D-06 OVMax= 9.76D-06

 Initial convergence to 1.0D-05 achieved.  Increase integral accuracy.
 Cycle  10  Pass 1  IDiag  1:
 E= -1981.46239599507     Delta-E=        0.000643717337 Rises=F Damp=F
 DIIS: error= 3.84D-04 at cycle   1 NSaved=   1.
 NSaved= 1 IEnMin= 1 EnMin= -1981.46239599507     IErMin= 1 ErrMin= 3.84D-04
 ErrMax= 3.84D-04  0.00D+00 EMaxC= 1.00D-01 BMatC= 2.00D-04 BMatP= 2.00D-04
 IDIUse=3 WtCom= 9.96D-01 WtEn= 3.84D-03
 Coeff-Com:  0.100D+01
 Coeff-En:   0.100D+01
 Coeff:      0.100D+01
 Gap=     0.313 Goal=   None    Shift=    0.000
 Gap=     0.313 Goal=   None    Shift=    0.000
 RMSDP=2.24D-06 MaxDP=5.33D-05 DE= 6.44D-04 OVMax= 7.61D-04

 Cycle  11  Pass 1  IDiag  1:
 RMSU=  2.67D-04    CP:  9.99D-01
 E= -1981.46243824862     Delta-E=       -0.000042253553 Rises=F Damp=F
 DIIS: error= 1.35D-05 at cycle   2 NSaved=   2.
 NSaved= 2 IEnMin= 2 EnMin= -1981.46243824862     IErMin= 2 ErrMin= 1.35D-05
 ErrMax= 1.35D-05  0.00D+00 EMaxC= 1.00D-01 BMatC= 4.21D-07 BMatP= 2.00D-04
 IDIUse=1 WtCom= 1.00D+00 WtEn= 0.00D+00
 Coeff-Com: -0.367D-01 0.104D+01
 Coeff:     -0.367D-01 0.104D+01
 Gap=     0.313 Goal=   None    Shift=    0.000
 Gap=     0.313 Goal=   None    Shift=    0.000
 RMSDP=1.28D-05 MaxDP=5.76D-04 DE=-4.23D-05 OVMax= 7.83D-05

 Cycle  12  Pass 1  IDiag  1:
 RMSU=  3.57D-06    CP:  9.99D-01  1.05D+00
 E= -1981.46243839787     Delta-E=       -0.000000149250 Rises=F Damp=F
 DIIS: error= 2.96D-06 at cycle   3 NSaved=   3.
 NSaved= 3 IEnMin= 3 EnMin= -1981.46243839787     IErMin= 3 ErrMin= 2.96D-06
 ErrMax= 2.96D-06  0.00D+00 EMaxC= 1.00D-01 BMatC= 5.95D-08 BMatP= 4.21D-07
 IDIUse=1 WtCom= 1.00D+00 WtEn= 0.00D+00
 Coeff-Com: -0.117D-01 0.311D+00 0.701D+00
 Coeff:     -0.117D-01 0.311D+00 0.701D+00
 Gap=     0.313 Goal=   None    Shift=    0.000
 Gap=     0.313 Goal=   None    Shift=    0.000
 RMSDP=4.04D-07 MaxDP=1.42D-05 DE=-1.49D-07 OVMax= 3.13D-05

 Cycle  13  Pass 1  IDiag  1:
 RMSU=  2.87D-07    CP:  9.99D-01  1.05D+00  1.06D+00
 E= -1981.46243841282     Delta-E=       -0.000000014951 Rises=F Damp=F
 DIIS: error= 1.98D-06 at cycle   4 NSaved=   4.
 NSaved= 4 IEnMin= 4 EnMin= -1981.46243841282     IErMin= 4 ErrMin= 1.98D-06
 ErrMax= 1.98D-06  0.00D+00 EMaxC= 1.00D-01 BMatC= 1.84D-08 BMatP= 5.95D-08
 IDIUse=1 WtCom= 1.00D+00 WtEn= 0.00D+00
 Coeff-Com:  0.214D-02-0.700D-01 0.331D+00 0.737D+00
 Coeff:      0.214D-02-0.700D-01 0.331D+00 0.737D+00
 Gap=     0.313 Goal=   None    Shift=    0.000
 Gap=     0.313 Goal=   None    Shift=    0.000
 RMSDP=2.35D-07 MaxDP=9.69D-06 DE=-1.50D-08 OVMax= 2.47D-05

 Cycle  14  Pass 1  IDiag  1:
 RMSU=  1.37D-07    CP:  9.99D-01  1.05D+00  1.10D+00  8.85D-01
 E= -1981.46243841884     Delta-E=       -0.000000006014 Rises=F Damp=F
 DIIS: error= 8.93D-07 at cycle   5 NSaved=   5.
 NSaved= 5 IEnMin= 5 EnMin= -1981.46243841884     IErMin= 5 ErrMin= 8.93D-07
 ErrMax= 8.93D-07  0.00D+00 EMaxC= 1.00D-01 BMatC= 1.32D-09 BMatP= 1.84D-08
 IDIUse=1 WtCom= 1.00D+00 WtEn= 0.00D+00
 Coeff-Com:  0.111D-02-0.314D-01-0.363D-02 0.139D+00 0.895D+00
 Coeff:      0.111D-02-0.314D-01-0.363D-02 0.139D+00 0.895D+00
 Gap=     0.313 Goal=   None    Shift=    0.000
 Gap=     0.313 Goal=   None    Shift=    0.000
 RMSDP=6.55D-08 MaxDP=2.59D-06 DE=-6.01D-09 OVMax= 1.29D-05

 Cycle  15  Pass 1  IDiag  1:
 RMSU=  4.58D-08    CP:  9.99D-01  1.05D+00  1.10D+00  9.83D-01  1.26D+00
 E= -1981.46243841814     Delta-E=        0.000000000699 Rises=F Damp=F
 DIIS: error= 2.74D-07 at cycle   6 NSaved=   6.
 NSaved= 6 IEnMin= 5 EnMin= -1981.46243841884     IErMin= 6 ErrMin= 2.74D-07
 ErrMax= 2.74D-07  0.00D+00 EMaxC= 1.00D-01 BMatC= 5.64D-10 BMatP= 1.32D-09
 IDIUse=1 WtCom= 1.00D+00 WtEn= 0.00D+00
 Coeff-Com: -0.542D-03 0.195D-01-0.157D+00-0.272D+00 0.352D+00 0.106D+01
 Coeff:     -0.542D-03 0.195D-01-0.157D+00-0.272D+00 0.352D+00 0.106D+01
 Gap=     0.313 Goal=   None    Shift=    0.000
 Gap=     0.313 Goal=   None    Shift=    0.000
 RMSDP=6.19D-08 MaxDP=2.32D-06 DE= 6.99D-10 OVMax= 1.16D-05

 Cycle  16  Pass 1  IDiag  1:
 RMSU=  2.91D-08    CP:  9.99D-01  1.05D+00  1.10D+00  1.04D+00  1.60D+00
                    CP:  1.51D+00
 E= -1981.46243841876     Delta-E=       -0.000000000628 Rises=F Damp=F
 DIIS: error= 1.10D-07 at cycle   7 NSaved=   7.
 NSaved= 7 IEnMin= 5 EnMin= -1981.46243841884     IErMin= 7 ErrMin= 1.10D-07
 ErrMax= 1.10D-07  0.00D+00 EMaxC= 1.00D-01 BMatC= 4.68D-11 BMatP= 5.64D-10
 IDIUse=1 WtCom= 1.00D+00 WtEn= 0.00D+00
 Coeff-Com: -0.290D-03 0.975D-02-0.576D-01-0.112D+00 0.553D-01 0.400D+00
 Coeff-Com:  0.706D+00
 Coeff:     -0.290D-03 0.975D-02-0.576D-01-0.112D+00 0.553D-01 0.400D+00
 Coeff:      0.706D+00
 Gap=     0.313 Goal=   None    Shift=    0.000
 Gap=     0.313 Goal=   None    Shift=    0.000
 RMSDP=1.22D-08 MaxDP=4.13D-07 DE=-6.28D-10 OVMax= 2.17D-06

 Cycle  17  Pass 1  IDiag  1:
 RMSU=  7.02D-09    CP:  9.99D-01  1.05D+00  1.10D+00  1.04D+00  1.62D+00
                    CP:  1.68D+00  1.13D+00
 E= -1981.46243841898     Delta-E=       -0.000000000214 Rises=F Damp=F
 DIIS: error= 3.93D-08 at cycle   8 NSaved=   8.
 NSaved= 8 IEnMin= 8 EnMin= -1981.46243841898     IErMin= 8 ErrMin= 3.93D-08
 ErrMax= 3.93D-08  0.00D+00 EMaxC= 1.00D-01 BMatC= 1.10D-11 BMatP= 4.68D-11
 IDIUse=1 WtCom= 1.00D+00 WtEn= 0.00D+00
 Coeff-Com:  0.293D-04-0.133D-02 0.200D-01 0.274D-01-0.759D-01-0.105D+00
 Coeff-Com:  0.285D+00 0.850D+00
 Coeff:      0.293D-04-0.133D-02 0.200D-01 0.274D-01-0.759D-01-0.105D+00
 Coeff:      0.285D+00 0.850D+00
 Gap=     0.313 Goal=   None    Shift=    0.000
 Gap=     0.313 Goal=   None    Shift=    0.000
 RMSDP=6.95D-09 MaxDP=3.95D-07 DE=-2.14D-10 OVMax= 1.14D-06

 SCF Done:  E(ULC-wPBE) =  -1981.46243842     A.U. after   17 cycles
            NFock= 17  Conv=0.70D-08     -V/T= 2.0063
 <Sx>= 0.0000 <Sy>= 0.0000 <Sz>= 0.0000 <S**2>=-0.0000 S=-0.0000
 <L.S>= 0.000000000000E+00
 KE= 1.968976108273D+03 PE=-1.262416802318D+04 EE= 4.678991967102D+03
 Annihilation of the first spin contaminant:
 S**2 before annihilation    -0.0000,   after     0.0000
 Leave Link  502 at Sat Jul 25 07:45:41 2020, MaxMem=  4026531840 cpu:            3125.5 elap:             398.7
 (Enter /opt/ohpc/pub/libs/gaussian/g16-A.03/sandybridge/g16/l601.exe)
 Copying SCF densities to generalized density rwf, IOpCl= 1 IROHF=0.

 **********************************************************************

            Population analysis using the SCF density.

 **********************************************************************

 Orbital symmetries:
 Alpha Orbitals:
       Occupied  (A) (A) (A) (A) (A) (A) (A) (A) (A) (A) (A) (A)
                 (A) (A) (A) (A) (A) (A) (A) (A) (A) (A) (A) (A)
                 (A) (A) (A) (A) (A) (A) (A) (A) (A) (A) (A) (A)
                 (A) (A) (A) (A) (A) (A) (A) (A) (A) (A) (A) (A)
                 (A) (A) (A) (A) (A) (A) (A) (A) (A) (A) (A) (A)
                 (A) (A) (A) (A) (A) (A) (A) (A) (A) (A) (A) (A)
                 (A) (A) (A) (A) (A) (A) (A) (A) (A) (A) (A) (A)
                 (A) (A) (A) (A) (A) (A) (A) (A) (A) (A) (A) (A)
                 (A) (A) (A) (A) (A) (A) (A) (A) (A) (A) (A) (A)
                 (A) (A) (A) (A) (A) (A) (A) (A) (A) (A) (A) (A)
                 (A) (A) (A) (A) (A) (A) (A) (A) (A) (A) (A) (A)
                 (A) (A) (A) (A) (A) (A) (A) (A) (A) (A) (A) (A)
                 (A)
       Virtual   (A) (A) (A) (A) (A) (A) (A) (A) (A) (A) (A) (A)
                 (A) (A) (A) (A) (A) (A) (A) (A) (A) (A) (A) (A)
                 (A) (A) (A) (A) (A) (A) (A) (A) (A) (A) (A) (A)
                 (A) (A) (A) (A) (A) (A) (A) (A) (A) (A) (A) (A)
                 (A) (A) (A) (A) (A) (A) (A) (A) (A) (A) (A) (A)
                 (A) (A) (A) (A) (A) (A) (A) (A) (A) (A) (A) (A)
                 (A) (A) (A) (A) (A) (A) (A) (A) (A) (A) (A) (A)
                 (A) (A) (A) (A) (A) (A) (A) (A) (A) (A) (A) (A)
                 (A) (A) (A) (A) (A) (A) (A) (A) (A) (A) (A) (A)
                 (A) (A) (A) (A) (A) (A) (A) (A) (A) (A) (A) (A)
                 (A) (A) (A) (A) (A) (A) (A) (A) (A) (A) (A) (A)
                 (A) (A) (A) (A) (A) (A) (A) (A) (A) (A) (A) (A)
                 (A) (A) (A) (A) (A) (A) (A) (A) (A) (A) (A) (A)
                 (A) (A) (A) (A) (A) (A) (A) (A) (A) (A) (A) (A)
                 (A) (A) (A) (A) (A) (A) (A) (A) (A) (A) (A) (A)
                 (A) (A) (A) (A) (A) (A) (A) (A) (A) (A) (A) (A)
                 (A) (A) (A) (A) (A) (A) (A) (A) (A) (A) (A) (A)
                 (A) (A) (A) (A) (A) (A) (A) (A) (A) (A) (A) (A)
                 (A) (A) (A) (A) (A) (A) (A) (A) (A) (A) (A) (A)
                 (A) (A) (A) (A) (A) (A) (A) (A) (A) (A) (A) (A)
                 (A) (A) (A) (A) (A) (A) (A) (A) (A) (A) (A) (A)
                 (A) (A) (A) (A) (A) (A) (A) (A) (A) (A) (A) (A)
                 (A) (A) (A) (A) (A) (A) (A) (A) (A) (A) (A) (A)
                 (A) (A) (A) (A) (A) (A) (A) (A) (A) (A) (A) (A)
                 (A) (A) (A) (A) (A) (A) (A) (A) (A) (A) (A) (A)
                 (A) (A) (A) (A) (A) (A) (A) (A) (A) (A) (A) (A)
                 (A) (A) (A) (A) (A) (A) (A) (A) (A) (A) (A) (A)
                 (A) (A) (A) (A) (A) (A) (A) (A) (A) (A) (A) (A)
                 (A) (A) (A) (A) (A) (A) (A) (A) (A) (A) (A) (A)
                 (A) (A) (A) (A) (A) (A) (A) (A) (A) (A) (A) (A)
                 (A) (A) (A) (A) (A) (A) (A) (A) (A) (A) (A) (A)
                 (A) (A) (A) (A) (A) (A) (A) (A) (A) (A) (A) (A)
                 (A) (A) (A) (A) (A) (A) (A) (A) (A) (A) (A) (A)
                 (A) (A) (A) (A) (A) (A) (A) (A) (A) (A) (A) (A)
                 (A) (A) (A) (A) (A) (A) (A) (A) (A) (A) (A) (A)
                 (A) (A) (A) (A) (A) (A) (A) (A) (A) (A) (A) (A)
                 (A) (A) (A) (A) (A) (A) (A) (A) (A) (A) (A) (A)
                 (A) (A) (A) (A) (A) (A) (A) (A) (A) (A) (A) (A)
                 (A) (A) (A) (A) (A) (A) (A) (A) (A) (A) (A) (A)
                 (A) (A) (A) (A) (A) (A) (A) (A) (A) (A) (A) (A)
                 (A) (A) (A) (A) (A) (A) (A) (A) (A) (A) (A) (A)
                 (A) (A) (A) (A) (A) (A) (A) (A) (A) (A) (A) (A)
                 (A) (A) (A) (A) (A) (A) (A) (A) (A) (A) (A) (A)
                 (A) (A) (A) (A) (A) (A) (A) (A) (A) (A) (A) (A)
                 (A) (A) (A) (A) (A) (A) (A) (A) (A) (A) (A) (A)
                 (A) (A) (A)
 Beta  Orbitals:
       Occupied  (A) (A) (A) (A) (A) (A) (A) (A) (A) (A) (A) (A)
                 (A) (A) (A) (A) (A) (A) (A) (A) (A) (A) (A) (A)
                 (A) (A) (A) (A) (A) (A) (A) (A) (A) (A) (A) (A)
                 (A) (A) (A) (A) (A) (A) (A) (A) (A) (A) (A) (A)
                 (A) (A) (A) (A) (A) (A) (A) (A) (A) (A) (A) (A)
                 (A) (A) (A) (A) (A) (A) (A) (A) (A) (A) (A) (A)
                 (A) (A) (A) (A) (A) (A) (A) (A) (A) (A) (A) (A)
                 (A) (A) (A) (A) (A) (A) (A) (A) (A) (A) (A) (A)
                 (A) (A) (A) (A) (A) (A) (A) (A) (A) (A) (A) (A)
                 (A) (A) (A) (A) (A) (A) (A) (A) (A) (A) (A) (A)
                 (A) (A) (A) (A) (A) (A) (A) (A) (A) (A) (A) (A)
                 (A) (A) (A) (A) (A) (A) (A) (A) (A) (A) (A) (A)
                 (A)
       Virtual   (A) (A) (A) (A) (A) (A) (A) (A) (A) (A) (A) (A)
                 (A) (A) (A) (A) (A) (A) (A) (A) (A) (A) (A) (A)
                 (A) (A) (A) (A) (A) (A) (A) (A) (A) (A) (A) (A)
                 (A) (A) (A) (A) (A) (A) (A) (A) (A) (A) (A) (A)
                 (A) (A) (A) (A) (A) (A) (A) (A) (A) (A) (A) (A)
                 (A) (A) (A) (A) (A) (A) (A) (A) (A) (A) (A) (A)
                 (A) (A) (A) (A) (A) (A) (A) (A) (A) (A) (A) (A)
                 (A) (A) (A) (A) (A) (A) (A) (A) (A) (A) (A) (A)
                 (A) (A) (A) (A) (A) (A) (A) (A) (A) (A) (A) (A)
                 (A) (A) (A) (A) (A) (A) (A) (A) (A) (A) (A) (A)
                 (A) (A) (A) (A) (A) (A) (A) (A) (A) (A) (A) (A)
                 (A) (A) (A) (A) (A) (A) (A) (A) (A) (A) (A) (A)
                 (A) (A) (A) (A) (A) (A) (A) (A) (A) (A) (A) (A)
                 (A) (A) (A) (A) (A) (A) (A) (A) (A) (A) (A) (A)
                 (A) (A) (A) (A) (A) (A) (A) (A) (A) (A) (A) (A)
                 (A) (A) (A) (A) (A) (A) (A) (A) (A) (A) (A) (A)
                 (A) (A) (A) (A) (A) (A) (A) (A) (A) (A) (A) (A)
                 (A) (A) (A) (A) (A) (A) (A) (A) (A) (A) (A) (A)
                 (A) (A) (A) (A) (A) (A) (A) (A) (A) (A) (A) (A)
                 (A) (A) (A) (A) (A) (A) (A) (A) (A) (A) (A) (A)
                 (A) (A) (A) (A) (A) (A) (A) (A) (A) (A) (A) (A)
                 (A) (A) (A) (A) (A) (A) (A) (A) (A) (A) (A) (A)
                 (A) (A) (A) (A) (A) (A) (A) (A) (A) (A) (A) (A)
                 (A) (A) (A) (A) (A) (A) (A) (A) (A) (A) (A) (A)
                 (A) (A) (A) (A) (A) (A) (A) (A) (A) (A) (A) (A)
                 (A) (A) (A) (A) (A) (A) (A) (A) (A) (A) (A) (A)
                 (A) (A) (A) (A) (A) (A) (A) (A) (A) (A) (A) (A)
                 (A) (A) (A) (A) (A) (A) (A) (A) (A) (A) (A) (A)
                 (A) (A) (A) (A) (A) (A) (A) (A) (A) (A) (A) (A)
                 (A) (A) (A) (A) (A) (A) (A) (A) (A) (A) (A) (A)
                 (A) (A) (A) (A) (A) (A) (A) (A) (A) (A) (A) (A)
                 (A) (A) (A) (A) (A) (A) (A) (A) (A) (A) (A) (A)
                 (A) (A) (A) (A) (A) (A) (A) (A) (A) (A) (A) (A)
                 (A) (A) (A) (A) (A) (A) (A) (A) (A) (A) (A) (A)
                 (A) (A) (A) (A) (A) (A) (A) (A) (A) (A) (A) (A)
                 (A) (A) (A) (A) (A) (A) (A) (A) (A) (A) (A) (A)
                 (A) (A) (A) (A) (A) (A) (A) (A) (A) (A) (A) (A)
                 (A) (A) (A) (A) (A) (A) (A) (A) (A) (A) (A) (A)
                 (A) (A) (A) (A) (A) (A) (A) (A) (A) (A) (A) (A)
                 (A) (A) (A) (A) (A) (A) (A) (A) (A) (A) (A) (A)
                 (A) (A) (A) (A) (A) (A) (A) (A) (A) (A) (A) (A)
                 (A) (A) (A) (A) (A) (A) (A) (A) (A) (A) (A) (A)
                 (A) (A) (A) (A) (A) (A) (A) (A) (A) (A) (A) (A)
                 (A) (A) (A) (A) (A) (A) (A) (A) (A) (A) (A) (A)
                 (A) (A) (A) (A) (A) (A) (A) (A) (A) (A) (A) (A)
                 (A) (A) (A)
 The electronic state is 1-A.
 Alpha  occ. eigenvalues --  -24.47482 -24.47190 -24.46359 -24.45714 -24.45369
 Alpha  occ. eigenvalues --  -24.44823 -10.17403 -10.17203 -10.17132 -10.16928
 Alpha  occ. eigenvalues --  -10.16827 -10.15998 -10.10595 -10.10568 -10.10281
 Alpha  occ. eigenvalues --  -10.10261 -10.10217 -10.10105 -10.10020 -10.09926
 Alpha  occ. eigenvalues --  -10.09917 -10.09870 -10.09857 -10.09805 -10.09609
 Alpha  occ. eigenvalues --  -10.09525 -10.09134 -10.09128 -10.09091 -10.08981
 Alpha  occ. eigenvalues --  -10.08962 -10.08694 -10.08677 -10.08667 -10.08599
 Alpha  occ. eigenvalues --  -10.08529 -10.08510 -10.08457 -10.08216 -10.08211
 Alpha  occ. eigenvalues --  -10.07916 -10.07659  -1.32753  -1.32606  -1.29942
 Alpha  occ. eigenvalues --   -1.29587  -1.28911  -1.26813  -0.99742  -0.99579
 Alpha  occ. eigenvalues --   -0.98618  -0.98170  -0.97065  -0.95849  -0.92924
 Alpha  occ. eigenvalues --   -0.91112  -0.89164  -0.86978  -0.86518  -0.86127
 Alpha  occ. eigenvalues --   -0.86077  -0.85744  -0.85514  -0.85143  -0.84060
 Alpha  occ. eigenvalues --   -0.81943  -0.77251  -0.74944  -0.74684  -0.74245
 Alpha  occ. eigenvalues --   -0.73567  -0.72970  -0.72206  -0.71625  -0.70990
 Alpha  occ. eigenvalues --   -0.70447  -0.69821  -0.69507  -0.66194  -0.66055
 Alpha  occ. eigenvalues --   -0.64745  -0.64518  -0.62923  -0.61955  -0.61675
 Alpha  occ. eigenvalues --   -0.61379  -0.60836  -0.60603  -0.60411  -0.60300
 Alpha  occ. eigenvalues --   -0.59312  -0.58806  -0.58634  -0.58101  -0.57802
 Alpha  occ. eigenvalues --   -0.57721  -0.57230  -0.56465  -0.56323  -0.56127
 Alpha  occ. eigenvalues --   -0.55387  -0.55310  -0.54749  -0.54507  -0.54246
 Alpha  occ. eigenvalues --   -0.53909  -0.53474  -0.53229  -0.52777  -0.51613
 Alpha  occ. eigenvalues --   -0.51254  -0.50565  -0.50405  -0.49731  -0.49536
 Alpha  occ. eigenvalues --   -0.48927  -0.48870  -0.48412  -0.48223  -0.47986
 Alpha  occ. eigenvalues --   -0.47470  -0.47183  -0.46843  -0.46521  -0.46378
 Alpha  occ. eigenvalues --   -0.46277  -0.45658  -0.45622  -0.45009  -0.44141
 Alpha  occ. eigenvalues --   -0.43402  -0.42446  -0.41814  -0.39346  -0.38366
 Alpha  occ. eigenvalues --   -0.36958  -0.35679  -0.35079  -0.34696  -0.34645
 Alpha  occ. eigenvalues --   -0.34495  -0.34040  -0.33098  -0.32096  -0.30726
 Alpha virt. eigenvalues --    0.00590   0.02334   0.04092   0.04701   0.05566
 Alpha virt. eigenvalues --    0.05872   0.06216   0.06352   0.07274   0.07650
 Alpha virt. eigenvalues --    0.09161   0.10073   0.13317   0.13420   0.14710
 Alpha virt. eigenvalues --    0.15689   0.16224   0.16819   0.17668   0.17848
 Alpha virt. eigenvalues --    0.18144   0.18382   0.18970   0.19273   0.20143
 Alpha virt. eigenvalues --    0.20283   0.20869   0.21322   0.21496   0.21709
 Alpha virt. eigenvalues --    0.21903   0.22111   0.22708   0.22798   0.23125
 Alpha virt. eigenvalues --    0.23545   0.23775   0.24012   0.24425   0.24659
 Alpha virt. eigenvalues --    0.25573   0.25742   0.26231   0.26405   0.31002
 Alpha virt. eigenvalues --    0.31159   0.31539   0.32413   0.32743   0.33877
 Alpha virt. eigenvalues --    0.34095   0.34997   0.35279   0.35699   0.36145
 Alpha virt. eigenvalues --    0.37330   0.37981   0.38459   0.39021   0.39287
 Alpha virt. eigenvalues --    0.39666   0.40364   0.40755   0.40831   0.41011
 Alpha virt. eigenvalues --    0.42028   0.42405   0.43247   0.43378   0.44503
 Alpha virt. eigenvalues --    0.45549   0.46044   0.46591   0.47968   0.48773
 Alpha virt. eigenvalues --    0.49593   0.49895   0.50332   0.50897   0.51049
 Alpha virt. eigenvalues --    0.51594   0.51703   0.52434   0.52928   0.53166
 Alpha virt. eigenvalues --    0.54004   0.54261   0.54524   0.55330   0.55398
 Alpha virt. eigenvalues --    0.55464   0.56128   0.56220   0.56445   0.57064
 Alpha virt. eigenvalues --    0.57259   0.57460   0.57615   0.57856   0.57939
 Alpha virt. eigenvalues --    0.58101   0.58387   0.58744   0.58970   0.59098
 Alpha virt. eigenvalues --    0.59339   0.59571   0.59895   0.60129   0.60329
 Alpha virt. eigenvalues --    0.60484   0.60861   0.61228   0.61543   0.61615
 Alpha virt. eigenvalues --    0.61914   0.61974   0.62219   0.62469   0.62672
 Alpha virt. eigenvalues --    0.62824   0.62973   0.63434   0.63550   0.64284
 Alpha virt. eigenvalues --    0.64413   0.64807   0.65072   0.65163   0.65401
 Alpha virt. eigenvalues --    0.66229   0.66542   0.67167   0.67469   0.67859
 Alpha virt. eigenvalues --    0.68468   0.68778   0.69240   0.69604   0.69994
 Alpha virt. eigenvalues --    0.70590   0.70677   0.71001   0.71651   0.72220
 Alpha virt. eigenvalues --    0.72568   0.72805   0.73067   0.73468   0.73966
 Alpha virt. eigenvalues --    0.74119   0.74511   0.74990   0.75258   0.75532
 Alpha virt. eigenvalues --    0.75909   0.76120   0.76347   0.77269   0.77666
 Alpha virt. eigenvalues --    0.77690   0.78225   0.78460   0.78662   0.79246
 Alpha virt. eigenvalues --    0.79378   0.79641   0.80423   0.81024   0.81266
 Alpha virt. eigenvalues --    0.81334   0.81580   0.81722   0.82425   0.82987
 Alpha virt. eigenvalues --    0.83848   0.84086   0.84704   0.85326   0.85744
[...]
    59   Atom       -0.000000      0.000000      0.000000
    60   Atom       -0.000000      0.000000     -0.000000
    61   Atom        0.000000     -0.000000     -0.000000
    62   Atom        0.000000     -0.000000     -0.000000
 --------------------------------------------------------


 ---------------------------------------------------------------------------------
              Anisotropic Spin Dipole Couplings in Principal Axis System
 ---------------------------------------------------------------------------------

       Atom             a.u.   MegaHertz   Gauss  10(-4) cm-1        Axes

              Baa    -0.0000    -0.000    -0.000    -0.000  0.9281  0.3557  0.1101
     1 C(13)  Bbb    -0.0000    -0.000    -0.000    -0.000 -0.3521  0.7420  0.5705
              Bcc     0.0000     0.000     0.000     0.000  0.1212 -0.5682  0.8139
 
              Baa    -0.0000    -0.000    -0.000    -0.000 -0.5828  0.7770  0.2379
     2 C(13)  Bbb     0.0000     0.000     0.000     0.000  0.8069  0.5186  0.2828
              Bcc     0.0000     0.000     0.000     0.000 -0.0964 -0.3568  0.9292
 
              Baa    -0.0000    -0.000    -0.000    -0.000  0.1700  0.8303  0.5308
     3 C(13)  Bbb    -0.0000    -0.000    -0.000    -0.000 -0.3513 -0.4522  0.8198
              Bcc     0.0000     0.000     0.000     0.000  0.9207 -0.3259  0.2148
 
              Baa    -0.0000    -0.000    -0.000    -0.000  0.9998 -0.0086  0.0186
     4 F(19)  Bbb     0.0000     0.000     0.000     0.000 -0.0097  0.6019  0.7985
              Bcc     0.0000     0.000     0.000     0.000  0.0180  0.7985 -0.6017
 
              Baa    -0.0000    -0.000    -0.000    -0.000  0.7161  0.2944  0.6329
     5 C(13)  Bbb    -0.0000    -0.000    -0.000    -0.000  0.6669 -0.5564 -0.4957
              Bcc     0.0000     0.000     0.000     0.000  0.2061  0.7770 -0.5948
 
              Baa    -0.0000    -0.000    -0.000    -0.000 -0.4150  0.7541  0.5091
     6 C(13)  Bbb     0.0000     0.000     0.000     0.000  0.8723  0.1707  0.4582
              Bcc     0.0000     0.000     0.000     0.000 -0.2586 -0.6342  0.7286
 
              Baa    -0.0000    -0.000    -0.000    -0.000 -0.6218  0.6320  0.4626
     7 C(13)  Bbb     0.0000     0.000     0.000     0.000  0.7828  0.4840  0.3910
              Bcc     0.0000     0.000     0.000     0.000 -0.0232 -0.6052  0.7957
 
              Baa    -0.0000    -0.000    -0.000    -0.000  0.4925  0.2045  0.8459
     8 C(13)  Bbb    -0.0000    -0.000    -0.000    -0.000  0.8694 -0.0703 -0.4892
              Bcc     0.0000     0.000     0.000     0.000 -0.0406  0.9763 -0.2124
 
              Baa    -0.0000    -0.000    -0.000    -0.000 -0.4978  0.0228  0.8670
     9 C(13)  Bbb     0.0000     0.000     0.000     0.000 -0.1093  0.9900 -0.0888
              Bcc     0.0000     0.000     0.000     0.000  0.8604  0.1390  0.4904
 
              Baa    -0.0000    -0.000    -0.000    -0.000 -0.1603  0.9717 -0.1735
    10 C(13)  Bbb    -0.0000    -0.000    -0.000    -0.000  0.8060  0.2303  0.5453
              Bcc     0.0000     0.000     0.000     0.000 -0.5699  0.0525  0.8201
 
              Baa    -0.0000    -0.000    -0.000    -0.000  0.2295  0.9626 -0.1438
    11 C(13)  Bbb    -0.0000    -0.000    -0.000    -0.000  0.7031 -0.0618  0.7084
              Bcc     0.0000     0.000     0.000     0.000 -0.6731  0.2637  0.6910
 
              Baa    -0.0000    -0.000    -0.000    -0.000  0.0466  0.9592 -0.2788
    12 C(13)  Bbb    -0.0000    -0.000    -0.000    -0.000 -0.1581  0.2827  0.9461
              Bcc     0.0000     0.000     0.000     0.000  0.9863  0.0000  0.1649
 
              Baa    -0.0000    -0.000    -0.000    -0.000  0.0612  0.9469 -0.3156
    13 C(13)  Bbb    -0.0000    -0.000    -0.000    -0.000  0.9716 -0.1290 -0.1984
              Bcc     0.0000     0.000     0.000     0.000  0.2286  0.2945  0.9279
 
              Baa    -0.0000    -0.000    -0.000    -0.000  0.1454  0.1440  0.9788
    14 F(19)  Bbb    -0.0000    -0.000    -0.000    -0.000  0.0415  0.9876 -0.1515
              Bcc     0.0000     0.000     0.000     0.000  0.9885 -0.0627 -0.1376
 
              Baa    -0.0000    -0.000    -0.000    -0.000 -0.3307 -0.1055  0.9378
    15 C(13)  Bbb    -0.0000    -0.000    -0.000    -0.000  0.0800  0.9870  0.1393
              Bcc     0.0000     0.000     0.000     0.000  0.9403 -0.1211  0.3180
 
              Baa    -0.0000    -0.000    -0.000    -0.000  0.9005  0.3130 -0.3019
    16 C(13)  Bbb     0.0000     0.000     0.000     0.000 -0.0516  0.7661  0.6406
              Bcc     0.0000     0.000     0.000     0.000  0.4318 -0.5613  0.7060
 
              Baa    -0.0000    -0.000    -0.000    -0.000  0.2153 -0.6771  0.7037
    17 C(13)  Bbb     0.0000     0.000     0.000     0.000  0.4638  0.7050  0.5365
              Bcc     0.0000     0.000     0.000     0.000  0.8594 -0.2108 -0.4659
 
              Baa    -0.0000    -0.000    -0.000    -0.000 -0.5500 -0.5734  0.6072
    18 F(19)  Bbb    -0.0000    -0.000    -0.000    -0.000 -0.0158  0.7341  0.6788
              Bcc     0.0000     0.000     0.000     0.000  0.8350 -0.3638  0.4129
 
              Baa    -0.0000    -0.000    -0.000    -0.000 -0.0399  0.9192  0.3917
    19 C(13)  Bbb    -0.0000    -0.000    -0.000    -0.000  0.7282 -0.2417  0.6414
              Bcc     0.0000     0.000     0.000     0.000  0.6842  0.3108 -0.6597
 
              Baa    -0.0000    -0.000    -0.000    -0.000  0.8683  0.3820 -0.3164
    20 C(13)  Bbb     0.0000     0.000     0.000     0.000 -0.4152  0.9087 -0.0423
              Bcc     0.0000     0.000     0.000     0.000  0.2713  0.1681  0.9477
 
              Baa    -0.0000    -0.000    -0.000    -0.000  0.3977 -0.2237  0.8898
    21 C(13)  Bbb     0.0000     0.000     0.000     0.000  0.0329  0.9727  0.2299
              Bcc     0.0000     0.000     0.000     0.000  0.9169  0.0621 -0.3942
 
              Baa    -0.0000    -0.000    -0.000    -0.000 -0.1065  0.3183  0.9420
    22 C(13)  Bbb    -0.0000    -0.000    -0.000    -0.000  0.7102  0.6874 -0.1521
              Bcc     0.0000     0.000     0.000     0.000  0.6959 -0.6528  0.2993
 
              Baa    -0.0000    -0.000    -0.000    -0.000 -0.0376  0.4398  0.8973
    23 C(13)  Bbb    -0.0000    -0.000    -0.000    -0.000  0.4209  0.8214 -0.3850
              Bcc     0.0000     0.000     0.000     0.000  0.9063 -0.3632  0.2160
 
              Baa    -0.0000    -0.000    -0.000    -0.000 -0.6742  0.7322  0.0970
    24 C(13)  Bbb    -0.0000    -0.000    -0.000    -0.000  0.2397  0.0926  0.9664
              Bcc     0.0000     0.000     0.000     0.000  0.6986  0.6748 -0.2379
 
              Baa    -0.0000    -0.000    -0.000    -0.000  0.9987 -0.0206 -0.0475
    25 C(13)  Bbb     0.0000     0.000     0.000     0.000  0.0279 -0.5596  0.8283
              Bcc     0.0000     0.000     0.000     0.000  0.0437  0.8285  0.5583
 
              Baa    -0.0000    -0.000    -0.000    -0.000  0.8723  0.4687 -0.1393
    26 C(13)  Bbb     0.0000     0.000     0.000     0.000 -0.0681  0.3985  0.9146
              Bcc     0.0000     0.000     0.000     0.000 -0.4842  0.7884 -0.3795
 
              Baa    -0.0000    -0.000    -0.000    -0.000 -0.6404  0.7172 -0.2747
    27 C(13)  Bbb    -0.0000    -0.000    -0.000    -0.000 -0.0644  0.3062  0.9498
              Bcc     0.0000     0.000     0.000     0.000  0.7653  0.6259 -0.1499
 
              Baa    -0.0000    -0.000    -0.000    -0.000 -0.1356  0.6878  0.7131
    28 F(19)  Bbb    -0.0000    -0.000    -0.000    -0.000  0.1277  0.7259 -0.6759
              Bcc     0.0000     0.000     0.000     0.000  0.9825  0.0006  0.1862
 
              Baa    -0.0000    -0.000    -0.000    -0.000 -0.3612 -0.6131  0.7026
    29 C(13)  Bbb    -0.0000    -0.000    -0.000    -0.000  0.6988  0.3209  0.6393
              Bcc     0.0000     0.000     0.000     0.000 -0.6174  0.7219  0.3125
 
              Baa    -0.0000    -0.000    -0.000    -0.000  0.8586  0.4312 -0.2773
    30 C(13)  Bbb    -0.0000    -0.000    -0.000    -0.000  0.3410 -0.0764  0.9370
              Bcc     0.0000     0.000     0.000     0.000 -0.3828  0.8990  0.2126
 
              Baa    -0.0000    -0.000    -0.000    -0.000  0.5624  0.7449  0.3589
    31 C(13)  Bbb     0.0000     0.000     0.000     0.000  0.0316 -0.4531  0.8909
              Bcc     0.0000     0.000     0.000     0.000  0.8262 -0.4897 -0.2784
 
              Baa    -0.0000    -0.000    -0.000    -0.000  0.6466  0.7628  0.0071
    32 F(19)  Bbb     0.0000     0.000     0.000     0.000  0.7615 -0.6461  0.0521
              Bcc     0.0000     0.000     0.000     0.000 -0.0443  0.0283  0.9986
 
              Baa    -0.0000    -0.000    -0.000    -0.000  0.9361 -0.2957 -0.1902
    33 C(13)  Bbb     0.0000     0.000     0.000     0.000  0.2158  0.9103 -0.3532
              Bcc     0.0000     0.000     0.000     0.000  0.2776  0.2896  0.9160
 
              Baa    -0.0000    -0.000    -0.000    -0.000 -0.6279  0.6846  0.3703
    34 C(13)  Bbb     0.0000     0.000     0.000     0.000  0.3375  0.6681 -0.6631
              Bcc     0.0000     0.000     0.000     0.000  0.7014  0.2914  0.6505
 
              Baa    -0.0000    -0.000    -0.000    -0.000 -0.3876  0.7112 -0.5865
    35 C(13)  Bbb    -0.0000    -0.000    -0.000    -0.000 -0.0746  0.6099  0.7890
              Bcc     0.0000     0.000     0.000     0.000  0.9188  0.3496 -0.1834
 
              Baa    -0.0000    -0.000    -0.000    -0.000 -0.2133  0.9425  0.2572
    36 C(13)  Bbb    -0.0000    -0.000    -0.000    -0.000  0.2855 -0.1916  0.9390
              Bcc     0.0000     0.000     0.000     0.000  0.9343  0.2737 -0.2282
 
              Baa    -0.0000    -0.000    -0.000    -0.000 -0.4730  0.7475 -0.4664
    37 C(13)  Bbb     0.0000     0.000     0.000     0.000  0.7350  0.6266  0.2590
              Bcc     0.0000     0.000     0.000     0.000 -0.4859  0.2203  0.8458
 
              Baa    -0.0000    -0.000    -0.000    -0.000  0.5969  0.2745  0.7539
    38 C(13)  Bbb    -0.0000    -0.000    -0.000    -0.000  0.8023 -0.2102 -0.5587
              Bcc     0.0000     0.000     0.000     0.000  0.0051  0.9383 -0.3457
 
              Baa    -0.0000    -0.000    -0.000    -0.000  0.9715 -0.1251 -0.2014
    39 C(13)  Bbb    -0.0000    -0.000    -0.000    -0.000  0.1589 -0.2868  0.9447
              Bcc     0.0000     0.000     0.000     0.000  0.1759  0.9498  0.2587
 
              Baa    -0.0000    -0.000    -0.000    -0.000  0.2219  0.9493 -0.2228
    40 C(13)  Bbb     0.0000     0.000     0.000     0.000  0.3632  0.1316  0.9224
              Bcc     0.0000     0.000     0.000     0.000  0.9049 -0.2856 -0.3156
 
              Baa    -0.0000    -0.000    -0.000    -0.000  0.6968  0.6378 -0.3282
    41 C(13)  Bbb    -0.0000    -0.000    -0.000    -0.000  0.7131 -0.6653  0.2212
              Bcc     0.0000     0.000     0.000     0.000  0.0773  0.3881  0.9184
 
              Baa    -0.0000    -0.000    -0.000    -0.000  0.8020 -0.5646  0.1951
    42 F(19)  Bbb     0.0000     0.000     0.000     0.000  0.0416  0.3785  0.9247
              Bcc     0.0000     0.000     0.000     0.000  0.5959  0.7334 -0.3271
 
              Baa    -0.0000    -0.000    -0.000    -0.000  0.9381  0.2444  0.2454
    43 H(1)   Bbb     0.0000     0.000     0.000     0.000 -0.3139  0.8993  0.3044
              Bcc     0.0000     0.000     0.000     0.000 -0.1463 -0.3626  0.9204
 
              Baa    -0.0000    -0.000    -0.000    -0.000 -0.5018  0.7478  0.4347
    44 H(1)   Bbb     0.0000     0.000     0.000     0.000 -0.0802 -0.5406  0.8374
              Bcc     0.0000     0.000     0.000     0.000  0.8613  0.3854  0.3312
 
              Baa    -0.0000    -0.000    -0.000    -0.000 -0.4834  0.8161  0.3165
    45 H(1)   Bbb     0.0000     0.000     0.000     0.000  0.6457  0.5766 -0.5006
              Bcc     0.0000     0.000     0.000     0.000  0.5911  0.0377  0.8057
 
              Baa    -0.0000    -0.000    -0.000    -0.000  0.8416  0.5286  0.1109
    46 H(1)   Bbb     0.0000     0.000     0.000     0.000 -0.5237  0.8489 -0.0716
              Bcc     0.0000     0.000     0.000     0.000 -0.1320  0.0021  0.9912
 
              Baa    -0.0000    -0.000    -0.000    -0.000  0.0517  0.9793 -0.1959
    47 H(1)   Bbb     0.0000     0.000     0.000     0.000  0.8694  0.0524  0.4914
              Bcc     0.0000     0.000     0.000     0.000 -0.4915  0.1957  0.8486
 
              Baa    -0.0000    -0.000    -0.000    -0.000 -0.1641  0.9702 -0.1784
    48 H(1)   Bbb    -0.0000    -0.000    -0.000    -0.000 -0.6021  0.0447  0.7972
              Bcc     0.0000     0.000     0.000     0.000  0.7814  0.2382  0.5768
 
              Baa    -0.0000    -0.000    -0.000    -0.000  0.0183  0.9755 -0.2192
    49 H(1)   Bbb    -0.0000    -0.000    -0.000    -0.000  0.9859 -0.0541 -0.1586
              Bcc     0.0000     0.000     0.000     0.000  0.1666  0.2132  0.9627
 
              Baa    -0.0000    -0.000    -0.000    -0.000 -0.3473 -0.4357  0.8304
    50 H(1)   Bbb     0.0000     0.000     0.000     0.000  0.7788 -0.6272 -0.0034
              Bcc     0.0000     0.000     0.000     0.000  0.5223  0.6455  0.5572
 
              Baa    -0.0000    -0.000    -0.000    -0.000 -0.5294 -0.3441  0.7755
    51 H(1)   Bbb     0.0000     0.000     0.000     0.000  0.8430 -0.3162  0.4352
              Bcc     0.0000     0.000     0.000     0.000  0.0955  0.8841  0.4574
 
              Baa    -0.0000    -0.000    -0.000    -0.000 -0.2460  0.8940  0.3746
    52 H(1)   Bbb     0.0000     0.000     0.000     0.000  0.7720  0.4144 -0.4820
              Bcc     0.0000     0.000     0.000     0.000  0.5861 -0.1706  0.7921
 
              Baa    -0.0000    -0.000    -0.000    -0.000 -0.2392  0.4244  0.8733
    53 H(1)   Bbb    -0.0000    -0.000    -0.000    -0.000  0.7724 -0.4618  0.4360
              Bcc     0.0000     0.000     0.000     0.000  0.5883  0.7789 -0.2174
 
              Baa    -0.0000    -0.000    -0.000    -0.000 -0.0586  0.8956 -0.4410
    54 H(1)   Bbb     0.0000     0.000     0.000     0.000  0.8268 -0.2040 -0.5242
              Bcc     0.0000     0.000     0.000     0.000  0.5594  0.3953  0.7285
 
              Baa    -0.0000    -0.000    -0.000    -0.000 -0.1722  0.8973 -0.4065
    55 H(1)   Bbb     0.0000     0.000     0.000     0.000  0.0837  0.4245  0.9016
              Bcc     0.0000     0.000     0.000     0.000  0.9815  0.1212 -0.1482
 
              Baa    -0.0000    -0.000    -0.000    -0.000  0.7382 -0.5610 -0.3747
    56 H(1)   Bbb    -0.0000    -0.000    -0.000    -0.000  0.0985 -0.4598  0.8826
              Bcc     0.0000     0.000     0.000     0.000  0.6674  0.6884  0.2841
 
              Baa    -0.0000    -0.000    -0.000    -0.000  0.9395  0.3419 -0.0232
    57 H(1)   Bbb    -0.0000    -0.000    -0.000    -0.000  0.2230 -0.5585  0.7990
              Bcc     0.0000     0.000     0.000     0.000 -0.2602  0.7558  0.6009
 
              Baa    -0.0000    -0.000    -0.000    -0.000  0.9742 -0.0284 -0.2238
    58 H(1)   Bbb     0.0000     0.000     0.000     0.000  0.2204  0.3298  0.9180
              Bcc     0.0000     0.000     0.000     0.000 -0.0477  0.9436 -0.3275
 
              Baa    -0.0000    -0.000    -0.000    -0.000  0.8049  0.5734 -0.1531
    59 H(1)   Bbb     0.0000     0.000     0.000     0.000 -0.5840  0.7194 -0.3759
              Bcc     0.0000     0.000     0.000     0.000 -0.1054  0.3920  0.9139
 
              Baa    -0.0000    -0.000    -0.000    -0.000 -0.0455  0.4532  0.8903
    60 H(1)   Bbb    -0.0000    -0.000    -0.000    -0.000  0.8247  0.5199 -0.2225
              Bcc     0.0000     0.000     0.000     0.000 -0.5637  0.7241 -0.3974
 
              Baa    -0.0000    -0.000    -0.000    -0.000  0.9004 -0.3317  0.2814
    61 H(1)   Bbb    -0.0000    -0.000    -0.000    -0.000 -0.1933  0.2744  0.9420
              Bcc     0.0000     0.000     0.000     0.000  0.3897  0.9026 -0.1830
 
              Baa    -0.0000    -0.000    -0.000    -0.000  0.8252 -0.5368  0.1755
    62 H(1)   Bbb    -0.0000    -0.000    -0.000    -0.000 -0.0567  0.2305  0.9714
              Bcc     0.0000     0.000     0.000     0.000  0.5619  0.8116 -0.1597
 

 ---------------------------------------------------------------------------------

 No NMR shielding tensors so no spin-rotation constants.
 Leave Link  601 at Sat Jul 25 09:03:06 2020, MaxMem=  4026531840 cpu:               6.4 elap:               0.9
 (Enter /opt/ohpc/pub/libs/gaussian/g16-A.03/sandybridge/g16/l9999.exe)

 Test job not archived.
 1\1\GINC-SKYLAKE039\FOpt\ULC-wPBE\CC-pVDZ\C36H20F6\RDU230\25-Jul-2020\
 0\\#P uLC-wPBE/cc-pVDZ iop(3/107=0312400000, 3/108=0312400000) opt\\H2
 0 C36 F6\\0,1\C,-12.2235850885,-0.1459065135,0.0577485149\C,-11.545121
 7139,1.0040003933,0.4496421104\C,-10.1575618462,1.0035117081,0.4391044
 225\F,-9.5208755713,2.13140363,0.8211073666\C,-9.4031206591,-0.1060986
 875,0.049751743\C,-10.1149732243,-1.2474319741,-0.3438122212\C,-11.506
 1867626,-1.2735492318,-0.3386343492\C,-7.9174647702,-0.0726870204,0.06
 41264745\C,-7.1933837074,0.4264765698,1.1546090991\C,-5.8036816211,0.4
 362090981,1.1667058756\C,-5.0739304314,-0.0505115164,0.0749347648\C,-5
 .7787610196,-0.5465549796,-1.0250434314\C,-7.1649257832,-0.549615793,-
 1.0113054323\F,-7.8012406264,-1.0448472283,-2.0938015906\C,-3.58676670
 67,-0.0415686131,0.0771351991\C,-2.87688226,-0.3818966524,1.2317809695
 \C,-1.4909379836,-0.3702017691,1.2176111849\F,-0.8494821578,-0.7123954
 17,2.3551506833\C,-0.7430016362,-0.0284483592,0.088619639\C,-1.4721098
 191,0.3158201253,-1.0572638141\C,-2.8617473637,0.307412689,-1.06918949
 09\C,0.7420816946,-0.0415621421,0.1063705684\C,1.4719677115,-1.1033692
 73,0.6567622667\C,2.8616262332,-1.114710363,0.6521919989\C,3.585886885
 4,-0.0514592235,0.0985769959\C,2.8751966092,1.0195660246,-0.4498500721
 \C,1.4892333822,1.0059554251,-0.4371648418\F,0.8468993596,2.0597012682
 ,-0.9841137858\C,5.0729796301,-0.0531175674,0.0918593093\C,5.780059067
 3,-1.2254350662,-0.1887579798\C,7.1661845389,-1.2111703936,-0.18921081
 22\F,7.8047805154,-2.3648404364,-0.4776336509\C,7.9166612658,-0.065059
 9135,0.0822730641\C,7.1903637095,1.1006076597,0.3585647966\C,5.8006778
 656,1.1115349196,0.366631768\C,9.4023830662,-0.090997195,0.0860415922\
 C,10.1245699381,-1.0990724064,0.7391258418\C,11.5159543407,-1.10560542
 63,0.7495115833\C,12.2231212444,-0.0980425566,0.0952007636\C,11.534318
 9965,0.9141654464,-0.5659562732\C,10.1467982271,0.9000992615,-0.558625
 9308\F,9.4999630729,1.8912390322,-1.2088268023\H,-13.3178490355,-0.158
 607685,0.0629407105\H,-12.0691454001,1.910966187,0.7630499099\H,-9.555
 480107,-2.1329185471,-0.6570452099\H,-12.0329892859,-2.1814487167,-0.6
 466579109\H,-7.7421455912,0.8209398509,2.0137242275\H,-5.2760447282,0.
 8504854656,2.0309649114\H,-5.2656138986,-0.9557118432,-1.8996330693\H,
 -3.3859552587,-0.6796675833,2.1525309851\H,-0.9277900871,0.6011850247,
 -1.9611249074\H,-3.3935731372,0.5991300724,-1.9796694718\H,0.928262857
 3,-1.9399257551,1.1032167772\H,3.3940211857,-1.955299849,1.1070524973\
 H,3.3836826456,1.8698268364,-0.9126064243\H,5.2687158405,-2.1593918943
 ,-0.4375435554\H,7.7372874238,2.0201152026,0.5827269598\H,5.2714097663
 ,2.0364895499,0.614180741\H,9.5731133031,-1.891673488,1.251887976\H,12
 .0509680371,-1.9036222239,1.2725822747\H,13.3174692925,-0.097402286,0.
 0979506994\H,12.0501195759,1.72006815,-1.0949672378\\Version=EM64L-G16
 RevA.03\State=1-A\HF=-1981.5764357\S2=0.\S2-1=0.\S2A=0.\RMSD=5.632e-09
 \RMSF=3.818e-06\Dipole=0.0081267,-0.4145534,0.3764647\Quadrupole=25.08
 66713,-10.8722996,-14.2143717,4.7848111,1.5115016,-0.7765676\PG=C01 [X
 (C36H20F6)]\\@


 DO YOU KNOW THAT THE LETTERS IN "EPISCOPAL", WHEN
 REARRANGED, SPELL "PEPSI COLA"?
 Job cpu time:       0 days 11 hours  0 minutes  3.7 seconds.
 Elapsed time:       0 days  1 hours 24 minutes 12.1 seconds.
 File lengths (MBytes):  RWF=    576 Int=      0 D2E=      0 Chk=     52 Scr=      8
 Normal termination of Gaussian 16 at Sat Jul 25 09:03:06 2020.
