 Entering Gaussian System, Link 0=g16
 Input=mols_65_5_34_cF-cOC-CF_opt_0.gjf
 Output=mols_65_5_34_cF-cOC-CF_opt_0.log
 Initial command:
 /opt/ohpc/pub/libs/gaussian/g16-A.03/sandybridge/g16/l1.exe "/mnt/gpfs2_4m/scratch/rdu230/ondemand/projects/dihedral_energies/7trial/wtuning/mols_65_5_34_cF-cOC-CF/Gau-264197.inp" -scrdir="/mnt/gpfs2_4m/scratch/rdu230/ondemand/projects/dihedral_energies/7trial/wtuning/mols_65_5_34_cF-cOC-CF/"
 Entering Link 1 = /opt/ohpc/pub/libs/gaussian/g16-A.03/sandybridge/g16/l1.exe PID=    264198.
  
 Copyright (c) 1988,1990,1992,1993,1995,1998,2003,2009,2016,
            Gaussian, Inc.  All Rights Reserved.
  
 This is part of the Gaussian(R) 16 program.  It is based on
 the Gaussian(R) 09 system (copyright 2009, Gaussian, Inc.),
 the Gaussian(R) 03 system (copyright 2003, Gaussian, Inc.),
 the Gaussian(R) 98 system (copyright 1998, Gaussian, Inc.),
 the Gaussian(R) 94 system (copyright 1995, Gaussian, Inc.),
 the Gaussian 92(TM) system (copyright 1992, Gaussian, Inc.),
 the Gaussian 90(TM) system (copyright 1990, Gaussian, Inc.),
 the Gaussian 88(TM) system (copyright 1988, Gaussian, Inc.),
 the Gaussian 86(TM) system (copyright 1986, Carnegie Mellon
 University), and the Gaussian 82(TM) system (copyright 1983,
 Carnegie Mellon University). Gaussian is a federally registered
 trademark of Gaussian, Inc.
  
 This software contains proprietary and confidential information,
 including trade secrets, belonging to Gaussian, Inc.
  
 This software is provided under written license and may be
 used, copied, transmitted, or stored only in accord with that
 written license.
  
 The following legend is applicable only to US Government
 contracts under FAR:
  
                    RESTRICTED RIGHTS LEGEND
  
 Use, reproduction and disclosure by the US Government is
 subject to restrictions as set forth in subparagraphs (a)
 and (c) of the Commercial Computer Software - Restricted
 Rights clause in FAR 52.227-19.
  
 Gaussian, Inc.
 340 Quinnipiac St., Bldg. 40, Wallingford CT 06492
  
  
 ---------------------------------------------------------------
 Warning -- This program may not be used in any manner that
 competes with the business of Gaussian, Inc. or will provide
 assistance to any competitor of Gaussian, Inc.  The licensee
 of this program is prohibited from giving any competitor of
 Gaussian, Inc. access to this program.  By using this program,
 the user acknowledges that Gaussian, Inc. is engaged in the
 business of creating and licensing software in the field of
 computational chemistry and represents and warrants to the
 licensee that it is not a competitor of Gaussian, Inc. and that
 it will not use this program in any manner prohibited above.
 ---------------------------------------------------------------
  

 Cite this work as:
 Gaussian 16, Revision A.03,
 M. J. Frisch, G. W. Trucks, H. B. Schlegel, G. E. Scuseria, 
 M. A. Robb, J. R. Cheeseman, G. Scalmani, V. Barone, 
 G. A. Petersson, H. Nakatsuji, X. Li, M. Caricato, A. V. Marenich, 
 J. Bloino, B. G. Janesko, R. Gomperts, B. Mennucci, H. P. Hratchian, 
 J. V. Ortiz, A. F. Izmaylov, J. L. Sonnenberg, D. Williams-Young, 
 F. Ding, F. Lipparini, F. Egidi, J. Goings, B. Peng, A. Petrone, 
 T. Henderson, D. Ranasinghe, V. G. Zakrzewski, J. Gao, N. Rega, 
 G. Zheng, W. Liang, M. Hada, M. Ehara, K. Toyota, R. Fukuda, 
 J. Hasegawa, M. Ishida, T. Nakajima, Y. Honda, O. Kitao, H. Nakai, 
 T. Vreven, K. Throssell, J. A. Montgomery, Jr., J. E. Peralta, 
 F. Ogliaro, M. J. Bearpark, J. J. Heyd, E. N. Brothers, K. N. Kudin, 
 V. N. Staroverov, T. A. Keith, R. Kobayashi, J. Normand, 
 K. Raghavachari, A. P. Rendell, J. C. Burant, S. S. Iyengar, 
 J. Tomasi, M. Cossi, J. M. Millam, M. Klene, C. Adamo, R. Cammi, 
 J. W. Ochterski, R. L. Martin, K. Morokuma, O. Farkas, 
 J. B. Foresman, and D. J. Fox, Gaussian, Inc., Wallingford CT, 2016.
 
 ******************************************
 Gaussian 16:  EM64L-G16RevA.03 25-Dec-2016
                24-Jul-2020 
 ******************************************
 %mem=30GB
 %nproc=8
 Will use up to    8 processors via shared memory.
 ---------------------------------------------------------------
 #P uLC-wPBE/cc-pVDZ iop(3/107=0366100000, 3/108=0366100000) opt
 ---------------------------------------------------------------
 1/18=20,19=15,26=3,38=1/1,3;
 2/9=110,12=2,17=6,18=5,40=1/2;
 3/5=16,11=2,25=1,30=1,71=1,74=-41,107=366100000,108=366100000,116=2/1,2,3;
 4//1;
 5/5=2,38=5/2;
 6/7=2,8=2,9=2,10=2,28=1/1;
 7//1,2,3,16;
 1/18=20,19=15,26=3/3(2);
 2/9=110/2;
 99//99;
 2/9=110/2;
 3/5=16,11=2,25=1,30=1,71=1,74=-41,107=366100000,108=366100000,116=2/1,2,3;
 4/5=5,16=3,69=1/1;
 5/5=2,38=5/2;
 7//1,2,3,16;
 1/18=20,19=15,26=3/3(-5);
 2/9=110/2;
 6/7=2,8=2,9=2,10=2,19=2,28=1/1;
 99/9=1/99;
 Leave Link    1 at Fri Jul 24 02:15:05 2020, MaxMem=  4026531840 cpu:               2.4 elap:               0.4
 (Enter /opt/ohpc/pub/libs/gaussian/g16-A.03/sandybridge/g16/l101.exe)
 -----------------
 H32 C55 S5 O5 F10
 -----------------
 Symbolic Z-matrix:
 Charge =  0 Multiplicity = 1
 C                     18.31221  -3.12324  -0.24555 
 C                     18.1767  -2.14208  -1.14805 
 C                     17.0212  -1.26183  -1.02805 
 F                     16.82186  -0.34237  -1.89558 
 C                     16.17597  -1.41659   0.11977 
 C                     16.35406  -2.4915    0.97271 
 O                     15.44931  -2.55939   2.06796 
 C                     15.41771  -3.83456   2.74832 
 C                     17.49869  -3.29717   0.82747 
 C                     15.06788  -0.49769   0.16601 
 C                     15.0459   0.90123   0.46456 
 F                     16.22488   1.54745   0.56923 
 C                     13.83784   1.51836   0.45355 
 C                     12.78621   0.62696   0.2553 
 S                     13.42406  -1.0434   -0.02911 
 C                     11.30159   0.85347   0.20962 
 C                     10.47023  -0.01148   0.91224 
 C                     9.03655   0.30511   0.89398 
 F                     8.27107  -0.44087   1.6636 
 C                     8.53358   1.38321   0.22475 
 C                     9.47554   2.24092  -0.553 
 O                     8.85675   3.22692  -1.26621 
 C                     9.76645   4.2567   -1.78405 
 C                     10.79503   1.88105  -0.5 
 C                     7.1091    1.72095   0.2095 
 C                     6.4524    2.81203   0.69642 
 F                     7.10705   3.76857   1.29048 
 C                     5.0891    2.70173   0.62009 
 C                     4.63325   1.52806   0.00282 
 S                     5.96283   0.55212  -0.40405 
 C                     3.25648   1.15207  -0.28997 
 C                     2.35962   2.08665  -0.89502 
 C                     1.09344   1.68801  -1.10026 
 F                     0.17952   2.55752  -1.6479 
 C                     0.6555    0.36959  -0.82452 
 C                     1.5226   -0.52098  -0.37163 
 O                     1.11368  -1.86242  -0.00703 
 C                     1.86378  -2.85023  -0.69294 
 C                     2.83572  -0.21615  -0.05687 
 C                    -0.74654  -0.05369  -1.10808 
 C                    -1.3221   -0.80849  -2.05173 
 F                    -0.52649  -1.41488  -3.01391 
 C                    -2.67259  -1.04056  -2.01411 
 C                    -3.25473  -0.25687  -0.98272 
 S                    -1.96923   0.5666   -0.09689 
 C                    -4.60858  -0.23653  -0.46572 
 C                    -5.25      1.02583  -0.1194 
 C                    -6.56226   1.05622   0.32118 
 F                    -7.07884   2.23897   0.71742 
 C                    -7.3543   -0.17603   0.36891 
 C                    -6.75251  -1.37633   0.01344 
 O                    -7.54718  -2.48281   0.11606 
 C                    -7.2543   -3.54218  -0.83167 
 C                    -5.42424  -1.41473  -0.49822 
 C                    -8.66405  -0.04045   0.87681 
 C                    -9.16769   0.28434   2.11109 
 F                    -8.38057   0.45742   3.14881 
 C                    -10.57281   0.19292   2.21753 
 C                    -11.14854  -0.07275   0.96699 
 S                    -10.03452  -0.3304   -0.26092 
 C                    -12.61164  -0.18055   0.61365 
 C                    -13.11014  -1.19506  -0.14029 
 C                    -14.43792  -1.24327  -0.46116 
 F                    -14.9247  -2.23932  -1.33052 
 C                    -15.42019  -0.29739   0.01088 
 C                    -14.90807   0.69435   0.95942 
 O                    -15.77569   1.57199   1.4354 
 C                    -15.63191   1.86277   2.76237 
 C                    -13.5299   0.7053    1.19655 
 C                    -16.75385  -0.41054  -0.29721 
 C                    -17.42904   0.11159  -1.4421 
 F                    -16.79892   0.67995  -2.46857 
 C                    -18.77765  -0.19415  -1.44909 
 C                    -19.22848  -0.90039  -0.30383 
 S                    -17.89945  -1.21821   0.68166 
 H                     19.21551  -3.81924  -0.37835 
 H                     18.84055  -2.03781  -1.97216 
 H                     14.54271  -3.74988   3.43101 
 H                     16.29406  -3.94228   3.42226 
 H                     15.22921  -4.60635   1.99854 
 H                     17.70463  -4.09856   1.5319 
 H                     13.61491   2.53375   0.69492 
 H                     10.83361  -0.78945   1.55429 
 H                     10.38605   3.79409  -2.6177 
 H                     9.20099   4.96958  -2.19837 
 H                     10.34535   4.66827  -0.97172 
 H                     11.52634   2.55532  -1.10355 
 H                     4.43419   3.52034   0.98114 
 H                     2.64634   3.04293  -1.07422 
 H                     1.32646  -3.74334  -0.69208 
 H                     2.8517   -2.96049  -0.31718 
 H                     1.96351  -2.62999  -1.81574 
 H                     3.579    -0.87259   0.41112 
 H                    -3.2832   -1.67475  -2.63539 
 H                    -4.67485   1.94194  -0.15936 
 H                    -8.12138  -4.22786  -0.7881 
 H                    -7.24941  -3.10295  -1.87059 
 H                    -6.38416  -4.03168  -0.58453 
 H                    -4.95181  -2.28757  -0.70042 
 H                    -11.19234   0.40963   3.11482 
 H                    -12.47347  -1.93525  -0.57111 
 H                    -16.59396   2.41083   3.09466 
 H                    -14.79629   2.50816   2.9466 
 H                    -15.63051   0.89592   3.35965 
 H                    -13.19881   1.59411   1.83259 
 H                    -19.49326   0.07072  -2.22804 
 H                    -20.22276  -1.19844  -0.09565 
 
 ITRead=  0  0  0  0  0  0  0  0  0  0  0  0  0  0  0  0  0  0  0  0
 ITRead=  0  0  0  0  0  0  0  0  0  0  0  0  0  0  0  0  0  0  0  0
 ITRead=  0  0  0  0  0  0  0  0  0  0  0  0  0  0  0  0  0  0  0  0
 ITRead=  0  0  0  0  0  0  0  0  0  0  0  0  0  0  0  0  0  0  0  0
 ITRead=  0  0  0  0  0  0  0  0  0  0  0  0  0  0  0  0  0  0  0  0
 ITRead=  0  0  0  0  0  0  0
 MicOpt= -1 -1 -1 -1 -1 -1 -1 -1 -1 -1 -1 -1 -1 -1 -1 -1 -1 -1 -1 -1
 MicOpt= -1 -1 -1 -1 -1 -1 -1 -1 -1 -1 -1 -1 -1 -1 -1 -1 -1 -1 -1 -1
 MicOpt= -1 -1 -1 -1 -1 -1 -1 -1 -1 -1 -1 -1 -1 -1 -1 -1 -1 -1 -1 -1
 MicOpt= -1 -1 -1 -1 -1 -1 -1 -1 -1 -1 -1 -1 -1 -1 -1 -1 -1 -1 -1 -1
 MicOpt= -1 -1 -1 -1 -1 -1 -1 -1 -1 -1 -1 -1 -1 -1 -1 -1 -1 -1 -1 -1
 MicOpt= -1 -1 -1 -1 -1 -1 -1
 NAtoms=    107 NQM=      107 NQMF=       0 NMMI=      0 NMMIF=      0
                NMic=       0 NMicF=      0.
                    Isotopes and Nuclear Properties:
 (Nuclear quadrupole moments (NQMom) in fm**2, nuclear magnetic moments (NMagM)
  in nuclear magnetons)

  Atom         1           2           3           4           5           6           7           8           9          10
 IAtWgt=          12          12          12          19          12          12          16          12          12          12
 AtmWgt=  12.0000000  12.0000000  12.0000000  18.9984033  12.0000000  12.0000000  15.9949146  12.0000000  12.0000000  12.0000000
 NucSpn=           0           0           0           1           0           0           0           0           0           0
 AtZEff=  -0.0000000  -0.0000000  -0.0000000  -0.0000000  -0.0000000  -0.0000000  -0.0000000  -0.0000000  -0.0000000  -0.0000000
 NQMom=    0.0000000   0.0000000   0.0000000   0.0000000   0.0000000   0.0000000   0.0000000   0.0000000   0.0000000   0.0000000
 NMagM=    0.0000000   0.0000000   0.0000000   2.6288670   0.0000000   0.0000000   0.0000000   0.0000000   0.0000000   0.0000000
 AtZNuc=   6.0000000   6.0000000   6.0000000   9.0000000   6.0000000   6.0000000   8.0000000   6.0000000   6.0000000   6.0000000

  Atom        11          12          13          14          15          16          17          18          19          20
 IAtWgt=          12          19          12          12          32          12          12          12          19          12
 AtmWgt=  12.0000000  18.9984033  12.0000000  12.0000000  31.9720718  12.0000000  12.0000000  12.0000000  18.9984033  12.0000000
 NucSpn=           0           1           0           0           0           0           0           0           1           0
 AtZEff=  -0.0000000  -0.0000000  -0.0000000  -0.0000000  -0.0000000  -0.0000000  -0.0000000  -0.0000000  -0.0000000  -0.0000000
 NQMom=    0.0000000   0.0000000   0.0000000   0.0000000   0.0000000   0.0000000   0.0000000   0.0000000   0.0000000   0.0000000
 NMagM=    0.0000000   2.6288670   0.0000000   0.0000000   0.0000000   0.0000000   0.0000000   0.0000000   2.6288670   0.0000000
 AtZNuc=   6.0000000   9.0000000   6.0000000   6.0000000  16.0000000   6.0000000   6.0000000   6.0000000   9.0000000   6.0000000

  Atom        21          22          23          24          25          26          27          28          29          30
 IAtWgt=          12          16          12          12          12          12          19          12          12          32
 AtmWgt=  12.0000000  15.9949146  12.0000000  12.0000000  12.0000000  12.0000000  18.9984033  12.0000000  12.0000000  31.9720718
 NucSpn=           0           0           0           0           0           0           1           0           0           0
 AtZEff=  -0.0000000  -0.0000000  -0.0000000  -0.0000000  -0.0000000  -0.0000000  -0.0000000  -0.0000000  -0.0000000  -0.0000000
 NQMom=    0.0000000   0.0000000   0.0000000   0.0000000   0.0000000   0.0000000   0.0000000   0.0000000   0.0000000   0.0000000
 NMagM=    0.0000000   0.0000000   0.0000000   0.0000000   0.0000000   0.0000000   2.6288670   0.0000000   0.0000000   0.0000000
 AtZNuc=   6.0000000   8.0000000   6.0000000   6.0000000   6.0000000   6.0000000   9.0000000   6.0000000   6.0000000  16.0000000

  Atom        31          32          33          34          35          36          37          38          39          40
 IAtWgt=          12          12          12          19          12          12          16          12          12          12
 AtmWgt=  12.0000000  12.0000000  12.0000000  18.9984033  12.0000000  12.0000000  15.9949146  12.0000000  12.0000000  12.0000000
 NucSpn=           0           0           0           1           0           0           0           0           0           0
 AtZEff=  -0.0000000  -0.0000000  -0.0000000  -0.0000000  -0.0000000  -0.0000000  -0.0000000  -0.0000000  -0.0000000  -0.0000000
 NQMom=    0.0000000   0.0000000   0.0000000   0.0000000   0.0000000   0.0000000   0.0000000   0.0000000   0.0000000   0.0000000
 NMagM=    0.0000000   0.0000000   0.0000000   2.6288670   0.0000000   0.0000000   0.0000000   0.0000000   0.0000000   0.0000000
 AtZNuc=   6.0000000   6.0000000   6.0000000   9.0000000   6.0000000   6.0000000   8.0000000   6.0000000   6.0000000   6.0000000

  Atom        41          42          43          44          45          46          47          48          49          50
 IAtWgt=          12          19          12          12          32          12          12          12          19          12
 AtmWgt=  12.0000000  18.9984033  12.0000000  12.0000000  31.9720718  12.0000000  12.0000000  12.0000000  18.9984033  12.0000000
 NucSpn=           0           1           0           0           0           0           0           0           1           0
 AtZEff=  -0.0000000  -0.0000000  -0.0000000  -0.0000000  -0.0000000  -0.0000000  -0.0000000  -0.0000000  -0.0000000  -0.0000000
 NQMom=    0.0000000   0.0000000   0.0000000   0.0000000   0.0000000   0.0000000   0.0000000   0.0000000   0.0000000   0.0000000
 NMagM=    0.0000000   2.6288670   0.0000000   0.0000000   0.0000000   0.0000000   0.0000000   0.0000000   2.6288670   0.0000000
 AtZNuc=   6.0000000   9.0000000   6.0000000   6.0000000  16.0000000   6.0000000   6.0000000   6.0000000   9.0000000   6.0000000

  Atom        51          52          53          54          55          56          57          58          59          60
 IAtWgt=          12          16          12          12          12          12          19          12          12          32
 AtmWgt=  12.0000000  15.9949146  12.0000000  12.0000000  12.0000000  12.0000000  18.9984033  12.0000000  12.0000000  31.9720718
 NucSpn=           0           0           0           0           0           0           1           0           0           0
 AtZEff=  -0.0000000  -0.0000000  -0.0000000  -0.0000000  -0.0000000  -0.0000000  -0.0000000  -0.0000000  -0.0000000  -0.0000000
 NQMom=    0.0000000   0.0000000   0.0000000   0.0000000   0.0000000   0.0000000   0.0000000   0.0000000   0.0000000   0.0000000
 NMagM=    0.0000000   0.0000000   0.0000000   0.0000000   0.0000000   0.0000000   2.6288670   0.0000000   0.0000000   0.0000000
 AtZNuc=   6.0000000   8.0000000   6.0000000   6.0000000   6.0000000   6.0000000   9.0000000   6.0000000   6.0000000  16.0000000

  Atom        61          62          63          64          65          66          67          68          69          70
 IAtWgt=          12          12          12          19          12          12          16          12          12          12
 AtmWgt=  12.0000000  12.0000000  12.0000000  18.9984033  12.0000000  12.0000000  15.9949146  12.0000000  12.0000000  12.0000000
 NucSpn=           0           0           0           1           0           0           0           0           0           0
 AtZEff=  -0.0000000  -0.0000000  -0.0000000  -0.0000000  -0.0000000  -0.0000000  -0.0000000  -0.0000000  -0.0000000  -0.0000000
 NQMom=    0.0000000   0.0000000   0.0000000   0.0000000   0.0000000   0.0000000   0.0000000   0.0000000   0.0000000   0.0000000
 NMagM=    0.0000000   0.0000000   0.0000000   2.6288670   0.0000000   0.0000000   0.0000000   0.0000000   0.0000000   0.0000000
 AtZNuc=   6.0000000   6.0000000   6.0000000   9.0000000   6.0000000   6.0000000   8.0000000   6.0000000   6.0000000   6.0000000

  Atom        71          72          73          74          75          76          77          78          79          80
 IAtWgt=          12          19          12          12          32           1           1           1           1           1
 AtmWgt=  12.0000000  18.9984033  12.0000000  12.0000000  31.9720718   1.0078250   1.0078250   1.0078250   1.0078250   1.0078250
 NucSpn=           0           1           0           0           0           1           1           1           1           1
 AtZEff=  -0.0000000  -0.0000000  -0.0000000  -0.0000000  -0.0000000  -0.0000000  -0.0000000  -0.0000000  -0.0000000  -0.0000000
 NQMom=    0.0000000   0.0000000   0.0000000   0.0000000   0.0000000   0.0000000   0.0000000   0.0000000   0.0000000   0.0000000
 NMagM=    0.0000000   2.6288670   0.0000000   0.0000000   0.0000000   2.7928460   2.7928460   2.7928460   2.7928460   2.7928460
 AtZNuc=   6.0000000   9.0000000   6.0000000   6.0000000  16.0000000   1.0000000   1.0000000   1.0000000   1.0000000   1.0000000

  Atom        81          82          83          84          85          86          87          88          89          90
 IAtWgt=           1           1           1           1           1           1           1           1           1           1
 AtmWgt=   1.0078250   1.0078250   1.0078250   1.0078250   1.0078250   1.0078250   1.0078250   1.0078250   1.0078250   1.0078250
 NucSpn=           1           1           1           1           1           1           1           1           1           1
 AtZEff=  -0.0000000  -0.0000000  -0.0000000  -0.0000000  -0.0000000  -0.0000000  -0.0000000  -0.0000000  -0.0000000  -0.0000000
 NQMom=    0.0000000   0.0000000   0.0000000   0.0000000   0.0000000   0.0000000   0.0000000   0.0000000   0.0000000   0.0000000
 NMagM=    2.7928460   2.7928460   2.7928460   2.7928460   2.7928460   2.7928460   2.7928460   2.7928460   2.7928460   2.7928460
 AtZNuc=   1.0000000   1.0000000   1.0000000   1.0000000   1.0000000   1.0000000   1.0000000   1.0000000   1.0000000   1.0000000

  Atom        91          92          93          94          95          96          97          98          99         100
 IAtWgt=           1           1           1           1           1           1           1           1           1           1
 AtmWgt=   1.0078250   1.0078250   1.0078250   1.0078250   1.0078250   1.0078250   1.0078250   1.0078250   1.0078250   1.0078250
 NucSpn=           1           1           1           1           1           1           1           1           1           1
 AtZEff=  -0.0000000  -0.0000000  -0.0000000  -0.0000000  -0.0000000  -0.0000000  -0.0000000  -0.0000000  -0.0000000  -0.0000000
 NQMom=    0.0000000   0.0000000   0.0000000   0.0000000   0.0000000   0.0000000   0.0000000   0.0000000   0.0000000   0.0000000
 NMagM=    2.7928460   2.7928460   2.7928460   2.7928460   2.7928460   2.7928460   2.7928460   2.7928460   2.7928460   2.7928460
 AtZNuc=   1.0000000   1.0000000   1.0000000   1.0000000   1.0000000   1.0000000   1.0000000   1.0000000   1.0000000   1.0000000

  Atom       101         102         103         104         105         106         107
 IAtWgt=           1           1           1           1           1           1           1
 AtmWgt=   1.0078250   1.0078250   1.0078250   1.0078250   1.0078250   1.0078250   1.0078250
 NucSpn=           1           1           1           1           1           1           1
 AtZEff=  -0.0000000  -0.0000000  -0.0000000  -0.0000000  -0.0000000  -0.0000000  -0.0000000
 NQMom=    0.0000000   0.0000000   0.0000000   0.0000000   0.0000000   0.0000000   0.0000000
 NMagM=    2.7928460   2.7928460   2.7928460   2.7928460   2.7928460   2.7928460   2.7928460
 AtZNuc=   1.0000000   1.0000000   1.0000000   1.0000000   1.0000000   1.0000000   1.0000000
 Leave Link  101 at Fri Jul 24 02:15:06 2020, MaxMem=  4026531840 cpu:               3.3 elap:               0.4
 (Enter /opt/ohpc/pub/libs/gaussian/g16-A.03/sandybridge/g16/l103.exe)

 GradGradGradGradGradGradGradGradGradGradGradGradGradGradGradGradGradGrad
 Berny optimization.
 Initialization pass.
                           ----------------------------
                           !    Initial Parameters    !
                           ! (Angstroms and Degrees)  !
 --------------------------                            --------------------------
 ! Name  Definition              Value          Derivative Info.                !
 --------------------------------------------------------------------------------
 ! R1    R(1,2)                  1.34           estimate D2E/DX2                !
 ! R2    R(1,9)                  1.3577         estimate D2E/DX2                !
 ! R3    R(1,76)                 1.148          estimate D2E/DX2                !
 ! R4    R(2,3)                  1.4575         estimate D2E/DX2                !
 ! R5    R(2,77)                 1.0634         estimate D2E/DX2                !
 ! R6    R(3,4)                  1.2797         estimate D2E/DX2                !
 ! R7    R(3,5)                  1.4338         estimate D2E/DX2                !
 ! R8    R(5,6)                  1.3837         estimate D2E/DX2                !
 ! R9    R(5,10)                 1.4403         estimate D2E/DX2                !
 ! R10   R(6,7)                  1.4222         estimate D2E/DX2                !
 ! R11   R(6,9)                  1.4073         estimate D2E/DX2                !
 ! R12   R(7,8)                  1.4457         estimate D2E/DX2                !
 ! R13   R(8,78)                 1.113          estimate D2E/DX2                !
 ! R14   R(8,79)                 1.1108         estimate D2E/DX2                !
 ! R15   R(8,80)                 1.0924         estimate D2E/DX2                !
 ! R16   R(9,81)                 1.0867         estimate D2E/DX2                !
 ! R17   R(10,11)                1.4306         estimate D2E/DX2                !
 ! R18   R(10,15)                1.743          estimate D2E/DX2                !
 ! R19   R(11,12)                1.3485         estimate D2E/DX2                !
 ! R20   R(11,13)                1.3566         estimate D2E/DX2                !
 ! R21   R(13,14)                1.3928         estimate D2E/DX2                !
 ! R22   R(13,82)                1.0672         estimate D2E/DX2                !
 ! R23   R(14,15)                1.8105         estimate D2E/DX2                !
 ! R24   R(14,16)                1.5025         estimate D2E/DX2                !
 ! R25   R(16,17)                1.3903         estimate D2E/DX2                !
 ! R26   R(16,24)                1.3476         estimate D2E/DX2                !
 ! R27   R(17,18)                1.4683         estimate D2E/DX2                !
 ! R28   R(17,83)                1.0722         estimate D2E/DX2                !
 ! R29   R(18,19)                1.3171         estimate D2E/DX2                !
 ! R30   R(18,20)                1.365          estimate D2E/DX2                !
 ! R31   R(20,21)                1.4926         estimate D2E/DX2                !
 ! R32   R(20,25)                1.4641         estimate D2E/DX2                !
 ! R33   R(21,22)                1.3652         estimate D2E/DX2                !
 ! R34   R(21,24)                1.3687         estimate D2E/DX2                !
 ! R35   R(22,23)                1.4684         estimate D2E/DX2                !
 ! R36   R(23,84)                1.1371         estimate D2E/DX2                !
 ! R37   R(23,85)                0.9998         estimate D2E/DX2                !
 ! R38   R(23,86)                1.0791         estimate D2E/DX2                !
 ! R39   R(24,87)                1.1635         estimate D2E/DX2                !
 ! R40   R(25,26)                1.3634         estimate D2E/DX2                !
 ! R41   R(25,30)                1.7483         estimate D2E/DX2                !
 ! R42   R(26,27)                1.3025         estimate D2E/DX2                !
 ! R43   R(26,28)                1.3699         estimate D2E/DX2                !
 ! R44   R(28,29)                1.4023         estimate D2E/DX2                !
 ! R45   R(28,88)                1.1088         estimate D2E/DX2                !
 ! R46   R(29,30)                1.6988         estimate D2E/DX2                !
 ! R47   R(29,31)                1.4569         estimate D2E/DX2                !
 ! R48   R(31,32)                1.4296         estimate D2E/DX2                !
 ! R49   R(31,39)                1.4503         estimate D2E/DX2                !
 ! R50   R(32,33)                1.3432         estimate D2E/DX2                !
 ! R51   R(32,89)                1.0143         estimate D2E/DX2                !
 ! R52   R(33,34)                1.3752         estimate D2E/DX2                !
 ! R53   R(33,35)                1.4164         estimate D2E/DX2                !
 ! R54   R(35,36)                1.3229         estimate D2E/DX2                !
 ! R55   R(35,40)                1.4917         estimate D2E/DX2                !
 ! R56   R(36,37)                1.449          estimate D2E/DX2                !
 ! R57   R(36,39)                1.3843         estimate D2E/DX2                !
 ! R58   R(37,38)                1.4174         estimate D2E/DX2                !
 ! R59   R(38,90)                1.0423         estimate D2E/DX2                !
 ! R60   R(38,91)                1.0627         estimate D2E/DX2                !
 ! R61   R(38,92)                1.1485         estimate D2E/DX2                !
 ! R62   R(39,93)                1.0965         estimate D2E/DX2                !
 ! R63   R(40,41)                1.3385         estimate D2E/DX2                !
 ! R64   R(40,45)                1.7036         estimate D2E/DX2                !
 ! R65   R(41,42)                1.388          estimate D2E/DX2                !
 ! R66   R(41,43)                1.3708         estimate D2E/DX2                !
 ! R67   R(43,44)                1.4201         estimate D2E/DX2                !
 ! R68   R(43,94)                1.0775         estimate D2E/DX2                !
 ! R69   R(44,45)                1.765          estimate D2E/DX2                !
 ! R70   R(44,46)                1.4493         estimate D2E/DX2                !
 ! R71   R(46,47)                1.4577         estimate D2E/DX2                !
 ! R72   R(46,54)                1.4334         estimate D2E/DX2                !
 ! R73   R(47,48)                1.3846         estimate D2E/DX2                !
 ! R74   R(47,95)                1.0824         estimate D2E/DX2                !
 ! R75   R(48,49)                1.3501         estimate D2E/DX2                !
 ! R76   R(48,50)                1.4656         estimate D2E/DX2                !
 ! R77   R(50,51)                1.389          estimate D2E/DX2                !
 ! R78   R(50,55)                1.4113         estimate D2E/DX2                !
 ! R79   R(51,52)                1.3661         estimate D2E/DX2                !
 ! R80   R(51,54)                1.4239         estimate D2E/DX2                !
 ! R81   R(52,53)                1.4513         estimate D2E/DX2                !
 ! R82   R(53,96)                1.1063         estimate D2E/DX2                !
 ! R83   R(53,97)                1.128          estimate D2E/DX2                !
 ! R84   R(53,98)                1.0285         estimate D2E/DX2                !
 ! R85   R(54,99)                1.0129         estimate D2E/DX2                !
 ! R86   R(55,56)                1.3721         estimate D2E/DX2                !
 ! R87   R(55,60)                1.8046         estimate D2E/DX2                !
 ! R88   R(56,57)                1.3139         estimate D2E/DX2                !
 ! R89   R(56,58)                1.4121         estimate D2E/DX2                !
 ! R90   R(58,59)                1.4021         estimate D2E/DX2                !
 ! R91   R(58,100)               1.1117         estimate D2E/DX2                !
 ! R92   R(59,60)                1.6779         estimate D2E/DX2                !
 ! R93   R(59,61)                1.509          estimate D2E/DX2                !
 ! R94   R(61,62)                1.3587         estimate D2E/DX2                !
 ! R95   R(61,69)                1.4028         estimate D2E/DX2                !
 ! R96   R(62,63)                1.3668         estimate D2E/DX2                !
 ! R97   R(62,101)               1.0672         estimate D2E/DX2                !
 ! R98   R(63,64)                1.4089         estimate D2E/DX2                !
 ! R99   R(63,65)                1.443          estimate D2E/DX2                !
 ! R100  R(65,66)                1.4648         estimate D2E/DX2                !
 ! R101  R(65,70)                1.3735         estimate D2E/DX2                !
 ! R102  R(66,67)                1.3227         estimate D2E/DX2                !
 ! R103  R(66,69)                1.3985         estimate D2E/DX2                !
 ! R104  R(67,68)                1.366          estimate D2E/DX2                !
 ! R105  R(68,102)               1.156          estimate D2E/DX2                !
 ! R106  R(68,103)               1.0718         estimate D2E/DX2                !
 ! R107  R(68,104)               1.1365         estimate D2E/DX2                !
 ! R108  R(69,105)               1.142          estimate D2E/DX2                !
 ! R109  R(70,71)                1.428          estimate D2E/DX2                !
 ! R110  R(70,75)                1.7097         estimate D2E/DX2                !
 ! R111  R(71,72)                1.3318         estimate D2E/DX2                !
 ! R112  R(71,73)                1.3829         estimate D2E/DX2                !
 ! R113  R(73,74)                1.419          estimate D2E/DX2                !
 ! R114  R(73,106)               1.0904         estimate D2E/DX2                !
 ! R115  R(74,75)                1.6848         estimate D2E/DX2                !
 ! R116  R(74,107)               1.0587         estimate D2E/DX2                !
 ! A1    A(2,1,9)              124.4363         estimate D2E/DX2                !
 ! A2    A(2,1,76)             116.4594         estimate D2E/DX2                !
 ! A3    A(9,1,76)             119.0258         estimate D2E/DX2                !
 ! A4    A(1,2,3)              117.8352         estimate D2E/DX2                !
 ! A5    A(1,2,77)             122.049          estimate D2E/DX2                !
 ! A6    A(3,2,77)             119.9682         estimate D2E/DX2                !
 ! A7    A(2,3,4)              120.1047         estimate D2E/DX2                !
 ! A8    A(2,3,5)              117.9085         estimate D2E/DX2                !
 ! A9    A(4,3,5)              121.897          estimate D2E/DX2                !
 ! A10   A(3,5,6)              120.0951         estimate D2E/DX2                !
 ! A11   A(3,5,10)             114.2286         estimate D2E/DX2                !
 ! A12   A(6,5,10)             125.0888         estimate D2E/DX2                !
 ! A13   A(5,6,7)              115.4618         estimate D2E/DX2                !
 ! A14   A(5,6,9)              119.0653         estimate D2E/DX2                !
 ! A15   A(7,6,9)              124.7206         estimate D2E/DX2                !
 ! A16   A(6,7,8)              114.7356         estimate D2E/DX2                !
 ! A17   A(7,8,78)             103.8117         estimate D2E/DX2                !
 ! A18   A(7,8,79)             110.7225         estimate D2E/DX2                !
 ! A19   A(7,8,80)             107.6949         estimate D2E/DX2                !
 ! A20   A(78,8,79)            104.8008         estimate D2E/DX2                !
 ! A21   A(78,8,80)            109.8201         estimate D2E/DX2                !
 ! A22   A(79,8,80)            118.9511         estimate D2E/DX2                !
 ! A23   A(1,9,6)              119.7081         estimate D2E/DX2                !
 ! A24   A(1,9,81)             119.5535         estimate D2E/DX2                !
 ! A25   A(6,9,81)             120.6268         estimate D2E/DX2                !
 ! A26   A(5,10,11)            129.9706         estimate D2E/DX2                !
 ! A27   A(5,10,15)            121.4832         estimate D2E/DX2                !
 ! A28   A(11,10,15)           108.3627         estimate D2E/DX2                !
 ! A29   A(10,11,12)           118.1227         estimate D2E/DX2                !
 ! A30   A(10,11,13)           117.1822         estimate D2E/DX2                !
 ! A31   A(12,11,13)           124.1369         estimate D2E/DX2                !
 ! A32   A(11,13,14)           112.4819         estimate D2E/DX2                !
 ! A33   A(11,13,82)           128.0967         estimate D2E/DX2                !
 ! A34   A(14,13,82)           118.9075         estimate D2E/DX2                !
 ! A35   A(13,14,15)           110.2935         estimate D2E/DX2                !
 ! A36   A(13,14,16)           130.8384         estimate D2E/DX2                !
 ! A37   A(15,14,16)           118.8436         estimate D2E/DX2                !
 ! A38   A(10,15,14)            91.4795         estimate D2E/DX2                !
 ! A39   A(14,16,17)           118.7965         estimate D2E/DX2                !
 ! A40   A(14,16,24)           120.1575         estimate D2E/DX2                !
 ! A41   A(17,16,24)           121.0458         estimate D2E/DX2                !
 ! A42   A(16,17,18)           116.3231         estimate D2E/DX2                !
 ! A43   A(16,17,83)           123.4634         estimate D2E/DX2                !
 ! A44   A(18,17,83)           119.6576         estimate D2E/DX2                !
 ! A45   A(17,18,19)           115.982          estimate D2E/DX2                !
 ! A46   A(17,18,20)           122.4238         estimate D2E/DX2                !
 ! A47   A(19,18,20)           121.3106         estimate D2E/DX2                !
 ! A48   A(18,20,21)           118.4768         estimate D2E/DX2                !
 ! A49   A(18,20,25)           123.0818         estimate D2E/DX2                !
 ! A50   A(21,20,25)           118.4271         estimate D2E/DX2                !
 ! A51   A(20,21,22)           113.6533         estimate D2E/DX2                !
 ! A52   A(20,21,24)           115.9208         estimate D2E/DX2                !
 ! A53   A(22,21,24)           130.3221         estimate D2E/DX2                !
 ! A54   A(21,22,23)           114.2012         estimate D2E/DX2                !
 ! A55   A(22,23,84)           108.1087         estimate D2E/DX2                !
 ! A56   A(22,23,85)           107.206          estimate D2E/DX2                !
 ! A57   A(22,23,86)           109.5339         estimate D2E/DX2                !
 ! A58   A(84,23,85)           107.1245         estimate D2E/DX2                !
 ! A59   A(84,23,86)           114.5044         estimate D2E/DX2                !
 ! A60   A(85,23,86)           110.0865         estimate D2E/DX2                !
 ! A61   A(16,24,21)           125.6794         estimate D2E/DX2                !
 ! A62   A(16,24,87)           118.6058         estimate D2E/DX2                !
 ! A63   A(21,24,87)           115.6888         estimate D2E/DX2                !
 ! A64   A(20,25,26)           130.5074         estimate D2E/DX2                !
 ! A65   A(20,25,30)           119.1671         estimate D2E/DX2                !
 ! A66   A(26,25,30)           110.1546         estimate D2E/DX2                !
 ! A67   A(25,26,27)           120.5657         estimate D2E/DX2                !
 ! A68   A(25,26,28)           113.2673         estimate D2E/DX2                !
 ! A69   A(27,26,28)           125.7849         estimate D2E/DX2                !
 ! A70   A(26,28,29)           114.5471         estimate D2E/DX2                !
 ! A71   A(26,28,88)           120.6798         estimate D2E/DX2                !
 ! A72   A(29,28,88)           124.6992         estimate D2E/DX2                !
 ! A73   A(28,29,30)           109.3806         estimate D2E/DX2                !
 ! A74   A(28,29,31)           127.7106         estimate D2E/DX2                !
 ! A75   A(30,29,31)           122.9037         estimate D2E/DX2                !
 ! A76   A(25,30,29)            92.5808         estimate D2E/DX2                !
 ! A77   A(29,31,32)           120.6082         estimate D2E/DX2                !
 ! A78   A(29,31,39)           119.0339         estimate D2E/DX2                !
 ! A79   A(32,31,39)           120.1813         estimate D2E/DX2                !
 ! A80   A(31,32,33)           117.5165         estimate D2E/DX2                !
 ! A81   A(31,32,89)           120.9151         estimate D2E/DX2                !
 ! A82   A(33,32,89)           121.2836         estimate D2E/DX2                !
 ! A83   A(32,33,34)           119.9771         estimate D2E/DX2                !
 ! A84   A(32,33,35)           122.5462         estimate D2E/DX2                !
 ! A85   A(34,33,35)           117.4254         estimate D2E/DX2                !
 ! A86   A(33,35,36)           119.3818         estimate D2E/DX2                !
 ! A87   A(33,35,40)           121.1803         estimate D2E/DX2                !
 ! A88   A(36,35,40)           119.3467         estimate D2E/DX2                !
 ! A89   A(35,36,37)           121.6271         estimate D2E/DX2                !
 ! A90   A(35,36,39)           123.4597         estimate D2E/DX2                !
 ! A91   A(37,36,39)           114.4777         estimate D2E/DX2                !
 ! A92   A(36,37,38)           111.9676         estimate D2E/DX2                !
 ! A93   A(37,38,90)           108.9025         estimate D2E/DX2                !
 ! A94   A(37,38,91)           113.1525         estimate D2E/DX2                !
 ! A95   A(37,38,92)           112.6683         estimate D2E/DX2                !
 ! A96   A(90,38,91)           112.9575         estimate D2E/DX2                !
 ! A97   A(90,38,92)           102.116          estimate D2E/DX2                !
 ! A98   A(91,38,92)           106.5497         estimate D2E/DX2                !
 ! A99   A(31,39,36)           116.5126         estimate D2E/DX2                !
 ! A100  A(31,39,93)           115.8937         estimate D2E/DX2                !
 ! A101  A(36,39,93)           127.4602         estimate D2E/DX2                !
 ! A102  A(35,40,41)           134.2822         estimate D2E/DX2                !
 ! A103  A(35,40,45)           117.2843         estimate D2E/DX2                !
 ! A104  A(41,40,45)           108.372          estimate D2E/DX2                !
 ! A105  A(40,41,42)           119.2501         estimate D2E/DX2                !
 ! A106  A(40,41,43)           119.9844         estimate D2E/DX2                !
 ! A107  A(42,41,43)           120.6497         estimate D2E/DX2                !
 ! A108  A(41,43,44)           109.2903         estimate D2E/DX2                !
 ! A109  A(41,43,94)           129.9487         estimate D2E/DX2                !
 ! A110  A(44,43,94)           120.7473         estimate D2E/DX2                !
 ! A111  A(43,44,45)           108.8687         estimate D2E/DX2                !
 ! A112  A(43,44,46)           130.52           estimate D2E/DX2                !
 ! A113  A(45,44,46)           119.6537         estimate D2E/DX2                !
 ! A114  A(40,45,44)            93.15           estimate D2E/DX2                !
 ! A115  A(44,46,47)           120.5256         estimate D2E/DX2                !
 ! A116  A(44,46,54)           120.793          estimate D2E/DX2                !
 ! A117  A(47,46,54)           117.8284         estimate D2E/DX2                !
 ! A118  A(46,47,48)           120.7729         estimate D2E/DX2                !
 ! A119  A(46,47,95)           119.364          estimate D2E/DX2                !
 ! A120  A(48,47,95)           119.7866         estimate D2E/DX2                !
 ! A121  A(47,48,49)           118.3761         estimate D2E/DX2                !
 ! A122  A(47,48,50)           120.2718         estimate D2E/DX2                !
 ! A123  A(49,48,50)           121.3467         estimate D2E/DX2                !
 ! A124  A(48,50,51)           118.9525         estimate D2E/DX2                !
 ! A125  A(48,50,55)           115.6251         estimate D2E/DX2                !
 ! A126  A(51,50,55)           125.2542         estimate D2E/DX2                !
 ! A127  A(50,51,52)           115.3829         estimate D2E/DX2                !
 ! A128  A(50,51,54)           121.2938         estimate D2E/DX2                !
 ! A129  A(52,51,54)           123.2137         estimate D2E/DX2                !
 ! A130  A(51,52,53)           115.1361         estimate D2E/DX2                !
 ! A131  A(52,53,96)           105.5776         estimate D2E/DX2                !
 ! A132  A(52,53,97)           108.5486         estimate D2E/DX2                !
 ! A133  A(52,53,98)           111.1756         estimate D2E/DX2                !
 ! A134  A(96,53,97)           106.321          estimate D2E/DX2                !
 ! A135  A(96,53,98)           111.0163         estimate D2E/DX2                !
 ! A136  A(97,53,98)           113.7646         estimate D2E/DX2                !
 ! A137  A(46,54,51)           120.0338         estimate D2E/DX2                !
 ! A138  A(46,54,99)           116.5794         estimate D2E/DX2                !
 ! A139  A(51,54,99)           122.01           estimate D2E/DX2                !
 ! A140  A(50,55,56)           133.4029         estimate D2E/DX2                !
 ! A141  A(50,55,60)           117.5457         estimate D2E/DX2                !
 ! A142  A(56,55,60)           109.0511         estimate D2E/DX2                !
 ! A143  A(55,56,57)           121.4505         estimate D2E/DX2                !
 ! A144  A(55,56,58)           114.6913         estimate D2E/DX2                !
 ! A145  A(57,56,58)           123.0313         estimate D2E/DX2                !
 ! A146  A(56,58,59)           110.7091         estimate D2E/DX2                !
 ! A147  A(56,58,100)          127.0657         estimate D2E/DX2                !
 ! A148  A(59,58,100)          121.8696         estimate D2E/DX2                !
 ! A149  A(58,59,60)           114.154          estimate D2E/DX2                !
 ! A150  A(58,59,61)           128.3528         estimate D2E/DX2                !
 ! A151  A(60,59,61)           117.4788         estimate D2E/DX2                !
 ! A152  A(55,60,59)            91.0408         estimate D2E/DX2                !
 ! A153  A(59,61,62)           122.6146         estimate D2E/DX2                !
 ! A154  A(59,61,69)           119.4907         estimate D2E/DX2                !
 ! A155  A(62,61,69)           117.5119         estimate D2E/DX2                !
 ! A156  A(61,62,63)           120.8631         estimate D2E/DX2                !
 ! A157  A(61,62,101)          121.5343         estimate D2E/DX2                !
 ! A158  A(63,62,101)          117.4078         estimate D2E/DX2                !
 ! A159  A(62,63,64)           120.3601         estimate D2E/DX2                !
 ! A160  A(62,63,65)           124.1478         estimate D2E/DX2                !
 ! A161  A(64,63,65)           115.4726         estimate D2E/DX2                !
 ! A162  A(63,65,66)           114.6858         estimate D2E/DX2                !
 ! A163  A(63,65,70)           122.2486         estimate D2E/DX2                !
 ! A164  A(66,65,70)           122.7202         estimate D2E/DX2                !
 ! A165  A(65,66,67)           116.9319         estimate D2E/DX2                !
 ! A166  A(65,66,69)           117.365          estimate D2E/DX2                !
 ! A167  A(67,66,69)           125.4655         estimate D2E/DX2                !
 ! A168  A(66,67,68)           114.9452         estimate D2E/DX2                !
 ! A169  A(67,68,102)          107.0111         estimate D2E/DX2                !
 ! A170  A(67,68,103)          112.1615         estimate D2E/DX2                !
 ! A171  A(67,68,104)          109.2421         estimate D2E/DX2                !
 ! A172  A(102,68,103)         108.2973         estimate D2E/DX2                !
 ! A173  A(102,68,104)         104.6723         estimate D2E/DX2                !
 ! A174  A(103,68,104)         114.8973         estimate D2E/DX2                !
 ! A175  A(61,69,66)           124.7299         estimate D2E/DX2                !
 ! A176  A(61,69,105)          122.2184         estimate D2E/DX2                !
 ! A177  A(66,69,105)          112.7216         estimate D2E/DX2                !
 ! A178  A(65,70,71)           127.5052         estimate D2E/DX2                !
 ! A179  A(65,70,75)           124.1353         estimate D2E/DX2                !
 ! A180  A(71,70,75)           108.3572         estimate D2E/DX2                !
 ! A181  A(70,71,72)           123.3843         estimate D2E/DX2                !
 ! A182  A(70,71,73)           112.6014         estimate D2E/DX2                !
 ! A183  A(72,71,73)           123.4954         estimate D2E/DX2                !
 ! A184  A(71,73,74)           114.5693         estimate D2E/DX2                !
 ! A185  A(71,73,106)          126.1514         estimate D2E/DX2                !
 ! A186  A(74,73,106)          119.2708         estimate D2E/DX2                !
 ! A187  A(73,74,75)           108.3819         estimate D2E/DX2                !
 ! A188  A(73,74,107)          126.6696         estimate D2E/DX2                !
 ! A189  A(75,74,107)          124.9417         estimate D2E/DX2                !
 ! A190  A(70,75,74)            96.0021         estimate D2E/DX2                !
 ! D1    D(9,1,2,3)             -4.8119         estimate D2E/DX2                !
 ! D2    D(9,1,2,77)           179.6102         estimate D2E/DX2                !
 ! D3    D(76,1,2,3)           178.4539         estimate D2E/DX2                !
 ! D4    D(76,1,2,77)            2.8759         estimate D2E/DX2                !
 ! D5    D(2,1,9,6)              6.1773         estimate D2E/DX2                !
 ! D6    D(2,1,9,81)          -177.6379         estimate D2E/DX2                !
 ! D7    D(76,1,9,6)          -177.1663         estimate D2E/DX2                !
 ! D8    D(76,1,9,81)           -0.9816         estimate D2E/DX2                !
 ! D9    D(1,2,3,4)           -177.3599         estimate D2E/DX2                !
 ! D10   D(1,2,3,5)              6.0197         estimate D2E/DX2                !
 ! D11   D(77,2,3,4)            -1.6862         estimate D2E/DX2                !
 ! D12   D(77,2,3,5)          -178.3067         estimate D2E/DX2                !
 ! D13   D(2,3,5,6)             -9.0101         estimate D2E/DX2                !
 ! D14   D(2,3,5,10)           179.3377         estimate D2E/DX2                !
 ! D15   D(4,3,5,6)            174.4337         estimate D2E/DX2                !
 ! D16   D(4,3,5,10)             2.7815         estimate D2E/DX2                !
 ! D17   D(3,5,6,7)           -179.1058         estimate D2E/DX2                !
 ! D18   D(3,5,6,9)             10.3589         estimate D2E/DX2                !
 ! D19   D(10,5,6,7)            -8.4171         estimate D2E/DX2                !
 ! D20   D(10,5,6,9)          -178.9524         estimate D2E/DX2                !
 ! D21   D(3,5,10,11)          -73.9641         estimate D2E/DX2                !
 ! D22   D(3,5,10,15)          111.5628         estimate D2E/DX2                !
 ! D23   D(6,5,10,11)          114.8662         estimate D2E/DX2                !
 ! D24   D(6,5,10,15)          -59.6069         estimate D2E/DX2                !
 ! D25   D(5,6,7,8)            165.1417         estimate D2E/DX2                !
 ! D26   D(9,6,7,8)            -24.9293         estimate D2E/DX2                !
 ! D27   D(5,6,9,1)             -8.7661         estimate D2E/DX2                !
 ! D28   D(5,6,9,81)           175.0909         estimate D2E/DX2                !
 ! D29   D(7,6,9,1)           -178.3595         estimate D2E/DX2                !
 ! D30   D(7,6,9,81)             5.4974         estimate D2E/DX2                !
 ! D31   D(6,7,8,78)          -170.1211         estimate D2E/DX2                !
 ! D32   D(6,7,8,79)            77.8998         estimate D2E/DX2                !
 ! D33   D(6,7,8,80)           -53.7018         estimate D2E/DX2                !
 ! D34   D(5,10,11,12)           9.1964         estimate D2E/DX2                !
 ! D35   D(5,10,11,13)        -179.0112         estimate D2E/DX2                !
 ! D36   D(15,10,11,12)       -175.7683         estimate D2E/DX2                !
 ! D37   D(15,10,11,13)         -3.9759         estimate D2E/DX2                !
 ! D38   D(5,10,15,14)         176.8677         estimate D2E/DX2                !
 ! D39   D(11,10,15,14)          1.3281         estimate D2E/DX2                !
 ! D40   D(10,11,13,14)          5.1469         estimate D2E/DX2                !
 ! D41   D(10,11,13,82)        176.7305         estimate D2E/DX2                !
 ! D42   D(12,11,13,14)        176.3974         estimate D2E/DX2                !
 ! D43   D(12,11,13,82)        -12.019          estimate D2E/DX2                !
 ! D44   D(11,13,14,15)         -3.7606         estimate D2E/DX2                !
 ! D45   D(11,13,14,16)        178.1017         estimate D2E/DX2                !
 ! D46   D(82,13,14,15)       -176.1997         estimate D2E/DX2                !
 ! D47   D(82,13,14,16)          5.6626         estimate D2E/DX2                !
 ! D48   D(13,14,15,10)          1.3053         estimate D2E/DX2                !
 ! D49   D(16,14,15,10)        179.6968         estimate D2E/DX2                !
 ! D50   D(13,14,16,17)       -134.2623         estimate D2E/DX2                !
 ! D51   D(13,14,16,24)         45.5901         estimate D2E/DX2                !
 ! D52   D(15,14,16,17)         47.7319         estimate D2E/DX2                !
 ! D53   D(15,14,16,24)       -132.4157         estimate D2E/DX2                !
 ! D54   D(14,16,17,18)        176.5767         estimate D2E/DX2                !
 ! D55   D(14,16,17,83)          5.177          estimate D2E/DX2                !
 ! D56   D(24,16,17,18)         -3.2744         estimate D2E/DX2                !
 ! D57   D(24,16,17,83)       -174.6741         estimate D2E/DX2                !
 ! D58   D(14,16,24,21)       -175.7015         estimate D2E/DX2                !
 ! D59   D(14,16,24,87)          2.3572         estimate D2E/DX2                !
 ! D60   D(17,16,24,21)          4.1476         estimate D2E/DX2                !
 ! D61   D(17,16,24,87)       -177.7937         estimate D2E/DX2                !
 ! D62   D(16,17,18,19)       -173.7472         estimate D2E/DX2                !
 ! D63   D(16,17,18,20)          0.2057         estimate D2E/DX2                !
 ! D64   D(83,17,18,19)         -2.0011         estimate D2E/DX2                !
 ! D65   D(83,17,18,20)        171.9519         estimate D2E/DX2                !
 ! D66   D(17,18,20,21)          2.122          estimate D2E/DX2                !
 ! D67   D(17,18,20,25)       -179.2809         estimate D2E/DX2                !
 ! D68   D(19,18,20,21)        175.7582         estimate D2E/DX2                !
 ! D69   D(19,18,20,25)         -5.6447         estimate D2E/DX2                !
 ! D70   D(18,20,21,22)        175.1753         estimate D2E/DX2                !
 ! D71   D(18,20,21,24)         -1.5082         estimate D2E/DX2                !
 ! D72   D(25,20,21,22)         -3.4881         estimate D2E/DX2                !
 ! D73   D(25,20,21,24)        179.8284         estimate D2E/DX2                !
 ! D74   D(18,20,25,26)        116.0649         estimate D2E/DX2                !
 ! D75   D(18,20,25,30)        -58.6727         estimate D2E/DX2                !
 ! D76   D(21,20,25,26)        -65.3373         estimate D2E/DX2                !
 ! D77   D(21,20,25,30)        119.9251         estimate D2E/DX2                !
 ! D78   D(20,21,22,23)        166.7553         estimate D2E/DX2                !
 ! D79   D(24,21,22,23)        -17.1579         estimate D2E/DX2                !
 ! D80   D(20,21,24,16)         -1.6117         estimate D2E/DX2                !
 ! D81   D(20,21,24,87)       -179.7204         estimate D2E/DX2                !
 ! D82   D(22,21,24,16)       -177.6262         estimate D2E/DX2                !
 ! D83   D(22,21,24,87)          4.2651         estimate D2E/DX2                !
 ! D84   D(21,22,23,84)         70.7915         estimate D2E/DX2                !
 ! D85   D(21,22,23,85)       -174.0215         estimate D2E/DX2                !
 ! D86   D(21,22,23,86)        -54.5921         estimate D2E/DX2                !
 ! D87   D(20,25,26,27)          0.0024         estimate D2E/DX2                !
 ! D88   D(20,25,26,28)       -173.3017         estimate D2E/DX2                !
 ! D89   D(30,25,26,27)        175.1085         estimate D2E/DX2                !
 ! D90   D(30,25,26,28)          1.8044         estimate D2E/DX2                !
 ! D91   D(20,25,30,29)        175.4899         estimate D2E/DX2                !
 ! D92   D(26,25,30,29)         -0.2501         estimate D2E/DX2                !
 ! D93   D(25,26,28,29)         -2.9186         estimate D2E/DX2                !
 ! D94   D(25,26,28,88)       -179.9346         estimate D2E/DX2                !
 ! D95   D(27,26,28,29)       -175.8093         estimate D2E/DX2                !
 ! D96   D(27,26,28,88)          7.1746         estimate D2E/DX2                !
 ! D97   D(26,28,29,30)          2.6229         estimate D2E/DX2                !
 ! D98   D(26,28,29,31)       -176.5606         estimate D2E/DX2                !
 ! D99   D(88,28,29,30)        179.5013         estimate D2E/DX2                !
 ! D100  D(88,28,29,31)          0.3178         estimate D2E/DX2                !
 ! D101  D(28,29,30,25)         -1.2964         estimate D2E/DX2                !
 ! D102  D(31,29,30,25)        177.9342         estimate D2E/DX2                !
 ! D103  D(28,29,31,32)         46.5376         estimate D2E/DX2                !
 ! D104  D(28,29,31,39)       -138.2835         estimate D2E/DX2                !
 ! D105  D(30,29,31,32)       -132.545          estimate D2E/DX2                !
 ! D106  D(30,29,31,39)         42.6339         estimate D2E/DX2                !
 ! D107  D(29,31,32,33)       -178.019          estimate D2E/DX2                !
 ! D108  D(29,31,32,89)         -4.0724         estimate D2E/DX2                !
 ! D109  D(39,31,32,33)          6.8574         estimate D2E/DX2                !
 ! D110  D(39,31,32,89)       -179.1959         estimate D2E/DX2                !
 ! D111  D(29,31,39,36)       -179.0638         estimate D2E/DX2                !
 ! D112  D(29,31,39,93)          4.818          estimate D2E/DX2                !
 ! D113  D(32,31,39,36)         -3.8639         estimate D2E/DX2                !
 ! D114  D(32,31,39,93)       -179.982          estimate D2E/DX2                !
 ! D115  D(31,32,33,34)        178.3629         estimate D2E/DX2                !
 ! D116  D(31,32,33,35)         -4.31           estimate D2E/DX2                !
 ! D117  D(89,32,33,34)          4.4399         estimate D2E/DX2                !
 ! D118  D(89,32,33,35)       -178.2331         estimate D2E/DX2                !
 ! D119  D(32,33,35,36)         -1.363          estimate D2E/DX2                !
 ! D120  D(32,33,35,40)       -177.8668         estimate D2E/DX2                !
 ! D121  D(34,33,35,36)        176.0285         estimate D2E/DX2                !
 ! D122  D(34,33,35,40)         -0.4753         estimate D2E/DX2                !
 ! D123  D(33,35,36,37)        176.6996         estimate D2E/DX2                !
 ! D124  D(33,35,36,39)          4.6954         estimate D2E/DX2                !
 ! D125  D(40,35,36,37)         -6.7318         estimate D2E/DX2                !
 ! D126  D(40,35,36,39)       -178.736          estimate D2E/DX2                !
 ! D127  D(33,35,40,41)        105.0622         estimate D2E/DX2                !
 ! D128  D(33,35,40,45)        -71.6965         estimate D2E/DX2                !
 ! D129  D(36,35,40,41)        -71.4429         estimate D2E/DX2                !
 ! D130  D(36,35,40,45)        111.7984         estimate D2E/DX2                !
 ! D131  D(35,36,37,38)        125.1144         estimate D2E/DX2                !
 ! D132  D(39,36,37,38)        -62.2112         estimate D2E/DX2                !
 ! D133  D(35,36,39,31)         -2.0233         estimate D2E/DX2                !
 ! D134  D(35,36,39,93)        173.5763         estimate D2E/DX2                !
 ! D135  D(37,36,39,31)       -174.5458         estimate D2E/DX2                !
 ! D136  D(37,36,39,93)          1.0538         estimate D2E/DX2                !
 ! D137  D(36,37,38,90)       -158.7581         estimate D2E/DX2                !
 ! D138  D(36,37,38,91)         74.742          estimate D2E/DX2                !
 ! D139  D(36,37,38,92)        -46.2108         estimate D2E/DX2                !
 ! D140  D(35,40,41,42)          2.2175         estimate D2E/DX2                !
 ! D141  D(35,40,41,43)        178.331          estimate D2E/DX2                !
 ! D142  D(45,40,41,42)        179.1823         estimate D2E/DX2                !
 ! D143  D(45,40,41,43)         -4.7042         estimate D2E/DX2                !
 ! D144  D(35,40,45,44)        178.5606         estimate D2E/DX2                !
 ! D145  D(41,40,45,44)          1.0051         estimate D2E/DX2                !
 ! D146  D(40,41,43,44)          6.6351         estimate D2E/DX2                !
 ! D147  D(40,41,43,94)       -174.7308         estimate D2E/DX2                !
 ! D148  D(42,41,43,44)       -177.3066         estimate D2E/DX2                !
 ! D149  D(42,41,43,94)          1.3275         estimate D2E/DX2                !
 ! D150  D(41,43,44,45)         -5.1195         estimate D2E/DX2                !
 ! D151  D(41,43,44,46)       -173.6138         estimate D2E/DX2                !
 ! D152  D(94,43,44,45)        176.099          estimate D2E/DX2                !
 ! D153  D(94,43,44,46)          7.6047         estimate D2E/DX2                !
 ! D154  D(43,44,45,40)          2.4366         estimate D2E/DX2                !
 ! D155  D(46,44,45,40)        172.3881         estimate D2E/DX2                !
 ! D156  D(43,44,46,47)       -139.8879         estimate D2E/DX2                !
 ! D157  D(43,44,46,54)         29.3092         estimate D2E/DX2                !
 ! D158  D(45,44,46,47)         52.6562         estimate D2E/DX2                !
 ! D159  D(45,44,46,54)       -138.1466         estimate D2E/DX2                !
 ! D160  D(44,46,47,48)        177.2427         estimate D2E/DX2                !
 ! D161  D(44,46,47,95)         -5.9443         estimate D2E/DX2                !
 ! D162  D(54,46,47,48)          7.7326         estimate D2E/DX2                !
 ! D163  D(54,46,47,95)       -175.4544         estimate D2E/DX2                !
 ! D164  D(44,46,54,51)       -179.9622         estimate D2E/DX2                !
 ! D165  D(44,46,54,99)         13.1612         estimate D2E/DX2                !
 ! D166  D(47,46,54,51)        -10.4814         estimate D2E/DX2                !
 ! D167  D(47,46,54,99)       -177.3581         estimate D2E/DX2                !
 ! D168  D(46,47,48,49)        175.4469         estimate D2E/DX2                !
 ! D169  D(46,47,48,50)         -3.7152         estimate D2E/DX2                !
 ! D170  D(95,47,48,49)         -1.3527         estimate D2E/DX2                !
 ! D171  D(95,47,48,50)        179.4852         estimate D2E/DX2                !
 ! D172  D(47,48,50,51)          2.3643         estimate D2E/DX2                !
 ! D173  D(47,48,50,55)        177.8998         estimate D2E/DX2                !
 ! D174  D(49,48,50,51)       -176.7724         estimate D2E/DX2                !
 ! D175  D(49,48,50,55)         -1.2369         estimate D2E/DX2                !
 ! D176  D(48,50,51,52)        178.4419         estimate D2E/DX2                !
 ! D177  D(48,50,51,54)         -5.2471         estimate D2E/DX2                !
 ! D178  D(55,50,51,52)          3.3725         estimate D2E/DX2                !
 ! D179  D(55,50,51,54)        179.6834         estimate D2E/DX2                !
 ! D180  D(48,50,55,56)        -65.8012         estimate D2E/DX2                !
 ! D181  D(48,50,55,60)        113.9834         estimate D2E/DX2                !
 ! D182  D(51,50,55,56)        109.4142         estimate D2E/DX2                !
 ! D183  D(51,50,55,60)        -70.8012         estimate D2E/DX2                !
 ! D184  D(50,51,52,53)        149.2999         estimate D2E/DX2                !
 ! D185  D(54,51,52,53)        -26.9321         estimate D2E/DX2                !
 ! D186  D(50,51,54,46)          9.5335         estimate D2E/DX2                !
 ! D187  D(50,51,54,99)        175.6788         estimate D2E/DX2                !
 ! D188  D(52,51,54,46)       -174.4506         estimate D2E/DX2                !
 ! D189  D(52,51,54,99)         -8.3054         estimate D2E/DX2                !
 ! D190  D(51,52,53,96)       -166.1793         estimate D2E/DX2                !
 ! D191  D(51,52,53,97)        -52.5222         estimate D2E/DX2                !
 ! D192  D(51,52,53,98)         73.3388         estimate D2E/DX2                !
 ! D193  D(50,55,56,57)         -4.8441         estimate D2E/DX2                !
 ! D194  D(50,55,56,58)       -174.731          estimate D2E/DX2                !
 ! D195  D(60,55,56,57)        175.358          estimate D2E/DX2                !
 ! D196  D(60,55,56,58)          5.4711         estimate D2E/DX2                !
 ! D197  D(50,55,60,59)        177.8975         estimate D2E/DX2                !
 ! D198  D(56,55,60,59)         -2.268          estimate D2E/DX2                !
 ! D199  D(55,56,58,59)         -6.6318         estimate D2E/DX2                !
 ! D200  D(55,56,58,100)      -179.8255         estimate D2E/DX2                !
 ! D201  D(57,56,58,59)       -176.3392         estimate D2E/DX2                !
 ! D202  D(57,56,58,100)        10.4671         estimate D2E/DX2                !
 ! D203  D(56,58,59,60)          4.7265         estimate D2E/DX2                !
 ! D204  D(56,58,59,61)       -176.7062         estimate D2E/DX2                !
 ! D205  D(100,58,59,60)       178.3331         estimate D2E/DX2                !
 ! D206  D(100,58,59,61)        -3.0996         estimate D2E/DX2                !
 ! D207  D(58,59,60,55)         -1.4486         estimate D2E/DX2                !
 ! D208  D(61,59,60,55)        179.8177         estimate D2E/DX2                !
 ! D209  D(58,59,61,62)       -133.2486         estimate D2E/DX2                !
 ! D210  D(58,59,61,69)         39.4689         estimate D2E/DX2                !
 ! D211  D(60,59,61,62)         45.2779         estimate D2E/DX2                !
 ! D212  D(60,59,61,69)       -142.0046         estimate D2E/DX2                !
 ! D213  D(59,61,62,63)       -178.691          estimate D2E/DX2                !
 ! D214  D(59,61,62,101)        -3.8943         estimate D2E/DX2                !
 ! D215  D(69,61,62,63)          8.4555         estimate D2E/DX2                !
 ! D216  D(69,61,62,101)      -176.7479         estimate D2E/DX2                !
 ! D217  D(59,61,69,66)       -179.2731         estimate D2E/DX2                !
 ! D218  D(59,61,69,105)         7.81           estimate D2E/DX2                !
 ! D219  D(62,61,69,66)         -6.1876         estimate D2E/DX2                !
 ! D220  D(62,61,69,105)      -179.1044         estimate D2E/DX2                !
 ! D221  D(61,62,63,64)        174.9196         estimate D2E/DX2                !
 ! D222  D(61,62,63,65)         -3.4023         estimate D2E/DX2                !
 ! D223  D(101,62,63,64)        -0.0853         estimate D2E/DX2                !
 ! D224  D(101,62,63,65)      -178.4071         estimate D2E/DX2                !
 ! D225  D(62,63,65,66)         -4.1774         estimate D2E/DX2                !
 ! D226  D(62,63,65,70)       -177.5977         estimate D2E/DX2                !
 ! D227  D(64,63,65,66)        177.4265         estimate D2E/DX2                !
 ! D228  D(64,63,65,70)          4.0062         estimate D2E/DX2                !
 ! D229  D(63,65,66,67)       -179.0734         estimate D2E/DX2                !
 ! D230  D(63,65,66,69)          6.2168         estimate D2E/DX2                !
 ! D231  D(70,65,66,67)         -5.6878         estimate D2E/DX2                !
 ! D232  D(70,65,66,69)        179.6023         estimate D2E/DX2                !
 ! D233  D(63,65,70,71)        -87.811          estimate D2E/DX2                !
 ! D234  D(63,65,70,75)         92.8109         estimate D2E/DX2                !
 ! D235  D(66,65,70,71)         99.2976         estimate D2E/DX2                !
 ! D236  D(66,65,70,75)        -80.0805         estimate D2E/DX2                !
 ! D237  D(65,66,67,68)        139.9666         estimate D2E/DX2                !
 ! D238  D(69,66,67,68)        -45.8033         estimate D2E/DX2                !
 ! D239  D(65,66,69,61)         -1.3827         estimate D2E/DX2                !
 ! D240  D(65,66,69,105)       172.1233         estimate D2E/DX2                !
 ! D241  D(67,66,69,61)       -175.5903         estimate D2E/DX2                !
 ! D242  D(67,66,69,105)        -2.0843         estimate D2E/DX2                !
 ! D243  D(66,67,68,102)      -165.7917         estimate D2E/DX2                !
 ! D244  D(66,67,68,103)        75.5807         estimate D2E/DX2                !
 ! D245  D(66,67,68,104)       -53.0023         estimate D2E/DX2                !
 ! D246  D(65,70,71,72)          7.5252         estimate D2E/DX2                !
 ! D247  D(65,70,71,73)        179.5102         estimate D2E/DX2                !
 ! D248  D(75,70,71,72)       -173.0172         estimate D2E/DX2                !
 ! D249  D(75,70,71,73)         -1.0322         estimate D2E/DX2                !
 ! D250  D(65,70,75,74)        178.7468         estimate D2E/DX2                !
 ! D251  D(71,70,75,74)         -0.7334         estimate D2E/DX2                !
 ! D252  D(70,71,73,74)          2.8066         estimate D2E/DX2                !
 ! D253  D(70,71,73,106)      -178.2692         estimate D2E/DX2                !
 ! D254  D(72,71,73,74)        174.7813         estimate D2E/DX2                !
 ! D255  D(72,71,73,106)        -6.2945         estimate D2E/DX2                !
 ! D256  D(71,73,74,75)         -3.2351         estimate D2E/DX2                !
 ! D257  D(71,73,74,107)       177.6799         estimate D2E/DX2                !
 ! D258  D(106,73,74,75)       177.7606         estimate D2E/DX2                !
 ! D259  D(106,73,74,107)       -1.3244         estimate D2E/DX2                !
 ! D260  D(73,74,75,70)          2.2108         estimate D2E/DX2                !
 ! D261  D(107,74,75,70)      -178.6845         estimate D2E/DX2                !
 --------------------------------------------------------------------------------
 Trust Radius=3.00D-01 FncErr=1.00D-07 GrdErr=1.00D-06 EigMax=2.50D+02 EigMin=1.00D-04
 Number of steps in this run=    577 maximum allowed number of steps=    642.
 GradGradGradGradGradGradGradGradGradGradGradGradGradGradGradGradGradGrad

 Leave Link  103 at Fri Jul 24 02:15:06 2020, MaxMem=  4026531840 cpu:               0.1 elap:               0.0
 (Enter /opt/ohpc/pub/libs/gaussian/g16-A.03/sandybridge/g16/l202.exe)
 Stoichiometry    C55H32F10O5S5
 Framework group  C1[X(C55H32F10O5S5)]
 Deg. of freedom   315
 Full point group                 C1      NOp   1
 Largest Abelian subgroup         C1      NOp   1
 Largest concise Abelian subgroup C1      NOp   1
                         Standard orientation:                         
 ---------------------------------------------------------------------
 Center     Atomic      Atomic             Coordinates (Angstroms)
 Number     Number       Type             X           Y           Z
 ---------------------------------------------------------------------
      1          6           0       18.313385   -3.121484   -0.255758
      2          6           0       18.178240   -2.136100   -1.153709
      3          6           0       17.022928   -1.256149   -1.029789
      4          9           0       16.823938   -0.332609   -1.893055
      5          6           0       16.177481   -1.416051    0.117166
      6          6           0       16.355186   -2.494959    0.965125
      7          8           0       15.450255   -2.567738    2.059906
      8          6           0       15.418257   -3.846053    2.734315
      9          6           0       17.499659   -3.300217    0.816308
     10          6           0       15.069591   -0.497126    0.167514
     11          6           0       15.047893    0.900399    0.472564
     12          9           0       16.227008    1.545853    0.580424
     13          6           0       13.839981    1.517852    0.464239
     14          6           0       12.788175    0.627633    0.261683
     15         16           0       13.425677   -1.041537   -0.030400
     16          6           0       11.303607    0.854687    0.216824
     17          6           0       10.471946   -0.013321    0.915288
     18          6           0        9.038336    0.303676    0.898279
     19          9           0        8.272561   -0.445702    1.664298
     20          6           0        8.535722    1.384995    0.233995
     21          6           0        9.478003    2.246101   -0.539603
     22          8           0        8.859551    3.235556   -1.248316
     23          6           0        9.769562    4.267525   -1.761212
     24          6           0       10.797394    1.885683   -0.488077
     25          6           0        7.111321    1.723132    0.220097
     26          6           0        6.454798    2.812083    0.711994
     27          9           0        7.109570    3.765705    1.310598
     28          6           0        5.091484    2.702463    0.634932
     29          6           0        4.635456    1.531780    0.012139
     30         16           0        5.964878    0.557442   -0.399062
     31          6           0        3.258646    1.157473   -0.282611
     32          6           0        2.362095    2.095075   -0.883438
     33          6           0        1.095862    1.697685   -1.090734
     34          9           0        0.182225    2.569941   -1.634463
     35          6           0        0.657573    0.378096   -0.821198
     36          6           0        1.524390   -0.514769   -0.372329
     37          8           0        1.115104   -1.857798   -0.014035
     38          6           0        1.865090   -2.842586   -0.704421
     39          6           0        2.837532   -0.211713   -0.055944
     40          6           0       -0.744524   -0.043539   -1.106947
     41          6           0       -1.320108   -0.793806   -2.054188
     42          9           0       -0.524491   -1.395887   -3.019052
     43          6           0       -2.670661   -1.025734   -2.017853
     44          6           0       -3.252783   -0.246716   -0.982923
     45         16           0       -1.967226    0.572327   -0.093070
     46          6           0       -4.606706   -0.228472   -0.466043
     47          6           0       -5.247886    1.032416   -0.113946
     48          6           0       -6.560208    1.061053    0.326562
     49          9           0       -7.076581    2.242064    0.728230
     50          6           0       -7.352540   -0.171215    0.368442
     51          6           0       -6.750969   -1.369991    0.007475
     52          8           0       -7.545910   -2.476751    0.104823
     53          6           0       -7.253133   -3.531765   -0.847781
     54          6           0       -5.422635   -1.406320   -0.504154
     55          6           0       -8.662336   -0.037702    0.876758
     56          6           0       -9.166092    0.281451    2.112462
     57          9           0       -8.379094    0.449521    3.151095
     58          6           0      -10.571257    0.189863    2.218258
     59          6           0      -11.146852   -0.069847    0.966403
     60         16           0      -10.032702   -0.322032   -0.262521
     61          6           0      -12.609921   -0.175659    0.612336
     62          6           0      -13.108535   -1.186536   -0.146394
     63          6           0      -14.436274   -1.232939   -0.467689
     64          9           0      -14.923153   -2.224824   -1.341752
     65          6           0      -15.418399   -0.289043    0.008600
     66          6           0      -14.906199    0.698154    0.961826
     67          8           0      -15.773698    1.573764    1.441747
     68          6           0      -15.630052    1.858338    2.770076
     69          6           0      -13.528069    0.707682    1.199215
     70          6           0      -16.752041   -0.400451   -0.300224
     71          6           0      -17.426929    0.127158   -1.442774
     72          9           0      -16.796522    0.700140   -2.466490
     73          6           0      -18.775611   -0.178234   -1.451394
     74          6           0      -19.226783   -0.889690   -0.309500
     75         16           0      -17.897982   -1.212399    0.674697
     76          1           0       19.216540   -3.817064   -0.391663
     77          1           0       18.842247   -2.028149   -1.977213
     78          1           0       14.543163   -3.764350    3.417256
     79          1           0       16.294468   -3.957111    3.407887
     80          1           0       15.229692   -4.614308    1.980927
     81          1           0       17.705302   -4.104917    1.517040
     82          1           0       13.617248    2.532156    0.710301
     83          1           0       10.835037   -0.794364    1.553762
     84          1           0       10.389194    3.808652   -2.596918
     85          1           0        9.204339    4.982453   -2.172304
     86          1           0       10.348437    4.675167   -0.946888
     87          1           0       11.528954    2.562587   -1.088369
     88          1           0        4.436701    3.519529    0.999689
     89          1           0        2.649062    3.052111   -1.058141
     90          1           0        1.327562   -3.735561   -0.707798
     91          1           0        2.852919   -2.954822   -0.329024
     92          1           0        1.965042   -2.617137   -1.826165
     93          1           0        3.580591   -0.870499    0.409095
     94          1           0       -3.281318   -1.656881   -2.642176
     95          1           0       -4.672524    1.948564   -0.149554
     96          1           0       -8.120371   -4.217439   -0.807542
     97          1           0       -7.247981   -3.087708   -1.884644
     98          1           0       -6.383145   -4.022617   -0.602793
     99          1           0       -4.950367   -2.278317   -0.710337
    100          1           0      -11.190874    0.402544    3.116453
    101          1           0      -12.471966   -1.924859   -0.580548
    102          1           0      -16.592027    2.405067    3.104774
    103          1           0      -14.794314    2.502668    2.957438
    104          1           0      -15.628970    0.888710    3.362856
    105          1           0      -13.196869    1.593437    1.839437
    106          1           0      -19.491035    0.090428   -2.229218
    107          1           0      -20.221164   -1.188477   -0.102873
 ---------------------------------------------------------------------
 Rotational constants (GHZ):           0.0998709           0.0034388           0.0034010
 Leave Link  202 at Fri Jul 24 02:15:06 2020, MaxMem=  4026531840 cpu:               0.1 elap:               0.0
 (Enter /opt/ohpc/pub/libs/gaussian/g16-A.03/sandybridge/g16/l301.exe)
 Standard basis: CC-pVDZ (5D, 7F)
 Ernie: Thresh=  0.10000D-02 Tol=  0.10000D-05 Strict=F.
 Ernie:  190 primitive shells out of 1950 were deleted.
 There are  1305 symmetry adapted cartesian basis functions of A   symmetry.
 There are  1230 symmetry adapted basis functions of A   symmetry.
  1230 basis functions,  2889 primitive gaussians,  1305 cartesian basis functions
   286 alpha electrons      286 beta electrons
       nuclear repulsion energy     11142.6981096784 Hartrees.
 IExCor=32609 DFT=T Ex+Corr=LC-wPBE ExCW=0 ScaHFX=  1.000000
 ScaDFX=  1.000000  0.000000  1.000000  1.000000 ScalE2=  1.000000  1.000000
 IRadAn=      5 IRanWt=     -1 IRanGd=            0 ICorTp=0 IEmpDi=  4
 HFx  wShort=  0.000000 wLong=  0.366100 cFull=  0.000000 cShort=  0.000000 cLong=  1.000000
 DFx  wShort=  0.000000 wLong=  0.366100 cFull=  0.000000 cShort=  0.000000 cLong=  1.000000
 NAtoms=  107 NActive=  107 NUniq=  107 SFac= 1.00D+00 NAtFMM=   60 NAOKFM=T Big=T
 Integral buffers will be    131072 words long.
[...]
  Beta virt. eigenvalues --    1.57781   1.57997   1.58039   1.58384   1.58480
  Beta virt. eigenvalues --    1.59196   1.60112   1.60587   1.60776   1.60842
  Beta virt. eigenvalues --    1.61196   1.61480   1.62069   1.62191   1.62372
  Beta virt. eigenvalues --    1.62495   1.62645   1.62765   1.62934   1.63178
  Beta virt. eigenvalues --    1.63430   1.63543   1.64073   1.64246   1.64653
  Beta virt. eigenvalues --    1.64776   1.65394   1.65705   1.65909   1.66303
  Beta virt. eigenvalues --    1.66578   1.66643   1.66881   1.66922   1.67238
  Beta virt. eigenvalues --    1.67322   1.67814   1.67893   1.68159   1.68428
  Beta virt. eigenvalues --    1.68561   1.68612   1.69001   1.69489   1.69705
  Beta virt. eigenvalues --    1.69831   1.70125   1.70611   1.70900   1.70999
  Beta virt. eigenvalues --    1.71291   1.71565   1.71715   1.71931   1.72046
  Beta virt. eigenvalues --    1.72190   1.72512   1.72645   1.72848   1.73050
  Beta virt. eigenvalues --    1.73450   1.73573   1.73753   1.73966   1.74075
  Beta virt. eigenvalues --    1.74415   1.74731   1.74945   1.74995   1.75010
  Beta virt. eigenvalues --    1.75403   1.75695   1.75766   1.76162   1.76466
  Beta virt. eigenvalues --    1.76917   1.76990   1.77185   1.77566   1.77748
  Beta virt. eigenvalues --    1.77804   1.78122   1.78251   1.78395   1.78734
  Beta virt. eigenvalues --    1.78883   1.79101   1.79317   1.79499   1.79644
  Beta virt. eigenvalues --    1.80013   1.80877   1.81078   1.81275   1.81416
  Beta virt. eigenvalues --    1.81718   1.82131   1.82491   1.82844   1.83582
  Beta virt. eigenvalues --    1.83911   1.84140   1.84352   1.84740   1.84863
  Beta virt. eigenvalues --    1.85190   1.85507   1.85670   1.85790   1.85933
  Beta virt. eigenvalues --    1.86156   1.86302   1.86435   1.86576   1.86677
  Beta virt. eigenvalues --    1.86969   1.87324   1.87605   1.88473   1.88763
  Beta virt. eigenvalues --    1.89343   1.90041   1.90699   1.90761   1.91110
  Beta virt. eigenvalues --    1.91129   1.92038   1.92441   1.92666   1.93026
  Beta virt. eigenvalues --    1.93558   1.93714   1.93818   1.94295   1.94763
  Beta virt. eigenvalues --    1.94954   1.95381   1.95732   1.96153   1.96428
  Beta virt. eigenvalues --    1.96558   1.96690   1.96940   1.97204   1.97416
  Beta virt. eigenvalues --    1.97577   1.97728   1.97775   1.98095   1.98357
  Beta virt. eigenvalues --    1.98892   1.99432   1.99475   1.99572   1.99912
  Beta virt. eigenvalues --    2.00327   2.00397   2.01124   2.01776   2.02061
  Beta virt. eigenvalues --    2.02196   2.02601   2.03073   2.03293   2.04573
  Beta virt. eigenvalues --    2.04733   2.04962   2.05420   2.05557   2.06062
  Beta virt. eigenvalues --    2.06126   2.06299   2.07100   2.07530   2.07730
  Beta virt. eigenvalues --    2.08549   2.09236   2.09744   2.10303   2.11037
  Beta virt. eigenvalues --    2.11232   2.11543   2.13187   2.13531   2.13714
  Beta virt. eigenvalues --    2.13835   2.14084   2.14324   2.14719   2.14998
  Beta virt. eigenvalues --    2.15147   2.15724   2.15754   2.15996   2.16001
  Beta virt. eigenvalues --    2.16345   2.16445   2.17070   2.17742   2.18620
  Beta virt. eigenvalues --    2.18851   2.19251   2.19487   2.19595   2.19920
  Beta virt. eigenvalues --    2.21389   2.21543   2.21688   2.21859   2.23108
  Beta virt. eigenvalues --    2.23528   2.24210   2.24555   2.24978   2.26184
  Beta virt. eigenvalues --    2.27286   2.27431   2.27614   2.27647   2.29137
  Beta virt. eigenvalues --    2.29656   2.29945   2.30158   2.30655   2.30794
  Beta virt. eigenvalues --    2.30829   2.31002   2.31375   2.32079   2.32713
  Beta virt. eigenvalues --    2.33126   2.33268   2.33869   2.35442   2.35816
  Beta virt. eigenvalues --    2.36179   2.36449   2.36869   2.37283   2.37679
  Beta virt. eigenvalues --    2.38461   2.39310   2.39627   2.40323   2.40873
  Beta virt. eigenvalues --    2.41208   2.41594   2.43434   2.44413   2.44802
  Beta virt. eigenvalues --    2.45299   2.46314   2.46499   2.47557   2.47972
  Beta virt. eigenvalues --    2.48560   2.48583   2.48726   2.48850   2.48973
  Beta virt. eigenvalues --    2.49141   2.49248   2.52158   2.52433   2.52697
  Beta virt. eigenvalues --    2.53346   2.53508   2.54116   2.54500   2.54854
  Beta virt. eigenvalues --    2.55244   2.55251   2.55350   2.55395   2.57035
  Beta virt. eigenvalues --    2.57696   2.58069   2.58231   2.58600   2.59270
  Beta virt. eigenvalues --    2.59460   2.59680   2.60075   2.60335   2.62547
  Beta virt. eigenvalues --    2.62717   2.62809   2.63146   2.63278   2.64232
  Beta virt. eigenvalues --    2.65518   2.65842   2.66040   2.66365   2.66873
  Beta virt. eigenvalues --    2.67270   2.67820   2.68219   2.69551   2.70544
  Beta virt. eigenvalues --    2.71230   2.72388   2.73164   2.74408   2.77232
  Beta virt. eigenvalues --    2.78057   2.78115   2.78335   2.78530   2.79142
  Beta virt. eigenvalues --    2.80316   2.80534   2.81086   2.83903   2.87486
  Beta virt. eigenvalues --    2.88797   2.89439   2.89901   2.90392   2.96845
  Beta virt. eigenvalues --    2.96866   2.97078   2.97679   2.97812   3.05930
  Beta virt. eigenvalues --    3.06884   3.07369   3.07928   3.10878   3.11598
  Beta virt. eigenvalues --    3.11651   3.11918   3.12070   3.12321   3.13491
  Beta virt. eigenvalues --    3.13709   3.13918   3.14452   3.14796   3.29438
  Beta virt. eigenvalues --    3.29677   3.30026   3.30468   3.34561   3.49167
  Beta virt. eigenvalues --    3.49515   3.49723   3.50073   3.50174   3.59105
  Beta virt. eigenvalues --    3.59244   3.59389   3.59726   3.62048   3.65739
  Beta virt. eigenvalues --    3.65907   3.66713   3.66773   3.66776   3.66883
  Beta virt. eigenvalues --    3.67022   3.67061   3.67083   3.67275   3.68264
  Beta virt. eigenvalues --    3.68362   3.68408   3.68447   3.68503   3.70948
  Beta virt. eigenvalues --    3.71140   3.71621   3.71752   3.71956   3.85287
  Beta virt. eigenvalues --    3.85493   3.86062   3.86100   3.86256   3.87337
  Beta virt. eigenvalues --    3.87406   3.87445   3.87452   3.87709   4.06410
  Beta virt. eigenvalues --    4.06629   4.06816   4.06908   4.07046   4.09163
  Beta virt. eigenvalues --    4.09373   4.09402   4.09691   4.09854   4.26466
  Beta virt. eigenvalues --    4.26795   4.26870   4.27098   4.27725   4.29368
  Beta virt. eigenvalues --    4.29993   4.30959   4.30981   4.31044
          Condensed to atoms (all electrons):
          Atomic-Atomic Spin Densities.
 Mulliken charges and spin densities:
               1          2
     1  C    0.027670   0.000000
     2  C   -0.012540  -0.000000
     3  C    0.119682   0.000000
     4  F   -0.117555  -0.000000
     5  C   -0.064735  -0.000000
     6  C    0.126066   0.000000
     7  O   -0.241588  -0.000000
     8  C    0.045870   0.000000
     9  C   -0.054817  -0.000000
    10  C   -0.174759  -0.000000
    11  C    0.153573   0.000000
    12  F   -0.117517  -0.000000
    13  C    0.009669  -0.000000
    14  C   -0.155775   0.000000
    15  S    0.202981  -0.000000
    16  C    0.055715   0.000000
    17  C   -0.020725  -0.000000
    18  C    0.129264  -0.000000
    19  F   -0.118950  -0.000000
    20  C   -0.059782  -0.000000
    21  C    0.137158   0.000000
    22  O   -0.235691  -0.000000
    23  C    0.047864  -0.000000
    24  C   -0.054474   0.000000
    25  C   -0.183340  -0.000000
    26  C    0.162700   0.000000
    27  F   -0.117657  -0.000000
    28  C    0.012751  -0.000000
    29  C   -0.157013   0.000000
    30  S    0.195528   0.000000
    31  C    0.062128  -0.000000
    32  C   -0.024892   0.000000
    33  C    0.134211  -0.000000
    34  F   -0.117125  -0.000000
    35  C   -0.060950   0.000000
    36  C    0.133434   0.000000
    37  O   -0.236432  -0.000000
    38  C    0.046659  -0.000000
    39  C   -0.056487  -0.000000
    40  C   -0.184432  -0.000000
    41  C    0.162200   0.000000
    42  F   -0.118357   0.000000
    43  C    0.008775   0.000000
    44  C   -0.155307  -0.000000
    45  S    0.205166  -0.000000
    46  C    0.054954   0.000000
    47  C   -0.019419  -0.000000
    48  C    0.125335  -0.000000
    49  F   -0.114118  -0.000000
    50  C   -0.053320   0.000000
    51  C    0.136671  -0.000000
    52  O   -0.241910   0.000000
    53  C    0.047917   0.000000
    54  C   -0.053245  -0.000000
    55  C   -0.179129   0.000000
    56  C    0.150964  -0.000000
    57  F   -0.117131   0.000000
    58  C    0.010645   0.000000
    59  C   -0.154694  -0.000000
    60  S    0.205363   0.000000
    61  C    0.053396   0.000000
    62  C   -0.020390   0.000000
    63  C    0.127276   0.000000
    64  F   -0.114948   0.000000
    65  C   -0.048575  -0.000000
    66  C    0.137275   0.000000
    67  O   -0.240799   0.000000
    68  C    0.047963   0.000000
    69  C   -0.054170   0.000000
    70  C   -0.184575   0.000000
    71  C    0.134823  -0.000000
    72  F   -0.120215   0.000000
    73  C    0.030105   0.000000
    74  C   -0.134688   0.000000
    75  S    0.187673   0.000000
    76  H    0.010861   0.000000
    77  H    0.013945   0.000000
    78  H    0.064888   0.000000
    79  H    0.053391  -0.000000
    80  H    0.052181   0.000000
    81  H    0.005380  -0.000000
    82  H    0.013138  -0.000000
    83  H    0.012472   0.000000
    84  H    0.054570  -0.000000
    85  H    0.065169   0.000000
    86  H    0.052397  -0.000000
    87  H    0.001199   0.000000
    88  H    0.016169  -0.000000
    89  H    0.006968  -0.000000
    90  H    0.063224   0.000000
    91  H    0.054954  -0.000000
    92  H    0.055404  -0.000000
    93  H    0.009458   0.000000
    94  H    0.012199  -0.000000
    95  H    0.016258   0.000000
    96  H    0.065705  -0.000000
    97  H    0.051753   0.000000
    98  H    0.055634   0.000000
    99  H   -0.000899   0.000000
   100  H    0.012270   0.000000
   101  H    0.012200  -0.000000
   102  H    0.064855  -0.000000
   103  H    0.056237  -0.000000
   104  H    0.051003  -0.000000
   105  H    0.000012   0.000000
   106  H    0.017479  -0.000000
   107  H    0.042328   0.000000
 Sum of Mulliken charges =  -0.00000   0.00000
 Mulliken charges and spin densities with hydrogens summed into heavy atoms:
               1          2
     1  C    0.038532   0.000000
     2  C    0.001406  -0.000000
     3  C    0.119682   0.000000
     4  F   -0.117555  -0.000000
     5  C   -0.064735  -0.000000
     6  C    0.126066   0.000000
     7  O   -0.241588  -0.000000
     8  C    0.216330   0.000000
     9  C   -0.049437  -0.000000
    10  C   -0.174759  -0.000000
    11  C    0.153573   0.000000
    12  F   -0.117517  -0.000000
    13  C    0.022807  -0.000000
    14  C   -0.155775   0.000000
    15  S    0.202981  -0.000000
    16  C    0.055715   0.000000
    17  C   -0.008253  -0.000000
    18  C    0.129264  -0.000000
    19  F   -0.118950  -0.000000
    20  C   -0.059782  -0.000000
    21  C    0.137158   0.000000
    22  O   -0.235691  -0.000000
    23  C    0.219999  -0.000000
    24  C   -0.053276   0.000000
    25  C   -0.183340  -0.000000
    26  C    0.162700   0.000000
    27  F   -0.117657  -0.000000
    28  C    0.028921  -0.000000
    29  C   -0.157013   0.000000
    30  S    0.195528   0.000000
    31  C    0.062128  -0.000000
    32  C   -0.017924   0.000000
    33  C    0.134211  -0.000000
    34  F   -0.117125  -0.000000
    35  C   -0.060950   0.000000
    36  C    0.133434   0.000000
    37  O   -0.236432  -0.000000
    38  C    0.220241  -0.000000
    39  C   -0.047029  -0.000000
    40  C   -0.184432  -0.000000
    41  C    0.162200   0.000000
    42  F   -0.118357   0.000000
    43  C    0.020974   0.000000
    44  C   -0.155307  -0.000000
    45  S    0.205166  -0.000000
    46  C    0.054954   0.000000
    47  C   -0.003161  -0.000000
    48  C    0.125335  -0.000000
    49  F   -0.114118  -0.000000
    50  C   -0.053320   0.000000
    51  C    0.136671  -0.000000
    52  O   -0.241910   0.000000
    53  C    0.221009   0.000000
    54  C   -0.054143  -0.000000
    55  C   -0.179129   0.000000
    56  C    0.150964  -0.000000
    57  F   -0.117131   0.000000
    58  C    0.022916   0.000000
    59  C   -0.154694  -0.000000
    60  S    0.205363   0.000000
    61  C    0.053396   0.000000
    62  C   -0.008191   0.000000
    63  C    0.127276   0.000000
    64  F   -0.114948   0.000000
    65  C   -0.048575  -0.000000
    66  C    0.137275   0.000000
    67  O   -0.240799   0.000000
    68  C    0.220058   0.000000
    69  C   -0.054158   0.000000
    70  C   -0.184575   0.000000
    71  C    0.134823  -0.000000
    72  F   -0.120215   0.000000
    73  C    0.047584   0.000000
    74  C   -0.092360   0.000000
    75  S    0.187673   0.000000
 Electronic spatial extent (au):  <R**2>=         281161.3514
 Charge=              0.0000 electrons
 Dipole moment (field-independent basis, Debye):
    X=              3.2973    Y=             -2.9907    Z=              2.0526  Tot=              4.9020
 Quadrupole moment (field-independent basis, Debye-Ang):
   XX=           -370.2101   YY=           -404.1012   ZZ=           -450.9907
   XY=            -52.4407   XZ=             -2.1799   YZ=            -12.0578
 Traceless Quadrupole moment (field-independent basis, Debye-Ang):
   XX=             38.2239   YY=              4.3328   ZZ=            -42.5567
   XY=            -52.4407   XZ=             -2.1799   YZ=            -12.0578
 Octapole moment (field-independent basis, Debye-Ang**2):
  XXX=            130.1133  YYY=             -7.1443  ZZZ=              3.2254  XYY=            196.2559
  XXY=           -301.1531  XXZ=            557.8692  XZZ=            100.5846  YZZ=             -1.6348
  YYZ=             14.2628  XYZ=           -284.4573
 Hexadecapole moment (field-independent basis, Debye-Ang**3):
 XXXX=        -308846.1825 YYYY=          -8071.9140 ZZZZ=          -2903.7989 XXXY=         -20418.5975
 XXXZ=            875.1714 YYYX=           -151.8231 YYYZ=           -219.9323 ZZZX=            323.7432
 ZZZY=            -45.0181 XXYY=         -54613.2733 XXZZ=         -58990.2512 YYZZ=          -1804.5849
 XXYZ=          -1473.7781 YYXZ=            110.5657 ZZXY=           -222.6606
 N-N= 1.115234570748D+04 E-N=-3.520697493766D+04  KE= 5.452393296403D+03
 Leave Link  601 at Fri Jul 24 09:54:34 2020, MaxMem=  4026531840 cpu:              10.9 elap:               1.5
 (Enter /opt/ohpc/pub/libs/gaussian/g16-A.03/sandybridge/g16/l9999.exe)

 Test job not archived.
 1\1\GINC-SKYLAKE048\FOpt\ULC-wPBE\CC-pVDZ\C55H32F10O5S5\RDU230\24-Jul-
 2020\0\\#P uLC-wPBE/cc-pVDZ iop(3/107=0366100000, 3/108=0366100000) op
 t\\H32 C55 S5 O5 F10\\0,1\C,18.5464197433,-2.9415502674,-0.8108395256\
 C,18.3807924112,-1.7868840239,-1.5570184147\C,17.2523494089,-1.0149330
 116,-1.323004885\F,17.0789014049,0.0928057446,-2.0569271957\C,16.29000
 83337,-1.3390130186,-0.3723098362\C,16.4850365027,-2.5250585221,0.3641
 599376\O,15.5187205676,-2.8096354892,1.2658470784\C,15.6487051581,-3.9
 820665976,2.0401694038\C,17.6079810187,-3.3207442427,0.1456616789\C,15
 .1275875117,-0.4625792454,-0.1598544574\C,15.1331457879,0.8915284096,0
 .0164384041\F,16.2565595028,1.6122838504,0.0882433054\C,13.8559665386,
 1.4920164441,0.1390274377\C,12.8557289447,0.5631992083,0.0542561108\S,
 13.4924595276,-1.0235087398,-0.1752619514\C,11.4029074718,0.7913960463
 ,0.149969993\C,10.5657009343,-0.1686563929,0.7113349755\C,9.2094029853
 ,0.0982232262,0.7882672189\F,8.4142729705,-0.8327673073,1.3393533746\C
 ,8.628841702,1.2775350944,0.3392977511\C,9.492368287,2.2320057573,-0.2
 381224137\O,8.8956333257,3.3496619485,-0.6979328956\C,9.7049018763,4.3
 666301231,-1.2477381862\C,10.860519405,1.9893167141,-0.3282515568\C,7.
 1848282728,1.5260941953,0.4593418944\C,6.5619832887,2.6098226891,1.008
 253102\F,7.2242187507,3.6210524969,1.5777021065\C,5.1464694043,2.58407
 38908,0.9563612219\C,4.6858597068,1.4464305798,0.3531262922\S,5.990466
 8093,0.4353682113,-0.1500421657\C,3.2849517147,1.0509557175,0.12399290
 42\C,2.318212904,2.0280768735,-0.0966058303\C,1.0084498819,1.629661471
 3,-0.300809584\F,0.0869463449,2.5809238448,-0.5178488138\C,0.597950053
 2,0.3020028027,-0.3069375864\C,1.5910678126,-0.6718093308,-0.075176024
 8\O,1.1591394175,-1.9484141541,-0.0540472571\C,2.1106143331,-2.9763738
 322,0.1202230843\C,2.916301308,-0.2984909403,0.1347267014\C,-0.8026413
 759,-0.0748967201,-0.5474281802\C,-1.2875504955,-0.9703022934,-1.45678
 82239\F,-0.5096060971,-1.624523545,-2.3245740102\C,-2.6927149427,-1.14
 88218536,-1.437929367\C,-3.2870190137,-0.3634405659,-0.4885338795\S,-2
 .117967806,0.5700483538,0.369697428\C,-4.7223136253,-0.2580862962,-0.1
 716406998\C,-5.2709748072,0.9449556819,0.2606557681\C,-6.6265125889,0.
 996787457,0.5423249647\F,-7.1400667887,2.1704325213,0.9321105456\C,-7.
 4787479118,-0.0952208968,0.4224299213\C,-6.9032718313,-1.3011181891,-0
 .0276656986\O,-7.7594480739,-2.3398852371,-0.1423830069\C,-7.257162441
 2,-3.5805687456,-0.5902073543\C,-5.5444843954,-1.381976004,-0.31460282
 11\C,-8.9045949893,0.0247350685,0.7586636509\C,-9.4461516818,0.5896963
 927,1.8782810845\F,-8.7069093715,1.0628184005,2.8863381702\C,-10.86160
 88163,0.6253676582,1.9147157117\C,-11.4058160704,0.0686366652,0.790212
 2413\S,-10.181134293,-0.4853675861,-0.2904778204\C,-12.834038978,-0.09
 24214777,0.4641203028\C,-13.2810605872,-1.1908019831,-0.2629561035\C,-
 14.6344105236,-1.3023621815,-0.5387832388\F,-15.0471591671,-2.38037743
 02,-1.2179934148\C,-15.5810232574,-0.3691479091,-0.1324433047\C,-15.10
 66845541,0.7315982529,0.6097242313\O,-16.0519321114,1.6165545372,0.995
 153792\C,-15.6522566316,2.7464266086,1.7403826772\C,-13.7528110443,0.8
 697524705,0.8991371094\C,-17.0003671306,-0.5402455013,-0.4771953525\C,
 -17.5212095165,-0.8305783504,-1.7060607136\F,-16.7707329434,-0.9408875
 548,-2.8071818924\C,-18.9303515749,-0.9991473327,-1.7419614588\C,-19.4
 686321046,-0.8301754763,-0.5027472481\S,-18.2847143354,-0.4639699672,0
 .6792786259\H,19.4251334515,-3.5694716452,-0.974523557\H,19.0960785545
 ,-1.4705651378,-2.3166103994\H,14.767686432,-4.0126943597,2.6926540053
 \H,16.5587959831,-3.9565276682,2.6627045661\H,15.6629364558,-4.8860323
 652,1.4082048431\H,17.7623248003,-4.2349136052,0.7175895321\H,13.70802
 01754,2.5558752282,0.3200199047\H,10.9459015642,-1.1073042881,1.116052
 9736\H,10.2366788232,4.019467366,-2.1495387754\H,9.0221334675,5.179075
 4882,-1.5237659371\H,10.4357236009,4.7425150063,-0.5123349431\H,11.520
 4206539,2.71457055,-0.8019249722\H,4.5155000246,3.3622771638,1.3839598
 308\H,2.564535639,3.0887996736,-0.143182817\H,1.5499276848,-3.91748076
 58,0.0709919119\H,2.6109342935,-2.9047404727,1.1005722475\H,2.86896927
 27,-2.9642922422,-0.6802342743\H,3.6747416931,-1.0534164408,0.34024467
 71\H,-3.2235109471,-1.8016723277,-2.1297561032\H,-4.6761213734,1.85403
 14829,0.3578648922\H,-8.1161052027,-4.2617969997,-0.6173750121\H,-6.82
 55038886,-3.5011138186,-1.6020866068\H,-6.4982977808,-3.9826512068,0.1
 016799929\H,-5.0993147104,-2.3264695827,-0.6236857131\H,-11.4304867036
 ,1.0125761915,2.759009949\H,-12.6065058644,-1.9794770462,-0.5983954806
 \H,-16.569242422,3.3112700995,1.9471027301\H,-14.9565970005,3.38277947
 11,1.1682024064\H,-15.1822876672,2.4565634663,2.6952612626\H,-13.38796
 19149,1.7419121975,1.4395894862\H,-19.4893740706,-1.2274030497,-2.6483
 249171\H,-20.5188004693,-0.8892325573,-0.2208415353\\Version=EM64L-G16
 RevA.03\State=1-A\HF=-5477.714175\S2=0.\S2-1=0.\S2A=0.\RMSD=5.646e-09\
 RMSF=2.190e-06\Dipole=1.2994577,-1.3012785,0.5809923\Quadrupole=28.433
 2923,5.2085537,-33.6418461,-38.0573667,-8.7099338,-2.1723355\PG=C01 [X
 (C55H32F10O5S5)]\\@


 EVERYTHING'S GOT A MORAL, IF ONLY YOU CAN FIND IT.

                                    -- LEWIS CARROL, ALICE IN WONDERLAND
 Job cpu time:       2 days 12 hours 12 minutes 25.3 seconds.
 Elapsed time:       0 days  7 hours 39 minutes 23.9 seconds.
 File lengths (MBytes):  RWF=   1704 Int=      0 D2E=      0 Chk=    152 Scr=      8
 Normal termination of Gaussian 16 at Fri Jul 24 09:54:34 2020.
