 Entering Gaussian System, Link 0=g16
 Input=mols_65_7_21_n-cF-N_opt_0.gjf
 Output=mols_65_7_21_n-cF-N_opt_0.log
 Initial command:
 /opt/ohpc/pub/libs/gaussian/g16-A.03/sandybridge/g16/l1.exe "/mnt/gpfs2_4m/scratch/rdu230/ondemand/projects/dihedral_energies/7trial/wtuning/mols_65_7_21_n-cF-N/Gau-201112.inp" -scrdir="/mnt/gpfs2_4m/scratch/rdu230/ondemand/projects/dihedral_energies/7trial/wtuning/mols_65_7_21_n-cF-N/"
 Entering Link 1 = /opt/ohpc/pub/libs/gaussian/g16-A.03/sandybridge/g16/l1.exe PID=    201113.
  
 Copyright (c) 1988,1990,1992,1993,1995,1998,2003,2009,2016,
            Gaussian, Inc.  All Rights Reserved.
  
 This is part of the Gaussian(R) 16 program.  It is based on
 the Gaussian(R) 09 system (copyright 2009, Gaussian, Inc.),
 the Gaussian(R) 03 system (copyright 2003, Gaussian, Inc.),
 the Gaussian(R) 98 system (copyright 1998, Gaussian, Inc.),
 the Gaussian(R) 94 system (copyright 1995, Gaussian, Inc.),
 the Gaussian 92(TM) system (copyright 1992, Gaussian, Inc.),
 the Gaussian 90(TM) system (copyright 1990, Gaussian, Inc.),
 the Gaussian 88(TM) system (copyright 1988, Gaussian, Inc.),
 the Gaussian 86(TM) system (copyright 1986, Carnegie Mellon
 University), and the Gaussian 82(TM) system (copyright 1983,
 Carnegie Mellon University). Gaussian is a federally registered
 trademark of Gaussian, Inc.
  
 This software contains proprietary and confidential information,
 including trade secrets, belonging to Gaussian, Inc.
  
 This software is provided under written license and may be
 used, copied, transmitted, or stored only in accord with that
 written license.
  
 The following legend is applicable only to US Government
 contracts under FAR:
  
                    RESTRICTED RIGHTS LEGEND
  
 Use, reproduction and disclosure by the US Government is
 subject to restrictions as set forth in subparagraphs (a)
 and (c) of the Commercial Computer Software - Restricted
 Rights clause in FAR 52.227-19.
  
 Gaussian, Inc.
 340 Quinnipiac St., Bldg. 40, Wallingford CT 06492
  
  
 ---------------------------------------------------------------
 Warning -- This program may not be used in any manner that
 competes with the business of Gaussian, Inc. or will provide
 assistance to any competitor of Gaussian, Inc.  The licensee
 of this program is prohibited from giving any competitor of
 Gaussian, Inc. access to this program.  By using this program,
 the user acknowledges that Gaussian, Inc. is engaged in the
 business of creating and licensing software in the field of
 computational chemistry and represents and warrants to the
 licensee that it is not a competitor of Gaussian, Inc. and that
 it will not use this program in any manner prohibited above.
 ---------------------------------------------------------------
  

 Cite this work as:
 Gaussian 16, Revision A.03,
 M. J. Frisch, G. W. Trucks, H. B. Schlegel, G. E. Scuseria, 
 M. A. Robb, J. R. Cheeseman, G. Scalmani, V. Barone, 
 G. A. Petersson, H. Nakatsuji, X. Li, M. Caricato, A. V. Marenich, 
 J. Bloino, B. G. Janesko, R. Gomperts, B. Mennucci, H. P. Hratchian, 
 J. V. Ortiz, A. F. Izmaylov, J. L. Sonnenberg, D. Williams-Young, 
 F. Ding, F. Lipparini, F. Egidi, J. Goings, B. Peng, A. Petrone, 
 T. Henderson, D. Ranasinghe, V. G. Zakrzewski, J. Gao, N. Rega, 
 G. Zheng, W. Liang, M. Hada, M. Ehara, K. Toyota, R. Fukuda, 
 J. Hasegawa, M. Ishida, T. Nakajima, Y. Honda, O. Kitao, H. Nakai, 
 T. Vreven, K. Throssell, J. A. Montgomery, Jr., J. E. Peralta, 
 F. Ogliaro, M. J. Bearpark, J. J. Heyd, E. N. Brothers, K. N. Kudin, 
 V. N. Staroverov, T. A. Keith, R. Kobayashi, J. Normand, 
 K. Raghavachari, A. P. Rendell, J. C. Burant, S. S. Iyengar, 
 J. Tomasi, M. Cossi, J. M. Millam, M. Klene, C. Adamo, R. Cammi, 
 J. W. Ochterski, R. L. Martin, K. Morokuma, O. Farkas, 
 J. B. Foresman, and D. J. Fox, Gaussian, Inc., Wallingford CT, 2016.
 
 ******************************************
 Gaussian 16:  EM64L-G16RevA.03 25-Dec-2016
                25-Jul-2020 
 ******************************************
 %mem=30GB
 %nproc=8
 Will use up to    8 processors via shared memory.
 ---------------------------------------------------------------
 #P uLC-wPBE/cc-pVDZ iop(3/107=0163300000, 3/108=0163300000) opt
 ---------------------------------------------------------------
 1/18=20,19=15,26=3,38=1/1,3;
 2/9=110,12=2,17=6,18=5,40=1/2;
 3/5=16,11=2,25=1,30=1,71=1,74=-41,107=163300000,108=163300000,116=2/1,2,3;
 4//1;
 5/5=2,38=5/2;
 6/7=2,8=2,9=2,10=2,28=1/1;
 7//1,2,3,16;
 1/18=20,19=15,26=3/3(2);
 2/9=110/2;
 99//99;
 2/9=110/2;
 3/5=16,11=2,25=1,30=1,71=1,74=-41,107=163300000,108=163300000,116=2/1,2,3;
 4/5=5,16=3,69=1/1;
 5/5=2,38=5/2;
 7//1,2,3,16;
 1/18=20,19=15,26=3/3(-5);
 2/9=110/2;
 6/7=2,8=2,9=2,10=2,19=2,28=1/1;
 99/9=1/99;
 Leave Link    1 at Sat Jul 25 16:03:08 2020, MaxMem=  4026531840 cpu:               1.4 elap:               0.2
 (Enter /opt/ohpc/pub/libs/gaussian/g16-A.03/sandybridge/g16/l101.exe)
 -----------------
 H23 C56 S7 N14 F7
 -----------------
 Symbolic Z-matrix:
 Charge =  0 Multiplicity = 1
 C                    -26.08154  -3.95211   1.36729 
 C                    -24.83205  -4.32749   1.82347 
 N                    -23.64299  -3.81598   1.33891 
 C                    -23.69996  -2.84057   0.43639 
 C                    -24.92755  -2.34923  -0.07122 
 F                    -25.05385  -1.43868  -0.96336 
 C                    -26.10115  -3.0221    0.39678 
 C                    -22.44959  -2.16198  -0.04483 
 N                    -22.3021  -1.39499  -1.13153 
 C                    -20.97455  -1.00801  -1.26507 
 C                    -20.13365  -1.48386  -0.29462 
 S                    -20.99869  -2.55514   0.80359 
 C                    -18.6649  -1.24382  -0.16111 
 C                    -17.83659  -2.30349   0.20885 
 N                    -16.46979  -2.07388   0.39254 
 C                    -15.95708  -0.83127   0.09232 
 C                    -16.77775   0.17982  -0.30965 
 F                    -16.3291   1.45707  -0.45872 
 C                    -18.18349  -0.0026   -0.40879 
 C                    -14.52832  -0.71117   0.34899 
 N                    -13.84509  -1.39195   1.23891 
 C                    -12.44165  -1.05416   1.12852 
 C                    -12.1023  -0.20171   0.12796 
 S                    -13.56315   0.31536  -0.65029 
 C                    -10.79277   0.32949  -0.14852 
 C                    -10.62104   1.74339  -0.41261 
 N                    -9.38624   2.21206  -0.77814 
 C                    -8.34445   1.37747  -0.87135 
 C                    -8.46425   0.08107  -0.64416 
 F                    -7.36911  -0.81883  -0.75179 
 C                    -9.67139  -0.44942  -0.29899 
 C                    -7.06498   2.02299  -1.22324 
 N                    -6.89029   3.00747  -2.08444 
 C                    -5.58557   3.37476  -2.20111 
 C                    -4.69056   2.80249  -1.2348 
 S                    -5.63961   1.62477  -0.27784 
 C                    -3.31932   2.94411  -1.05645 
 C                    -2.43847   1.94648  -0.77049 
 N                    -1.02702   2.0354   -0.57886 
 C                    -0.56346   3.25444  -0.62029 
 C                    -1.34362   4.37377  -0.85007 
 F                    -0.83754   5.65161  -0.997 
 C                    -2.67077   4.25833  -1.1244 
 C                     0.85764   3.40374  -0.37715 
 N                     1.55052   4.59616  -0.26212 
 C                     2.9291    4.33467  -0.07777 
 C                     3.27448   3.04224   0.06964 
 S                     1.88609   2.01165  -0.17549 
 C                     4.63473   2.38605   0.36013 
 C                     5.01157   1.21754  -0.15893 
 N                     6.2163    0.5658    0.01366 
 C                     7.09065   1.28536   0.81411 
 C                     6.69474   2.48775   1.4586 
 F                     7.56172   3.12826   2.27077 
 C                     5.44745   3.05025   1.21068 
 C                     8.37092   0.61703   1.05132 
 N                     8.50809  -0.73983   1.37411 
 C                     9.82796  -1.07331   1.48006 
 C                     10.70114  -0.03741   1.21246 
 S                     9.83628   1.47981   0.86328 
 C                     12.15218  -0.05374   1.24633 
 C                     12.91836  -1.07765   0.63985 
 N                     14.25108  -1.19028   0.58605 
 C                     14.91811  -0.22603   1.19727 
 C                     14.33346   0.96437   1.77552 
 F                     15.08943   1.9384    2.3003 
 C                     12.92003   0.99937   1.75147 
 C                     16.43461  -0.38364   1.21066 
 N                     17.27988   0.20009   2.03572 
 C                     18.54769  -0.13472   1.79708 
 C                     18.7335  -1.00283   0.73372 
 S                     17.17405  -1.34637   0.05989 
 C                     19.95644  -1.54039   0.079 
 C                     21.13702  -0.80156   0.20077 
 N                     22.3674  -1.32513  -0.31467 
 C                     22.35928  -2.48347  -0.90632 
 C                     21.26299  -3.33378  -0.99269 
 F                     21.26097  -4.56788  -1.5373 
 C                     19.98523  -2.84503  -0.44618 
 C                     23.72439  -2.96617  -1.41342 
 N                     23.86278  -4.09393  -2.01065 
 C                     25.22873  -4.25643  -2.43738 
 C                     26.01781  -3.17051  -2.00125 
 S                     25.06602  -2.0488   -1.15759 
 H                    -26.92987  -4.50789   1.74657 
 H                    -24.66221  -5.06851   2.57976 
 H                    -27.12926  -2.63644  -0.0136 
 H                    -20.737   -0.42411  -2.03792 
 H                    -18.16627  -3.32371   0.4112 
 H                    -18.7569   0.76793  -0.72298 
 H                    -11.81392  -1.55128   1.82474 
 H                    -11.43789   2.44645  -0.39184 
 H                    -9.80475  -1.51714  -0.13372 
 H                    -5.26154   4.14791  -2.83459 
 H                    -2.79418   0.90647  -0.71123 
 H                    -3.27023   5.10144  -1.30047 
 H                     3.58077   5.15663  -0.0008 
 H                     4.37996   0.66615  -0.84791 
 H                     5.27218   4.02075   1.6781 
 H                     10.04706  -2.03031   1.71446 
 H                     12.35887  -1.87076   0.20122 
 H                     12.46943   1.89622   2.2239 
 H                     19.37684   0.24324   2.39928 
 H                     21.25125   0.15428   0.61876 
 H                     19.13916  -3.45311  -0.5855 
 H                     25.49622  -5.09642  -2.94212 
 H                     27.06775  -3.13828  -2.12038 
 
 ITRead=  0  0  0  0  0  0  0  0  0  0  0  0  0  0  0  0  0  0  0  0
 ITRead=  0  0  0  0  0  0  0  0  0  0  0  0  0  0  0  0  0  0  0  0
 ITRead=  0  0  0  0  0  0  0  0  0  0  0  0  0  0  0  0  0  0  0  0
 ITRead=  0  0  0  0  0  0  0  0  0  0  0  0  0  0  0  0  0  0  0  0
 ITRead=  0  0  0  0  0  0  0  0  0  0  0  0  0  0  0  0  0  0  0  0
 ITRead=  0  0  0  0  0  0  0
 MicOpt= -1 -1 -1 -1 -1 -1 -1 -1 -1 -1 -1 -1 -1 -1 -1 -1 -1 -1 -1 -1
 MicOpt= -1 -1 -1 -1 -1 -1 -1 -1 -1 -1 -1 -1 -1 -1 -1 -1 -1 -1 -1 -1
 MicOpt= -1 -1 -1 -1 -1 -1 -1 -1 -1 -1 -1 -1 -1 -1 -1 -1 -1 -1 -1 -1
 MicOpt= -1 -1 -1 -1 -1 -1 -1 -1 -1 -1 -1 -1 -1 -1 -1 -1 -1 -1 -1 -1
 MicOpt= -1 -1 -1 -1 -1 -1 -1 -1 -1 -1 -1 -1 -1 -1 -1 -1 -1 -1 -1 -1
 MicOpt= -1 -1 -1 -1 -1 -1 -1
 NAtoms=    107 NQM=      107 NQMF=       0 NMMI=      0 NMMIF=      0
                NMic=       0 NMicF=      0.
                    Isotopes and Nuclear Properties:
 (Nuclear quadrupole moments (NQMom) in fm**2, nuclear magnetic moments (NMagM)
  in nuclear magnetons)

  Atom         1           2           3           4           5           6           7           8           9          10
 IAtWgt=          12          12          14          12          12          19          12          12          14          12
 AtmWgt=  12.0000000  12.0000000  14.0030740  12.0000000  12.0000000  18.9984033  12.0000000  12.0000000  14.0030740  12.0000000
 NucSpn=           0           0           2           0           0           1           0           0           2           0
 AtZEff=  -0.0000000  -0.0000000  -0.0000000  -0.0000000  -0.0000000  -0.0000000  -0.0000000  -0.0000000  -0.0000000  -0.0000000
 NQMom=    0.0000000   0.0000000   2.0440000   0.0000000   0.0000000   0.0000000   0.0000000   0.0000000   2.0440000   0.0000000
 NMagM=    0.0000000   0.0000000   0.4037610   0.0000000   0.0000000   2.6288670   0.0000000   0.0000000   0.4037610   0.0000000
 AtZNuc=   6.0000000   6.0000000   7.0000000   6.0000000   6.0000000   9.0000000   6.0000000   6.0000000   7.0000000   6.0000000

  Atom        11          12          13          14          15          16          17          18          19          20
 IAtWgt=          12          32          12          12          14          12          12          19          12          12
 AtmWgt=  12.0000000  31.9720718  12.0000000  12.0000000  14.0030740  12.0000000  12.0000000  18.9984033  12.0000000  12.0000000
 NucSpn=           0           0           0           0           2           0           0           1           0           0
 AtZEff=  -0.0000000  -0.0000000  -0.0000000  -0.0000000  -0.0000000  -0.0000000  -0.0000000  -0.0000000  -0.0000000  -0.0000000
 NQMom=    0.0000000   0.0000000   0.0000000   0.0000000   2.0440000   0.0000000   0.0000000   0.0000000   0.0000000   0.0000000
 NMagM=    0.0000000   0.0000000   0.0000000   0.0000000   0.4037610   0.0000000   0.0000000   2.6288670   0.0000000   0.0000000
 AtZNuc=   6.0000000  16.0000000   6.0000000   6.0000000   7.0000000   6.0000000   6.0000000   9.0000000   6.0000000   6.0000000

  Atom        21          22          23          24          25          26          27          28          29          30
 IAtWgt=          14          12          12          32          12          12          14          12          12          19
 AtmWgt=  14.0030740  12.0000000  12.0000000  31.9720718  12.0000000  12.0000000  14.0030740  12.0000000  12.0000000  18.9984033
 NucSpn=           2           0           0           0           0           0           2           0           0           1
 AtZEff=  -0.0000000  -0.0000000  -0.0000000  -0.0000000  -0.0000000  -0.0000000  -0.0000000  -0.0000000  -0.0000000  -0.0000000
 NQMom=    2.0440000   0.0000000   0.0000000   0.0000000   0.0000000   0.0000000   2.0440000   0.0000000   0.0000000   0.0000000
 NMagM=    0.4037610   0.0000000   0.0000000   0.0000000   0.0000000   0.0000000   0.4037610   0.0000000   0.0000000   2.6288670
 AtZNuc=   7.0000000   6.0000000   6.0000000  16.0000000   6.0000000   6.0000000   7.0000000   6.0000000   6.0000000   9.0000000

  Atom        31          32          33          34          35          36          37          38          39          40
 IAtWgt=          12          12          14          12          12          32          12          12          14          12
 AtmWgt=  12.0000000  12.0000000  14.0030740  12.0000000  12.0000000  31.9720718  12.0000000  12.0000000  14.0030740  12.0000000
 NucSpn=           0           0           2           0           0           0           0           0           2           0
 AtZEff=  -0.0000000  -0.0000000  -0.0000000  -0.0000000  -0.0000000  -0.0000000  -0.0000000  -0.0000000  -0.0000000  -0.0000000
 NQMom=    0.0000000   0.0000000   2.0440000   0.0000000   0.0000000   0.0000000   0.0000000   0.0000000   2.0440000   0.0000000
 NMagM=    0.0000000   0.0000000   0.4037610   0.0000000   0.0000000   0.0000000   0.0000000   0.0000000   0.4037610   0.0000000
 AtZNuc=   6.0000000   6.0000000   7.0000000   6.0000000   6.0000000  16.0000000   6.0000000   6.0000000   7.0000000   6.0000000

  Atom        41          42          43          44          45          46          47          48          49          50
 IAtWgt=          12          19          12          12          14          12          12          32          12          12
 AtmWgt=  12.0000000  18.9984033  12.0000000  12.0000000  14.0030740  12.0000000  12.0000000  31.9720718  12.0000000  12.0000000
 NucSpn=           0           1           0           0           2           0           0           0           0           0
 AtZEff=  -0.0000000  -0.0000000  -0.0000000  -0.0000000  -0.0000000  -0.0000000  -0.0000000  -0.0000000  -0.0000000  -0.0000000
 NQMom=    0.0000000   0.0000000   0.0000000   0.0000000   2.0440000   0.0000000   0.0000000   0.0000000   0.0000000   0.0000000
 NMagM=    0.0000000   2.6288670   0.0000000   0.0000000   0.4037610   0.0000000   0.0000000   0.0000000   0.0000000   0.0000000
 AtZNuc=   6.0000000   9.0000000   6.0000000   6.0000000   7.0000000   6.0000000   6.0000000  16.0000000   6.0000000   6.0000000

  Atom        51          52          53          54          55          56          57          58          59          60
 IAtWgt=          14          12          12          19          12          12          14          12          12          32
 AtmWgt=  14.0030740  12.0000000  12.0000000  18.9984033  12.0000000  12.0000000  14.0030740  12.0000000  12.0000000  31.9720718
 NucSpn=           2           0           0           1           0           0           2           0           0           0
 AtZEff=  -0.0000000  -0.0000000  -0.0000000  -0.0000000  -0.0000000  -0.0000000  -0.0000000  -0.0000000  -0.0000000  -0.0000000
 NQMom=    2.0440000   0.0000000   0.0000000   0.0000000   0.0000000   0.0000000   2.0440000   0.0000000   0.0000000   0.0000000
 NMagM=    0.4037610   0.0000000   0.0000000   2.6288670   0.0000000   0.0000000   0.4037610   0.0000000   0.0000000   0.0000000
 AtZNuc=   7.0000000   6.0000000   6.0000000   9.0000000   6.0000000   6.0000000   7.0000000   6.0000000   6.0000000  16.0000000

  Atom        61          62          63          64          65          66          67          68          69          70
 IAtWgt=          12          12          14          12          12          19          12          12          14          12
 AtmWgt=  12.0000000  12.0000000  14.0030740  12.0000000  12.0000000  18.9984033  12.0000000  12.0000000  14.0030740  12.0000000
 NucSpn=           0           0           2           0           0           1           0           0           2           0
 AtZEff=  -0.0000000  -0.0000000  -0.0000000  -0.0000000  -0.0000000  -0.0000000  -0.0000000  -0.0000000  -0.0000000  -0.0000000
 NQMom=    0.0000000   0.0000000   2.0440000   0.0000000   0.0000000   0.0000000   0.0000000   0.0000000   2.0440000   0.0000000
 NMagM=    0.0000000   0.0000000   0.4037610   0.0000000   0.0000000   2.6288670   0.0000000   0.0000000   0.4037610   0.0000000
 AtZNuc=   6.0000000   6.0000000   7.0000000   6.0000000   6.0000000   9.0000000   6.0000000   6.0000000   7.0000000   6.0000000

  Atom        71          72          73          74          75          76          77          78          79          80
 IAtWgt=          12          32          12          12          14          12          12          19          12          12
 AtmWgt=  12.0000000  31.9720718  12.0000000  12.0000000  14.0030740  12.0000000  12.0000000  18.9984033  12.0000000  12.0000000
 NucSpn=           0           0           0           0           2           0           0           1           0           0
 AtZEff=  -0.0000000  -0.0000000  -0.0000000  -0.0000000  -0.0000000  -0.0000000  -0.0000000  -0.0000000  -0.0000000  -0.0000000
 NQMom=    0.0000000   0.0000000   0.0000000   0.0000000   2.0440000   0.0000000   0.0000000   0.0000000   0.0000000   0.0000000
 NMagM=    0.0000000   0.0000000   0.0000000   0.0000000   0.4037610   0.0000000   0.0000000   2.6288670   0.0000000   0.0000000
 AtZNuc=   6.0000000  16.0000000   6.0000000   6.0000000   7.0000000   6.0000000   6.0000000   9.0000000   6.0000000   6.0000000

  Atom        81          82          83          84          85          86          87          88          89          90
 IAtWgt=          14          12          12          32           1           1           1           1           1           1
 AtmWgt=  14.0030740  12.0000000  12.0000000  31.9720718   1.0078250   1.0078250   1.0078250   1.0078250   1.0078250   1.0078250
 NucSpn=           2           0           0           0           1           1           1           1           1           1
 AtZEff=  -0.0000000  -0.0000000  -0.0000000  -0.0000000  -0.0000000  -0.0000000  -0.0000000  -0.0000000  -0.0000000  -0.0000000
 NQMom=    2.0440000   0.0000000   0.0000000   0.0000000   0.0000000   0.0000000   0.0000000   0.0000000   0.0000000   0.0000000
 NMagM=    0.4037610   0.0000000   0.0000000   0.0000000   2.7928460   2.7928460   2.7928460   2.7928460   2.7928460   2.7928460
 AtZNuc=   7.0000000   6.0000000   6.0000000  16.0000000   1.0000000   1.0000000   1.0000000   1.0000000   1.0000000   1.0000000

  Atom        91          92          93          94          95          96          97          98          99         100
 IAtWgt=           1           1           1           1           1           1           1           1           1           1
 AtmWgt=   1.0078250   1.0078250   1.0078250   1.0078250   1.0078250   1.0078250   1.0078250   1.0078250   1.0078250   1.0078250
 NucSpn=           1           1           1           1           1           1           1           1           1           1
 AtZEff=  -0.0000000  -0.0000000  -0.0000000  -0.0000000  -0.0000000  -0.0000000  -0.0000000  -0.0000000  -0.0000000  -0.0000000
 NQMom=    0.0000000   0.0000000   0.0000000   0.0000000   0.0000000   0.0000000   0.0000000   0.0000000   0.0000000   0.0000000
 NMagM=    2.7928460   2.7928460   2.7928460   2.7928460   2.7928460   2.7928460   2.7928460   2.7928460   2.7928460   2.7928460
 AtZNuc=   1.0000000   1.0000000   1.0000000   1.0000000   1.0000000   1.0000000   1.0000000   1.0000000   1.0000000   1.0000000

  Atom       101         102         103         104         105         106         107
 IAtWgt=           1           1           1           1           1           1           1
 AtmWgt=   1.0078250   1.0078250   1.0078250   1.0078250   1.0078250   1.0078250   1.0078250
 NucSpn=           1           1           1           1           1           1           1
 AtZEff=  -0.0000000  -0.0000000  -0.0000000  -0.0000000  -0.0000000  -0.0000000  -0.0000000
 NQMom=    0.0000000   0.0000000   0.0000000   0.0000000   0.0000000   0.0000000   0.0000000
 NMagM=    2.7928460   2.7928460   2.7928460   2.7928460   2.7928460   2.7928460   2.7928460
 AtZNuc=   1.0000000   1.0000000   1.0000000   1.0000000   1.0000000   1.0000000   1.0000000
 Leave Link  101 at Sat Jul 25 16:03:08 2020, MaxMem=  4026531840 cpu:               3.4 elap:               0.5
 (Enter /opt/ohpc/pub/libs/gaussian/g16-A.03/sandybridge/g16/l103.exe)

 GradGradGradGradGradGradGradGradGradGradGradGradGradGradGradGradGradGrad
 Berny optimization.
 Initialization pass.
                           ----------------------------
                           !    Initial Parameters    !
                           ! (Angstroms and Degrees)  !
 --------------------------                            --------------------------
 ! Name  Definition              Value          Derivative Info.                !
 --------------------------------------------------------------------------------
 ! R1    R(1,2)                  1.3821         estimate D2E/DX2                !
 ! R2    R(1,7)                  1.3443         estimate D2E/DX2                !
 ! R3    R(1,85)                 1.0828         estimate D2E/DX2                !
 ! R4    R(2,3)                  1.3821         estimate D2E/DX2                !
 ! R5    R(2,86)                 1.0723         estimate D2E/DX2                !
 ! R6    R(3,4)                  1.3301         estimate D2E/DX2                !
 ! R7    R(4,5)                  1.4164         estimate D2E/DX2                !
 ! R8    R(4,8)                  1.5018         estimate D2E/DX2                !
 ! R9    R(5,6)                  1.281          estimate D2E/DX2                !
 ! R10   R(5,7)                  1.4315         estimate D2E/DX2                !
 ! R11   R(7,87)                 1.1722         estimate D2E/DX2                !
 ! R12   R(8,9)                  1.3383         estimate D2E/DX2                !
 ! R13   R(8,12)                 1.7261         estimate D2E/DX2                !
 ! R14   R(9,10)                 1.3892         estimate D2E/DX2                !
 ! R15   R(10,11)                1.3694         estimate D2E/DX2                !
 ! R16   R(10,88)                0.9973         estimate D2E/DX2                !
 ! R17   R(11,12)                1.7612         estimate D2E/DX2                !
 ! R18   R(11,13)                1.4942         estimate D2E/DX2                !
 ! R19   R(13,14)                1.3949         estimate D2E/DX2                !
 ! R20   R(13,19)                1.3542         estimate D2E/DX2                !
 ! R21   R(14,15)                1.3981         estimate D2E/DX2                !
 ! R22   R(14,89)                1.0911         estimate D2E/DX2                !
 ! R23   R(15,16)                1.3773         estimate D2E/DX2                !
 ! R24   R(16,17)                1.3629         estimate D2E/DX2                !
 ! R25   R(16,20)                1.4566         estimate D2E/DX2                !
 ! R26   R(17,18)                1.3619         estimate D2E/DX2                !
 ! R27   R(17,19)                1.421          estimate D2E/DX2                !
 ! R28   R(19,90)                1.0106         estimate D2E/DX2                !
 ! R29   R(20,21)                1.3123         estimate D2E/DX2                !
 ! R30   R(20,24)                1.7274         estimate D2E/DX2                !
 ! R31   R(21,22)                1.4477         estimate D2E/DX2                !
 ! R32   R(22,23)                1.3576         estimate D2E/DX2                !
 ! R33   R(22,91)                1.0611         estimate D2E/DX2                !
 ! R34   R(23,24)                1.7341         estimate D2E/DX2                !
 ! R35   R(23,25)                1.44           estimate D2E/DX2                !
 ! R36   R(25,26)                1.4486         estimate D2E/DX2                !
 ! R37   R(25,31)                1.3736         estimate D2E/DX2                !
 ! R38   R(26,27)                1.3704         estimate D2E/DX2                !
 ! R39   R(26,92)                1.0779         estimate D2E/DX2                !
 ! R40   R(27,28)                1.3381         estimate D2E/DX2                !
 ! R41   R(28,29)                1.3216         estimate D2E/DX2                !
 ! R42   R(28,32)                1.4757         estimate D2E/DX2                !
 ! R43   R(29,30)                1.4215         estimate D2E/DX2                !
 ! R44   R(29,31)                1.363          estimate D2E/DX2                !
 ! R45   R(31,93)                1.0886         estimate D2E/DX2                !
 ! R46   R(32,33)                1.3196         estimate D2E/DX2                !
 ! R47   R(32,36)                1.7561         estimate D2E/DX2                !
 ! R48   R(33,34)                1.3604         estimate D2E/DX2                !
 ! R49   R(34,35)                1.4361         estimate D2E/DX2                !
 ! R50   R(34,94)                1.0507         estimate D2E/DX2                !
 ! R51   R(35,36)                1.7898         estimate D2E/DX2                !
 ! R52   R(35,37)                1.39           estimate D2E/DX2                !
 ! R53   R(37,38)                1.3612         estimate D2E/DX2                !
 ! R54   R(37,43)                1.4671         estimate D2E/DX2                !
 ! R55   R(38,39)                1.4272         estimate D2E/DX2                !
 ! R56   R(38,95)                1.1008         estimate D2E/DX2                !
 ! R57   R(39,40)                1.3049         estimate D2E/DX2                !
 ! R58   R(40,41)                1.3836         estimate D2E/DX2                !
 ! R59   R(40,44)                1.4495         estimate D2E/DX2                !
 ! R60   R(41,42)                1.3822         estimate D2E/DX2                !
 ! R61   R(41,43)                1.3601         estimate D2E/DX2                !
 ! R62   R(43,96)                1.0494         estimate D2E/DX2                !
 ! R63   R(44,45)                1.3839         estimate D2E/DX2                !
 ! R64   R(44,48)                1.7425         estimate D2E/DX2                !
 ! R65   R(45,46)                1.4152         estimate D2E/DX2                !
 ! R66   R(46,47)                1.3459         estimate D2E/DX2                !
 ! R67   R(46,97)                1.0518         estimate D2E/DX2                !
 ! R68   R(47,48)                1.7464         estimate D2E/DX2                !
 ! R69   R(47,49)                1.5379         estimate D2E/DX2                !
 ! R70   R(49,50)                1.333          estimate D2E/DX2                !
 ! R71   R(49,55)                1.351          estimate D2E/DX2                !
 ! R72   R(50,51)                1.3806         estimate D2E/DX2                !
 ! R73   R(50,98)                1.0852         estimate D2E/DX2                !
 ! R74   R(51,52)                1.3867         estimate D2E/DX2                !
 ! R75   R(52,53)                1.4205         estimate D2E/DX2                !
 ! R76   R(52,56)                1.4636         estimate D2E/DX2                !
 ! R77   R(53,54)                1.3496         estimate D2E/DX2                !
 ! R78   R(53,55)                1.3905         estimate D2E/DX2                !
 ! R79   R(55,99)                1.0914         estimate D2E/DX2                !
 ! R80   R(56,57)                1.4015         estimate D2E/DX2                !
 ! R81   R(56,60)                1.7109         estimate D2E/DX2                !
 ! R82   R(57,58)                1.3655         estimate D2E/DX2                !
 ! R83   R(58,59)                1.381          estimate D2E/DX2                !
 ! R84   R(58,100)               1.0094         estimate D2E/DX2                !
 ! R85   R(59,60)                1.781          estimate D2E/DX2                !
 ! R86   R(59,61)                1.4515         estimate D2E/DX2                !
 ! R87   R(61,62)                1.4154         estimate D2E/DX2                !
 ! R88   R(61,67)                1.3978         estimate D2E/DX2                !
 ! R89   R(62,63)                1.3385         estimate D2E/DX2                !
 ! R90   R(62,101)               1.0651         estimate D2E/DX2                !
 ! R91   R(63,64)                1.3222         estimate D2E/DX2                !
 ! R92   R(64,65)                1.4468         estimate D2E/DX2                !
 ! R93   R(64,68)                1.5247         estimate D2E/DX2                !
 ! R94   R(65,66)                1.34           estimate D2E/DX2                !
 ! R95   R(65,67)                1.4141         estimate D2E/DX2                !
 ! R96   R(67,102)               1.1093         estimate D2E/DX2                !
 ! R97   R(68,69)                1.3176         estimate D2E/DX2                !
 ! R98   R(68,72)                1.6727         estimate D2E/DX2                !
 ! R99   R(69,70)                1.3328         estimate D2E/DX2                !
 ! R100  R(70,71)                1.3852         estimate D2E/DX2                !
 ! R101  R(70,103)               1.0922         estimate D2E/DX2                !
 ! R102  R(71,72)                1.7332         estimate D2E/DX2                !
 ! R103  R(71,73)                1.4877         estimate D2E/DX2                !
 ! R104  R(73,74)                1.398          estimate D2E/DX2                !
 ! R105  R(73,79)                1.4067         estimate D2E/DX2                !
 ! R106  R(74,75)                1.4331         estimate D2E/DX2                !
 ! R107  R(74,104)               1.0495         estimate D2E/DX2                !
 ! R108  R(75,76)                1.3007         estimate D2E/DX2                !
 ! R109  R(76,77)                1.3901         estimate D2E/DX2                !
 ! R110  R(76,80)                1.5342         estimate D2E/DX2                !
 ! R111  R(77,78)                1.3489         estimate D2E/DX2                !
 ! R112  R(77,79)                1.4732         estimate D2E/DX2                !
 ! R113  R(79,105)               1.0512         estimate D2E/DX2                !
 ! R114  R(80,81)                1.2836         estimate D2E/DX2                !
 ! R115  R(80,84)                1.6453         estimate D2E/DX2                !
 ! R116  R(81,82)                1.4403         estimate D2E/DX2                !
 ! R117  R(82,83)                1.4114         estimate D2E/DX2                !
 ! R118  R(82,106)               1.0158         estimate D2E/DX2                !
 ! R119  R(83,84)                1.6959         estimate D2E/DX2                !
 ! R120  R(83,107)               1.0572         estimate D2E/DX2                !
 ! A1    A(2,1,7)              116.0632         estimate D2E/DX2                !
 ! A2    A(2,1,85)             116.9534         estimate D2E/DX2                !
 ! A3    A(7,1,85)             126.6238         estimate D2E/DX2                !
 ! A4    A(1,2,3)              124.1609         estimate D2E/DX2                !
 ! A5    A(1,2,86)             124.3082         estimate D2E/DX2                !
 ! A6    A(3,2,86)             111.515          estimate D2E/DX2                !
 ! A7    A(2,3,4)              118.1923         estimate D2E/DX2                !
 ! A8    A(3,4,5)              122.3233         estimate D2E/DX2                !
 ! A9    A(3,4,8)              120.8707         estimate D2E/DX2                !
 ! A10   A(5,4,8)              116.7452         estimate D2E/DX2                !
 ! A11   A(4,5,6)              125.5658         estimate D2E/DX2                !
 ! A12   A(4,5,7)              115.4899         estimate D2E/DX2                !
 ! A13   A(6,5,7)              118.7492         estimate D2E/DX2                !
 ! A14   A(1,7,5)              123.3161         estimate D2E/DX2                !
 ! A15   A(1,7,87)             119.5461         estimate D2E/DX2                !
 ! A16   A(5,7,87)             116.7406         estimate D2E/DX2                !
 ! A17   A(4,8,9)              127.6549         estimate D2E/DX2                !
 ! A18   A(4,8,12)             116.0663         estimate D2E/DX2                !
 ! A19   A(9,8,12)             115.9146         estimate D2E/DX2                !
 ! A20   A(8,9,10)             110.0606         estimate D2E/DX2                !
 ! A21   A(9,10,11)            114.9532         estimate D2E/DX2                !
 ! A22   A(9,10,88)            117.7221         estimate D2E/DX2                !
 ! A23   A(11,10,88)           127.3245         estimate D2E/DX2                !
 ! A24   A(10,11,12)           110.5874         estimate D2E/DX2                !
 ! A25   A(10,11,13)           127.6684         estimate D2E/DX2                !
 ! A26   A(12,11,13)           121.6534         estimate D2E/DX2                !
 ! A27   A(8,12,11)             88.1558         estimate D2E/DX2                !
 ! A28   A(11,13,14)           119.0347         estimate D2E/DX2                !
 ! A29   A(11,13,19)           118.7082         estimate D2E/DX2                !
 ! A30   A(14,13,19)           122.2566         estimate D2E/DX2                !
 ! A31   A(13,14,15)           119.3801         estimate D2E/DX2                !
 ! A32   A(13,14,89)           125.4559         estimate D2E/DX2                !
 ! A33   A(15,14,89)           115.1248         estimate D2E/DX2                !
 ! A34   A(14,15,16)           118.9104         estimate D2E/DX2                !
 ! A35   A(15,16,17)           120.6273         estimate D2E/DX2                !
 ! A36   A(15,16,20)           113.6478         estimate D2E/DX2                !
 ! A37   A(17,16,20)           125.5534         estimate D2E/DX2                !
 ! A38   A(16,17,18)           121.9835         estimate D2E/DX2                !
 ! A39   A(16,17,19)           121.4024         estimate D2E/DX2                !
 ! A40   A(18,17,19)           116.0171         estimate D2E/DX2                !
 ! A41   A(13,19,17)           117.1677         estimate D2E/DX2                !
 ! A42   A(13,19,90)           123.6444         estimate D2E/DX2                !
 ! A43   A(17,19,90)           119.0216         estimate D2E/DX2                !
 ! A44   A(16,20,21)           125.9717         estimate D2E/DX2                !
 ! A45   A(16,20,24)           119.6784         estimate D2E/DX2                !
 ! A46   A(21,20,24)           114.1847         estimate D2E/DX2                !
 ! A47   A(20,21,22)           109.3867         estimate D2E/DX2                !
 ! A48   A(21,22,23)           116.4257         estimate D2E/DX2                !
 ! A49   A(21,22,91)           114.4662         estimate D2E/DX2                !
 ! A50   A(23,22,91)           129.0424         estimate D2E/DX2                !
 ! A51   A(22,23,24)           107.9039         estimate D2E/DX2                !
 ! A52   A(22,23,25)           126.905          estimate D2E/DX2                !
 ! A53   A(24,23,25)           124.7468         estimate D2E/DX2                !
 ! A54   A(20,24,23)            91.9415         estimate D2E/DX2                !
 ! A55   A(23,25,26)           120.1914         estimate D2E/DX2                !
 ! A56   A(23,25,31)           123.6607         estimate D2E/DX2                !
 ! A57   A(26,25,31)           115.8949         estimate D2E/DX2                !
 ! A58   A(25,26,27)           119.2921         estimate D2E/DX2                !
 ! A59   A(25,26,92)           122.9061         estimate D2E/DX2                !
 ! A60   A(27,26,92)           117.7025         estimate D2E/DX2                !
 ! A61   A(26,27,28)           120.4501         estimate D2E/DX2                !
 ! A62   A(27,28,29)           121.9556         estimate D2E/DX2                !
 ! A63   A(27,28,32)           114.7596         estimate D2E/DX2                !
 ! A64   A(29,28,32)           123.2779         estimate D2E/DX2                !
 ! A65   A(28,29,30)           122.5562         estimate D2E/DX2                !
 ! A66   A(28,29,31)           120.3713         estimate D2E/DX2                !
 ! A67   A(30,29,31)           117.0713         estimate D2E/DX2                !
 ! A68   A(25,31,29)           122.0101         estimate D2E/DX2                !
 ! A69   A(25,31,93)           116.0729         estimate D2E/DX2                !
 ! A70   A(29,31,93)           121.9154         estimate D2E/DX2                !
 ! A71   A(28,32,33)           126.6382         estimate D2E/DX2                !
 ! A72   A(28,32,36)           118.4356         estimate D2E/DX2                !
 ! A73   A(33,32,36)           114.3964         estimate D2E/DX2                !
 ! A74   A(32,33,34)           112.6031         estimate D2E/DX2                !
 ! A75   A(33,34,35)           115.6208         estimate D2E/DX2                !
 ! A76   A(33,34,94)           123.1004         estimate D2E/DX2                !
 ! A77   A(35,34,94)           120.4448         estimate D2E/DX2                !
 ! A78   A(34,35,36)           106.9489         estimate D2E/DX2                !
 ! A79   A(34,35,37)           131.3416         estimate D2E/DX2                !
 ! A80   A(36,35,37)           121.4342         estimate D2E/DX2                !
 ! A81   A(32,36,35)            89.618          estimate D2E/DX2                !
 ! A82   A(35,37,38)           126.2027         estimate D2E/DX2                !
 ! A83   A(35,37,43)           121.4267         estimate D2E/DX2                !
 ! A84   A(38,37,43)           112.3454         estimate D2E/DX2                !
 ! A85   A(37,38,39)           128.5006         estimate D2E/DX2                !
 ! A86   A(37,38,95)           119.646          estimate D2E/DX2                !
 ! A87   A(39,38,95)           111.7913         estimate D2E/DX2                !
 ! A88   A(38,39,40)           113.909          estimate D2E/DX2                !
 ! A89   A(39,40,41)           124.1074         estimate D2E/DX2                !
 ! A90   A(39,40,44)           116.0539         estimate D2E/DX2                !
 ! A91   A(41,40,44)           119.8251         estimate D2E/DX2                !
 ! A92   A(40,41,42)           123.9936         estimate D2E/DX2                !
 ! A93   A(40,41,43)           120.9994         estimate D2E/DX2                !
 ! A94   A(42,41,43)           114.4743         estimate D2E/DX2                !
 ! A95   A(37,43,41)           119.8698         estimate D2E/DX2                !
 ! A96   A(37,43,96)           118.3568         estimate D2E/DX2                !
 ! A97   A(41,43,96)           121.5376         estimate D2E/DX2                !
 ! A98   A(40,44,45)           126.4113         estimate D2E/DX2                !
 ! A99   A(40,44,48)           121.0503         estimate D2E/DX2                !
 ! A100  A(45,44,48)           112.5343         estimate D2E/DX2                !
 ! A101  A(44,45,46)           109.8365         estimate D2E/DX2                !
 ! A102  A(45,46,47)           116.2111         estimate D2E/DX2                !
 ! A103  A(45,46,97)           117.9493         estimate D2E/DX2                !
 ! A104  A(47,46,97)           125.6933         estimate D2E/DX2                !
 ! A105  A(46,47,48)           110.3222         estimate D2E/DX2                !
 ! A106  A(46,47,49)           131.1008         estimate D2E/DX2                !
 ! A107  A(48,47,49)           118.5473         estimate D2E/DX2                !
 ! A108  A(44,48,47)            90.8033         estimate D2E/DX2                !
 ! A109  A(47,49,50)           123.4021         estimate D2E/DX2                !
 ! A110  A(47,49,55)           116.1822         estimate D2E/DX2                !
 ! A111  A(50,49,55)           120.4028         estimate D2E/DX2                !
 ! A112  A(49,50,51)           127.7236         estimate D2E/DX2                !
 ! A113  A(49,50,98)           121.8768         estimate D2E/DX2                !
 ! A114  A(51,50,98)           110.3284         estimate D2E/DX2                !
 ! A115  A(50,51,52)           112.1738         estimate D2E/DX2                !
 ! A116  A(51,52,53)           121.6937         estimate D2E/DX2                !
 ! A117  A(51,52,56)           114.0893         estimate D2E/DX2                !
 ! A118  A(53,52,56)           123.8342         estimate D2E/DX2                !
 ! A119  A(52,53,54)           119.7155         estimate D2E/DX2                !
 ! A120  A(52,53,55)           120.7644         estimate D2E/DX2                !
 ! A121  A(54,53,55)           119.4404         estimate D2E/DX2                !
 ! A122  A(49,55,53)           116.935          estimate D2E/DX2                !
 ! A123  A(49,55,99)           127.6066         estimate D2E/DX2                !
 ! A124  A(53,55,99)           115.3033         estimate D2E/DX2                !
 ! A125  A(52,56,57)           124.4067         estimate D2E/DX2                !
 ! A126  A(52,56,60)           120.0754         estimate D2E/DX2                !
 ! A127  A(57,56,60)           115.4506         estimate D2E/DX2                !
 ! A128  A(56,57,58)           110.4221         estimate D2E/DX2                !
 ! A129  A(57,58,59)           114.3899         estimate D2E/DX2                !
 ! A130  A(57,58,100)          117.3482         estimate D2E/DX2                !
 ! A131  A(59,58,100)          128.2397         estimate D2E/DX2                !
 ! A132  A(58,59,60)           111.7138         estimate D2E/DX2                !
 ! A133  A(58,59,61)           128.2517         estimate D2E/DX2                !
 ! A134  A(60,59,61)           119.9736         estimate D2E/DX2                !
 ! A135  A(56,60,59)            87.9807         estimate D2E/DX2                !
 ! A136  A(59,61,62)           122.6353         estimate D2E/DX2                !
 ! A137  A(59,61,67)           123.3063         estimate D2E/DX2                !
 ! A138  A(62,61,67)           113.7354         estimate D2E/DX2                !
 ! A139  A(61,62,63)           128.1022         estimate D2E/DX2                !
 ! A140  A(61,62,101)          115.5176         estimate D2E/DX2                !
 ! A141  A(63,62,101)          116.3467         estimate D2E/DX2                !
 ! A142  A(62,63,64)           114.9823         estimate D2E/DX2                !
 ! A143  A(63,64,65)           125.515          estimate D2E/DX2                !
 ! A144  A(63,64,68)           115.4946         estimate D2E/DX2                !
 ! A145  A(65,64,68)           118.9117         estimate D2E/DX2                !
 ! A146  A(64,65,66)           121.7772         estimate D2E/DX2                !
 ! A147  A(64,65,67)           114.676          estimate D2E/DX2                !
 ! A148  A(66,65,67)           123.543          estimate D2E/DX2                !
 ! A149  A(61,67,65)           122.4517         estimate D2E/DX2                !
 ! A150  A(61,67,102)          122.6749         estimate D2E/DX2                !
 ! A151  A(65,67,102)          114.7583         estimate D2E/DX2                !
 ! A152  A(64,68,69)           126.7113         estimate D2E/DX2                !
 ! A153  A(64,68,72)           119.547          estimate D2E/DX2                !
 ! A154  A(69,68,72)           113.7161         estimate D2E/DX2                !
 ! A155  A(68,69,70)           112.7581         estimate D2E/DX2                !
 ! A156  A(69,70,71)           114.9904         estimate D2E/DX2                !
 ! A157  A(69,70,103)          122.4436         estimate D2E/DX2                !
 ! A158  A(71,70,103)          122.565          estimate D2E/DX2                !
 ! A159  A(70,71,72)           107.576          estimate D2E/DX2                !
 ! A160  A(70,71,73)           132.4189         estimate D2E/DX2                !
 ! A161  A(72,71,73)           119.7961         estimate D2E/DX2                !
 ! A162  A(68,72,71)            90.9281         estimate D2E/DX2                !
 ! A163  A(71,73,74)           117.7031         estimate D2E/DX2                !
 ! A164  A(71,73,79)           121.0815         estimate D2E/DX2                !
 ! A165  A(74,73,79)           120.3574         estimate D2E/DX2                !
 ! A166  A(73,74,75)           120.0413         estimate D2E/DX2                !
 ! A167  A(73,74,104)          127.4408         estimate D2E/DX2                !
 ! A168  A(75,74,104)          112.4921         estimate D2E/DX2                !
 ! A169  A(74,75,76)           118.9211         estimate D2E/DX2                !
 ! A170  A(75,76,77)           125.3045         estimate D2E/DX2                !
 ! A171  A(75,76,80)           115.1501         estimate D2E/DX2                !
 ! A172  A(77,76,80)           119.2582         estimate D2E/DX2                !
 ! A173  A(76,77,78)           125.8657         estimate D2E/DX2                !
 ! A174  A(76,77,79)           117.2616         estimate D2E/DX2                !
 ! A175  A(78,77,79)           116.8723         estimate D2E/DX2                !
 ! A176  A(73,79,77)           117.6422         estimate D2E/DX2                !
 ! A177  A(73,79,105)          124.717          estimate D2E/DX2                !
 ! A178  A(77,79,105)          117.1953         estimate D2E/DX2                !
 ! A179  A(76,80,81)           121.7461         estimate D2E/DX2                !
 ! A180  A(76,80,84)           119.9172         estimate D2E/DX2                !
 ! A181  A(81,80,84)           118.3139         estimate D2E/DX2                !
 ! A182  A(80,81,82)           109.8301         estimate D2E/DX2                !
 ! A183  A(81,82,83)           110.6017         estimate D2E/DX2                !
 ! A184  A(81,82,106)          119.3572         estimate D2E/DX2                !
 ! A185  A(83,82,106)          129.9809         estimate D2E/DX2                !
 ! A186  A(82,83,84)           110.4174         estimate D2E/DX2                !
 ! A187  A(82,83,107)          122.9488         estimate D2E/DX2                !
 ! A188  A(84,83,107)          126.3914         estimate D2E/DX2                !
 ! A189  A(80,84,83)            90.6588         estimate D2E/DX2                !
 ! D1    D(7,1,2,3)             -0.4525         estimate D2E/DX2                !
 ! D2    D(7,1,2,86)          -178.8809         estimate D2E/DX2                !
 ! D3    D(85,1,2,3)           173.1249         estimate D2E/DX2                !
 ! D4    D(85,1,2,86)           -5.3035         estimate D2E/DX2                !
 ! D5    D(2,1,7,5)             -5.726          estimate D2E/DX2                !
 ! D6    D(2,1,7,87)          -178.2497         estimate D2E/DX2                !
 ! D7    D(85,1,7,5)          -178.5893         estimate D2E/DX2                !
 ! D8    D(85,1,7,87)            8.887          estimate D2E/DX2                !
 ! D9    D(1,2,3,4)              4.423          estimate D2E/DX2                !
 ! D10   D(86,2,3,4)          -176.9724         estimate D2E/DX2                !
 ! D11   D(2,3,4,5)             -2.2508         estimate D2E/DX2                !
 ! D12   D(2,3,4,8)            174.8203         estimate D2E/DX2                !
 ! D13   D(3,4,5,6)           -178.1257         estimate D2E/DX2                !
 ! D14   D(3,4,5,7)             -3.2915         estimate D2E/DX2                !
 ! D15   D(8,4,5,6)              4.6893         estimate D2E/DX2                !
 ! D16   D(8,4,5,7)            179.5235         estimate D2E/DX2                !
 ! D17   D(3,4,8,9)            163.9615         estimate D2E/DX2                !
 ! D18   D(3,4,8,12)            -8.7738         estimate D2E/DX2                !
 ! D19   D(5,4,8,9)            -18.8099         estimate D2E/DX2                !
 ! D20   D(5,4,8,12)           168.4548         estimate D2E/DX2                !
 ! D21   D(4,5,7,1)              7.5678         estimate D2E/DX2                !
 ! D22   D(4,5,7,87)          -179.7141         estimate D2E/DX2                !
 ! D23   D(6,5,7,1)           -177.2242         estimate D2E/DX2                !
 ! D24   D(6,5,7,87)            -4.5061         estimate D2E/DX2                !
 ! D25   D(4,8,9,10)          -177.0921         estimate D2E/DX2                !
 ! D26   D(12,8,9,10)           -4.3475         estimate D2E/DX2                !
 ! D27   D(4,8,12,11)          179.0066         estimate D2E/DX2                !
 ! D28   D(9,8,12,11)            5.3973         estimate D2E/DX2                !
 ! D29   D(8,9,10,11)            0.3131         estimate D2E/DX2                !
 ! D30   D(8,9,10,88)         -179.5364         estimate D2E/DX2                !
 ! D31   D(9,10,11,12)           3.6181         estimate D2E/DX2                !
 ! D32   D(9,10,11,13)        -179.8391         estimate D2E/DX2                !
 ! D33   D(88,10,11,12)       -176.5494         estimate D2E/DX2                !
 ! D34   D(88,10,11,13)         -0.0066         estimate D2E/DX2                !
 ! D35   D(10,11,12,8)          -4.8569         estimate D2E/DX2                !
 ! D36   D(13,11,12,8)         178.3576         estimate D2E/DX2                !
 ! D37   D(10,11,13,14)       -138.7006         estimate D2E/DX2                !
 ! D38   D(10,11,13,19)         41.0764         estimate D2E/DX2                !
 ! D39   D(12,11,13,14)         37.497          estimate D2E/DX2                !
 ! D40   D(12,11,13,19)       -142.726          estimate D2E/DX2                !
 ! D41   D(11,13,14,15)       -177.2363         estimate D2E/DX2                !
 ! D42   D(11,13,14,89)          0.3697         estimate D2E/DX2                !
 ! D43   D(19,13,14,15)          2.995          estimate D2E/DX2                !
 ! D44   D(19,13,14,89)       -179.399          estimate D2E/DX2                !
 ! D45   D(11,13,19,17)       -178.2338         estimate D2E/DX2                !
 ! D46   D(11,13,19,90)         -2.9761         estimate D2E/DX2                !
 ! D47   D(14,13,19,17)          1.5356         estimate D2E/DX2                !
 ! D48   D(14,13,19,90)        176.7934         estimate D2E/DX2                !
 ! D49   D(13,14,15,16)         -5.4897         estimate D2E/DX2                !
 ! D50   D(89,14,15,16)        176.664          estimate D2E/DX2                !
 ! D51   D(14,15,16,17)          3.4404         estimate D2E/DX2                !
 ! D52   D(14,15,16,20)        178.938          estimate D2E/DX2                !
 ! D53   D(15,16,17,18)        171.9684         estimate D2E/DX2                !
 ! D54   D(15,16,17,19)          1.1816         estimate D2E/DX2                !
 ! D55   D(20,16,17,18)         -2.9608         estimate D2E/DX2                !
 ! D56   D(20,16,17,19)       -173.7476         estimate D2E/DX2                !
 ! D57   D(15,16,20,21)        -27.4918         estimate D2E/DX2                !
 ! D58   D(15,16,20,24)        147.5523         estimate D2E/DX2                !
 ! D59   D(17,16,20,21)        147.7456         estimate D2E/DX2                !
 ! D60   D(17,16,20,24)        -37.2104         estimate D2E/DX2                !
 ! D61   D(16,17,19,13)         -3.6763         estimate D2E/DX2                !
 ! D62   D(16,17,19,90)       -179.162          estimate D2E/DX2                !
 ! D63   D(18,17,19,13)       -174.9846         estimate D2E/DX2                !
 ! D64   D(18,17,19,90)          9.5297         estimate D2E/DX2                !
 ! D65   D(16,20,21,22)        176.1621         estimate D2E/DX2                !
 ! D66   D(24,20,21,22)          0.8816         estimate D2E/DX2                !
 ! D67   D(16,20,24,23)       -174.3142         estimate D2E/DX2                !
 ! D68   D(21,20,24,23)          1.2901         estimate D2E/DX2                !
 ! D69   D(20,21,22,23)         -3.5374         estimate D2E/DX2                !
 ! D70   D(20,21,22,91)        179.1403         estimate D2E/DX2                !
 ! D71   D(21,22,23,24)          4.3666         estimate D2E/DX2                !
 ! D72   D(21,22,23,25)        176.9567         estimate D2E/DX2                !
 ! D73   D(91,22,23,24)       -178.7719         estimate D2E/DX2                !
 ! D74   D(91,22,23,25)         -6.1818         estimate D2E/DX2                !
 ! D75   D(22,23,24,20)         -3.1252         estimate D2E/DX2                !
 ! D76   D(25,23,24,20)       -175.9152         estimate D2E/DX2                !
 ! D77   D(22,23,25,26)       -133.4045         estimate D2E/DX2                !
 ! D78   D(22,23,25,31)         52.6167         estimate D2E/DX2                !
 ! D79   D(24,23,25,26)         38.006          estimate D2E/DX2                !
 ! D80   D(24,23,25,31)       -135.9729         estimate D2E/DX2                !
 ! D81   D(23,25,26,27)       -174.8306         estimate D2E/DX2                !
 ! D82   D(23,25,26,92)          1.4613         estimate D2E/DX2                !
 ! D83   D(31,25,26,27)         -0.4001         estimate D2E/DX2                !
 ! D84   D(31,25,26,92)        175.8919         estimate D2E/DX2                !
 ! D85   D(23,25,31,29)        175.7414         estimate D2E/DX2                !
 ! D86   D(23,25,31,93)         -3.8111         estimate D2E/DX2                !
 ! D87   D(26,25,31,29)          1.5258         estimate D2E/DX2                !
 ! D88   D(26,25,31,93)       -178.0267         estimate D2E/DX2                !
 ! D89   D(25,26,27,28)         -0.989          estimate D2E/DX2                !
 ! D90   D(92,26,27,28)       -177.4731         estimate D2E/DX2                !
 ! D91   D(26,27,28,29)          1.3311         estimate D2E/DX2                !
 ! D92   D(26,27,28,32)       -177.7463         estimate D2E/DX2                !
 ! D93   D(27,28,29,30)        179.3917         estimate D2E/DX2                !
 ! D94   D(27,28,29,31)         -0.2041         estimate D2E/DX2                !
 ! D95   D(32,28,29,30)         -1.6105         estimate D2E/DX2                !
 ! D96   D(32,28,29,31)        178.7938         estimate D2E/DX2                !
 ! D97   D(27,28,32,33)        -38.9457         estimate D2E/DX2                !
 ! D98   D(27,28,32,36)        132.2033         estimate D2E/DX2                !
 ! D99   D(29,28,32,33)        141.9906         estimate D2E/DX2                !
 ! D100  D(29,28,32,36)        -46.8604         estimate D2E/DX2                !
 ! D101  D(28,29,31,25)         -1.2881         estimate D2E/DX2                !
 ! D102  D(28,29,31,93)        178.2384         estimate D2E/DX2                !
 ! D103  D(30,29,31,25)        179.0946         estimate D2E/DX2                !
 ! D104  D(30,29,31,93)         -1.3789         estimate D2E/DX2                !
 ! D105  D(28,32,33,34)       -179.2698         estimate D2E/DX2                !
 ! D106  D(36,32,33,34)          9.2741         estimate D2E/DX2                !
 ! D107  D(28,32,36,35)       -177.1755         estimate D2E/DX2                !
 ! D108  D(33,32,36,35)         -4.967          estimate D2E/DX2                !
 ! D109  D(32,33,34,35)         -9.8606         estimate D2E/DX2                !
 ! D110  D(32,33,34,94)       -179.4244         estimate D2E/DX2                !
 ! D111  D(33,34,35,36)          5.8082         estimate D2E/DX2                !
 ! D112  D(33,34,35,37)        179.6886         estimate D2E/DX2                !
 ! D113  D(94,34,35,36)        175.6706         estimate D2E/DX2                !
 ! D114  D(94,34,35,37)        -10.449          estimate D2E/DX2                !
 ! D115  D(34,35,36,32)         -0.5019         estimate D2E/DX2                !
 ! D116  D(37,35,36,32)       -175.1195         estimate D2E/DX2                !
 ! D117  D(34,35,37,38)       -137.4855         estimate D2E/DX2                !
 ! D118  D(34,35,37,43)         44.4862         estimate D2E/DX2                !
 ! D119  D(36,35,37,38)         35.6505         estimate D2E/DX2                !
 ! D120  D(36,35,37,43)       -142.3778         estimate D2E/DX2                !
 ! D121  D(35,37,38,39)        179.9552         estimate D2E/DX2                !
 ! D122  D(35,37,38,95)          3.0712         estimate D2E/DX2                !
 ! D123  D(43,37,38,39)         -1.8638         estimate D2E/DX2                !
 ! D124  D(43,37,38,95)       -178.7478         estimate D2E/DX2                !
 ! D125  D(35,37,43,41)        175.2643         estimate D2E/DX2                !
 ! D126  D(35,37,43,96)          0.7571         estimate D2E/DX2                !
 ! D127  D(38,37,43,41)         -3.0156         estimate D2E/DX2                !
 ! D128  D(38,37,43,96)       -177.5227         estimate D2E/DX2                !
 ! D129  D(37,38,39,40)          3.9279         estimate D2E/DX2                !
 ! D130  D(95,38,39,40)       -178.9884         estimate D2E/DX2                !
 ! D131  D(38,39,40,41)         -1.0535         estimate D2E/DX2                !
 ! D132  D(38,39,40,44)        177.5932         estimate D2E/DX2                !
 ! D133  D(39,40,41,42)       -174.7469         estimate D2E/DX2                !
 ! D134  D(39,40,41,43)         -3.5885         estimate D2E/DX2                !
 ! D135  D(44,40,41,42)          6.6545         estimate D2E/DX2                !
 ! D136  D(44,40,41,43)        177.8129         estimate D2E/DX2                !
 ! D137  D(39,40,44,45)       -174.3511         estimate D2E/DX2                !
 ! D138  D(39,40,44,48)          4.8546         estimate D2E/DX2                !
 ! D139  D(41,40,44,45)          4.3573         estimate D2E/DX2                !
 ! D140  D(41,40,44,48)       -176.437          estimate D2E/DX2                !
 ! D141  D(40,41,43,37)          5.7027         estimate D2E/DX2                !
 ! D142  D(40,41,43,96)       -179.9693         estimate D2E/DX2                !
 ! D143  D(42,41,43,37)        177.6539         estimate D2E/DX2                !
 ! D144  D(42,41,43,96)         -8.0181         estimate D2E/DX2                !
 ! D145  D(40,44,45,46)       -177.76           estimate D2E/DX2                !
 ! D146  D(48,44,45,46)          2.9768         estimate D2E/DX2                !
 ! D147  D(40,44,48,47)       -179.2647         estimate D2E/DX2                !
 ! D148  D(45,44,48,47)          0.0432         estimate D2E/DX2                !
 ! D149  D(44,45,46,47)         -5.7428         estimate D2E/DX2                !
 ! D150  D(44,45,46,97)        178.4021         estimate D2E/DX2                !
 ! D151  D(45,46,47,48)          5.7659         estimate D2E/DX2                !
 ! D152  D(45,46,47,49)       -176.2911         estimate D2E/DX2                !
 ! D153  D(97,46,47,48)       -178.7431         estimate D2E/DX2                !
 ! D154  D(97,46,47,49)         -0.8002         estimate D2E/DX2                !
 ! D155  D(46,47,48,44)         -3.2165         estimate D2E/DX2                !
 ! D156  D(49,47,48,44)        178.548          estimate D2E/DX2                !
 ! D157  D(46,47,49,50)       -144.1323         estimate D2E/DX2                !
 ! D158  D(46,47,49,55)         37.1722         estimate D2E/DX2                !
 ! D159  D(48,47,49,50)         33.6716         estimate D2E/DX2                !
 ! D160  D(48,47,49,55)       -145.0239         estimate D2E/DX2                !
 ! D161  D(47,49,50,51)        178.2797         estimate D2E/DX2                !
 ! D162  D(47,49,50,98)          1.6547         estimate D2E/DX2                !
 ! D163  D(55,49,50,51)         -3.0776         estimate D2E/DX2                !
 ! D164  D(55,49,50,98)       -179.7026         estimate D2E/DX2                !
 ! D165  D(47,49,55,53)       -178.4486         estimate D2E/DX2                !
 ! D166  D(47,49,55,99)         -3.2177         estimate D2E/DX2                !
 ! D167  D(50,49,55,53)          2.814          estimate D2E/DX2                !
 ! D168  D(50,49,55,99)        178.045          estimate D2E/DX2                !
 ! D169  D(49,50,51,52)         -1.185          estimate D2E/DX2                !
 ! D170  D(98,50,51,52)        175.7589         estimate D2E/DX2                !
 ! D171  D(50,51,52,53)          5.4531         estimate D2E/DX2                !
 ! D172  D(50,51,52,56)        178.608          estimate D2E/DX2                !
 ! D173  D(51,52,53,54)        177.4054         estimate D2E/DX2                !
 ! D174  D(51,52,53,55)         -5.8609         estimate D2E/DX2                !
 ! D175  D(56,52,53,54)          4.9321         estimate D2E/DX2                !
 ! D176  D(56,52,53,55)       -178.3342         estimate D2E/DX2                !
 ! D177  D(51,52,56,57)        -44.3761         estimate D2E/DX2                !
 ! D178  D(51,52,56,60)        132.5014         estimate D2E/DX2                !
 ! D179  D(53,52,56,57)        128.6114         estimate D2E/DX2                !
 ! D180  D(53,52,56,60)        -54.5111         estimate D2E/DX2                !
 ! D181  D(52,53,55,49)          1.3981         estimate D2E/DX2                !
 ! D182  D(52,53,55,99)       -174.424          estimate D2E/DX2                !
 ! D183  D(54,53,55,49)        178.1406         estimate D2E/DX2                !
 ! D184  D(54,53,55,99)          2.3186         estimate D2E/DX2                !
 ! D185  D(52,56,57,58)        177.5462         estimate D2E/DX2                !
 ! D186  D(60,56,57,58)          0.5386         estimate D2E/DX2                !
 ! D187  D(52,56,60,59)       -176.532          estimate D2E/DX2                !
 ! D188  D(57,56,60,59)          0.6151         estimate D2E/DX2                !
 ! D189  D(56,57,58,59)         -1.8356         estimate D2E/DX2                !
 ! D190  D(56,57,58,100)       179.7385         estimate D2E/DX2                !
 ! D191  D(57,58,59,60)          2.3169         estimate D2E/DX2                !
 ! D192  D(57,58,59,61)        179.4403         estimate D2E/DX2                !
 ! D193  D(100,58,59,60)      -179.4633         estimate D2E/DX2                !
 ! D194  D(100,58,59,61)        -2.3399         estimate D2E/DX2                !
 ! D195  D(58,59,60,56)         -1.614          estimate D2E/DX2                !
 ! D196  D(61,59,60,56)       -179.0064         estimate D2E/DX2                !
 ! D197  D(58,59,61,62)         46.9752         estimate D2E/DX2                !
 ! D198  D(58,59,61,67)       -139.9627         estimate D2E/DX2                !
 ! D199  D(60,59,61,62)       -136.11           estimate D2E/DX2                !
 ! D200  D(60,59,61,67)         36.952          estimate D2E/DX2                !
 ! D201  D(59,61,62,63)        178.8483         estimate D2E/DX2                !
 ! D202  D(59,61,62,101)        -3.3537         estimate D2E/DX2                !
 ! D203  D(67,61,62,63)          5.1799         estimate D2E/DX2                !
 ! D204  D(67,61,62,101)      -177.0222         estimate D2E/DX2                !
 ! D205  D(59,61,67,65)       -179.9926         estimate D2E/DX2                !
 ! D206  D(59,61,67,102)         4.1138         estimate D2E/DX2                !
 ! D207  D(62,61,67,65)         -6.3726         estimate D2E/DX2                !
 ! D208  D(62,61,67,102)       177.7337         estimate D2E/DX2                !
 ! D209  D(61,62,63,64)          1.0541         estimate D2E/DX2                !
 ! D210  D(101,62,63,64)      -176.7282         estimate D2E/DX2                !
 ! D211  D(62,63,64,65)         -6.5631         estimate D2E/DX2                !
 ! D212  D(62,63,64,68)        176.7148         estimate D2E/DX2                !
 ! D213  D(63,64,65,66)       -175.4809         estimate D2E/DX2                !
 ! D214  D(63,64,65,67)          5.2086         estimate D2E/DX2                !
 ! D215  D(68,64,65,66)          1.139          estimate D2E/DX2                !
 ! D216  D(68,64,65,67)       -178.1715         estimate D2E/DX2                !
 ! D217  D(63,64,68,69)       -159.7573         estimate D2E/DX2                !
 ! D218  D(63,64,68,72)         22.205          estimate D2E/DX2                !
 ! D219  D(65,64,68,69)         23.2905         estimate D2E/DX2                !
 ! D220  D(65,64,68,72)       -154.7473         estimate D2E/DX2                !
 ! D221  D(64,65,67,61)          1.9204         estimate D2E/DX2                !
 ! D222  D(64,65,67,102)       178.1145         estimate D2E/DX2                !
 ! D223  D(66,65,67,61)       -177.3764         estimate D2E/DX2                !
 ! D224  D(66,65,67,102)        -1.1823         estimate D2E/DX2                !
 ! D225  D(64,68,69,70)       -179.9221         estimate D2E/DX2                !
 ! D226  D(72,68,69,70)         -1.7866         estimate D2E/DX2                !
 ! D227  D(64,68,72,71)        179.9906         estimate D2E/DX2                !
 ! D228  D(69,68,72,71)          1.7087         estimate D2E/DX2                !
 ! D229  D(68,69,70,71)          0.8496         estimate D2E/DX2                !
 ! D230  D(68,69,70,103)      -178.8119         estimate D2E/DX2                !
 ! D231  D(69,70,71,72)          0.4072         estimate D2E/DX2                !
 ! D232  D(69,70,71,73)        174.9735         estimate D2E/DX2                !
 ! D233  D(103,70,71,72)      -179.9317         estimate D2E/DX2                !
 ! D234  D(103,70,71,73)        -5.3654         estimate D2E/DX2                !
 ! D235  D(70,71,72,68)         -1.1489         estimate D2E/DX2                !
 ! D236  D(73,71,72,68)       -176.5283         estimate D2E/DX2                !
 ! D237  D(70,71,73,74)        -23.7247         estimate D2E/DX2                !
 ! D238  D(70,71,73,79)        145.7055         estimate D2E/DX2                !
 ! D239  D(72,71,73,74)        150.3042         estimate D2E/DX2                !
 ! D240  D(72,71,73,79)        -40.2656         estimate D2E/DX2                !
 ! D241  D(71,73,74,75)        174.8648         estimate D2E/DX2                !
 ! D242  D(71,73,74,104)        -7.1293         estimate D2E/DX2                !
 ! D243  D(79,73,74,75)          5.3546         estimate D2E/DX2                !
 ! D244  D(79,73,74,104)      -176.6395         estimate D2E/DX2                !
 ! D245  D(71,73,79,77)       -175.7852         estimate D2E/DX2                !
 ! D246  D(71,73,79,105)        12.1097         estimate D2E/DX2                !
 ! D247  D(74,73,79,77)         -6.6336         estimate D2E/DX2                !
 ! D248  D(74,73,79,105)      -178.7387         estimate D2E/DX2                !
 ! D249  D(73,74,75,76)          0.8041         estimate D2E/DX2                !
 ! D250  D(104,74,75,76)      -177.4823         estimate D2E/DX2                !
 ! D251  D(74,75,76,77)         -5.7099         estimate D2E/DX2                !
 ! D252  D(74,75,76,80)       -179.4765         estimate D2E/DX2                !
 ! D253  D(75,76,77,78)       -176.0561         estimate D2E/DX2                !
 ! D254  D(75,76,77,79)          4.1975         estimate D2E/DX2                !
 ! D255  D(80,76,77,78)         -2.5245         estimate D2E/DX2                !
 ! D256  D(80,76,77,79)        177.7291         estimate D2E/DX2                !
 ! D257  D(75,76,80,81)        179.6937         estimate D2E/DX2                !
 ! D258  D(75,76,80,84)          1.4622         estimate D2E/DX2                !
 ! D259  D(77,76,80,81)          5.5231         estimate D2E/DX2                !
 ! D260  D(77,76,80,84)       -172.7084         estimate D2E/DX2                !
 ! D261  D(76,77,79,73)          2.1674         estimate D2E/DX2                !
 ! D262  D(76,77,79,105)       174.8749         estimate D2E/DX2                !
 ! D263  D(78,77,79,73)       -177.6022         estimate D2E/DX2                !
 ! D264  D(78,77,79,105)        -4.8947         estimate D2E/DX2                !
 ! D265  D(76,80,81,82)        176.9685         estimate D2E/DX2                !
 ! D266  D(84,80,81,82)         -4.7727         estimate D2E/DX2                !
 ! D267  D(76,80,84,83)       -178.1036         estimate D2E/DX2                !
 ! D268  D(81,80,84,83)          3.6047         estimate D2E/DX2                !
 ! D269  D(80,81,82,83)          3.5795         estimate D2E/DX2                !
 ! D270  D(80,81,82,106)      -178.9668         estimate D2E/DX2                !
 ! D271  D(81,82,83,84)         -1.1361         estimate D2E/DX2                !
 ! D272  D(81,82,83,107)       173.5335         estimate D2E/DX2                !
 ! D273  D(106,82,83,84)      -178.2395         estimate D2E/DX2                !
 ! D274  D(106,82,83,107)       -3.5698         estimate D2E/DX2                !
 ! D275  D(82,83,84,80)         -1.1199         estimate D2E/DX2                !
 ! D276  D(107,83,84,80)      -175.5625         estimate D2E/DX2                !
 --------------------------------------------------------------------------------
 Trust Radius=3.00D-01 FncErr=1.00D-07 GrdErr=1.00D-06 EigMax=2.50D+02 EigMin=1.00D-04
 Number of steps in this run=    595 maximum allowed number of steps=    642.
 GradGradGradGradGradGradGradGradGradGradGradGradGradGradGradGradGradGrad

 Leave Link  103 at Sat Jul 25 16:03:08 2020, MaxMem=  4026531840 cpu:               0.1 elap:               0.0
 (Enter /opt/ohpc/pub/libs/gaussian/g16-A.03/sandybridge/g16/l202.exe)
 Stoichiometry    C56H23F7N14S7
 Framework group  C1[X(C56H23F7N14S7)]
 Deg. of freedom   315
 Full point group                 C1      NOp   1
 Largest Abelian subgroup         C1      NOp   1
 Largest concise Abelian subgroup C1      NOp   1
                         Standard orientation:                         
 ---------------------------------------------------------------------
 Center     Atomic      Atomic             Coordinates (Angstroms)
 Number     Number       Type             X           Y           Z
 ---------------------------------------------------------------------
      1          6           0      -26.076595   -3.963458    1.358543
      2          6           0      -24.827071   -4.339595    1.814033
      3          7           0      -23.638068   -3.826754    1.330748
      4          6           0      -23.695142   -2.849349    0.430389
      5          6           0      -24.922777   -2.357136   -0.076264
      6          9           0      -25.049169   -1.444630   -0.966392
      7          6           0      -26.096287   -3.031295    0.390103
      8          6           0      -22.444859   -2.169425   -0.049171
      9          7           0      -22.297414   -1.399984   -1.134149
     10          6           0      -20.969932   -1.012430   -1.266676
     11          6           0      -20.129041   -1.490254   -0.297185
     12         16           0      -20.993976   -2.564163    0.798532
     13          6           0      -18.660353   -1.250207   -0.162974
     14          6           0      -17.831866   -2.310520    0.204714
     15          7           0      -16.465130   -2.081035    0.389076
     16          6           0      -15.952650   -0.837650    0.091681
     17          6           0      -16.773490    0.174158   -0.308131
     18          9           0      -16.325095    1.451830   -0.454314
     19          6           0      -18.179179   -0.008337   -0.407844
     20          6           0      -14.523941   -0.717813    0.348777
     21          7           0      -13.840676   -1.400430    1.237261
     22          6           0      -12.437295   -1.062099    1.127781
     23          6           0      -12.098006   -0.207351    0.129157
     24         16           0      -13.558881    0.311144   -0.648106
     25          6           0      -10.788561    0.324740   -0.145988
     26          6           0      -10.617100    1.739257   -0.406914
     27          7           0       -9.382360    2.209004   -0.771261
     28          6           0       -8.340379    1.374841   -0.866212
     29          6           0       -8.459931    0.077913   -0.641912
     30          9           0       -7.364588   -0.821510   -0.751425
     31          6           0       -9.667000   -0.453590   -0.298063
     32          6           0       -7.061012    2.021419   -1.216511
     33          7           0       -6.886424    3.007850   -2.075501
     34          6           0       -5.581773    3.375679   -2.191202
     35          6           0       -4.686756    2.801442   -1.226069
     36         16           0       -5.635665    1.621395   -0.271840
     37          6           0       -3.315562    2.942957   -1.047247
     38          6           0       -2.434530    1.944884   -0.763413
     39          7           0       -1.023126    2.033670   -0.571417
     40          6           0       -0.559814    3.252897   -0.610085
     41          6           0       -1.340189    4.372579   -0.837462
     42          9           0       -0.834361    5.650843   -0.981490
     43          6           0       -2.667287    4.257468   -1.112202
     44          6           0        0.861220    3.401963   -0.366453
     45          7           0        1.553836    4.594264   -0.248688
     46          6           0        2.932447    4.332659   -0.064767
     47          6           0        3.278091    3.039978    0.079811
     48         16           0        1.889948    2.009646   -0.167767
     49          6           0        4.638448    2.383433    0.368994
     50          6           0        5.015593    1.216161   -0.152628
     51          7           0        6.220442    0.564292    0.018651
     52          6           0        7.094545    1.282253    0.820798
     53          6           0        6.698306    2.483121    1.467924
     54          9           0        7.565060    3.122004    2.281618
     55          6           0        5.450929    3.045911    1.221106
     56          6           0        8.374929    0.613672    1.056669
     57          7           0        8.512352   -0.743873    1.376454
     58          6           0        9.832284   -1.077307    1.481812
     59          6           0       10.705272   -0.040636    1.216621
     60         16           0        9.840126    1.477181    0.870712
     61          6           0       12.156308   -0.056726    1.250617
     62          6           0       12.922783   -1.079127    0.641943
     63          7           0       14.255531   -1.191350    0.588047
     64          6           0       14.922287   -0.228323    1.201487
     65          6           0       14.337317    0.960659    1.782319
     66          9           0       15.093015    1.933686    2.309352
     67          6           0       12.923884    0.995416    1.758184
     68          6           0       16.438814   -0.385642    1.214697
     69          7           0       17.283868    0.196428    2.041156
     70          6           0       18.551773   -0.137576    1.801917
     71          6           0       18.737890   -1.003281    0.736644
     72         16           0       17.178592   -1.345656    0.061874
     73          6           0       19.961024   -1.539123    0.080866
     74          6           0       21.141427   -0.800315    0.204414
     75          7           0       22.371981   -1.322473   -0.312044
     76          6           0       22.364176   -2.479495   -0.906271
     77          6           0       21.268072   -3.329844   -0.994656
     78          9           0       21.266380   -4.562729   -1.542018
     79          6           0       19.990142   -2.842587   -0.447210
     80          6           0       23.729441   -2.960778   -1.414286
     81          7           0       23.868142   -4.087181   -2.014015
     82          6           0       25.234174   -4.248436   -2.440951
     83          6           0       26.022969   -3.163330   -2.002316
     84         16           0       25.070843   -2.043694   -1.156264
     85          1           0      -26.924848   -4.520263    1.736490
     86          1           0      -24.657165   -5.082259    2.568690
     87          1           0      -27.124434   -2.644940   -0.019533
     88          1           0      -20.732419   -0.426764   -2.038194
     89          1           0      -18.161351   -3.331256    0.404753
     90          1           0      -18.752715    0.762765   -0.720377
     91          1           0      -11.809535   -1.560632    1.822958
     92          1           0      -11.434098    2.442097   -0.384668
     93          1           0       -9.800152   -1.521706   -0.135183
     94          1           0       -5.257838    4.150304   -2.822924
     95          1           0       -2.790031    0.904663   -0.706506
     96          1           0       -3.266904    5.100840   -1.286462
     97          1           0        3.583934    5.154583    0.014111
     98          1           0        4.384179    0.666171   -0.842901
     99          1           0        5.275403    4.015328    1.690667
    100          1           0       10.051561   -2.034784    1.714111
    101          1           0       12.363508   -1.871378    0.201490
    102          1           0       12.473032    1.891113    2.232557
    103          1           0       19.380779    0.239212    2.405043
    104          1           0       21.255409    0.154618    0.624545
    105          1           0       19.144222   -3.450535   -0.587977
[...]
  Beta virt. eigenvalues --    1.53785   1.54049   1.54463   1.54614   1.54760
  Beta virt. eigenvalues --    1.55175   1.55631   1.56009   1.56671   1.56690
  Beta virt. eigenvalues --    1.56873   1.56990   1.57259   1.57427   1.57766
  Beta virt. eigenvalues --    1.57954   1.58595   1.58789   1.59075   1.59238
  Beta virt. eigenvalues --    1.59369   1.59443   1.60057   1.60531   1.60632
  Beta virt. eigenvalues --    1.60816   1.60913   1.61264   1.61478   1.61549
  Beta virt. eigenvalues --    1.61711   1.61846   1.61891   1.61899   1.62217
  Beta virt. eigenvalues --    1.62480   1.62503   1.62823   1.62898   1.63010
  Beta virt. eigenvalues --    1.63201   1.63443   1.63598   1.64133   1.64241
  Beta virt. eigenvalues --    1.64343   1.64444   1.64622   1.64786   1.64907
  Beta virt. eigenvalues --    1.65109   1.65197   1.65436   1.65650   1.65773
  Beta virt. eigenvalues --    1.65990   1.66425   1.66529   1.66901   1.67193
  Beta virt. eigenvalues --    1.67288   1.67670   1.67696   1.67898   1.68144
  Beta virt. eigenvalues --    1.68426   1.68677   1.69030   1.69596   1.69739
  Beta virt. eigenvalues --    1.70274   1.70464   1.70599   1.72432   1.72469
  Beta virt. eigenvalues --    1.72680   1.73145   1.73414   1.73769   1.75064
  Beta virt. eigenvalues --    1.75213   1.75252   1.75796   1.76077   1.76348
  Beta virt. eigenvalues --    1.76386   1.76454   1.76888   1.77167   1.77268
  Beta virt. eigenvalues --    1.77404   1.77642   1.77990   1.78132   1.78275
  Beta virt. eigenvalues --    1.78431   1.78937   1.79155   1.79812   1.80041
  Beta virt. eigenvalues --    1.80138   1.80282   1.80712   1.80903   1.81151
  Beta virt. eigenvalues --    1.81429   1.81566   1.81946   1.82776   1.82978
  Beta virt. eigenvalues --    1.83396   1.83665   1.83770   1.84325   1.84759
  Beta virt. eigenvalues --    1.85211   1.85278   1.85733   1.86365   1.86614
  Beta virt. eigenvalues --    1.87163   1.87267   1.87623   1.87905   1.87946
  Beta virt. eigenvalues --    1.88184   1.88366   1.88578   1.88749   1.88913
  Beta virt. eigenvalues --    1.89219   1.89644   1.89842   1.90198   1.90305
  Beta virt. eigenvalues --    1.90762   1.91017   1.91096   1.91667   1.91910
  Beta virt. eigenvalues --    1.92302   1.93175   1.93498   1.93648   1.94040
  Beta virt. eigenvalues --    1.94638   1.95031   1.95266   1.95668   1.95773
  Beta virt. eigenvalues --    1.95909   1.96164   1.96297   1.96634   1.96752
  Beta virt. eigenvalues --    1.97107   1.97545   1.97925   1.98210   1.98319
  Beta virt. eigenvalues --    1.98617   1.99262   1.99348   1.99561   1.99854
  Beta virt. eigenvalues --    2.00193   2.00695   2.00933   2.01391   2.01728
  Beta virt. eigenvalues --    2.01930   2.01978   2.02196   2.03199   2.03848
  Beta virt. eigenvalues --    2.04472   2.04721   2.05017   2.05408   2.05544
  Beta virt. eigenvalues --    2.05632   2.06224   2.06598   2.06796   2.07265
  Beta virt. eigenvalues --    2.07491   2.07692   2.07975   2.08103   2.08528
  Beta virt. eigenvalues --    2.08676   2.08706   2.09389   2.13436   2.14845
  Beta virt. eigenvalues --    2.15748   2.15842   2.15877   2.16190   2.16590
  Beta virt. eigenvalues --    2.19768   2.20566   2.20828   2.21060   2.21363
  Beta virt. eigenvalues --    2.21591   2.21759   2.22583   2.22809   2.23428
  Beta virt. eigenvalues --    2.23654   2.24536   2.24761   2.25087   2.25148
  Beta virt. eigenvalues --    2.25655   2.26156   2.26736   2.27561   2.27843
  Beta virt. eigenvalues --    2.28484   2.29002   2.29334   2.29810   2.30234
  Beta virt. eigenvalues --    2.30412   2.30528   2.30749   2.31197   2.31383
  Beta virt. eigenvalues --    2.31557   2.31655   2.31839   2.31920   2.32029
  Beta virt. eigenvalues --    2.32237   2.32450   2.32776   2.32838   2.32914
  Beta virt. eigenvalues --    2.33105   2.33450   2.33715   2.33781   2.34261
  Beta virt. eigenvalues --    2.34757   2.35808   2.36096   2.37500   2.37781
  Beta virt. eigenvalues --    2.37818   2.38381   2.38615   2.38936   2.39420
  Beta virt. eigenvalues --    2.39845   2.41106   2.41930   2.42009   2.42403
  Beta virt. eigenvalues --    2.42908   2.43090   2.44517   2.46503   2.46889
  Beta virt. eigenvalues --    2.47253   2.47536   2.47673   2.47835   2.48064
  Beta virt. eigenvalues --    2.48338   2.48404   2.48558   2.48953   2.49152
  Beta virt. eigenvalues --    2.50402   2.50673   2.50734   2.51560   2.52243
  Beta virt. eigenvalues --    2.52450   2.53090   2.53812   2.54242   2.55157
  Beta virt. eigenvalues --    2.55776   2.56046   2.56651   2.57043   2.57410
  Beta virt. eigenvalues --    2.57829   2.59892   2.63523   2.64254   2.64816
  Beta virt. eigenvalues --    2.65111   2.65808   2.66070   2.66743   2.69538
  Beta virt. eigenvalues --    2.69754   2.70313   2.70786   2.71182   2.71708
  Beta virt. eigenvalues --    2.72096   2.73880   2.75936   2.76442   2.76868
  Beta virt. eigenvalues --    2.77384   2.77436   2.77497   2.79735   2.80619
  Beta virt. eigenvalues --    2.80826   2.81361   2.81904   2.82321   2.82702
  Beta virt. eigenvalues --    2.83944   2.84495   2.84627   2.84764   2.85501
  Beta virt. eigenvalues --    2.85535   2.85888   2.91692   2.92172   2.92678
  Beta virt. eigenvalues --    2.93333   2.94438   2.94562   2.95805   3.00922
  Beta virt. eigenvalues --    3.01787   3.03564   3.04172   3.06208   3.07066
  Beta virt. eigenvalues --    3.08247   3.26151   3.26588   3.27367   3.27848
  Beta virt. eigenvalues --    3.28321   3.28521   3.34530   3.52709   3.52777
  Beta virt. eigenvalues --    3.52850   3.54285   3.54360   3.54561   3.55212
  Beta virt. eigenvalues --    3.56858   3.57017   3.57029   3.57891   3.57955
  Beta virt. eigenvalues --    3.58206   3.58792   3.71364   3.71428   3.71486
  Beta virt. eigenvalues --    3.73825   3.73885   3.74108   3.74716   3.92744
  Beta virt. eigenvalues --    3.92816   3.92856   3.95663   3.95920   3.96158
  Beta virt. eigenvalues --    3.96708   4.13554   4.13649   4.13691   4.15252
  Beta virt. eigenvalues --    4.15463   4.15750   4.16327
          Condensed to atoms (all electrons):
          Atomic-Atomic Spin Densities.
 Mulliken charges and spin densities:
               1          2
     1  C   -0.013712  -0.000000
     2  C    0.091328   0.000000
     3  N   -0.209015   0.000000
     4  C    0.066688  -0.000000
     5  C    0.127240   0.000000
     6  F   -0.093879  -0.000000
     7  C    0.066211   0.000000
     8  C   -0.007202   0.000000
     9  N   -0.171275  -0.000000
    10  C    0.117524   0.000000
    11  C   -0.213329   0.000000
    12  S    0.192488   0.000000
    13  C    0.013686  -0.000000
    14  C    0.082133   0.000000
    15  N   -0.161135   0.000000
    16  C    0.052339   0.000000
    17  C    0.109236   0.000000
    18  F   -0.118680  -0.000000
    19  C    0.070198  -0.000000
    20  C   -0.006246  -0.000000
    21  N   -0.144333   0.000000
    22  C    0.128027   0.000000
    23  C   -0.210374   0.000000
    24  S    0.162692   0.000000
    25  C    0.015516  -0.000000
    26  C    0.080857   0.000000
    27  N   -0.160774  -0.000000
    28  C    0.052561   0.000000
    29  C    0.109754   0.000000
    30  F   -0.118535  -0.000000
    31  C    0.070068  -0.000000
    32  C   -0.006177   0.000000
    33  N   -0.144200  -0.000000
    34  C    0.128473   0.000000
    35  C   -0.210877  -0.000000
    36  S    0.160858  -0.000000
    37  C    0.011902   0.000000
    38  C    0.090757  -0.000000
    39  N   -0.207192   0.000000
    40  C    0.069715  -0.000000
    41  C    0.138255   0.000000
    42  F   -0.091865   0.000000
    43  C    0.059886  -0.000000
    44  C   -0.010971   0.000000
    45  N   -0.172784  -0.000000
    46  C    0.117801   0.000000
    47  C   -0.213264  -0.000000
    48  S    0.193991   0.000000
    49  C    0.013416   0.000000
    50  C    0.082108  -0.000000
    51  N   -0.160774   0.000000
    52  C    0.053046  -0.000000
    53  C    0.109010   0.000000
    54  F   -0.119339  -0.000000
    55  C    0.070130  -0.000000
    56  C   -0.006429   0.000000
    57  N   -0.144369  -0.000000
    58  C    0.129202  -0.000000
    59  C   -0.209546   0.000000
    60  S    0.157065  -0.000000
    61  C    0.005167  -0.000000
    62  C    0.091979   0.000000
    63  N   -0.207476  -0.000000
    64  C    0.069634  -0.000000
    65  C    0.135983   0.000000
    66  F   -0.091708  -0.000000
    67  C    0.064150   0.000000
    68  C   -0.011255  -0.000000
    69  N   -0.173243   0.000000
    70  C    0.118301  -0.000000
    71  C   -0.211404  -0.000000
    72  S    0.186681   0.000000
    73  C    0.002688   0.000000
    74  C    0.089130   0.000000
    75  N   -0.205870  -0.000000
    76  C    0.077773   0.000000
    77  C    0.133073  -0.000000
    78  F   -0.093071  -0.000000
    79  C    0.063907  -0.000000
    80  C   -0.032234  -0.000000
    81  N   -0.177307   0.000000
    82  C    0.115313   0.000000
    83  C   -0.163678  -0.000000
    84  S    0.186289   0.000000
    85  H    0.001349  -0.000000
    86  H    0.011296  -0.000000
    87  H    0.011061   0.000000
    88  H    0.004242  -0.000000
    89  H    0.012261  -0.000000
    90  H    0.000821  -0.000000
    91  H    0.006430   0.000000
    92  H    0.011710   0.000000
    93  H    0.001449   0.000000
    94  H    0.007566  -0.000000
    95  H    0.011264  -0.000000
    96  H    0.000700  -0.000000
    97  H    0.004442   0.000000
    98  H    0.012495   0.000000
    99  H    0.000552  -0.000000
   100  H    0.009276  -0.000000
   101  H    0.006733  -0.000000
   102  H    0.004391   0.000000
   103  H    0.006510  -0.000000
   104  H    0.004358   0.000000
   105  H    0.003612  -0.000000
   106  H    0.000925  -0.000000
   107  H    0.025849   0.000000
 Sum of Mulliken charges =  -0.00000   0.00000
 Mulliken charges and spin densities with hydrogens summed into heavy atoms:
               1          2
     1  C   -0.012363  -0.000000
     2  C    0.102624   0.000000
     3  N   -0.209015   0.000000
     4  C    0.066688  -0.000000
     5  C    0.127240   0.000000
     6  F   -0.093879  -0.000000
     7  C    0.077272   0.000000
     8  C   -0.007202   0.000000
     9  N   -0.171275  -0.000000
    10  C    0.121766   0.000000
    11  C   -0.213329   0.000000
    12  S    0.192488   0.000000
    13  C    0.013686  -0.000000
    14  C    0.094394   0.000000
    15  N   -0.161135   0.000000
    16  C    0.052339   0.000000
    17  C    0.109236   0.000000
    18  F   -0.118680  -0.000000
    19  C    0.071019  -0.000000
    20  C   -0.006246  -0.000000
    21  N   -0.144333   0.000000
    22  C    0.134457   0.000000
    23  C   -0.210374   0.000000
    24  S    0.162692   0.000000
    25  C    0.015516  -0.000000
    26  C    0.092567   0.000000
    27  N   -0.160774  -0.000000
    28  C    0.052561   0.000000
    29  C    0.109754   0.000000
    30  F   -0.118535  -0.000000
    31  C    0.071517  -0.000000
    32  C   -0.006177   0.000000
    33  N   -0.144200  -0.000000
    34  C    0.136040   0.000000
    35  C   -0.210877  -0.000000
    36  S    0.160858  -0.000000
    37  C    0.011902   0.000000
    38  C    0.102022  -0.000000
    39  N   -0.207192   0.000000
    40  C    0.069715  -0.000000
    41  C    0.138255   0.000000
    42  F   -0.091865   0.000000
    43  C    0.060586  -0.000000
    44  C   -0.010971   0.000000
    45  N   -0.172784  -0.000000
    46  C    0.122242   0.000000
    47  C   -0.213264  -0.000000
    48  S    0.193991   0.000000
    49  C    0.013416   0.000000
    50  C    0.094603  -0.000000
    51  N   -0.160774   0.000000
    52  C    0.053046  -0.000000
    53  C    0.109010   0.000000
    54  F   -0.119339  -0.000000
    55  C    0.070682  -0.000000
    56  C   -0.006429   0.000000
    57  N   -0.144369  -0.000000
    58  C    0.138478  -0.000000
    59  C   -0.209546   0.000000
    60  S    0.157065  -0.000000
    61  C    0.005167  -0.000000
    62  C    0.098712   0.000000
    63  N   -0.207476  -0.000000
    64  C    0.069634  -0.000000
    65  C    0.135983   0.000000
    66  F   -0.091708  -0.000000
    67  C    0.068541   0.000000
    68  C   -0.011255  -0.000000
    69  N   -0.173243   0.000000
    70  C    0.124810  -0.000000
    71  C   -0.211404  -0.000000
    72  S    0.186681   0.000000
    73  C    0.002688   0.000000
    74  C    0.093488   0.000000
    75  N   -0.205870  -0.000000
    76  C    0.077773   0.000000
    77  C    0.133073  -0.000000
    78  F   -0.093071  -0.000000
    79  C    0.067519  -0.000000
    80  C   -0.032234  -0.000000
    81  N   -0.177307   0.000000
    82  C    0.116238   0.000000
    83  C   -0.137829  -0.000000
    84  S    0.186289   0.000000
 Electronic spatial extent (au):  <R**2>=         563851.4583
 Charge=             -0.0000 electrons
 Dipole moment (field-independent basis, Debye):
    X=            -10.2799    Y=              0.1813    Z=              1.0154  Tot=             10.3316
 Quadrupole moment (field-independent basis, Debye-Ang):
   XX=           -347.5439   YY=           -509.7235   ZZ=           -517.2500
   XY=             63.6391   XZ=            -10.0789   YZ=             -2.6220
 Traceless Quadrupole moment (field-independent basis, Debye-Ang):
   XX=            110.6286   YY=            -51.5511   ZZ=            -59.0775
   XY=             63.6391   XZ=            -10.0789   YZ=             -2.6220
 Octapole moment (field-independent basis, Debye-Ang**2):
  XXX=          -6966.4770  YYY=             23.5488  ZZZ=              0.1493  XYY=           -238.8362
  XXY=          -1098.2696  XXZ=            430.3245  XZZ=            -73.0525  YZZ=             -0.5767
  YYZ=             26.0858  XYZ=            114.8742
 Hexadecapole moment (field-independent basis, Debye-Ang**3):
 XXXX=        -518667.5153 YYYY=         -25625.6542 ZZZZ=          -2698.5133 XXXY=          36649.6224
 XXXZ=         -15256.1685 YYYX=           1824.2329 YYYZ=              2.3669 ZZZX=            349.2482
 ZZZY=             37.8586 XXYY=        -121666.6334 XXZZ=        -124067.9263 YYZZ=          -4702.6480
 XXYZ=          -2894.3933 YYXZ=           -492.0681 ZZXY=            263.4684
 N-N= 1.150993148350D+04 E-N=-3.807616764172D+04  KE= 6.368575614145D+03
 Leave Link  601 at Sat Jul 25 22:09:36 2020, MaxMem=  4026531840 cpu:              13.5 elap:               1.9
 (Enter /opt/ohpc/pub/libs/gaussian/g16-A.03/sandybridge/g16/l9999.exe)

 Test job not archived.
 1\1\GINC-SKYLAKE033\FOpt\ULC-wPBE\CC-pVDZ\C56H23F7N14S7\RDU230\25-Jul-
 2020\0\\#P uLC-wPBE/cc-pVDZ iop(3/107=0163300000, 3/108=0163300000) op
 t\\H23 C56 S7 N14 F7\\0,1\C,-25.9012086072,-4.4948690504,1.0360018041\
 C,-24.7063224571,-4.4060735229,1.7645491882\N,-23.5830068109,-3.874262
 3934,1.2703391705\C,-23.5847966261,-3.3945337217,0.0089990336\C,-24.74
 76048627,-3.4475633017,-0.7858245855\F,-24.7514816218,-2.9698918651,-2
 .0406613281\C,-25.9193013161,-4.0026681923,-0.27103476\C,-22.308271093
 4,-2.8268363556,-0.4520631992\N,-22.0551022927,-2.30532753,-1.63251760
 64\C,-20.7582180112,-1.8788031309,-1.6951718104\C,-19.9845713041,-2.06
 40332975,-0.5591769493\S,-20.9552270451,-2.8267193804,0.673579362\C,-1
 8.5747592385,-1.7115748784,-0.356727184\C,-17.7603773657,-2.3704639283
 ,0.5949337753\N,-16.4751130136,-2.0976457505,0.8145191175\C,-15.876419
 3218,-1.1329058077,0.0854035509\C,-16.6135201928,-0.4325655887,-0.8876
 921006\F,-16.0188442612,0.5426746862,-1.6202530379\C,-17.9568766609,-0
 .7015780214,-1.1145883494\C,-14.4502605114,-0.8718963971,0.3728812616\
 N,-13.7785632597,-1.52966512,1.2962813119\C,-12.4869286783,-1.09996102
 57,1.3558684628\C,-12.1167271523,-0.0925355729,0.4777519566\S,-13.4998
 03273,0.337839722,-0.4891442826\C,-10.8103481279,0.5579810622,0.331623
 2785\C,-10.6682211161,1.8568655708,-0.212136686\N,-9.5091451682,2.4961
 487157,-0.3607535655\C,-8.3708760277,1.88949602,0.0355280407\C,-8.4243
 585619,0.5987165421,0.5940788329\F,-7.2828703338,-0.0189687132,0.98977
 66256\C,-9.6265733693,-0.0805267554,0.7408496835\C,-7.1147875683,2.644
 7606773,-0.1549165584\N,-7.0821038279,3.8483028884,-0.6901804523\C,-5.
 8050405977,4.3201575974,-0.7478823407\C,-4.80538129,3.4936586717,-0.25
 75765138\S,-5.5344069142,2.0200354222,0.3167401746\C,-3.3600597122,3.7
 400915555,-0.2040815216\C,-2.4180162237,2.686448188,-0.168021559\N,-1.
 0982443697,2.8665600356,-0.1281877483\C,-0.5984003489,4.1199767418,-0.
 1299659459\C,-1.4639375656,5.2318407191,-0.1697124853\F,-0.9821307542,
 6.4846933128,-0.1640559502\C,-2.8429519674,5.0481072887,-0.1991077435\
 C,0.8659585205,4.2226018574,-0.0834587177\N,1.5797817897,5.3277713936,
 -0.0821487034\C,2.9126336508,5.032039814,-0.0307393973\C,3.2534374625,
 3.6880618358,0.0091822067\S,1.7962081914,2.7295234329,-0.0190167126\C,
 4.5944589172,3.0949564689,0.0578602319\C,4.8576197049,1.7830568884,-0.
 4031561112\N,6.054615578,1.1986452362,-0.3903328855\C,7.1144961639,1.8
 862869713,0.0835133633\C,6.9407052999,3.2006090687,0.5559560113\F,8.00
 1341715,3.8957705477,1.03940615\C,5.6945704556,3.8132932766,0.55799287
 87\C,8.4168779511,1.1874873376,0.0753558966\N,8.5594684174,-0.04763090
 74,-0.360009442\C,9.8576034996,-0.4518084338,-0.2625807614\C,10.763866
 3104,0.4625593167,0.2527669862\S,9.9134097399,1.9323587953,0.638362210
 8\C,12.20568326,0.2970714019,0.4699238982\C,12.9568633726,-0.608079403
 1,-0.3156935664\N,14.2619060433,-0.8259190918,-0.1565159696\C,14.94002
 20576,-0.1458155157,0.7922004334\C,14.2754440001,0.7915672929,1.608037
 849\F,14.9361701677,1.4808715159,2.5513421932\C,12.9096486271,1.012030
 3939,1.4545660544\C,16.3731242362,-0.4502595319,0.8943805487\N,17.2325
 89539,0.0731928094,1.7412222828\C,18.4786478792,-0.4520806916,1.541186
 1121\C,18.6038303386,-1.3934554673,0.5303281037\S,17.0481027046,-1.634
 2073871,-0.2206243879\C,19.8114841207,-2.1123218012,0.1056989091\C,21.
 0940863862,-1.5451137924,0.2839844677\N,22.2313340057,-2.152175265,-0.
 0556633176\C,22.1897894233,-3.3773197956,-0.6206490378\C,20.9519157978
 ,-4.0097434888,-0.8546072924\F,20.8901531397,-5.2252445927,-1.42162082
 59\C,19.7629887697,-3.3849753985,-0.4894653738\C,23.4899944164,-3.9722
 081206,-0.9612845361\N,23.6962104658,-5.148274306,-1.5109544927\C,25.0
 401672744,-5.3668793779,-1.6799808601\C,25.8732740225,-4.3538973351,-1
 .2584162315\S,24.9491160447,-3.0457408666,-0.6115523672\H,-26.79913779
 68,-4.9406233953,1.4833773519\H,-24.6482597402,-4.7815548955,2.7976511
 614\H,-26.8162942322,-4.036867951,-0.9028027817\H,-20.3887396309,-1.44
 13931041,-2.6314935503\H,-18.1876927655,-3.1792239035,1.2100283665\H,-
 18.5001759257,-0.1094924124,-1.8614982069\H,-11.8150800165,-1.54581768
 11,2.1005364256\H,-11.5630640099,2.411723915,-0.5386883976\H,-9.617285
 105,-1.0972448,1.1528478351\H,-5.6248157765,5.3062256382,-1.1948487675
 \H,-2.760478887,1.6395555095,-0.1820381617\H,-3.4921079113,5.932771013
 9,-0.1993625096\H,3.6391054295,5.8544656784,-0.0490236052\H,4.03568389
 ,1.1763946699,-0.8172646777\H,5.6003340446,4.8279294622,0.9644867473\H
 ,10.1192204309,-1.4735166449,-0.5656353054\H,12.4697184835,-1.17207436
 35,-1.1254122112\H,12.4133463188,1.7313531128,2.1195202463\H,19.301410
 2742,-0.1326698515,2.1930571405\H,21.1962682377,-0.5361973957,0.711880
 7558\H,18.8147409975,-3.9108003983,-0.6635502109\H,25.3773495798,-6.30
 91822396,-2.1292649547\H,26.9664664724,-4.3137971643,-1.2963188543\\Ve
 rsion=EM64L-G16RevA.03\State=1-A\HF=-6396.6584801\S2=0.\S2-1=0.\S2A=0.
 \RMSD=8.071e-09\RMSF=1.509e-06\Dipole=-4.0446197,0.0502731,0.4008754\Q
 uadrupole=82.3395934,-38.194098,-44.1454954,47.5783578,-4.5064006,-1.5
 615275\PG=C01 [X(C56H23F7N14S7)]\\@


 THE SECRET OF SUCCESS IN LIFE IS TO EAT WHAT YOU LIKE, AND LET THE FOOD
 FIGHT IT OUT INSIDE YOU. -- FROM A FORTUNE COOKIE
 Job cpu time:       1 days 23 hours 56 minutes 50.5 seconds.
 Elapsed time:       0 days  6 hours  6 minutes 25.3 seconds.
 File lengths (MBytes):  RWF=   1948 Int=      0 D2E=      0 Chk=    176 Scr=      8
 Normal termination of Gaussian 16 at Sat Jul 25 22:09:36 2020.
