 Entering Gaussian System, Link 0=g16
 Input=mols_65_1_15_c-cOC-COC_opt_0.gjf
 Output=mols_65_1_15_c-cOC-COC_opt_0.log
 Initial command:
 /opt/ohpc/pub/libs/gaussian/g16-A.03/sandybridge/g16/l1.exe "/mnt/gpfs2_4m/scratch/rdu230/ondemand/projects/dihedral_energies/7trial/wtuning/mols_65_1_15_c-cOC-COC/Gau-42014.inp" -scrdir="/mnt/gpfs2_4m/scratch/rdu230/ondemand/projects/dihedral_energies/7trial/wtuning/mols_65_1_15_c-cOC-COC/"
 Entering Link 1 = /opt/ohpc/pub/libs/gaussian/g16-A.03/sandybridge/g16/l1.exe PID=     42019.
  
 Copyright (c) 1988,1990,1992,1993,1995,1998,2003,2009,2016,
            Gaussian, Inc.  All Rights Reserved.
  
 This is part of the Gaussian(R) 16 program.  It is based on
 the Gaussian(R) 09 system (copyright 2009, Gaussian, Inc.),
 the Gaussian(R) 03 system (copyright 2003, Gaussian, Inc.),
 the Gaussian(R) 98 system (copyright 1998, Gaussian, Inc.),
 the Gaussian(R) 94 system (copyright 1995, Gaussian, Inc.),
 the Gaussian 92(TM) system (copyright 1992, Gaussian, Inc.),
 the Gaussian 90(TM) system (copyright 1990, Gaussian, Inc.),
 the Gaussian 88(TM) system (copyright 1988, Gaussian, Inc.),
 the Gaussian 86(TM) system (copyright 1986, Carnegie Mellon
 University), and the Gaussian 82(TM) system (copyright 1983,
 Carnegie Mellon University). Gaussian is a federally registered
 trademark of Gaussian, Inc.
  
 This software contains proprietary and confidential information,
 including trade secrets, belonging to Gaussian, Inc.
  
 This software is provided under written license and may be
 used, copied, transmitted, or stored only in accord with that
 written license.
  
 The following legend is applicable only to US Government
 contracts under FAR:
  
                    RESTRICTED RIGHTS LEGEND
  
 Use, reproduction and disclosure by the US Government is
 subject to restrictions as set forth in subparagraphs (a)
 and (c) of the Commercial Computer Software - Restricted
 Rights clause in FAR 52.227-19.
  
 Gaussian, Inc.
 340 Quinnipiac St., Bldg. 40, Wallingford CT 06492
  
  
 ---------------------------------------------------------------
 Warning -- This program may not be used in any manner that
 competes with the business of Gaussian, Inc. or will provide
 assistance to any competitor of Gaussian, Inc.  The licensee
 of this program is prohibited from giving any competitor of
 Gaussian, Inc. access to this program.  By using this program,
 the user acknowledges that Gaussian, Inc. is engaged in the
 business of creating and licensing software in the field of
 computational chemistry and represents and warrants to the
 licensee that it is not a competitor of Gaussian, Inc. and that
 it will not use this program in any manner prohibited above.
 ---------------------------------------------------------------
  

 Cite this work as:
 Gaussian 16, Revision A.03,
 M. J. Frisch, G. W. Trucks, H. B. Schlegel, G. E. Scuseria, 
 M. A. Robb, J. R. Cheeseman, G. Scalmani, V. Barone, 
 G. A. Petersson, H. Nakatsuji, X. Li, M. Caricato, A. V. Marenich, 
 J. Bloino, B. G. Janesko, R. Gomperts, B. Mennucci, H. P. Hratchian, 
 J. V. Ortiz, A. F. Izmaylov, J. L. Sonnenberg, D. Williams-Young, 
 F. Ding, F. Lipparini, F. Egidi, J. Goings, B. Peng, A. Petrone, 
 T. Henderson, D. Ranasinghe, V. G. Zakrzewski, J. Gao, N. Rega, 
 G. Zheng, W. Liang, M. Hada, M. Ehara, K. Toyota, R. Fukuda, 
 J. Hasegawa, M. Ishida, T. Nakajima, Y. Honda, O. Kitao, H. Nakai, 
 T. Vreven, K. Throssell, J. A. Montgomery, Jr., J. E. Peralta, 
 F. Ogliaro, M. J. Bearpark, J. J. Heyd, E. N. Brothers, K. N. Kudin, 
 V. N. Staroverov, T. A. Keith, R. Kobayashi, J. Normand, 
 K. Raghavachari, A. P. Rendell, J. C. Burant, S. S. Iyengar, 
 J. Tomasi, M. Cossi, J. M. Millam, M. Klene, C. Adamo, R. Cammi, 
 J. W. Ochterski, R. L. Martin, K. Morokuma, O. Farkas, 
 J. B. Foresman, and D. J. Fox, Gaussian, Inc., Wallingford CT, 2016.
 
 ******************************************
 Gaussian 16:  EM64L-G16RevA.03 25-Dec-2016
                24-Jul-2020 
 ******************************************
 %mem=30GB
 %nproc=8
 Will use up to    8 processors via shared memory.
 ---------------------------------------------------------------
 #P uLC-wPBE/cc-pVDZ iop(3/107=0366700000, 3/108=0366700000) opt
 ---------------------------------------------------------------
 1/18=20,19=15,26=3,38=1/1,3;
 2/9=110,12=2,17=6,18=5,40=1/2;
 3/5=16,11=2,25=1,30=1,71=1,74=-41,107=366700000,108=366700000,116=2/1,2,3;
 4//1;
 5/5=2,38=5/2;
 6/7=2,8=2,9=2,10=2,28=1/1;
 7//1,2,3,16;
 1/18=20,19=15,26=3/3(2);
 2/9=110/2;
 99//99;
 2/9=110/2;
 3/5=16,11=2,25=1,30=1,71=1,74=-41,107=366700000,108=366700000,116=2/1,2,3;
 4/5=5,16=3,69=1/1;
 5/5=2,38=5/2;
 7//1,2,3,16;
 1/18=20,19=15,26=3/3(-5);
 2/9=110/2;
 6/7=2,8=2,9=2,10=2,19=2,28=1/1;
 99/9=1/99;
 Leave Link    1 at Fri Jul 24 14:32:37 2020, MaxMem=  4026531840 cpu:               2.4 elap:               0.4
 (Enter /opt/ohpc/pub/libs/gaussian/g16-A.03/sandybridge/g16/l101.exe)
 -------------
 H12 C12 S1 O2
 -------------
 Symbolic Z-matrix:
 Charge =  0 Multiplicity = 1
 C                     3.34075   1.23471  -0.45968 
 C                     2.32458   1.93124  -1.16024 
 C                     1.00323   1.51752  -1.15834 
 C                     0.65121   0.32271  -0.38789 
 C                     1.68104  -0.38653   0.27896 
 O                     1.31855  -1.43455   0.99239 
 C                     2.30709  -2.1516    1.71348 
 C                     2.97464   0.09417   0.26981 
 C                    -0.7146   -0.12817  -0.4633 
 C                    -1.81173   0.44619   0.18584 
 O                    -1.61632   1.51164   1.03639 
 C                    -2.7628    1.95295   1.67323 
 C                    -2.99595  -0.33909  -0.041 
 C                    -2.8118   -1.40328  -0.8659 
 S                    -1.1996   -1.47074  -1.33155 
 H                     4.30486   1.63643  -0.53018 
 H                     2.54744   2.83655  -1.81814 
 H                     0.27631   1.96383  -1.70692 
 H                     1.81994  -3.02299   2.28145 
 H                     2.78268  -1.50508   2.54065 
 H                     3.08554  -2.58554   1.08299 
 H                     3.7832   -0.33457   0.76178 
 H                    -3.56465   2.28236   1.06133 
 H                    -2.55837   2.7991    2.30676 
 H                    -3.15827   1.21687   2.4262 
 H                    -3.96497  -0.0547    0.41259 
 H                    -3.49501  -2.072    -1.19185 
 
 ITRead=  0  0  0  0  0  0  0  0  0  0  0  0  0  0  0  0  0  0  0  0
 ITRead=  0  0  0  0  0  0  0
 MicOpt= -1 -1 -1 -1 -1 -1 -1 -1 -1 -1 -1 -1 -1 -1 -1 -1 -1 -1 -1 -1
 MicOpt= -1 -1 -1 -1 -1 -1 -1
 NAtoms=     27 NQM=       27 NQMF=       0 NMMI=      0 NMMIF=      0
                NMic=       0 NMicF=      0.
                    Isotopes and Nuclear Properties:
 (Nuclear quadrupole moments (NQMom) in fm**2, nuclear magnetic moments (NMagM)
  in nuclear magnetons)

  Atom         1           2           3           4           5           6           7           8           9          10
 IAtWgt=          12          12          12          12          12          16          12          12          12          12
 AtmWgt=  12.0000000  12.0000000  12.0000000  12.0000000  12.0000000  15.9949146  12.0000000  12.0000000  12.0000000  12.0000000
 NucSpn=           0           0           0           0           0           0           0           0           0           0
 AtZEff=  -0.0000000  -0.0000000  -0.0000000  -0.0000000  -0.0000000  -0.0000000  -0.0000000  -0.0000000  -0.0000000  -0.0000000
 NQMom=    0.0000000   0.0000000   0.0000000   0.0000000   0.0000000   0.0000000   0.0000000   0.0000000   0.0000000   0.0000000
 NMagM=    0.0000000   0.0000000   0.0000000   0.0000000   0.0000000   0.0000000   0.0000000   0.0000000   0.0000000   0.0000000
 AtZNuc=   6.0000000   6.0000000   6.0000000   6.0000000   6.0000000   8.0000000   6.0000000   6.0000000   6.0000000   6.0000000

  Atom        11          12          13          14          15          16          17          18          19          20
 IAtWgt=          16          12          12          12          32           1           1           1           1           1
 AtmWgt=  15.9949146  12.0000000  12.0000000  12.0000000  31.9720718   1.0078250   1.0078250   1.0078250   1.0078250   1.0078250
 NucSpn=           0           0           0           0           0           1           1           1           1           1
 AtZEff=  -0.0000000  -0.0000000  -0.0000000  -0.0000000  -0.0000000  -0.0000000  -0.0000000  -0.0000000  -0.0000000  -0.0000000
 NQMom=    0.0000000   0.0000000   0.0000000   0.0000000   0.0000000   0.0000000   0.0000000   0.0000000   0.0000000   0.0000000
 NMagM=    0.0000000   0.0000000   0.0000000   0.0000000   0.0000000   2.7928460   2.7928460   2.7928460   2.7928460   2.7928460
 AtZNuc=   8.0000000   6.0000000   6.0000000   6.0000000  16.0000000   1.0000000   1.0000000   1.0000000   1.0000000   1.0000000

  Atom        21          22          23          24          25          26          27
 IAtWgt=           1           1           1           1           1           1           1
 AtmWgt=   1.0078250   1.0078250   1.0078250   1.0078250   1.0078250   1.0078250   1.0078250
 NucSpn=           1           1           1           1           1           1           1
 AtZEff=  -0.0000000  -0.0000000  -0.0000000  -0.0000000  -0.0000000  -0.0000000  -0.0000000
 NQMom=    0.0000000   0.0000000   0.0000000   0.0000000   0.0000000   0.0000000   0.0000000
 NMagM=    2.7928460   2.7928460   2.7928460   2.7928460   2.7928460   2.7928460   2.7928460
 AtZNuc=   1.0000000   1.0000000   1.0000000   1.0000000   1.0000000   1.0000000   1.0000000
 Leave Link  101 at Fri Jul 24 14:32:38 2020, MaxMem=  4026531840 cpu:               3.0 elap:               0.4
 (Enter /opt/ohpc/pub/libs/gaussian/g16-A.03/sandybridge/g16/l103.exe)

 GradGradGradGradGradGradGradGradGradGradGradGradGradGradGradGradGradGrad
 Berny optimization.
 Initialization pass.
                           ----------------------------
                           !    Initial Parameters    !
                           ! (Angstroms and Degrees)  !
 --------------------------                            --------------------------
 ! Name  Definition              Value          Derivative Info.                !
 --------------------------------------------------------------------------------
 ! R1    R(1,2)                  1.4172         estimate D2E/DX2                !
 ! R2    R(1,8)                  1.4025         estimate D2E/DX2                !
 ! R3    R(1,16)                 1.0468         estimate D2E/DX2                !
 ! R4    R(2,3)                  1.3846         estimate D2E/DX2                !
 ! R5    R(2,17)                 1.1411         estimate D2E/DX2                !
 ! R6    R(3,4)                  1.4646         estimate D2E/DX2                !
 ! R7    R(3,18)                 1.0142         estimate D2E/DX2                !
 ! R8    R(4,5)                  1.4171         estimate D2E/DX2                !
 ! R9    R(4,9)                  1.4403         estimate D2E/DX2                !
 ! R10   R(5,6)                  1.3186         estimate D2E/DX2                !
 ! R11   R(5,8)                  1.3801         estimate D2E/DX2                !
 ! R12   R(6,7)                  1.4182         estimate D2E/DX2                !
 ! R13   R(7,19)                 1.1486         estimate D2E/DX2                !
 ! R14   R(7,20)                 1.1526         estimate D2E/DX2                !
 ! R15   R(7,21)                 1.0917         estimate D2E/DX2                !
 ! R16   R(8,22)                 1.039          estimate D2E/DX2                !
 ! R17   R(9,10)                 1.3982         estimate D2E/DX2                !
 ! R18   R(9,15)                 1.6708         estimate D2E/DX2                !
 ! R19   R(10,11)                1.3772         estimate D2E/DX2                !
 ! R20   R(10,13)                1.4389         estimate D2E/DX2                !
 ! R21   R(11,12)                1.3837         estimate D2E/DX2                !
 ! R22   R(12,23)                1.0611         estimate D2E/DX2                !
 ! R23   R(12,24)                1.0766         estimate D2E/DX2                !
 ! R24   R(12,25)                1.1248         estimate D2E/DX2                !
 ! R25   R(13,14)                1.359          estimate D2E/DX2                !
 ! R26   R(13,26)                1.1071         estimate D2E/DX2                !
 ! R27   R(14,15)                1.6795         estimate D2E/DX2                !
 ! R28   R(14,27)                1.0101         estimate D2E/DX2                !
 ! A1    A(2,1,8)              118.0091         estimate D2E/DX2                !
 ! A2    A(2,1,16)             116.0059         estimate D2E/DX2                !
 ! A3    A(8,1,16)             125.9806         estimate D2E/DX2                !
 ! A4    A(1,2,3)              122.4616         estimate D2E/DX2                !
 ! A5    A(1,2,17)             122.3359         estimate D2E/DX2                !
 ! A6    A(3,2,17)             115.1018         estimate D2E/DX2                !
 ! A7    A(2,3,4)              118.2842         estimate D2E/DX2                !
 ! A8    A(2,3,18)             123.49           estimate D2E/DX2                !
 ! A9    A(4,3,18)             118.1167         estimate D2E/DX2                !
 ! A10   A(3,4,5)              118.7605         estimate D2E/DX2                !
 ! A11   A(3,4,9)              117.114          estimate D2E/DX2                !
 ! A12   A(5,4,9)              123.8551         estimate D2E/DX2                !
 ! A13   A(4,5,6)              116.9105         estimate D2E/DX2                !
 ! A14   A(4,5,8)              120.2478         estimate D2E/DX2                !
 ! A15   A(6,5,8)              122.5545         estimate D2E/DX2                !
 ! A16   A(5,6,7)              119.034          estimate D2E/DX2                !
 ! A17   A(6,7,19)             109.8388         estimate D2E/DX2                !
 ! A18   A(6,7,20)             111.6486         estimate D2E/DX2                !
 ! A19   A(6,7,21)             113.8511         estimate D2E/DX2                !
 ! A20   A(19,7,20)            104.2224         estimate D2E/DX2                !
 ! A21   A(19,7,21)            106.6461         estimate D2E/DX2                !
 ! A22   A(20,7,21)            110.0727         estimate D2E/DX2                !
 ! A23   A(1,8,5)              122.0992         estimate D2E/DX2                !
 ! A24   A(1,8,22)             112.2529         estimate D2E/DX2                !
 ! A25   A(5,8,22)             125.6311         estimate D2E/DX2                !
 ! A26   A(4,9,10)             126.2421         estimate D2E/DX2                !
 ! A27   A(4,9,15)             123.6436         estimate D2E/DX2                !
 ! A28   A(10,9,15)            110.0947         estimate D2E/DX2                !
 ! A29   A(9,10,11)            119.5495         estimate D2E/DX2                !
 ! A30   A(9,10,13)            110.39           estimate D2E/DX2                !
 ! A31   A(11,10,13)           129.5175         estimate D2E/DX2                !
 ! A32   A(10,11,12)           114.4184         estimate D2E/DX2                !
 ! A33   A(11,12,23)           117.3701         estimate D2E/DX2                !
 ! A34   A(11,12,24)           111.3554         estimate D2E/DX2                !
 ! A35   A(11,12,25)           112.9969         estimate D2E/DX2                !
 ! A36   A(23,12,24)           103.8181         estimate D2E/DX2                !
 ! A37   A(23,12,25)           108.8749         estimate D2E/DX2                !
 ! A38   A(24,12,25)           100.7868         estimate D2E/DX2                !
 ! A39   A(10,13,14)           114.3004         estimate D2E/DX2                !
 ! A40   A(10,13,26)           121.036          estimate D2E/DX2                !
 ! A41   A(14,13,26)           124.6433         estimate D2E/DX2                !
 ! A42   A(13,14,15)           109.2587         estimate D2E/DX2                !
 ! A43   A(13,14,27)           128.5111         estimate D2E/DX2                !
 ! A44   A(15,14,27)           122.2253         estimate D2E/DX2                !
 ! A45   A(9,15,14)             95.8711         estimate D2E/DX2                !
 ! D1    D(8,1,2,3)             -0.7193         estimate D2E/DX2                !
 ! D2    D(8,1,2,17)          -176.8897         estimate D2E/DX2                !
 ! D3    D(16,1,2,3)           179.9985         estimate D2E/DX2                !
 ! D4    D(16,1,2,17)            3.8281         estimate D2E/DX2                !
 ! D5    D(2,1,8,5)              2.5252         estimate D2E/DX2                !
 ! D6    D(2,1,8,22)          -178.8916         estimate D2E/DX2                !
 ! D7    D(16,1,8,5)          -178.2721         estimate D2E/DX2                !
 ! D8    D(16,1,8,22)            0.3111         estimate D2E/DX2                !
 ! D9    D(1,2,3,4)              0.704          estimate D2E/DX2                !
 ! D10   D(1,2,3,18)          -175.4215         estimate D2E/DX2                !
 ! D11   D(17,2,3,4)           177.1312         estimate D2E/DX2                !
 ! D12   D(17,2,3,18)            1.0057         estimate D2E/DX2                !
 ! D13   D(2,3,4,5)             -2.3713         estimate D2E/DX2                !
 ! D14   D(2,3,4,9)           -176.6315         estimate D2E/DX2                !
 ! D15   D(18,3,4,5)           173.9654         estimate D2E/DX2                !
 ! D16   D(18,3,4,9)            -0.2948         estimate D2E/DX2                !
 ! D17   D(3,4,5,6)            178.1475         estimate D2E/DX2                !
 ! D18   D(3,4,5,8)              4.1473         estimate D2E/DX2                !
 ! D19   D(9,4,5,6)             -8.0061         estimate D2E/DX2                !
 ! D20   D(9,4,5,8)            177.9937         estimate D2E/DX2                !
 ! D21   D(3,4,9,10)           -76.1592         estimate D2E/DX2                !
 ! D22   D(3,4,9,15)           105.6126         estimate D2E/DX2                !
 ! D23   D(5,4,9,10)           109.9011         estimate D2E/DX2                !
 ! D24   D(5,4,9,15)           -68.3272         estimate D2E/DX2                !
 ! D25   D(4,5,6,7)           -177.9804         estimate D2E/DX2                !
 ! D26   D(8,5,6,7)             -4.1301         estimate D2E/DX2                !
 ! D27   D(4,5,8,1)             -4.308          estimate D2E/DX2                !
 ! D28   D(4,5,8,22)           177.3053         estimate D2E/DX2                !
 ! D29   D(6,5,8,1)           -177.9592         estimate D2E/DX2                !
 ! D30   D(6,5,8,22)             3.6541         estimate D2E/DX2                !
 ! D31   D(5,6,7,19)           179.5891         estimate D2E/DX2                !
 ! D32   D(5,6,7,20)            64.4885         estimate D2E/DX2                !
 ! D33   D(5,6,7,21)           -60.9072         estimate D2E/DX2                !
 ! D34   D(4,9,10,11)           -3.0617         estimate D2E/DX2                !
 ! D35   D(4,9,10,13)         -175.3988         estimate D2E/DX2                !
 ! D36   D(15,9,10,11)         175.3678         estimate D2E/DX2                !
 ! D37   D(15,9,10,13)           3.0307         estimate D2E/DX2                !
 ! D38   D(4,9,15,14)          176.4612         estimate D2E/DX2                !
 ! D39   D(10,9,15,14)          -2.0173         estimate D2E/DX2                !
 ! D40   D(9,10,11,12)        -176.8702         estimate D2E/DX2                !
 ! D41   D(13,10,11,12)         -6.1944         estimate D2E/DX2                !
 ! D42   D(9,10,13,14)          -2.9197         estimate D2E/DX2                !
 ! D43   D(9,10,13,26)         178.6483         estimate D2E/DX2                !
 ! D44   D(11,10,13,14)       -174.2714         estimate D2E/DX2                !
 ! D45   D(11,10,13,26)          7.2967         estimate D2E/DX2                !
 ! D46   D(10,11,12,23)        -59.2661         estimate D2E/DX2                !
 ! D47   D(10,11,12,24)       -178.6849         estimate D2E/DX2                !
 ! D48   D(10,11,12,25)         68.7181         estimate D2E/DX2                !
 ! D49   D(10,13,14,15)          1.4139         estimate D2E/DX2                !
 ! D50   D(10,13,14,27)       -177.7879         estimate D2E/DX2                !
 ! D51   D(26,13,14,15)        179.7808         estimate D2E/DX2                !
 ! D52   D(26,13,14,27)          0.5789         estimate D2E/DX2                !
 ! D53   D(13,14,15,9)           0.3492         estimate D2E/DX2                !
 ! D54   D(27,14,15,9)         179.611          estimate D2E/DX2                !
 --------------------------------------------------------------------------------
 Trust Radius=3.00D-01 FncErr=1.00D-07 GrdErr=1.00D-06 EigMax=2.50D+02 EigMin=1.00D-04
 Number of steps in this run=    137 maximum allowed number of steps=    162.
 GradGradGradGradGradGradGradGradGradGradGradGradGradGradGradGradGradGrad

 Leave Link  103 at Fri Jul 24 14:32:38 2020, MaxMem=  4026531840 cpu:               0.2 elap:               0.1
 (Enter /opt/ohpc/pub/libs/gaussian/g16-A.03/sandybridge/g16/l202.exe)
                          Input orientation:                          
 ---------------------------------------------------------------------
 Center     Atomic      Atomic             Coordinates (Angstroms)
 Number     Number       Type             X           Y           Z
 ---------------------------------------------------------------------
      1          6           0        3.340754    1.234709   -0.459682
      2          6           0        2.324581    1.931235   -1.160235
      3          6           0        1.003232    1.517522   -1.158341
      4          6           0        0.651208    0.322706   -0.387891
      5          6           0        1.681039   -0.386526    0.278956
      6          8           0        1.318551   -1.434551    0.992392
      7          6           0        2.307086   -2.151599    1.713476
      8          6           0        2.974644    0.094168    0.269813
      9          6           0       -0.714597   -0.128167   -0.463298
     10          6           0       -1.811725    0.446192    0.185839
     11          8           0       -1.616318    1.511638    1.036395
     12          6           0       -2.762795    1.952952    1.673225
     13          6           0       -2.995954   -0.339091   -0.040999
     14          6           0       -2.811802   -1.403275   -0.865897
     15         16           0       -1.199597   -1.470744   -1.331549
     16          1           0        4.304860    1.636429   -0.530181
     17          1           0        2.547443    2.836554   -1.818141
     18          1           0        0.276305    1.963831   -1.706916
     19          1           0        1.819935   -3.022987    2.281447
     20          1           0        2.782675   -1.505081    2.540652
     21          1           0        3.085544   -2.585541    1.082992
     22          1           0        3.783197   -0.334569    0.761776
     23          1           0       -3.564648    2.282361    1.061334
     24          1           0       -2.558367    2.799101    2.306764
     25          1           0       -3.158265    1.216866    2.426199
     26          1           0       -3.964965   -0.054697    0.412587
     27          1           0       -3.495014   -2.071999   -1.191850
 ---------------------------------------------------------------------
                    Distance matrix (angstroms):
                    1          2          3          4          5
     1  C    0.000000
     2  C    1.417226   0.000000
     3  C    2.456037   1.384603   0.000000
     4  C    2.840873   2.446233   1.464616   0.000000
     5  C    2.434880   2.803111   2.480049   1.417126   0.000000
     6  O    3.650037   4.120002   3.666035   2.332055   1.318615
     7  C    4.154295   4.992800   4.838369   3.644154   2.359081
     8  C    1.402510   2.417113   2.819934   2.425522   1.380059
     9  C    4.278237   3.736771   2.478369   1.440276   2.521262
    10  C    5.252285   4.596335   3.298265   2.531887   3.591864
    11  O    5.185316   4.531217   3.417447   2.929816   3.879343
    12  C    6.505265   5.823260   4.731842   4.308285   5.211987
    13  C    6.542630   5.891957   4.548511   3.722916   4.688164
    14  C    6.706558   6.130907   4.813633   3.898710   4.746587
    15  S    5.356717   4.901290   3.716476   2.744528   3.473805
    16  H    1.046828   2.098901   3.362956   3.885265   3.410496
    17  H    2.245142   1.141100   2.135362   3.458432   3.941664
    18  H    3.387928   2.120226   1.014174   2.138614   3.382476
    19  H    5.287216   6.053442   5.754595   4.436772   3.313637
    20  H    4.101208   5.070965   5.097558   4.057132   2.753187
    21  H    4.127867   5.100235   5.118078   4.067848   2.730343
    22  H    2.037241   3.309918   3.852959   3.400456   2.157518
    23  H    7.148122   6.304100   5.135899   4.869696   5.937365
    24  H    6.700759   6.051153   5.131704   4.867758   5.677393
    25  H    7.110969   6.590480   5.500671   4.819825   5.531761
    26  H    7.469736   6.780567   5.442671   4.700239   5.657325
    27  H    7.628769   7.063609   5.754998   4.855113   5.638760
                    6          7          8          9         10
     6  O    0.000000
     7  C    1.418211   0.000000
     8  C    2.366801   2.751957   0.000000
     9  C    2.821234   4.238300   3.767942   0.000000
    10  C    3.739833   5.103606   4.800031   1.398198   0.000000
    11  O    4.158776   5.410254   4.865573   2.398154   1.377245
    12  C    5.347532   6.523239   6.192160   3.618135   2.321029
    13  C    4.569779   5.872444   5.994361   2.329681   1.438931
    14  C    4.529242   5.780672   6.084006   2.487218   2.350921
    15  S    3.426818   4.693886   4.736834   1.670808   2.520280
    16  H    4.546118   4.834693   2.188158   5.321017   6.272317
    17  H    5.258480   6.116515   3.473145   4.611515   5.360234
    18  H    4.463355   5.723628   3.831988   2.627723   3.200878
    19  H    2.106224   1.148575   3.885445   4.726252   5.442034
    20  H    2.132075   1.152558   2.784090   4.811499   5.519160
    21  H    2.110746   1.091702   2.802570   4.782340   5.829197
    22  H    2.708805   2.527100   1.039038   4.666215   5.678419
    23  H    6.137249   7.386647   6.940968   4.032113   2.685283
    24  H    5.889132   6.966639   6.486913   4.431888   3.254532
    25  H    5.397008   6.459458   6.597198   4.016195   2.725128
    26  H    5.491422   6.740025   6.942674   3.367115   2.222329
    27  H    5.324252   6.489347   6.977479   3.469869   3.327578
                   11         12         13         14         15
    11  O    0.000000
    12  C    1.383734   0.000000
    13  C    2.547424   2.871653   0.000000
    14  C    3.680301   4.208777   1.358991   0.000000
    15  S    3.830851   4.816010   2.484564   1.679461   0.000000
    16  H    6.126180   7.409921   7.579173   7.745927   6.371480
    17  H    5.219261   6.416309   6.631154   6.899596   5.729738
    18  H    3.363370   4.545503   4.334329   4.645548   3.757059
    19  H    5.824158   6.792004   5.982461   5.829428   4.957900
    20  H    5.542068   6.592622   6.435605   6.550810   5.554603
    21  H    6.236710   7.426262   6.579856   6.322548   5.043334
    22  H    5.713025   6.993819   6.826519   6.876443   5.522784
    23  H    2.095382   1.061079   2.900097   4.226690   5.040352
    24  H    2.039327   1.076629   3.943567   5.271619   5.771928
    25  H    2.096675   1.124806   2.921372   4.221738   5.017997
    26  H    2.891139   2.658021   1.107069   2.187000   3.562929
    27  H    4.619202   4.994500   2.139273   1.010057   2.376965
                   16         17         18         19         20
    16  H    0.000000
    17  H    2.487500   0.000000
    18  H    4.209650   2.435587   0.000000
    19  H    5.982496   7.188192   6.569489   0.000000
    20  H    4.649317   6.156639   6.029683   1.816066   0.000000
    21  H    4.681249   6.172944   6.030937   1.797059   1.839537
    22  H    2.413735   4.270724   4.865735   3.659425   2.352773
    23  H    8.054769   6.779097   4.745270   7.656966   7.538011
    24  H    7.516911   6.563958   4.984242   7.284702   6.863484
    25  H    8.038311   7.293347   5.425575   6.540625   6.535814
    26  H    8.493452   7.466387   5.153166   6.765238   7.222390
    27  H    8.661887   7.810084   5.547618   6.420035   7.325459
                   21         22         23         24         25
    21  H    0.000000
    22  H    2.378397   0.000000
    23  H    8.241480   7.805696   0.000000
    24  H    7.895931   7.240325   1.682474   0.000000
    25  H    7.432877   7.304872   1.778562   1.696352   0.000000
    26  H    7.520924   7.761074   2.458245   3.702781   2.514413
    27  H    6.981574   7.733542   4.903278   6.070027   4.901052
                   26         27
    26  H    0.000000
    27  H    2.620034   0.000000
 Stoichiometry    C12H12O2S
 Framework group  C1[X(C12H12O2S)]
 Deg. of freedom    75
 Full point group                 C1      NOp   1
 Largest Abelian subgroup         C1      NOp   1
 Largest concise Abelian subgroup C1      NOp   1
                         Standard orientation:                         
 ---------------------------------------------------------------------
 Center     Atomic      Atomic             Coordinates (Angstroms)
 Number     Number       Type             X           Y           Z
 ---------------------------------------------------------------------
      1          6           0        3.346202    1.232108   -0.492348
      2          6           0        2.327159    1.926590   -1.190758
      3          6           0        1.004679    1.516743   -1.176722
      4          6           0        0.654628    0.328459   -0.395347
      5          6           0        1.687058   -0.379007    0.269353
      6          8           0        1.326565   -1.420879    0.992744
      7          6           0        2.318056   -2.135656    1.712022
      8          6           0        2.981935    0.097847    0.247784
      9          6           0       -0.712952   -0.118966   -0.458034
     10          6           0       -1.803878    0.463177    0.194613
     11          8           0       -1.599496    1.534067    1.036176
     12          6           0       -2.740235    1.983225    1.677809
     13          6           0       -2.991900   -0.320252   -0.018378
     14          6           0       -2.816551   -1.390801   -0.836934
     15         16           0       -1.207834   -1.466262   -1.313301
     16          1           0        4.310937    1.630512   -0.572415
     17          1           0        2.548010    2.826560   -1.856632
     18          1           0        0.275219    1.961254   -1.723391
     19          1           0        1.832393   -3.001567    2.289563
     20          1           0        2.801251   -1.484663    2.531241
     21          1           0        3.090851   -2.576328    1.079244
     22          1           0        3.792674   -0.329732    0.737151
     23          1           0       -3.545394    2.310608    1.069181
     24          1           0       -2.528973    2.833256    2.303865
     25          1           0       -3.132541    1.253660    2.438742
     26          1           0       -3.956905   -0.029827    0.439903
     27          1           0       -3.503929   -2.059835   -1.153352
 ---------------------------------------------------------------------
 Rotational constants (GHZ):           0.7712413           0.4089084           0.3591480
 Leave Link  202 at Fri Jul 24 14:32:38 2020, MaxMem=  4026531840 cpu:               0.2 elap:               0.1
 (Enter /opt/ohpc/pub/libs/gaussian/g16-A.03/sandybridge/g16/l301.exe)
 Standard basis: CC-pVDZ (5D, 7F)
 Ernie: Thresh=  0.10000D-02 Tol=  0.10000D-05 Strict=F.
 Ernie:  38 primitive shells out of 418 were deleted.
 There are   289 symmetry adapted cartesian basis functions of A   symmetry.
 There are   274 symmetry adapted basis functions of A   symmetry.
   274 basis functions,   617 primitive gaussians,   289 cartesian basis functions
    58 alpha electrons       58 beta electrons
       nuclear repulsion energy      1082.4723893974 Hartrees.
 IExCor=32609 DFT=T Ex+Corr=LC-wPBE ExCW=0 ScaHFX=  1.000000
 ScaDFX=  1.000000  0.000000  1.000000  1.000000 ScalE2=  1.000000  1.000000
 IRadAn=      5 IRanWt=     -1 IRanGd=            0 ICorTp=0 IEmpDi=  4
 HFx  wShort=  0.000000 wLong=  0.366700 cFull=  0.000000 cShort=  0.000000 cLong=  1.000000
 DFx  wShort=  0.000000 wLong=  0.366700 cFull=  0.000000 cShort=  0.000000 cLong=  1.000000
 NAtoms=   27 NActive=   27 NUniq=   27 SFac= 1.00D+00 NAtFMM=   60 NAOKFM=F Big=F
 Integral buffers will be    131072 words long.
 Raffenetti 2 integral format.
 Two-electron integral symmetry is turned on.
 Leave Link  301 at Fri Jul 24 14:32:38 2020, MaxMem=  4026531840 cpu:               0.5 elap:               0.1
 (Enter /opt/ohpc/pub/libs/gaussian/g16-A.03/sandybridge/g16/l302.exe)
 NPDir=0 NMtPBC=     1 NCelOv=     1 NCel=       1 NClECP=     1 NCelD=      1
         NCelK=      1 NCelE2=     1 NClLst=     1 CellRange=     0.0.
 One-electron integrals computed using PRISM.
 One-electron integral symmetry used in STVInt
 NBasis=   274 RedAO= T EigKep=  3.65D-04  NBF=   274
 NBsUse=   274 1.00D-06 EigRej= -1.00D+00 NBFU=   274
 Precomputing XC quadrature grid using
 IXCGrd= 4 IRadAn=           5 IRanWt=          -1 IRanGd=           0 AccXCQ= 0.00D+00.
 Generated NRdTot=       0 NPtTot=           0 NUsed=           0 NTot=          32
 NSgBfM=   288   288   288   288   288 MxSgAt=    27 MxSgA2=    27.
 Leave Link  302 at Fri Jul 24 14:32:38 2020, MaxMem=  4026531840 cpu:               2.8 elap:               0.4
 (Enter /opt/ohpc/pub/libs/gaussian/g16-A.03/sandybridge/g16/l303.exe)
 DipDrv:  MaxL=1.
 Leave Link  303 at Fri Jul 24 14:32:38 2020, MaxMem=  4026531840 cpu:               0.4 elap:               0.1
 (Enter /opt/ohpc/pub/libs/gaussian/g16-A.03/sandybridge/g16/l401.exe)
 ExpMin= 1.22D-01 ExpMax= 1.11D+05 ExpMxC= 1.07D+03 IAcc=3 IRadAn=         5 AccDes= 0.00D+00
 Harris functional with IExCor=32609 and IRadAn=       5 diagonalized for initial guess.
 HarFok:  IExCor=32609 AccDes= 0.00D+00 IRadAn=         5 IDoV= 1 UseB2=F ITyADJ=14
 ICtDFT=  3500011 ScaDFX=  1.000000  1.000000  1.000000  1.000000
 FoFCou: FMM=F IPFlag=           0 FMFlag=      100000 FMFlg1=           0
         NFxFlg=           0 DoJE=T BraDBF=F KetDBF=T FulRan=T
         wScrn=  0.000000 ICntrl=       500 IOpCl=  0 I1Cent=   200000004 NGrid=           0
         NMat0=    1 NMatS0=      1 NMatT0=    0 NMatD0=    1 NMtDS0=    0 NMtDT0=    0
 Petite list used in FoFCou.
 Harris En= -1012.44688555506    
 JPrj=0 DoOrth=F DoCkMO=F.
 Initial guess <Sx>= 0.0000 <Sy>= 0.0000 <Sz>= 0.0000 <S**2>= 0.0000 S= 0.0000
 Leave Link  401 at Fri Jul 24 14:32:40 2020, MaxMem=  4026531840 cpu:              15.8 elap:               2.0
 (Enter /opt/ohpc/pub/libs/gaussian/g16-A.03/sandybridge/g16/l502.exe)
 Integral symmetry usage will be decided dynamically.
 UHF open shell SCF:
 Using DIIS extrapolation, IDIIS=  1040.
 NGot=  4026531840 LenX=  4026359341 LenY=  4026275379
 Requested convergence on RMS density matrix=1.00D-08 within 128 cycles.
 Requested convergence on MAX density matrix=1.00D-06.
 Requested convergence on             energy=1.00D-06.
 No special actions if energy rises.
 Fock matrices will be formed incrementally for  20 cycles.
 Integral accuracy reduced to 1.0D-05 until final iterations.

 Cycle   1  Pass 0  IDiag  1:
 FoFJK:  IHMeth= 1 ICntrl=       0 DoSepK=T KAlg= 0 I1Cent=           0 FoldK=F
 IRaf=         1 NMat=       1 IRICut=       1 DoRegI=T DoRafI=F ISym2E= 0 IDoP0=0 IntGTp=1.
 FoFCou: FMM=F IPFlag=           0 FMFlag=      100000 FMFlg1=           0
         NFxFlg=           0 DoJE=T BraDBF=F KetDBF=F FulRan=T
         wScrn=  0.000000 ICntrl=       500 IOpCl=  0 I1Cent=           0 NGrid=           0
         NMat0=    1 NMatS0=      1 NMatT0=    0 NMatD0=    1 NMtDS0=    0 NMtDT0=    0
 Symmetry not used in FoFCou.
 E= -1012.20945427769    
 DIIS: error= 1.71D-02 at cycle   1 NSaved=   1.
 NSaved= 1 IEnMin= 1 EnMin= -1012.20945427769     IErMin= 1 ErrMin= 1.71D-02
 ErrMax= 1.71D-02  0.00D+00 EMaxC= 1.00D-01 BMatC= 1.13D+00 BMatP= 1.13D+00
 IDIUse=3 WtCom= 8.29D-01 WtEn= 1.71D-01
 Coeff-Com:  0.100D+01
 Coeff-En:   0.100D+01
 Coeff:      0.100D+01
 Gap=     0.417 Goal=   None    Shift=    0.000
 Gap=     0.417 Goal=   None    Shift=    0.000
 GapD=    0.417 DampG=2.000 DampE=0.500 DampFc=1.0000 IDamp=-1.
 RMSDP=3.69D-03 MaxDP=1.15D-01              OVMax= 1.66D-01

 Cycle   2  Pass 0  IDiag  1:
 RMSU=  3.63D-03    CP:  9.72D-01
 E= -1012.37146184482     Delta-E=       -0.162007567135 Rises=F Damp=F
 DIIS: error= 1.37D-02 at cycle   2 NSaved=   2.
 NSaved= 2 IEnMin= 2 EnMin= -1012.37146184482     IErMin= 2 ErrMin= 1.37D-02
 ErrMax= 1.37D-02  0.00D+00 EMaxC= 1.00D-01 BMatC= 6.33D-01 BMatP= 1.13D+00
 IDIUse=3 WtCom= 8.63D-01 WtEn= 1.37D-01
 Coeff-Com:  0.423D+00 0.577D+00
 Coeff-En:   0.276D+00 0.724D+00
 Coeff:      0.403D+00 0.597D+00
 Gap=     0.371 Goal=   None    Shift=    0.000
 Gap=     0.371 Goal=   None    Shift=    0.000
 RMSDP=1.67D-03 MaxDP=7.41D-02 DE=-1.62D-01 OVMax= 8.39D-02

 Cycle   3  Pass 0  IDiag  1:
 RMSU=  9.96D-04    CP:  9.75D-01  6.30D-01
 E= -1012.53001611762     Delta-E=       -0.158554272792 Rises=F Damp=F
 DIIS: error= 2.22D-03 at cycle   3 NSaved=   3.
 NSaved= 3 IEnMin= 3 EnMin= -1012.53001611762     IErMin= 3 ErrMin= 2.22D-03
 ErrMax= 2.22D-03  0.00D+00 EMaxC= 1.00D-01 BMatC= 1.56D-02 BMatP= 6.33D-01
 IDIUse=3 WtCom= 9.78D-01 WtEn= 2.22D-02
 Coeff-Com:  0.918D-01 0.180D+00 0.728D+00
 Coeff-En:   0.000D+00 0.000D+00 0.100D+01
 Coeff:      0.898D-01 0.176D+00 0.734D+00
 Gap=     0.351 Goal=   None    Shift=    0.000
 Gap=     0.351 Goal=   None    Shift=    0.000
 RMSDP=3.40D-04 MaxDP=1.31D-02 DE=-1.59D-01 OVMax= 2.71D-02

 Cycle   4  Pass 0  IDiag  1:
 RMSU=  2.67D-04    CP:  9.75D-01  6.68D-01  8.37D-01
 E= -1012.53382894552     Delta-E=       -0.003812827902 Rises=F Damp=F
 DIIS: error= 9.48D-04 at cycle   4 NSaved=   4.
 NSaved= 4 IEnMin= 4 EnMin= -1012.53382894552     IErMin= 4 ErrMin= 9.48D-04
 ErrMax= 9.48D-04  0.00D+00 EMaxC= 1.00D-01 BMatC= 3.23D-03 BMatP= 1.56D-02
 IDIUse=3 WtCom= 9.91D-01 WtEn= 9.48D-03
 Coeff-Com: -0.372D-02 0.825D-02 0.318D+00 0.678D+00
 Coeff-En:   0.000D+00 0.000D+00 0.152D-01 0.985D+00
 Coeff:     -0.369D-02 0.817D-02 0.315D+00 0.681D+00
 Gap=     0.349 Goal=   None    Shift=    0.000
 Gap=     0.349 Goal=   None    Shift=    0.000
 RMSDP=1.32D-04 MaxDP=4.48D-03 DE=-3.81D-03 OVMax= 8.38D-03

 Cycle   5  Pass 0  IDiag  1:
 RMSU=  8.81D-05    CP:  9.75D-01  6.67D-01  9.24D-01  8.39D-01
 E= -1012.53470662939     Delta-E=       -0.000877683871 Rises=F Damp=F
 DIIS: error= 2.48D-04 at cycle   5 NSaved=   5.
 NSaved= 5 IEnMin= 5 EnMin= -1012.53470662939     IErMin= 5 ErrMin= 2.48D-04
 ErrMax= 2.48D-04  0.00D+00 EMaxC= 1.00D-01 BMatC= 2.42D-04 BMatP= 3.23D-03
 IDIUse=3 WtCom= 9.98D-01 WtEn= 2.48D-03
 Coeff-Com: -0.954D-02-0.171D-01 0.427D-01 0.231D+00 0.753D+00
 Coeff-En:   0.000D+00 0.000D+00 0.000D+00 0.000D+00 0.100D+01
 Coeff:     -0.951D-02-0.171D-01 0.426D-01 0.230D+00 0.754D+00
 Gap=     0.350 Goal=   None    Shift=    0.000
 Gap=     0.350 Goal=   None    Shift=    0.000
 RMSDP=4.65D-05 MaxDP=1.42D-03 DE=-8.78D-04 OVMax= 4.31D-03

 Cycle   6  Pass 0  IDiag  1:
 RMSU=  3.56D-05    CP:  9.75D-01  6.66D-01  9.42D-01  9.27D-01  1.03D+00
 E= -1012.53480325221     Delta-E=       -0.000096622821 Rises=F Damp=F
 DIIS: error= 1.31D-04 at cycle   6 NSaved=   6.
 NSaved= 6 IEnMin= 6 EnMin= -1012.53480325221     IErMin= 6 ErrMin= 1.31D-04
 ErrMax= 1.31D-04  0.00D+00 EMaxC= 1.00D-01 BMatC= 4.56D-05 BMatP= 2.42D-04
 IDIUse=3 WtCom= 9.99D-01 WtEn= 1.31D-03
 Coeff-Com: -0.391D-02-0.999D-02-0.267D-01-0.122D-01 0.269D+00 0.784D+00
 Coeff-En:   0.000D+00 0.000D+00 0.000D+00 0.000D+00 0.000D+00 0.100D+01
 Coeff:     -0.390D-02-0.998D-02-0.266D-01-0.122D-01 0.268D+00 0.784D+00
 Gap=     0.350 Goal=   None    Shift=    0.000
 Gap=     0.350 Goal=   None    Shift=    0.000
 RMSDP=2.47D-05 MaxDP=8.54D-04 DE=-9.66D-05 OVMax= 2.51D-03

 Cycle   7  Pass 0  IDiag  1:
 RMSU=  1.49D-05    CP:  9.75D-01  6.67D-01  9.49D-01  9.58D-01  1.21D+00
                    CP:  1.12D+00
 E= -1012.53483030373     Delta-E=       -0.000027051516 Rises=F Damp=F
 DIIS: error= 6.18D-05 at cycle   7 NSaved=   7.
 NSaved= 7 IEnMin= 7 EnMin= -1012.53483030373     IErMin= 7 ErrMin= 6.18D-05
 ErrMax= 6.18D-05  0.00D+00 EMaxC= 1.00D-01 BMatC= 8.08D-06 BMatP= 4.56D-05
 IDIUse=1 WtCom= 1.00D+00 WtEn= 0.00D+00
 Coeff-Com:  0.759D-03 0.444D-03-0.125D-01-0.542D-01-0.116D+00 0.188D+00
 Coeff-Com:  0.993D+00
 Coeff:      0.759D-03 0.444D-03-0.125D-01-0.542D-01-0.116D+00 0.188D+00
 Coeff:      0.993D+00
 Gap=     0.350 Goal=   None    Shift=    0.000
 Gap=     0.350 Goal=   None    Shift=    0.000
 RMSDP=1.70D-05 MaxDP=4.79D-04 DE=-2.71D-05 OVMax= 1.85D-03

 Cycle   8  Pass 0  IDiag  1:
 RMSU=  6.34D-06    CP:  9.75D-01  6.66D-01  9.54D-01  9.78D-01  1.29D+00
                    CP:  1.43D+00  1.28D+00
 E= -1012.53483798569     Delta-E=       -0.000007681969 Rises=F Damp=F
 DIIS: error= 2.57D-05 at cycle   8 NSaved=   8.
 NSaved= 8 IEnMin= 8 EnMin= -1012.53483798569     IErMin= 8 ErrMin= 2.57D-05
 ErrMax= 2.57D-05  0.00D+00 EMaxC= 1.00D-01 BMatC= 1.52D-06 BMatP= 8.08D-06
 IDIUse=1 WtCom= 1.00D+00 WtEn= 0.00D+00
 Coeff-Com:  0.906D-03 0.174D-02 0.609D-03-0.187D-01-0.925D-01-0.643D-01
 Coeff-Com:  0.370D+00 0.803D+00
 Coeff:      0.906D-03 0.174D-02 0.609D-03-0.187D-01-0.925D-01-0.643D-01
 Coeff:      0.370D+00 0.803D+00
 Gap=     0.350 Goal=   None    Shift=    0.000
 Gap=     0.350 Goal=   None    Shift=    0.000
 RMSDP=6.03D-06 MaxDP=1.92D-04 DE=-7.68D-06 OVMax= 6.46D-04

 Initial convergence to 1.0D-05 achieved.  Increase integral accuracy.
 Cycle   9  Pass 1  IDiag  1:
 E= -1012.53465000142     Delta-E=        0.000187984278 Rises=F Damp=F
 DIIS: error= 1.04D-04 at cycle   1 NSaved=   1.
 NSaved= 1 IEnMin= 1 EnMin= -1012.53465000142     IErMin= 1 ErrMin= 1.04D-04
 ErrMax= 1.04D-04  0.00D+00 EMaxC= 1.00D-01 BMatC= 3.20D-06 BMatP= 3.20D-06
 IDIUse=3 WtCom= 9.99D-01 WtEn= 1.04D-03
 Coeff-Com:  0.100D+01
 Coeff-En:   0.100D+01
 Coeff:      0.100D+01
 Gap=     0.350 Goal=   None    Shift=    0.000
 Gap=     0.350 Goal=   None    Shift=    0.000
 RMSDP=6.03D-06 MaxDP=1.92D-04 DE= 1.88D-04 OVMax= 1.70D-04

 Cycle  10  Pass 1  IDiag  1:
 RMSU=  4.65D-05    CP:  1.00D+00
 E= -1012.53465062053     Delta-E=       -0.000000619109 Rises=F Damp=F
 DIIS: error= 5.52D-06 at cycle   2 NSaved=   2.
 NSaved= 2 IEnMin= 2 EnMin= -1012.53465062053     IErMin= 2 ErrMin= 5.52D-06
 ErrMax= 5.52D-06  0.00D+00 EMaxC= 1.00D-01 BMatC= 7.88D-08 BMatP= 3.20D-06
 IDIUse=1 WtCom= 1.00D+00 WtEn= 0.00D+00
 Coeff-Com: -0.131D-03 0.100D+01
 Coeff:     -0.131D-03 0.100D+01
 Gap=     0.350 Goal=   None    Shift=    0.000
 Gap=     0.350 Goal=   None    Shift=    0.000
 RMSDP=2.59D-06 MaxDP=6.85D-05 DE=-6.19D-07 OVMax= 1.08D-04

 Cycle  11  Pass 1  IDiag  1:
 RMSU=  1.24D-06    CP:  1.00D+00  1.05D+00
 E= -1012.53465064259     Delta-E=       -0.000000022064 Rises=F Damp=F
 DIIS: error= 6.26D-06 at cycle   3 NSaved=   3.
 NSaved= 3 IEnMin= 3 EnMin= -1012.53465064259     IErMin= 2 ErrMin= 5.52D-06
 ErrMax= 6.26D-06  0.00D+00 EMaxC= 1.00D-01 BMatC= 7.32D-08 BMatP= 7.88D-08
 IDIUse=1 WtCom= 1.00D+00 WtEn= 0.00D+00
 Coeff-Com: -0.219D-01 0.501D+00 0.521D+00
 Coeff:     -0.219D-01 0.501D+00 0.521D+00
 Gap=     0.350 Goal=   None    Shift=    0.000
 Gap=     0.350 Goal=   None    Shift=    0.000
 RMSDP=5.59D-07 MaxDP=2.37D-05 DE=-2.21D-08 OVMax= 5.31D-05

 Cycle  12  Pass 1  IDiag  1:
 RMSU=  4.88D-07    CP:  1.00D+00  1.05D+00  8.07D-01
 E= -1012.53465066391     Delta-E=       -0.000000021321 Rises=F Damp=F
 DIIS: error= 1.66D-06 at cycle   4 NSaved=   4.
 NSaved= 4 IEnMin= 4 EnMin= -1012.53465066391     IErMin= 4 ErrMin= 1.66D-06
 ErrMax= 1.66D-06  0.00D+00 EMaxC= 1.00D-01 BMatC= 3.15D-09 BMatP= 7.32D-08
 IDIUse=1 WtCom= 1.00D+00 WtEn= 0.00D+00
 Coeff-Com: -0.494D-04-0.884D-01 0.157D-01 0.107D+01
 Coeff:     -0.494D-04-0.884D-01 0.157D-01 0.107D+01
 Gap=     0.350 Goal=   None    Shift=    0.000
 Gap=     0.350 Goal=   None    Shift=    0.000
 RMSDP=3.12D-07 MaxDP=9.03D-06 DE=-2.13D-08 OVMax= 2.99D-05

 Cycle  13  Pass 1  IDiag  1:
 RMSU=  1.93D-07    CP:  1.00D+00  1.05D+00  9.49D-01  1.34D+00
 E= -1012.53465066370     Delta-E=        0.000000000215 Rises=F Damp=F
 DIIS: error= 7.29D-07 at cycle   5 NSaved=   5.
 NSaved= 5 IEnMin= 4 EnMin= -1012.53465066391     IErMin= 5 ErrMin= 7.29D-07
 ErrMax= 7.29D-07  0.00D+00 EMaxC= 1.00D-01 BMatC= 1.26D-09 BMatP= 3.15D-09
 IDIUse=1 WtCom= 1.00D+00 WtEn= 0.00D+00
 Coeff-Com:  0.770D-02-0.221D+00-0.169D+00 0.504D+00 0.879D+00
 Coeff:      0.770D-02-0.221D+00-0.169D+00 0.504D+00 0.879D+00
 Gap=     0.350 Goal=   None    Shift=    0.000
 Gap=     0.350 Goal=   None    Shift=    0.000
 RMSDP=2.18D-07 MaxDP=5.64D-06 DE= 2.15D-10 OVMax= 2.24D-05

 Cycle  14  Pass 1  IDiag  1:
 RMSU=  9.73D-08    CP:  1.00D+00  1.05D+00  1.03D+00  1.64D+00  1.41D+00
 E= -1012.53465066847     Delta-E=       -0.000000004778 Rises=F Damp=F
 DIIS: error= 2.31D-07 at cycle   6 NSaved=   6.
 NSaved= 6 IEnMin= 6 EnMin= -1012.53465066847     IErMin= 6 ErrMin= 2.31D-07
 ErrMax= 2.31D-07  0.00D+00 EMaxC= 1.00D-01 BMatC= 1.21D-10 BMatP= 1.26D-09
 IDIUse=1 WtCom= 1.00D+00 WtEn= 0.00D+00
 Coeff-Com:  0.238D-02-0.590D-01-0.529D-01 0.336D-01 0.294D+00 0.782D+00
 Coeff:      0.238D-02-0.590D-01-0.529D-01 0.336D-01 0.294D+00 0.782D+00
 Gap=     0.350 Goal=   None    Shift=    0.000
 Gap=     0.350 Goal=   None    Shift=    0.000
 RMSDP=5.04D-08 MaxDP=1.03D-06 DE=-4.78D-09 OVMax= 4.42D-06

 Cycle  15  Pass 1  IDiag  1:
 RMSU=  2.66D-08    CP:  1.00D+00  1.05D+00  1.04D+00  1.68D+00  1.59D+00
                    CP:  1.09D+00
 E= -1012.53465066494     Delta-E=        0.000000003533 Rises=F Damp=F
 DIIS: error= 1.33D-07 at cycle   7 NSaved=   7.
 NSaved= 7 IEnMin= 6 EnMin= -1012.53465066847     IErMin= 7 ErrMin= 1.33D-07
 ErrMax= 1.33D-07  0.00D+00 EMaxC= 1.00D-01 BMatC= 1.99D-11 BMatP= 1.21D-10
 IDIUse=1 WtCom= 1.00D+00 WtEn= 0.00D+00
 Coeff-Com: -0.567D-03 0.199D-01 0.123D-01-0.858D-01-0.466D-01 0.287D+00
 Coeff-Com:  0.814D+00
 Coeff:     -0.567D-03 0.199D-01 0.123D-01-0.858D-01-0.466D-01 0.287D+00
 Coeff:      0.814D+00
 Gap=     0.350 Goal=   None    Shift=    0.000
 Gap=     0.350 Goal=   None    Shift=    0.000
 RMSDP=2.03D-08 MaxDP=5.23D-07 DE= 3.53D-09 OVMax= 2.10D-06

 Cycle  16  Pass 1  IDiag  1:
 RMSU=  1.09D-08    CP:  1.00D+00  1.05D+00  1.04D+00  1.69D+00  1.65D+00
                    CP:  1.18D+00  1.01D+00
 E= -1012.53465066492     Delta-E=        0.000000000017 Rises=F Damp=F
 DIIS: error= 4.38D-08 at cycle   8 NSaved=   8.
 NSaved= 8 IEnMin= 6 EnMin= -1012.53465066847     IErMin= 8 ErrMin= 4.38D-08
 ErrMax= 4.38D-08  0.00D+00 EMaxC= 1.00D-01 BMatC= 2.27D-12 BMatP= 1.99D-11
 IDIUse=1 WtCom= 1.00D+00 WtEn= 0.00D+00
 Coeff-Com: -0.372D-03 0.106D-01 0.814D-02-0.258D-01-0.383D-01-0.230D-01
 Coeff-Com:  0.196D+00 0.873D+00
 Coeff:     -0.372D-03 0.106D-01 0.814D-02-0.258D-01-0.383D-01-0.230D-01
 Coeff:      0.196D+00 0.873D+00
 Gap=     0.350 Goal=   None    Shift=    0.000
 Gap=     0.350 Goal=   None    Shift=    0.000
 RMSDP=6.97D-09 MaxDP=1.78D-07 DE= 1.68D-11 OVMax= 7.04D-07

 SCF Done:  E(ULC-wPBE) =  -1012.53465066     A.U. after   16 cycles
            NFock= 16  Conv=0.70D-08     -V/T= 2.0047
 <Sx>= 0.0000 <Sy>= 0.0000 <Sz>= 0.0000 <S**2>=-0.0000 S=-0.0000
 <L.S>= 0.000000000000E+00
 KE= 1.007776986594D+03 PE=-4.542785620289D+03 EE= 1.440001593632D+03
 Annihilation of the first spin contaminant:
 S**2 before annihilation    -0.0000,   after    -0.0000
 Leave Link  502 at Fri Jul 24 14:34:22 2020, MaxMem=  4026531840 cpu:             810.2 elap:             101.7
 (Enter /opt/ohpc/pub/libs/gaussian/g16-A.03/sandybridge/g16/l601.exe)
 Copying SCF densities to generalized density rwf, IOpCl= 1 IROHF=0.

 **********************************************************************

            Population analysis using the SCF density.

 **********************************************************************

 Orbital symmetries:
 Alpha Orbitals:
       Occupied  (A) (A) (A) (A) (A) (A) (A) (A) (A) (A) (A) (A)
                 (A) (A) (A) (A) (A) (A) (A) (A) (A) (A) (A) (A)
                 (A) (A) (A) (A) (A) (A) (A) (A) (A) (A) (A) (A)
                 (A) (A) (A) (A) (A) (A) (A) (A) (A) (A) (A) (A)
                 (A) (A) (A) (A) (A) (A) (A) (A) (A) (A)
       Virtual   (A) (A) (A) (A) (A) (A) (A) (A) (A) (A) (A) (A)
                 (A) (A) (A) (A) (A) (A) (A) (A) (A) (A) (A) (A)
                 (A) (A) (A) (A) (A) (A) (A) (A) (A) (A) (A) (A)
                 (A) (A) (A) (A) (A) (A) (A) (A) (A) (A) (A) (A)
                 (A) (A) (A) (A) (A) (A) (A) (A) (A) (A) (A) (A)
                 (A) (A) (A) (A) (A) (A) (A) (A) (A) (A) (A) (A)
                 (A) (A) (A) (A) (A) (A) (A) (A) (A) (A) (A) (A)
                 (A) (A) (A) (A) (A) (A) (A) (A) (A) (A) (A) (A)
                 (A) (A) (A) (A) (A) (A) (A) (A) (A) (A) (A) (A)
                 (A) (A) (A) (A) (A) (A) (A) (A) (A) (A) (A) (A)
                 (A) (A) (A) (A) (A) (A) (A) (A) (A) (A) (A) (A)
                 (A) (A) (A) (A) (A) (A) (A) (A) (A) (A) (A) (A)
                 (A) (A) (A) (A) (A) (A) (A) (A) (A) (A) (A) (A)
                 (A) (A) (A) (A) (A) (A) (A) (A) (A) (A) (A) (A)
                 (A) (A) (A) (A) (A) (A) (A) (A) (A) (A) (A) (A)
                 (A) (A) (A) (A) (A) (A) (A) (A) (A) (A) (A) (A)
                 (A) (A) (A) (A) (A) (A) (A) (A) (A) (A) (A) (A)
                 (A) (A) (A) (A) (A) (A) (A) (A) (A) (A) (A) (A)
 Beta  Orbitals:
       Occupied  (A) (A) (A) (A) (A) (A) (A) (A) (A) (A) (A) (A)
                 (A) (A) (A) (A) (A) (A) (A) (A) (A) (A) (A) (A)
                 (A) (A) (A) (A) (A) (A) (A) (A) (A) (A) (A) (A)
                 (A) (A) (A) (A) (A) (A) (A) (A) (A) (A) (A) (A)
                 (A) (A) (A) (A) (A) (A) (A) (A) (A) (A)
       Virtual   (A) (A) (A) (A) (A) (A) (A) (A) (A) (A) (A) (A)
                 (A) (A) (A) (A) (A) (A) (A) (A) (A) (A) (A) (A)
                 (A) (A) (A) (A) (A) (A) (A) (A) (A) (A) (A) (A)
                 (A) (A) (A) (A) (A) (A) (A) (A) (A) (A) (A) (A)
                 (A) (A) (A) (A) (A) (A) (A) (A) (A) (A) (A) (A)
                 (A) (A) (A) (A) (A) (A) (A) (A) (A) (A) (A) (A)
                 (A) (A) (A) (A) (A) (A) (A) (A) (A) (A) (A) (A)
                 (A) (A) (A) (A) (A) (A) (A) (A) (A) (A) (A) (A)
                 (A) (A) (A) (A) (A) (A) (A) (A) (A) (A) (A) (A)
                 (A) (A) (A) (A) (A) (A) (A) (A) (A) (A) (A) (A)
                 (A) (A) (A) (A) (A) (A) (A) (A) (A) (A) (A) (A)
                 (A) (A) (A) (A) (A) (A) (A) (A) (A) (A) (A) (A)
                 (A) (A) (A) (A) (A) (A) (A) (A) (A) (A) (A) (A)
                 (A) (A) (A) (A) (A) (A) (A) (A) (A) (A) (A) (A)
                 (A) (A) (A) (A) (A) (A) (A) (A) (A) (A) (A) (A)
                 (A) (A) (A) (A) (A) (A) (A) (A) (A) (A) (A) (A)
                 (A) (A) (A) (A) (A) (A) (A) (A) (A) (A) (A) (A)
                 (A) (A) (A) (A) (A) (A) (A) (A) (A) (A) (A) (A)
 The electronic state is 1-A.
 Alpha  occ. eigenvalues --  -88.28889 -18.99570 -18.99037 -10.16530 -10.16247
 Alpha  occ. eigenvalues --  -10.15355 -10.14190 -10.11403 -10.11392 -10.11078
 Alpha  occ. eigenvalues --  -10.10359 -10.10263 -10.09838 -10.09686 -10.09407
 Alpha  occ. eigenvalues --   -7.89760  -5.91368  -5.90821  -5.90511  -1.20052
 Alpha  occ. eigenvalues --   -1.18322  -1.02520  -0.97830  -0.90667  -0.88050
 Alpha  occ. eigenvalues --   -0.86914  -0.85065  -0.82013  -0.80394  -0.74678
 Alpha  occ. eigenvalues --   -0.71653  -0.68643  -0.67069  -0.65756  -0.63405
 Alpha  occ. eigenvalues --   -0.60563  -0.59201  -0.58399  -0.57954  -0.57345
 Alpha  occ. eigenvalues --   -0.56444  -0.54619  -0.52861  -0.51721  -0.50851
 Alpha  occ. eigenvalues --   -0.50073  -0.48391  -0.47350  -0.44919  -0.44255
 Alpha  occ. eigenvalues --   -0.43719  -0.43411  -0.42905  -0.42453  -0.34943
 Alpha  occ. eigenvalues --   -0.33489  -0.31326  -0.29384
 Alpha virt. eigenvalues --    0.05597   0.08663   0.09724   0.15433   0.15774
 Alpha virt. eigenvalues --    0.16463   0.16711   0.17389   0.19374   0.20042
 Alpha virt. eigenvalues --    0.21380   0.21852   0.22052   0.22371   0.22755
 Alpha virt. eigenvalues --    0.23718   0.24296   0.25300   0.25598   0.25809
 Alpha virt. eigenvalues --    0.28319   0.33571   0.34205   0.36856   0.37964
 Alpha virt. eigenvalues --    0.39552   0.40830   0.42840   0.43691   0.47896
 Alpha virt. eigenvalues --    0.50417   0.52142   0.53610   0.54275   0.54606
 Alpha virt. eigenvalues --    0.54984   0.55494   0.56020   0.56237   0.57429
 Alpha virt. eigenvalues --    0.58063   0.58846   0.59707   0.60483   0.60827
 Alpha virt. eigenvalues --    0.61513   0.61911   0.62347   0.62775   0.63509
 Alpha virt. eigenvalues --    0.64013   0.64963   0.66504   0.67197   0.68099
 Alpha virt. eigenvalues --    0.69182   0.69583   0.70779   0.71584   0.72332
 Alpha virt. eigenvalues --    0.73653   0.73913   0.75029   0.75559   0.76251
 Alpha virt. eigenvalues --    0.76974   0.77184   0.78553   0.79565   0.80020
 Alpha virt. eigenvalues --    0.81145   0.81167   0.82988   0.84250   0.84931
 Alpha virt. eigenvalues --    0.85762   0.88233   0.88681   0.90199   0.92993
 Alpha virt. eigenvalues --    0.94208   0.96158   0.98501   0.99618   1.00655
 Alpha virt. eigenvalues --    1.01329   1.02172   1.04177   1.05223   1.05317
 Alpha virt. eigenvalues --    1.05698   1.07158   1.08205   1.10474   1.12112
 Alpha virt. eigenvalues --    1.12592   1.13180   1.13737   1.14543   1.16251
 Alpha virt. eigenvalues --    1.16747   1.18934   1.20383   1.22446   1.25366
 Alpha virt. eigenvalues --    1.26450   1.27489   1.31283   1.32124   1.32524
 Alpha virt. eigenvalues --    1.33723   1.35184   1.36293   1.41878   1.42484
 Alpha virt. eigenvalues --    1.43528   1.46058   1.47132   1.49583   1.51696
 Alpha virt. eigenvalues --    1.52170   1.54071   1.54933   1.55429   1.57445
 Alpha virt. eigenvalues --    1.58857   1.60597   1.60952   1.62351   1.63621
 Alpha virt. eigenvalues --    1.64280   1.66142   1.67515   1.68601   1.69401
 Alpha virt. eigenvalues --    1.70941   1.71105   1.72868   1.73605   1.75154
 Alpha virt. eigenvalues --    1.75380   1.75814   1.76625   1.77279   1.77541
 Alpha virt. eigenvalues --    1.78898   1.79246   1.80827   1.81747   1.84383
 Alpha virt. eigenvalues --    1.84475   1.86660   1.86927   1.88490   1.89498
 Alpha virt. eigenvalues --    1.90962   1.92742   1.93538   1.94675   1.96386
 Alpha virt. eigenvalues --    1.98283   2.00319   2.01964   2.03071   2.03306
 Alpha virt. eigenvalues --    2.06782   2.07347   2.09829   2.10128   2.11487
 Alpha virt. eigenvalues --    2.12488   2.13166   2.15224   2.17012   2.18080
 Alpha virt. eigenvalues --    2.18886   2.22654   2.23372   2.25335   2.25871
 Alpha virt. eigenvalues --    2.28636   2.31006   2.34653   2.35868   2.39409
 Alpha virt. eigenvalues --    2.43626   2.45051   2.47739   2.49444   2.51876
 Alpha virt. eigenvalues --    2.52257   2.56501   2.56754   2.58669   2.60600
 Alpha virt. eigenvalues --    2.61469   2.62838   2.66906   2.72616   2.75983
 Alpha virt. eigenvalues --    2.79420   2.83102   2.90066   2.99310   3.00281
 Alpha virt. eigenvalues --    3.04043   3.13759   3.14887   3.15447   3.16883
 Alpha virt. eigenvalues --    3.17854   3.42050   3.45416   3.54425   3.55178
 Alpha virt. eigenvalues --    3.73298
  Beta  occ. eigenvalues --  -88.28889 -18.99570 -18.99037 -10.16530 -10.16247
  Beta  occ. eigenvalues --  -10.15355 -10.14190 -10.11403 -10.11392 -10.11078
  Beta  occ. eigenvalues --  -10.10359 -10.10263 -10.09838 -10.09686 -10.09407
  Beta  occ. eigenvalues --   -7.89760  -5.91368  -5.90821  -5.90511  -1.20052
  Beta  occ. eigenvalues --   -1.18322  -1.02520  -0.97830  -0.90667  -0.88050
  Beta  occ. eigenvalues --   -0.86914  -0.85065  -0.82013  -0.80394  -0.74678
  Beta  occ. eigenvalues --   -0.71653  -0.68643  -0.67069  -0.65756  -0.63405
  Beta  occ. eigenvalues --   -0.60563  -0.59201  -0.58399  -0.57954  -0.57345
  Beta  occ. eigenvalues --   -0.56444  -0.54619  -0.52861  -0.51721  -0.50851
  Beta  occ. eigenvalues --   -0.50073  -0.48391  -0.47350  -0.44919  -0.44255
  Beta  occ. eigenvalues --   -0.43719  -0.43411  -0.42905  -0.42453  -0.34943
  Beta  occ. eigenvalues --   -0.33489  -0.31326  -0.29384
  Beta virt. eigenvalues --    0.05597   0.08663   0.09724   0.15433   0.15774
  Beta virt. eigenvalues --    0.16463   0.16711   0.17389   0.19374   0.20042
  Beta virt. eigenvalues --    0.21380   0.21852   0.22052   0.22371   0.22755
  Beta virt. eigenvalues --    0.23718   0.24296   0.25300   0.25598   0.25809
  Beta virt. eigenvalues --    0.28319   0.33571   0.34205   0.36856   0.37964
  Beta virt. eigenvalues --    0.39552   0.40830   0.42840   0.43691   0.47896
  Beta virt. eigenvalues --    0.50417   0.52142   0.53610   0.54275   0.54606
  Beta virt. eigenvalues --    0.54984   0.55494   0.56020   0.56237   0.57429
  Beta virt. eigenvalues --    0.58063   0.58846   0.59707   0.60483   0.60827
  Beta virt. eigenvalues --    0.61513   0.61911   0.62347   0.62775   0.63509
  Beta virt. eigenvalues --    0.64013   0.64963   0.66504   0.67197   0.68099
  Beta virt. eigenvalues --    0.69182   0.69583   0.70779   0.71584   0.72332
  Beta virt. eigenvalues --    0.73653   0.73913   0.75029   0.75559   0.76251
  Beta virt. eigenvalues --    0.76974   0.77184   0.78553   0.79565   0.80020
  Beta virt. eigenvalues --    0.81145   0.81167   0.82988   0.84250   0.84931
  Beta virt. eigenvalues --    0.85762   0.88233   0.88681   0.90199   0.92993
  Beta virt. eigenvalues --    0.94208   0.96158   0.98501   0.99618   1.00655
  Beta virt. eigenvalues --    1.01329   1.02172   1.04177   1.05223   1.05317
  Beta virt. eigenvalues --    1.05698   1.07158   1.08205   1.10474   1.12112
  Beta virt. eigenvalues --    1.12592   1.13180   1.13737   1.14543   1.16251
  Beta virt. eigenvalues --    1.16747   1.18934   1.20383   1.22446   1.25366
  Beta virt. eigenvalues --    1.26450   1.27489   1.31283   1.32124   1.32524
  Beta virt. eigenvalues --    1.33723   1.35184   1.36293   1.41878   1.42484
  Beta virt. eigenvalues --    1.43528   1.46058   1.47132   1.49583   1.51696
  Beta virt. eigenvalues --    1.52170   1.54071   1.54933   1.55429   1.57445
  Beta virt. eigenvalues --    1.58857   1.60597   1.60952   1.62351   1.63621
  Beta virt. eigenvalues --    1.64280   1.66142   1.67515   1.68601   1.69401
  Beta virt. eigenvalues --    1.70941   1.71105   1.72868   1.73605   1.75154
  Beta virt. eigenvalues --    1.75380   1.75814   1.76625   1.77279   1.77541
  Beta virt. eigenvalues --    1.78898   1.79246   1.80827   1.81747   1.84383
  Beta virt. eigenvalues --    1.84475   1.86660   1.86927   1.88490   1.89498
  Beta virt. eigenvalues --    1.90962   1.92742   1.93538   1.94675   1.96386
  Beta virt. eigenvalues --    1.98283   2.00319   2.01964   2.03071   2.03306
  Beta virt. eigenvalues --    2.06782   2.07347   2.09829   2.10128   2.11487
  Beta virt. eigenvalues --    2.12488   2.13166   2.15224   2.17012   2.18080
  Beta virt. eigenvalues --    2.18886   2.22654   2.23372   2.25335   2.25871
  Beta virt. eigenvalues --    2.28636   2.31006   2.34653   2.35868   2.39409
  Beta virt. eigenvalues --    2.43626   2.45051   2.47739   2.49444   2.51876
  Beta virt. eigenvalues --    2.52257   2.56501   2.56754   2.58669   2.60600
  Beta virt. eigenvalues --    2.61469   2.62838   2.66906   2.72616   2.75983
  Beta virt. eigenvalues --    2.79420   2.83102   2.90066   2.99310   3.00281
  Beta virt. eigenvalues --    3.04043   3.13759   3.14887   3.15447   3.16883
  Beta virt. eigenvalues --    3.17854   3.42050   3.45416   3.54425   3.55178
  Beta virt. eigenvalues --    3.73298
          Condensed to atoms (all electrons):
               1          2          3          4          5          6
     1  C    4.694915   0.497296  -0.010742  -0.057446   0.019294   0.004182
     2  C    0.497296   4.820313   0.519840  -0.007744  -0.076174  -0.000047
     3  C   -0.010742   0.519840   4.602842   0.534116   0.000663   0.001938
     4  C   -0.057446  -0.007744   0.534116   5.223078   0.433324  -0.082152
     5  C    0.019294  -0.076174   0.000663   0.433324   4.891763   0.495139
     6  O    0.004182  -0.000047   0.001938  -0.082152   0.495139   7.591196
     7  C    0.001325  -0.000037  -0.000026   0.007316  -0.089560   0.351006
     8  C    0.476114  -0.004158  -0.073078  -0.024508   0.324807  -0.079974
     9  C   -0.000493   0.009453  -0.083482   0.180925  -0.093777   0.010127
    10  C    0.000021   0.000178  -0.007535  -0.050442   0.001248  -0.000511
    11  O    0.000004   0.000020   0.001953   0.010283  -0.000366  -0.000017
    12  C   -0.000000   0.000001  -0.000094  -0.000281   0.000007  -0.000003
    13  C   -0.000001   0.000012   0.000391   0.012682  -0.000152   0.000103
    14  C   -0.000000   0.000001  -0.000061   0.003630  -0.000051  -0.000022
    15  S   -0.000009  -0.000106  -0.000076  -0.062598  -0.005112   0.001748
    16  H    0.406901  -0.041949   0.008810  -0.000369   0.008915  -0.000044
    17  H   -0.047770   0.394582  -0.040874   0.009128  -0.000462   0.000003
    18  H    0.010477  -0.053910   0.405691  -0.031068   0.016085  -0.000065
    19  H   -0.000013  -0.000001   0.000018  -0.000099   0.002330  -0.016304
    20  H   -0.000000   0.000020  -0.000113  -0.000137  -0.009633  -0.029337
    21  H    0.000176  -0.000037  -0.000024   0.000204  -0.005921  -0.026571
    22  H   -0.029888   0.008546   0.000833   0.004719  -0.052520  -0.008601
    23  H    0.000000  -0.000000  -0.000003   0.000084  -0.000005  -0.000000
    24  H   -0.000000  -0.000000   0.000008  -0.000068   0.000002  -0.000000
    25  H    0.000000   0.000000   0.000004   0.000132   0.000011   0.000001
    26  H    0.000000  -0.000000   0.000004  -0.000351   0.000001   0.000001
    27  H    0.000000  -0.000000   0.000004  -0.000281  -0.000001  -0.000001
               7          8          9         10         11         12
     1  C    0.001325   0.476114  -0.000493   0.000021   0.000004  -0.000000
     2  C   -0.000037  -0.004158   0.009453   0.000178   0.000020   0.000001
     3  C   -0.000026  -0.073078  -0.083482  -0.007535   0.001953  -0.000094
     4  C    0.007316  -0.024508   0.180925  -0.050442   0.010283  -0.000281
     5  C   -0.089560   0.324807  -0.093777   0.001248  -0.000366   0.000007
     6  O    0.351006  -0.079974   0.010127  -0.000511  -0.000017  -0.000003
     7  C    4.534198  -0.001318  -0.000722   0.000012  -0.000002   0.000000
     8  C   -0.001318   5.015233   0.014564  -0.000159   0.000015  -0.000000
     9  C   -0.000722   0.014564   5.475507   0.531913  -0.078466   0.007623
    10  C    0.000012  -0.000159   0.531913   4.777489   0.445932  -0.081505
    11  O   -0.000002   0.000015  -0.078466   0.445932   7.616598   0.367277
    12  C    0.000000  -0.000000   0.007623  -0.081505   0.367277   4.450416
    13  C   -0.000003   0.000011  -0.068089   0.406187  -0.057628  -0.006369
    14  C    0.000003  -0.000002  -0.089363  -0.032315   0.003327   0.000546
    15  S   -0.000007  -0.000002   0.396425  -0.101741   0.002851  -0.000233
    16  H   -0.000027  -0.044503   0.000015   0.000001   0.000000  -0.000000
    17  H   -0.000000   0.009312  -0.000380  -0.000012   0.000001  -0.000000
    18  H    0.000014  -0.002216  -0.022503   0.000957   0.000671  -0.000043
    19  H    0.395762  -0.000309  -0.000093   0.000010  -0.000000  -0.000000
    20  H    0.386116   0.010326   0.000190  -0.000002   0.000001   0.000000
    21  H    0.392082   0.007344   0.000051  -0.000005  -0.000000  -0.000000
    22  H    0.006463   0.397638  -0.000450  -0.000003   0.000001  -0.000000
    23  H   -0.000000   0.000000   0.000512  -0.005134  -0.027848   0.396145
    24  H   -0.000000  -0.000000  -0.000343   0.003176  -0.015983   0.403077
    25  H    0.000000  -0.000000   0.000561  -0.007368  -0.033162   0.391956
    26  H   -0.000000  -0.000000   0.006486  -0.035508  -0.003722   0.005103
    27  H   -0.000000  -0.000000   0.000903   0.007528  -0.000040   0.000003
              13         14         15         16         17         18
     1  C   -0.000001  -0.000000  -0.000009   0.406901  -0.047770   0.010477
     2  C    0.000012   0.000001  -0.000106  -0.041949   0.394582  -0.053910
     3  C    0.000391  -0.000061  -0.000076   0.008810  -0.040874   0.405691
     4  C    0.012682   0.003630  -0.062598  -0.000369   0.009128  -0.031068
     5  C   -0.000152  -0.000051  -0.005112   0.008915  -0.000462   0.016085
     6  O    0.000103  -0.000022   0.001748  -0.000044   0.000003  -0.000065
     7  C   -0.000003   0.000003  -0.000007  -0.000027  -0.000000   0.000014
     8  C    0.000011  -0.000002  -0.000002  -0.044503   0.009312  -0.002216
     9  C   -0.068089  -0.089363   0.396425   0.000015  -0.000380  -0.022503
    10  C    0.406187  -0.032315  -0.101741   0.000001  -0.000012   0.000957
    11  O   -0.057628   0.003327   0.002851   0.000000   0.000001   0.000671
    12  C   -0.006369   0.000546  -0.000233  -0.000000  -0.000000  -0.000043
    13  C    4.890704   0.564409  -0.105108   0.000000   0.000000  -0.000085
    14  C    0.564409   4.858475   0.395255   0.000000   0.000000  -0.000149
    15  S   -0.105108   0.395255  15.325480  -0.000000   0.000003   0.000377
    16  H    0.000000   0.000000  -0.000000   0.707370  -0.012465  -0.000181
    17  H    0.000000   0.000000   0.000003  -0.012465   0.694203  -0.014834
    18  H   -0.000085  -0.000149   0.000377  -0.000181  -0.014834   0.739787
    19  H   -0.000002  -0.000002   0.000027  -0.000000  -0.000000   0.000000
    20  H    0.000000   0.000000   0.000012   0.000005   0.000001  -0.000001
    21  H    0.000001  -0.000001  -0.000003   0.000017   0.000000  -0.000000
    22  H   -0.000000  -0.000000   0.000005  -0.014671  -0.000265   0.000036
    23  H    0.005264   0.000051  -0.000101  -0.000000  -0.000000   0.000009
    24  H   -0.000051  -0.000013   0.000025  -0.000000   0.000000  -0.000011
    25  H    0.007330  -0.000078  -0.000148   0.000000   0.000000   0.000006
    26  H    0.399672  -0.045016   0.007988  -0.000000   0.000000   0.000001
    27  H   -0.017386   0.408075  -0.039942  -0.000000   0.000000   0.000000
              19         20         21         22         23         24
     1  C   -0.000013  -0.000000   0.000176  -0.029888   0.000000  -0.000000
     2  C   -0.000001   0.000020  -0.000037   0.008546  -0.000000  -0.000000
     3  C    0.000018  -0.000113  -0.000024   0.000833  -0.000003   0.000008
     4  C   -0.000099  -0.000137   0.000204   0.004719   0.000084  -0.000068
     5  C    0.002330  -0.009633  -0.005921  -0.052520  -0.000005   0.000002
     6  O   -0.016304  -0.029337  -0.026571  -0.008601  -0.000000  -0.000000
     7  C    0.395762   0.386116   0.392082   0.006463  -0.000000  -0.000000
     8  C   -0.000309   0.010326   0.007344   0.397638   0.000000  -0.000000
     9  C   -0.000093   0.000190   0.000051  -0.000450   0.000512  -0.000343
    10  C    0.000010  -0.000002  -0.000005  -0.000003  -0.005134   0.003176
    11  O   -0.000000   0.000001  -0.000000   0.000001  -0.027848  -0.015983
    12  C   -0.000000   0.000000  -0.000000  -0.000000   0.396145   0.403077
    13  C   -0.000002   0.000000   0.000001  -0.000000   0.005264  -0.000051
    14  C   -0.000002   0.000000  -0.000001  -0.000000   0.000051  -0.000013
    15  S    0.000027   0.000012  -0.000003   0.000005  -0.000101   0.000025
    16  H   -0.000000   0.000005   0.000017  -0.014671  -0.000000  -0.000000
    17  H   -0.000000   0.000001   0.000000  -0.000265  -0.000000   0.000000
    18  H    0.000000  -0.000001  -0.000000   0.000036   0.000009  -0.000011
    19  H    0.602800  -0.026817  -0.027095  -0.000259  -0.000000  -0.000000
    20  H   -0.026817   0.651790  -0.039963   0.001443   0.000000   0.000000
    21  H   -0.027095  -0.039963   0.645474   0.000775  -0.000000  -0.000000
    22  H   -0.000259   0.001443   0.000775   0.704307   0.000000  -0.000000
    23  H   -0.000000   0.000000  -0.000000   0.000000   0.676698  -0.030042
    24  H   -0.000000   0.000000  -0.000000  -0.000000  -0.030042   0.634857
    25  H    0.000000  -0.000000   0.000000  -0.000000  -0.046488  -0.029839
    26  H   -0.000000  -0.000000   0.000000   0.000000   0.000395  -0.000238
    27  H    0.000000   0.000000  -0.000000  -0.000000   0.000007   0.000000
              25         26         27
     1  C    0.000000   0.000000   0.000000
     2  C    0.000000  -0.000000  -0.000000
     3  C    0.000004   0.000004   0.000004
     4  C    0.000132  -0.000351  -0.000281
     5  C    0.000011   0.000001  -0.000001
     6  O    0.000001   0.000001  -0.000001
     7  C    0.000000  -0.000000  -0.000000
     8  C   -0.000000  -0.000000  -0.000000
     9  C    0.000561   0.006486   0.000903
    10  C   -0.007368  -0.035508   0.007528
    11  O   -0.033162  -0.003722  -0.000040
    12  C    0.391956   0.005103   0.000003
    13  C    0.007330   0.399672  -0.017386
    14  C   -0.000078  -0.045016   0.408075
    15  S   -0.000148   0.007988  -0.039942
    16  H    0.000000  -0.000000  -0.000000
    17  H    0.000000   0.000000   0.000000
    18  H    0.000006   0.000001   0.000000
    19  H    0.000000  -0.000000   0.000000
    20  H   -0.000000  -0.000000   0.000000
    21  H    0.000000   0.000000  -0.000000
    22  H   -0.000000   0.000000  -0.000000
    23  H   -0.046488   0.000395   0.000007
    24  H   -0.029839  -0.000238   0.000000
    25  H    0.683667   0.001400   0.000005
    26  H    0.001400   0.663229  -0.008477
    27  H    0.000005  -0.008477   0.659711
          Atomic-Atomic Spin Densities.
               1          2          3          4          5          6
     1  C   -0.000000   0.000000  -0.000000   0.000000  -0.000000   0.000000
     2  C    0.000000  -0.000000   0.000000  -0.000000   0.000000   0.000000
     3  C   -0.000000   0.000000   0.000000   0.000000  -0.000000   0.000000
     4  C    0.000000  -0.000000   0.000000  -0.000000   0.000000   0.000000
     5  C   -0.000000   0.000000  -0.000000   0.000000  -0.000000  -0.000000
     6  O    0.000000   0.000000   0.000000   0.000000  -0.000000   0.000000
     7  C    0.000000  -0.000000   0.000000  -0.000000  -0.000000   0.000000
     8  C    0.000000  -0.000000  -0.000000   0.000000  -0.000000   0.000000
     9  C   -0.000000   0.000000  -0.000000  -0.000000  -0.000000   0.000000
    10  C    0.000000  -0.000000  -0.000000   0.000000   0.000000   0.000000
    11  O    0.000000  -0.000000   0.000000  -0.000000   0.000000  -0.000000
    12  C   -0.000000   0.000000   0.000000   0.000000  -0.000000   0.000000
    13  C    0.000000  -0.000000  -0.000000   0.000000   0.000000   0.000000
    14  C    0.000000  -0.000000  -0.000000   0.000000   0.000000  -0.000000
    15  S   -0.000000   0.000000   0.000000  -0.000000  -0.000000   0.000000
    16  H   -0.000000   0.000000  -0.000000   0.000000  -0.000000   0.000000
    17  H    0.000000  -0.000000   0.000000  -0.000000   0.000000   0.000000
    18  H   -0.000000   0.000000  -0.000000   0.000000  -0.000000  -0.000000
    19  H   -0.000000   0.000000  -0.000000   0.000000  -0.000000  -0.000000
    20  H   -0.000000  -0.000000   0.000000   0.000000   0.000000   0.000000
    21  H   -0.000000   0.000000  -0.000000   0.000000   0.000000  -0.000000
    22  H    0.000000  -0.000000   0.000000  -0.000000   0.000000  -0.000000
    23  H    0.000000  -0.000000  -0.000000   0.000000   0.000000  -0.000000
    24  H   -0.000000   0.000000  -0.000000  -0.000000   0.000000  -0.000000
    25  H    0.000000  -0.000000   0.000000   0.000000  -0.000000  -0.000000
    26  H   -0.000000   0.000000   0.000000  -0.000000  -0.000000   0.000000
    27  H   -0.000000   0.000000  -0.000000  -0.000000   0.000000   0.000000
               7          8          9         10         11         12
     1  C    0.000000   0.000000  -0.000000   0.000000   0.000000  -0.000000
     2  C   -0.000000  -0.000000   0.000000  -0.000000  -0.000000   0.000000
     3  C    0.000000  -0.000000  -0.000000  -0.000000   0.000000   0.000000
     4  C   -0.000000   0.000000  -0.000000   0.000000  -0.000000   0.000000
     5  C   -0.000000  -0.000000  -0.000000   0.000000   0.000000  -0.000000
     6  O    0.000000   0.000000   0.000000   0.000000  -0.000000   0.000000
     7  C    0.000000  -0.000000  -0.000000   0.000000   0.000000  -0.000000
     8  C   -0.000000   0.000000   0.000000  -0.000000  -0.000000   0.000000
     9  C   -0.000000   0.000000   0.000000   0.000000   0.000000   0.000000
    10  C    0.000000  -0.000000   0.000000   0.000000  -0.000000   0.000000
    11  O    0.000000  -0.000000   0.000000  -0.000000   0.000000   0.000000
    12  C   -0.000000   0.000000   0.000000   0.000000   0.000000  -0.000000
    13  C   -0.000000  -0.000000   0.000000  -0.000000  -0.000000   0.000000
    14  C    0.000000  -0.000000  -0.000000   0.000000   0.000000  -0.000000
    15  S    0.000000   0.000000  -0.000000   0.000000   0.000000   0.000000
    16  H    0.000000   0.000000  -0.000000  -0.000000   0.000000  -0.000000
    17  H   -0.000000  -0.000000   0.000000  -0.000000  -0.000000   0.000000
    18  H    0.000000   0.000000  -0.000000   0.000000   0.000000  -0.000000
    19  H    0.000000   0.000000  -0.000000   0.000000   0.000000  -0.000000
    20  H   -0.000000  -0.000000   0.000000   0.000000   0.000000   0.000000
    21  H    0.000000  -0.000000   0.000000  -0.000000   0.000000  -0.000000
    22  H   -0.000000  -0.000000   0.000000  -0.000000  -0.000000   0.000000
    23  H    0.000000  -0.000000   0.000000  -0.000000   0.000000  -0.000000
    24  H   -0.000000   0.000000  -0.000000  -0.000000  -0.000000   0.000000
    25  H   -0.000000  -0.000000   0.000000   0.000000   0.000000  -0.000000
    26  H   -0.000000   0.000000   0.000000  -0.000000  -0.000000   0.000000
    27  H   -0.000000   0.000000  -0.000000   0.000000   0.000000  -0.000000
              13         14         15         16         17         18
     1  C    0.000000   0.000000  -0.000000  -0.000000   0.000000  -0.000000
     2  C   -0.000000  -0.000000   0.000000   0.000000  -0.000000   0.000000
     3  C   -0.000000  -0.000000   0.000000  -0.000000   0.000000  -0.000000
     4  C    0.000000   0.000000  -0.000000   0.000000  -0.000000   0.000000
     5  C    0.000000   0.000000  -0.000000  -0.000000   0.000000  -0.000000
     6  O    0.000000  -0.000000   0.000000   0.000000   0.000000  -0.000000
     7  C   -0.000000   0.000000   0.000000   0.000000  -0.000000   0.000000
     8  C   -0.000000  -0.000000   0.000000   0.000000  -0.000000   0.000000
     9  C    0.000000  -0.000000  -0.000000  -0.000000   0.000000  -0.000000
    10  C   -0.000000   0.000000   0.000000  -0.000000  -0.000000   0.000000
    11  O   -0.000000   0.000000   0.000000   0.000000  -0.000000   0.000000
    12  C    0.000000  -0.000000   0.000000  -0.000000   0.000000  -0.000000
    13  C    0.000000  -0.000000   0.000000   0.000000  -0.000000   0.000000
    14  C   -0.000000   0.000000  -0.000000  -0.000000  -0.000000   0.000000
    15  S    0.000000  -0.000000   0.000000  -0.000000   0.000000  -0.000000
    16  H    0.000000  -0.000000  -0.000000  -0.000000   0.000000  -0.000000
    17  H   -0.000000  -0.000000   0.000000   0.000000  -0.000000   0.000000
    18  H    0.000000   0.000000  -0.000000  -0.000000   0.000000  -0.000000
    19  H   -0.000000   0.000000   0.000000  -0.000000   0.000000   0.000000
    20  H   -0.000000   0.000000   0.000000   0.000000  -0.000000   0.000000
    21  H    0.000000  -0.000000   0.000000  -0.000000   0.000000  -0.000000
    22  H   -0.000000  -0.000000   0.000000   0.000000  -0.000000   0.000000
    23  H    0.000000  -0.000000  -0.000000   0.000000  -0.000000   0.000000
    24  H   -0.000000   0.000000   0.000000  -0.000000   0.000000  -0.000000
    25  H   -0.000000   0.000000  -0.000000   0.000000  -0.000000   0.000000
    26  H    0.000000  -0.000000  -0.000000  -0.000000   0.000000  -0.000000
    27  H   -0.000000  -0.000000   0.000000  -0.000000   0.000000  -0.000000
              19         20         21         22         23         24
     1  C   -0.000000  -0.000000  -0.000000   0.000000   0.000000  -0.000000
     2  C    0.000000  -0.000000   0.000000  -0.000000  -0.000000   0.000000
     3  C   -0.000000   0.000000  -0.000000   0.000000  -0.000000  -0.000000
     4  C    0.000000   0.000000   0.000000  -0.000000   0.000000  -0.000000
     5  C   -0.000000   0.000000   0.000000   0.000000   0.000000   0.000000
     6  O   -0.000000   0.000000  -0.000000  -0.000000  -0.000000  -0.000000
     7  C    0.000000  -0.000000   0.000000  -0.000000   0.000000  -0.000000
     8  C    0.000000  -0.000000  -0.000000  -0.000000  -0.000000   0.000000
     9  C   -0.000000   0.000000   0.000000   0.000000   0.000000  -0.000000
    10  C    0.000000   0.000000  -0.000000  -0.000000  -0.000000  -0.000000
    11  O    0.000000   0.000000   0.000000  -0.000000   0.000000  -0.000000
    12  C   -0.000000   0.000000  -0.000000   0.000000  -0.000000   0.000000
    13  C   -0.000000  -0.000000   0.000000  -0.000000   0.000000  -0.000000
    14  C    0.000000   0.000000  -0.000000  -0.000000  -0.000000   0.000000
    15  S    0.000000   0.000000   0.000000   0.000000  -0.000000   0.000000
    16  H   -0.000000   0.000000  -0.000000   0.000000   0.000000  -0.000000
    17  H    0.000000  -0.000000   0.000000  -0.000000  -0.000000   0.000000
    18  H    0.000000   0.000000  -0.000000   0.000000   0.000000  -0.000000
    19  H    0.000000  -0.000000  -0.000000   0.000000   0.000000   0.000000
    20  H   -0.000000  -0.000000   0.000000  -0.000000  -0.000000   0.000000
    21  H   -0.000000   0.000000  -0.000000  -0.000000   0.000000  -0.000000
    22  H    0.000000  -0.000000  -0.000000  -0.000000  -0.000000   0.000000
    23  H    0.000000  -0.000000   0.000000  -0.000000   0.000000  -0.000000
    24  H    0.000000   0.000000  -0.000000   0.000000  -0.000000   0.000000
    25  H   -0.000000   0.000000  -0.000000  -0.000000  -0.000000  -0.000000
    26  H   -0.000000   0.000000   0.000000   0.000000   0.000000  -0.000000
    27  H   -0.000000   0.000000  -0.000000   0.000000  -0.000000   0.000000
              25         26         27
     1  C    0.000000  -0.000000  -0.000000
     2  C   -0.000000   0.000000   0.000000
     3  C    0.000000   0.000000  -0.000000
     4  C    0.000000  -0.000000  -0.000000
     5  C   -0.000000  -0.000000   0.000000
     6  O   -0.000000   0.000000   0.000000
     7  C   -0.000000  -0.000000  -0.000000
     8  C   -0.000000   0.000000   0.000000
     9  C    0.000000   0.000000  -0.000000
    10  C    0.000000  -0.000000   0.000000
    11  O    0.000000  -0.000000   0.000000
    12  C   -0.000000   0.000000  -0.000000
    13  C   -0.000000   0.000000  -0.000000
    14  C    0.000000  -0.000000  -0.000000
    15  S   -0.000000  -0.000000   0.000000
    16  H    0.000000  -0.000000  -0.000000
    17  H   -0.000000   0.000000   0.000000
    18  H    0.000000  -0.000000  -0.000000
    19  H   -0.000000  -0.000000  -0.000000
    20  H    0.000000   0.000000   0.000000
    21  H   -0.000000   0.000000  -0.000000
    22  H   -0.000000   0.000000   0.000000
    23  H   -0.000000   0.000000  -0.000000
[...]
    23  H   -0.000000   0.000000   0.000000  -0.000000   0.000000  -0.000000
    24  H    0.000000  -0.000000  -0.000000  -0.000000  -0.000000  -0.000000
    25  H   -0.000000   0.000000   0.000000  -0.000000   0.000000   0.000000
    26  H   -0.000000   0.000000  -0.000000   0.000000   0.000000   0.000000
    27  H   -0.000000   0.000000   0.000000   0.000000  -0.000000  -0.000000
              25         26         27
     1  C   -0.000000  -0.000000  -0.000000
     2  C    0.000000   0.000000   0.000000
     3  C    0.000000   0.000000  -0.000000
     4  C   -0.000000  -0.000000  -0.000000
     5  C   -0.000000   0.000000   0.000000
     6  O    0.000000  -0.000000   0.000000
     7  C   -0.000000  -0.000000  -0.000000
     8  C   -0.000000   0.000000   0.000000
     9  C   -0.000000  -0.000000   0.000000
    10  C   -0.000000   0.000000  -0.000000
    11  O    0.000000   0.000000  -0.000000
    12  C    0.000000  -0.000000   0.000000
    13  C    0.000000   0.000000   0.000000
    14  C    0.000000  -0.000000  -0.000000
    15  S    0.000000   0.000000  -0.000000
    16  H   -0.000000  -0.000000  -0.000000
    17  H    0.000000   0.000000   0.000000
    18  H   -0.000000  -0.000000   0.000000
    19  H   -0.000000  -0.000000  -0.000000
    20  H    0.000000   0.000000   0.000000
    21  H    0.000000  -0.000000   0.000000
    22  H   -0.000000   0.000000   0.000000
    23  H    0.000000   0.000000  -0.000000
    24  H    0.000000   0.000000  -0.000000
    25  H    0.000000  -0.000000   0.000000
    26  H   -0.000000  -0.000000   0.000000
    27  H    0.000000   0.000000  -0.000000
 Mulliken charges and spin densities:
               1          2
     1  C    0.010177  -0.000000
     2  C    0.008487   0.000000
     3  C    0.015400  -0.000000
     4  C   -0.003736  -0.000000
     5  C    0.109200   0.000000
     6  O   -0.255743   0.000000
     7  C    0.050639  -0.000000
     8  C   -0.048346   0.000000
     9  C   -0.190576   0.000000
    10  C    0.140808  -0.000000
    11  O   -0.257920  -0.000000
    12  C    0.047451  -0.000000
    13  C   -0.001469   0.000000
    14  C   -0.136840   0.000000
    15  S    0.180377   0.000000
    16  H   -0.003330  -0.000000
    17  H   -0.007323  -0.000000
    18  H   -0.002218  -0.000000
    19  H    0.059894   0.000000
    20  H    0.048637   0.000000
    21  H    0.048186  -0.000000
    22  H   -0.000440   0.000000
    23  H    0.045918   0.000000
    24  H    0.057350  -0.000000
    25  H    0.046901   0.000000
    26  H    0.004968  -0.000000
    27  H    0.033548  -0.000000
 Sum of Mulliken charges =  -0.00000  -0.00000
 Mulliken charges and spin densities with hydrogens summed into heavy atoms:
               1          2
     1  C    0.006847  -0.000000
     2  C    0.001164   0.000000
     3  C    0.013183  -0.000000
     4  C   -0.003736  -0.000000
     5  C    0.109200   0.000000
     6  O   -0.255743   0.000000
     7  C    0.207356   0.000000
     8  C   -0.048786   0.000000
     9  C   -0.190576   0.000000
    10  C    0.140808  -0.000000
    11  O   -0.257920  -0.000000
    12  C    0.197620  -0.000000
    13  C    0.003499   0.000000
    14  C   -0.103292  -0.000000
    15  S    0.180377   0.000000
 Electronic spatial extent (au):  <R**2>=           3584.3548
 Charge=             -0.0000 electrons
 Dipole moment (field-independent basis, Debye):
    X=             -0.4892    Y=             -0.2488    Z=              0.8117  Tot=              0.9799
 Quadrupole moment (field-independent basis, Debye-Ang):
   XX=            -72.5653   YY=            -85.2608   ZZ=            -97.3515
   XY=             -5.7857   XZ=              0.3720   YZ=             -0.7732
 Traceless Quadrupole moment (field-independent basis, Debye-Ang):
   XX=             12.4939   YY=             -0.2016   ZZ=            -12.2923
   XY=             -5.7857   XZ=              0.3720   YZ=             -0.7732
 Octapole moment (field-independent basis, Debye-Ang**2):
  XXX=            -13.9049  YYY=             -5.9682  ZZZ=             11.2395  XYY=             -3.8996
  XXY=             -3.9237  XXZ=             18.2218  XZZ=             -2.8849  YZZ=             -2.0529
  YYZ=             -0.2331  XYZ=            -12.9243
 Hexadecapole moment (field-independent basis, Debye-Ang**3):
 XXXX=          -2613.3618 YYYY=          -1485.6025 ZZZZ=           -265.5384 XXXY=            -93.4543
 XXXZ=             -0.1219 YYYX=            -41.0451 YYYZ=             -7.8357 ZZZX=              0.5800
 ZZZY=              2.6551 XXYY=           -640.5217 XXZZ=           -546.3670 YYZZ=           -312.8812
 XXYZ=              8.0023 YYXZ=              2.2284 ZZXY=            -35.0825
 N-N= 1.082790049095D+03 E-N=-4.543395620160D+03  KE= 1.007531099373D+03
                          Isotropic Fermi Contact Couplings
        Atom                 a.u.       MegaHertz       Gauss      10(-4) cm-1
     1  C(13)              0.00000       0.00000       0.00000       0.00000
     2  C(13)              0.00000       0.00000       0.00000       0.00000
     3  C(13)             -0.00000      -0.00000      -0.00000      -0.00000
     4  C(13)             -0.00000      -0.00000      -0.00000      -0.00000
     5  C(13)              0.00000       0.00000       0.00000       0.00000
     6  O(17)             -0.00000       0.00000       0.00000       0.00000
     7  C(13)              0.00000       0.00000       0.00000       0.00000
     8  C(13)             -0.00000      -0.00000      -0.00000      -0.00000
     9  C(13)              0.00000       0.00000       0.00000       0.00000
    10  C(13)             -0.00000      -0.00000      -0.00000      -0.00000
    11  O(17)              0.00000      -0.00000      -0.00000      -0.00000
    12  C(13)              0.00000       0.00000       0.00000       0.00000
    13  C(13)             -0.00000      -0.00000      -0.00000      -0.00000
    14  C(13)              0.00000       0.00000       0.00000       0.00000
    15  S(33)              0.00000       0.00000       0.00000       0.00000
    16  H(1)               0.00000       0.00000       0.00000       0.00000
    17  H(1)              -0.00000      -0.00000      -0.00000      -0.00000
    18  H(1)               0.00000       0.00000       0.00000       0.00000
    19  H(1)               0.00000       0.00000       0.00000       0.00000
    20  H(1)               0.00000       0.00000       0.00000       0.00000
    21  H(1)              -0.00000      -0.00000      -0.00000      -0.00000
    22  H(1)              -0.00000      -0.00000      -0.00000      -0.00000
    23  H(1)              -0.00000      -0.00000      -0.00000      -0.00000
    24  H(1)               0.00000       0.00000       0.00000       0.00000
    25  H(1)               0.00000       0.00000       0.00000       0.00000
    26  H(1)              -0.00000      -0.00000      -0.00000      -0.00000
    27  H(1)               0.00000       0.00000       0.00000       0.00000
 --------------------------------------------------------
       Center         ----  Spin Dipole Couplings  ----
                      3XX-RR        3YY-RR        3ZZ-RR
 --------------------------------------------------------
     1   Atom        0.000000     -0.000000     -0.000000
     2   Atom        0.000000     -0.000000      0.000000
     3   Atom        0.000000     -0.000000      0.000000
     4   Atom       -0.000000      0.000000      0.000000
     5   Atom       -0.000000      0.000000      0.000000
     6   Atom       -0.000000      0.000000      0.000000
     7   Atom       -0.000000      0.000000      0.000000
     8   Atom       -0.000000      0.000000     -0.000000
     9   Atom       -0.000000      0.000000     -0.000000
    10   Atom       -0.000000     -0.000000      0.000000
    11   Atom       -0.000000      0.000000     -0.000000
    12   Atom        0.000000      0.000000     -0.000000
    13   Atom        0.000000     -0.000000     -0.000000
    14   Atom       -0.000000      0.000000      0.000000
    15   Atom       -0.000000     -0.000000      0.000000
    16   Atom       -0.000000      0.000000      0.000000
    17   Atom        0.000000     -0.000000      0.000000
    18   Atom       -0.000000      0.000000      0.000000
    19   Atom        0.000000     -0.000000      0.000000
    20   Atom       -0.000000      0.000000      0.000000
    21   Atom        0.000000     -0.000000      0.000000
    22   Atom        0.000000      0.000000     -0.000000
    23   Atom        0.000000     -0.000000     -0.000000
    24   Atom       -0.000000      0.000000     -0.000000
    25   Atom       -0.000000     -0.000000      0.000000
    26   Atom       -0.000000      0.000000      0.000000
    27   Atom        0.000000     -0.000000      0.000000
 --------------------------------------------------------
                        XY            XZ            YZ
 --------------------------------------------------------
     1   Atom       -0.000000     -0.000000      0.000000
     2   Atom       -0.000000      0.000000      0.000000
     3   Atom        0.000000     -0.000000      0.000000
     4   Atom       -0.000000     -0.000000     -0.000000
     5   Atom        0.000000     -0.000000     -0.000000
     6   Atom       -0.000000     -0.000000     -0.000000
     7   Atom        0.000000     -0.000000     -0.000000
     8   Atom       -0.000000      0.000000     -0.000000
     9   Atom       -0.000000      0.000000      0.000000
    10   Atom        0.000000      0.000000     -0.000000
    11   Atom       -0.000000     -0.000000     -0.000000
    12   Atom       -0.000000      0.000000      0.000000
    13   Atom       -0.000000     -0.000000      0.000000
    14   Atom        0.000000      0.000000     -0.000000
    15   Atom        0.000000      0.000000     -0.000000
    16   Atom       -0.000000     -0.000000     -0.000000
    17   Atom        0.000000     -0.000000      0.000000
    18   Atom        0.000000     -0.000000      0.000000
    19   Atom        0.000000     -0.000000     -0.000000
    20   Atom       -0.000000     -0.000000      0.000000
    21   Atom       -0.000000     -0.000000     -0.000000
    22   Atom       -0.000000      0.000000     -0.000000
    23   Atom       -0.000000      0.000000     -0.000000
    24   Atom       -0.000000      0.000000      0.000000
    25   Atom        0.000000     -0.000000      0.000000
    26   Atom        0.000000      0.000000      0.000000
    27   Atom       -0.000000     -0.000000     -0.000000
 --------------------------------------------------------


 ---------------------------------------------------------------------------------
              Anisotropic Spin Dipole Couplings in Principal Axis System
 ---------------------------------------------------------------------------------

       Atom             a.u.   MegaHertz   Gauss  10(-4) cm-1        Axes

              Baa    -0.0000    -0.000    -0.000    -0.000  0.4941  0.8685  0.0398
     1 C(13)  Bbb    -0.0000    -0.000    -0.000    -0.000  0.1633 -0.1376  0.9769
              Bcc     0.0000     0.000     0.000     0.000  0.8539 -0.4762 -0.2098
 
              Baa    -0.0000    -0.000    -0.000    -0.000  0.5547  0.8260 -0.1006
     2 C(13)  Bbb     0.0000     0.000     0.000     0.000  0.5855 -0.3015  0.7525
              Bcc     0.0000     0.000     0.000     0.000 -0.5912  0.4763  0.6508
 
              Baa    -0.0000    -0.000    -0.000    -0.000 -0.0545  0.9290 -0.3659
     3 C(13)  Bbb     0.0000     0.000     0.000     0.000  0.9979  0.0631  0.0115
              Bcc     0.0000     0.000     0.000     0.000 -0.0338  0.3645  0.9306
 
              Baa    -0.0000    -0.000    -0.000    -0.000  0.9759  0.2018  0.0836
     4 C(13)  Bbb     0.0000     0.000     0.000     0.000 -0.2026  0.9793  0.0011
              Bcc     0.0000     0.000     0.000     0.000 -0.0817 -0.0180  0.9965
 
              Baa    -0.0000    -0.000    -0.000    -0.000  0.9521 -0.1545  0.2639
     5 C(13)  Bbb     0.0000     0.000     0.000     0.000 -0.2024  0.3287  0.9225
              Bcc     0.0000     0.000     0.000     0.000  0.2292  0.9317 -0.2817
 
              Baa    -0.0000     0.000     0.000     0.000  0.9901  0.1363  0.0349
     6 O(17)  Bbb     0.0000    -0.000    -0.000    -0.000 -0.0370  0.0131  0.9992
              Bcc     0.0000    -0.000    -0.000    -0.000 -0.1357  0.9906 -0.0180
 
              Baa    -0.0000    -0.000    -0.000    -0.000  0.9950 -0.0641  0.0765
     7 C(13)  Bbb     0.0000     0.000     0.000     0.000 -0.0052  0.7324  0.6809
              Bcc     0.0000     0.000     0.000     0.000 -0.0997 -0.6779  0.7284
 
              Baa    -0.0000    -0.000    -0.000    -0.000 -0.2242  0.1988  0.9540
     8 C(13)  Bbb    -0.0000    -0.000    -0.000    -0.000  0.9740  0.0795  0.2123
              Bcc     0.0000     0.000     0.000     0.000 -0.0336  0.9768 -0.2115
 
              Baa    -0.0000    -0.000    -0.000    -0.000 -0.1489 -0.1068  0.9831
     9 C(13)  Bbb    -0.0000    -0.000    -0.000    -0.000  0.9694  0.1804  0.1664
              Bcc     0.0000     0.000     0.000     0.000 -0.1952  0.9778  0.0767
 
              Baa    -0.0000    -0.000    -0.000    -0.000  0.9032 -0.3412 -0.2606
    10 C(13)  Bbb    -0.0000    -0.000    -0.000    -0.000  0.3693  0.9270  0.0662
              Bcc     0.0000     0.000     0.000     0.000  0.2190 -0.1560  0.9632
 
              Baa    -0.0000     0.000     0.000     0.000  0.4826  0.4176  0.7699
    11 O(17)  Bbb    -0.0000     0.000     0.000     0.000  0.8590 -0.0539 -0.5091
              Bcc     0.0000    -0.000    -0.000    -0.000 -0.1711  0.9071 -0.3847
 
              Baa    -0.0000    -0.000    -0.000    -0.000 -0.1499 -0.2362  0.9601
    12 C(13)  Bbb     0.0000     0.000     0.000     0.000  0.7234  0.6358  0.2694
              Bcc     0.0000     0.000     0.000     0.000 -0.6740  0.7349  0.0756
 
              Baa    -0.0000    -0.000    -0.000    -0.000  0.1975  0.9640 -0.1780
    13 C(13)  Bbb    -0.0000    -0.000    -0.000    -0.000  0.0899  0.1630  0.9825
              Bcc     0.0000     0.000     0.000     0.000  0.9762 -0.2101 -0.0544
 
              Baa    -0.0000    -0.000    -0.000    -0.000  0.7087 -0.6427 -0.2911
    14 C(13)  Bbb     0.0000     0.000     0.000     0.000  0.3884  0.0109  0.9214
              Bcc     0.0000     0.000     0.000     0.000  0.5890  0.7661 -0.2573
 
              Baa    -0.0000    -0.000    -0.000    -0.000  0.7833 -0.6093 -0.1235
    15 S(33)  Bbb     0.0000     0.000     0.000     0.000  0.5183  0.5304  0.6708
              Bcc     0.0000     0.000     0.000     0.000 -0.3432 -0.5895  0.7313
 
              Baa    -0.0000    -0.000    -0.000    -0.000  0.9981  0.0551  0.0286
    16 H(1)   Bbb     0.0000     0.000     0.000     0.000 -0.0453  0.3303  0.9428
              Bcc     0.0000     0.000     0.000     0.000 -0.0425  0.9423 -0.3321
 
              Baa    -0.0000    -0.000    -0.000    -0.000 -0.1803  0.9448 -0.2736
    17 H(1)   Bbb     0.0000     0.000     0.000     0.000  0.9813  0.1916  0.0151
              Bcc     0.0000     0.000     0.000     0.000 -0.0667  0.2658  0.9617
 
              Baa    -0.0000    -0.000    -0.000    -0.000  0.9207 -0.3269  0.2133
    18 H(1)   Bbb     0.0000     0.000     0.000     0.000 -0.1809  0.1270  0.9753
              Bcc     0.0000     0.000     0.000     0.000  0.3459  0.9365 -0.0578
 
              Baa    -0.0000    -0.000    -0.000    -0.000 -0.0503  0.9864  0.1566
    19 H(1)   Bbb     0.0000     0.000     0.000     0.000  0.6964 -0.0777  0.7135
              Bcc     0.0000     0.000     0.000     0.000  0.7159  0.1449 -0.6830
 
              Baa    -0.0000    -0.000    -0.000    -0.000  0.8546  0.1652  0.4923
    20 H(1)   Bbb    -0.0000    -0.000    -0.000    -0.000  0.1609  0.8172 -0.5535
              Bcc     0.0000     0.000     0.000     0.000 -0.4938  0.5522  0.6717
 
              Baa    -0.0000    -0.000    -0.000    -0.000  0.1493  0.9361  0.3185
    21 H(1)   Bbb     0.0000     0.000     0.000     0.000  0.9663 -0.2064  0.1536
              Bcc     0.0000     0.000     0.000     0.000 -0.2095 -0.2849  0.9354
 
              Baa    -0.0000    -0.000    -0.000    -0.000 -0.1905  0.2433  0.9511
    22 H(1)   Bbb     0.0000     0.000     0.000     0.000  0.4913  0.8624 -0.1222
              Bcc     0.0000     0.000     0.000     0.000  0.8499 -0.4440  0.2838
 
              Baa    -0.0000    -0.000    -0.000    -0.000 -0.5982  0.1765  0.7816
    23 H(1)   Bbb    -0.0000    -0.000    -0.000    -0.000  0.3398  0.9393  0.0479
              Bcc     0.0000     0.000     0.000     0.000  0.7257 -0.2943  0.6219
 
              Baa    -0.0000    -0.000    -0.000    -0.000  0.7536  0.3611 -0.5492
    24 H(1)   Bbb    -0.0000    -0.000    -0.000    -0.000  0.6546 -0.3375  0.6764
              Bcc     0.0000     0.000     0.000     0.000 -0.0589  0.8693  0.4907
 
              Baa    -0.0000    -0.000    -0.000    -0.000  0.7516 -0.5901  0.2947
    25 H(1)   Bbb    -0.0000    -0.000    -0.000    -0.000  0.5605  0.8069  0.1861
              Bcc     0.0000     0.000     0.000     0.000 -0.3476  0.0253  0.9373
 
              Baa    -0.0000    -0.000    -0.000    -0.000  0.8952 -0.4325 -0.1073
    26 H(1)   Bbb     0.0000     0.000     0.000     0.000  0.2574  0.6984 -0.6678
              Bcc     0.0000     0.000     0.000     0.000  0.3638  0.5702  0.7366
 
              Baa    -0.0000    -0.000    -0.000    -0.000  0.2416  0.9692  0.0471
    27 H(1)   Bbb     0.0000     0.000     0.000     0.000 -0.0293 -0.0413  0.9987
              Bcc     0.0000     0.000     0.000     0.000  0.9699 -0.2427  0.0184
 

 ---------------------------------------------------------------------------------

 No NMR shielding tensors so no spin-rotation constants.
 Leave Link  601 at Fri Jul 24 15:01:45 2020, MaxMem=  4026531840 cpu:               2.1 elap:               0.3
 (Enter /opt/ohpc/pub/libs/gaussian/g16-A.03/sandybridge/g16/l9999.exe)

 Test job not archived.
 1\1\GINC-SKYLAKE039\FOpt\ULC-wPBE\CC-pVDZ\C12H12O2S1\RDU230\24-Jul-202
 0\0\\#P uLC-wPBE/cc-pVDZ iop(3/107=0366700000, 3/108=0366700000) opt\\
 H12 C12 S1 O2\\0,1\C,3.2727052393,1.3557683127,-0.2103765955\C,2.18462
 44064,2.1222088595,-0.5961346101\C,0.9040743046,1.5837177264,-0.517912
 5116\C,0.6768244307,0.2872262263,-0.0534161536\C,1.7991358518,-0.47851
 47391,0.326596431\O,1.5401748736,-1.7403561169,0.7566306422\C,2.621588
 114,-2.5647500791,1.1216721104\C,3.0828822103,0.055093596,0.2485986341
 \C,-0.6990236312,-0.2427021738,0.0268701375\C,-1.8545900833,0.47453416
 7,0.2606316145\O,-1.8107245112,1.8083135275,0.520944909\C,-3.020646283
 6,2.4249499447,0.898051262\C,-3.0431476063,-0.3134340982,0.189931996\C
 ,-2.7677426469,-1.6151233913,-0.10567984\S,-1.0961406801,-1.9027356308
 ,-0.2736110146\H,4.2857008444,1.7616756917,-0.2660924957\H,2.324820184
 4,3.1406903115,-0.9642516764\H,0.0453012112,2.1829376831,-0.8194832823
 \H,2.1845049312,-3.5269824221,1.4162578847\H,3.1810610603,-2.146916771
 8,1.9760672172\H,3.314724078,-2.7257802675,0.278221158\H,3.9463886602,
 -0.5396547475,0.5468644459\H,-3.7638417475,2.4023345316,0.0821874306\H
 ,-2.7761936624,3.4701424652,1.1261533751\H,-3.4544096547,1.9536397266,
 1.7965844262\H,-4.051451449,0.0638696221,0.352465138\H,-3.4795914444,-
 2.4327149537,-0.2089036327\\Version=EM64L-G16RevA.03\State=1-A\HF=-101
 2.5789495\S2=0.\S2-1=0.\S2A=0.\RMSD=5.771e-09\RMSF=1.034e-05\Dipole=-0
 .199836,-0.0488667,0.3260358\Quadrupole=7.9246001,1.101746,-9.0263461,
 -5.433063,0.3186372,-1.2083876\PG=C01 [X(C12H12O2S1)]\\@


 LIVE PURE, SPEAK TRUE, RIGHT WRONG, FOLLOW THE KING...
 ELSE, WHEREFORE BORN......
           IDYLLS OF THE KING, TENNYSON
 Job cpu time:       0 days  3 hours 49 minutes  7.4 seconds.
 Elapsed time:       0 days  0 hours 29 minutes  7.3 seconds.
 File lengths (MBytes):  RWF=    144 Int=      0 D2E=      0 Chk=     12 Scr=      8
 Normal termination of Gaussian 16 at Fri Jul 24 15:01:45 2020.
