 Entering Gaussian System, Link 0=g16
 Input=mols_66_1_08_n-n-c-cOC_opt_0.gjf
 Output=mols_66_1_08_n-n-c-cOC_opt_0.log
 Initial command:
 /opt/ohpc/pub/libs/gaussian/g16-A.03/sandybridge/g16/l1.exe "/mnt/gpfs2_4m/scratch/rdu230/ondemand/projects/dihedral_energies/7trial/wtuning/redos_512cycles/mols_66_1_08_n-n-c-cOC/Gau-361242.inp" -scrdir="/mnt/gpfs2_4m/scratch/rdu230/ondemand/projects/dihedral_energies/7trial/wtuning/redos_512cycles/mols_66_1_08_n-n-c-cOC/"
 Entering Link 1 = /opt/ohpc/pub/libs/gaussian/g16-A.03/sandybridge/g16/l1.exe PID=    361243.
  
 Copyright (c) 1988,1990,1992,1993,1995,1998,2003,2009,2016,
            Gaussian, Inc.  All Rights Reserved.
  
 This is part of the Gaussian(R) 16 program.  It is based on
 the Gaussian(R) 09 system (copyright 2009, Gaussian, Inc.),
 the Gaussian(R) 03 system (copyright 2003, Gaussian, Inc.),
 the Gaussian(R) 98 system (copyright 1998, Gaussian, Inc.),
 the Gaussian(R) 94 system (copyright 1995, Gaussian, Inc.),
 the Gaussian 92(TM) system (copyright 1992, Gaussian, Inc.),
 the Gaussian 90(TM) system (copyright 1990, Gaussian, Inc.),
 the Gaussian 88(TM) system (copyright 1988, Gaussian, Inc.),
 the Gaussian 86(TM) system (copyright 1986, Carnegie Mellon
 University), and the Gaussian 82(TM) system (copyright 1983,
 Carnegie Mellon University). Gaussian is a federally registered
 trademark of Gaussian, Inc.
  
 This software contains proprietary and confidential information,
 including trade secrets, belonging to Gaussian, Inc.
  
 This software is provided under written license and may be
 used, copied, transmitted, or stored only in accord with that
 written license.
  
 The following legend is applicable only to US Government
 contracts under FAR:
  
                    RESTRICTED RIGHTS LEGEND
  
 Use, reproduction and disclosure by the US Government is
 subject to restrictions as set forth in subparagraphs (a)
 and (c) of the Commercial Computer Software - Restricted
 Rights clause in FAR 52.227-19.
  
 Gaussian, Inc.
 340 Quinnipiac St., Bldg. 40, Wallingford CT 06492
  
  
 ---------------------------------------------------------------
 Warning -- This program may not be used in any manner that
 competes with the business of Gaussian, Inc. or will provide
 assistance to any competitor of Gaussian, Inc.  The licensee
 of this program is prohibited from giving any competitor of
 Gaussian, Inc. access to this program.  By using this program,
 the user acknowledges that Gaussian, Inc. is engaged in the
 business of creating and licensing software in the field of
 computational chemistry and represents and warrants to the
 licensee that it is not a competitor of Gaussian, Inc. and that
 it will not use this program in any manner prohibited above.
 ---------------------------------------------------------------
  

 Cite this work as:
 Gaussian 16, Revision A.03,
 M. J. Frisch, G. W. Trucks, H. B. Schlegel, G. E. Scuseria, 
 M. A. Robb, J. R. Cheeseman, G. Scalmani, V. Barone, 
 G. A. Petersson, H. Nakatsuji, X. Li, M. Caricato, A. V. Marenich, 
 J. Bloino, B. G. Janesko, R. Gomperts, B. Mennucci, H. P. Hratchian, 
 J. V. Ortiz, A. F. Izmaylov, J. L. Sonnenberg, D. Williams-Young, 
 F. Ding, F. Lipparini, F. Egidi, J. Goings, B. Peng, A. Petrone, 
 T. Henderson, D. Ranasinghe, V. G. Zakrzewski, J. Gao, N. Rega, 
 G. Zheng, W. Liang, M. Hada, M. Ehara, K. Toyota, R. Fukuda, 
 J. Hasegawa, M. Ishida, T. Nakajima, Y. Honda, O. Kitao, H. Nakai, 
 T. Vreven, K. Throssell, J. A. Montgomery, Jr., J. E. Peralta, 
 F. Ogliaro, M. J. Bearpark, J. J. Heyd, E. N. Brothers, K. N. Kudin, 
 V. N. Staroverov, T. A. Keith, R. Kobayashi, J. Normand, 
 K. Raghavachari, A. P. Rendell, J. C. Burant, S. S. Iyengar, 
 J. Tomasi, M. Cossi, J. M. Millam, M. Klene, C. Adamo, R. Cammi, 
 J. W. Ochterski, R. L. Martin, K. Morokuma, O. Farkas, 
 J. B. Foresman, and D. J. Fox, Gaussian, Inc., Wallingford CT, 2016.
 
 ******************************************
 Gaussian 16:  EM64L-G16RevA.03 25-Dec-2016
                26-Jul-2020 
 ******************************************
 %mem=30GB
 %nproc=8
 Will use up to    8 processors via shared memory.
 ---------------------------------------------------------------
 #P uLC-wPBE/cc-pVDZ iop(3/107=0177500000, 3/108=0177500000) opt
 ---------------------------------------------------------------
 1/18=20,19=15,26=3,38=1/1,3;
 2/9=110,12=2,17=6,18=5,40=1/2;
 3/5=16,11=2,25=1,30=1,71=1,74=-41,107=177500000,108=177500000,116=2/1,2,3;
 4//1;
 5/5=2,38=5/2;
 6/7=2,8=2,9=2,10=2,28=1/1;
 7//1,2,3,16;
 1/18=20,19=15,26=3/3(2);
 2/9=110/2;
 99//99;
 2/9=110/2;
 3/5=16,11=2,25=1,30=1,71=1,74=-41,107=177500000,108=177500000,116=2/1,2,3;
 4/5=5,16=3,69=1/1;
 5/5=2,38=5/2;
 7//1,2,3,16;
 1/18=20,19=15,26=3/3(-5);
 2/9=110/2;
 6/7=2,8=2,9=2,10=2,19=2,28=1/1;
 99/9=1/99;
 Leave Link    1 at Sun Jul 26 12:21:39 2020, MaxMem=  4026531840 cpu:               2.3 elap:               0.3
 (Enter /opt/ohpc/pub/libs/gaussian/g16-A.03/sandybridge/g16/l101.exe)
 -------------
 H10 C11 N2 O1
 -------------
 Symbolic Z-matrix:
 Charge =  0 Multiplicity = 1
 C                    -3.78059   0.0842   -0.0269 
 C                    -3.05328   0.70584   0.97919 
 C                    -1.63959   0.50259   1.06925 
 C                    -1.00056  -0.25171   0.07121 
 N                    -1.69089  -0.87474  -0.90559 
 C                    -3.04052  -0.72353  -0.93018 
 C                     0.46477  -0.50564   0.07143 
 N                     0.84058  -1.84991   0.23395 
 C                     2.14345  -2.14236   0.2634 
 C                     3.11532  -1.19428   0.18589 
 C                     2.70279   0.11209   0.03113 
 C                     1.44036   0.48789  -0.04106 
 O                     0.97355   1.76673  -0.16185 
 C                     1.89789   2.78553  -0.52289 
 H                    -4.82514   0.23476  -0.16735 
 H                    -3.49191   1.28684   1.74222 
 H                    -0.99805   0.95503   1.79425 
 H                    -3.58023  -1.21867  -1.73231 
 H                     2.37011  -3.19658   0.36011 
 H                     4.19137  -1.53662   0.15203 
 H                     3.55329   0.83735  -0.07248 
 H                     2.38301   2.51573  -1.36355 
 H                     2.54167   2.96921   0.33129 
 H                     1.32002   3.67629  -0.60269 
 
 ITRead=  0  0  0  0  0  0  0  0  0  0  0  0  0  0  0  0  0  0  0  0
 ITRead=  0  0  0  0
 MicOpt= -1 -1 -1 -1 -1 -1 -1 -1 -1 -1 -1 -1 -1 -1 -1 -1 -1 -1 -1 -1
 MicOpt= -1 -1 -1 -1
 NAtoms=     24 NQM=       24 NQMF=       0 NMMI=      0 NMMIF=      0
                NMic=       0 NMicF=      0.
                    Isotopes and Nuclear Properties:
 (Nuclear quadrupole moments (NQMom) in fm**2, nuclear magnetic moments (NMagM)
  in nuclear magnetons)

  Atom         1           2           3           4           5           6           7           8           9          10
 IAtWgt=          12          12          12          12          14          12          12          14          12          12
 AtmWgt=  12.0000000  12.0000000  12.0000000  12.0000000  14.0030740  12.0000000  12.0000000  14.0030740  12.0000000  12.0000000
 NucSpn=           0           0           0           0           2           0           0           2           0           0
 AtZEff=  -0.0000000  -0.0000000  -0.0000000  -0.0000000  -0.0000000  -0.0000000  -0.0000000  -0.0000000  -0.0000000  -0.0000000
 NQMom=    0.0000000   0.0000000   0.0000000   0.0000000   2.0440000   0.0000000   0.0000000   2.0440000   0.0000000   0.0000000
 NMagM=    0.0000000   0.0000000   0.0000000   0.0000000   0.4037610   0.0000000   0.0000000   0.4037610   0.0000000   0.0000000
 AtZNuc=   6.0000000   6.0000000   6.0000000   6.0000000   7.0000000   6.0000000   6.0000000   7.0000000   6.0000000   6.0000000

  Atom        11          12          13          14          15          16          17          18          19          20
 IAtWgt=          12          12          16          12           1           1           1           1           1           1
 AtmWgt=  12.0000000  12.0000000  15.9949146  12.0000000   1.0078250   1.0078250   1.0078250   1.0078250   1.0078250   1.0078250
 NucSpn=           0           0           0           0           1           1           1           1           1           1
 AtZEff=  -0.0000000  -0.0000000  -0.0000000  -0.0000000  -0.0000000  -0.0000000  -0.0000000  -0.0000000  -0.0000000  -0.0000000
 NQMom=    0.0000000   0.0000000   0.0000000   0.0000000   0.0000000   0.0000000   0.0000000   0.0000000   0.0000000   0.0000000
 NMagM=    0.0000000   0.0000000   0.0000000   0.0000000   2.7928460   2.7928460   2.7928460   2.7928460   2.7928460   2.7928460
 AtZNuc=   6.0000000   6.0000000   8.0000000   6.0000000   1.0000000   1.0000000   1.0000000   1.0000000   1.0000000   1.0000000

  Atom        21          22          23          24
 IAtWgt=           1           1           1           1
 AtmWgt=   1.0078250   1.0078250   1.0078250   1.0078250
 NucSpn=           1           1           1           1
 AtZEff=  -0.0000000  -0.0000000  -0.0000000  -0.0000000
 NQMom=    0.0000000   0.0000000   0.0000000   0.0000000
 NMagM=    2.7928460   2.7928460   2.7928460   2.7928460
 AtZNuc=   1.0000000   1.0000000   1.0000000   1.0000000
 Leave Link  101 at Sun Jul 26 12:21:40 2020, MaxMem=  4026531840 cpu:               3.3 elap:               0.4
 (Enter /opt/ohpc/pub/libs/gaussian/g16-A.03/sandybridge/g16/l103.exe)

 GradGradGradGradGradGradGradGradGradGradGradGradGradGradGradGradGradGrad
 Berny optimization.
 Initialization pass.
                           ----------------------------
                           !    Initial Parameters    !
                           ! (Angstroms and Degrees)  !
 --------------------------                            --------------------------
 ! Name  Definition              Value          Derivative Info.                !
 --------------------------------------------------------------------------------
 ! R1    R(1,2)                  1.3884         estimate D2E/DX2                !
 ! R2    R(1,6)                  1.4199         estimate D2E/DX2                !
 ! R3    R(1,15)                 1.0647         estimate D2E/DX2                !
 ! R4    R(2,3)                  1.4311         estimate D2E/DX2                !
 ! R5    R(2,16)                 1.0546         estimate D2E/DX2                !
 ! R6    R(3,4)                  1.4048         estimate D2E/DX2                !
 ! R7    R(3,17)                 1.0686         estimate D2E/DX2                !
 ! R8    R(4,5)                  1.3487         estimate D2E/DX2                !
 ! R9    R(4,7)                  1.4872         estimate D2E/DX2                !
 ! R10   R(5,6)                  1.3583         estimate D2E/DX2                !
 ! R11   R(6,18)                 1.0862         estimate D2E/DX2                !
 ! R12   R(7,8)                  1.4052         estimate D2E/DX2                !
 ! R13   R(7,12)                 1.397          estimate D2E/DX2                !
 ! R14   R(8,9)                  1.3356         estimate D2E/DX2                !
 ! R15   R(9,10)                 1.3599         estimate D2E/DX2                !
 ! R16   R(9,19)                 1.0826         estimate D2E/DX2                !
 ! R17   R(10,11)                1.3787         estimate D2E/DX2                !
 ! R18   R(10,20)                1.1297         estimate D2E/DX2                !
 ! R19   R(11,12)                1.3192         estimate D2E/DX2                !
 ! R20   R(11,21)                1.1225         estimate D2E/DX2                !
 ! R21   R(12,13)                1.3667         estimate D2E/DX2                !
 ! R22   R(13,14)                1.4222         estimate D2E/DX2                !
 ! R23   R(14,22)                1.0074         estimate D2E/DX2                !
 ! R24   R(14,23)                1.0853         estimate D2E/DX2                !
 ! R25   R(14,24)                1.0648         estimate D2E/DX2                !
 ! A1    A(2,1,6)              116.2742         estimate D2E/DX2                !
 ! A2    A(2,1,15)             123.1096         estimate D2E/DX2                !
 ! A3    A(6,1,15)             120.5238         estimate D2E/DX2                !
 ! A4    A(1,2,3)              119.9672         estimate D2E/DX2                !
 ! A5    A(1,2,16)             123.5797         estimate D2E/DX2                !
 ! A6    A(3,2,16)             116.3323         estimate D2E/DX2                !
 ! A7    A(2,3,4)              118.746          estimate D2E/DX2                !
 ! A8    A(2,3,17)             125.1446         estimate D2E/DX2                !
 ! A9    A(4,3,17)             115.8646         estimate D2E/DX2                !
 ! A10   A(3,4,5)              121.9902         estimate D2E/DX2                !
 ! A11   A(3,4,7)              122.6701         estimate D2E/DX2                !
 ! A12   A(5,4,7)              115.187          estimate D2E/DX2                !
 ! A13   A(4,5,6)              118.0527         estimate D2E/DX2                !
 ! A14   A(1,6,5)              124.7295         estimate D2E/DX2                !
 ! A15   A(1,6,18)             118.0428         estimate D2E/DX2                !
 ! A16   A(5,6,18)             117.1499         estimate D2E/DX2                !
 ! A17   A(4,7,8)              115.2688         estimate D2E/DX2                !
 ! A18   A(4,7,12)             124.5171         estimate D2E/DX2                !
 ! A19   A(8,7,12)             120.1916         estimate D2E/DX2                !
 ! A20   A(7,8,9)              118.2224         estimate D2E/DX2                !
 ! A21   A(8,9,10)             122.9028         estimate D2E/DX2                !
 ! A22   A(8,9,19)             114.7977         estimate D2E/DX2                !
 ! A23   A(10,9,19)            122.2986         estimate D2E/DX2                !
 ! A24   A(9,10,11)            116.9461         estimate D2E/DX2                !
 ! A25   A(9,10,20)            118.1091         estimate D2E/DX2                !
 ! A26   A(11,10,20)           124.6662         estimate D2E/DX2                !
 ! A27   A(10,11,12)           124.225          estimate D2E/DX2                !
 ! A28   A(10,11,21)           113.3193         estimate D2E/DX2                !
 ! A29   A(12,11,21)           122.4098         estimate D2E/DX2                !
 ! A30   A(7,12,11)            117.4719         estimate D2E/DX2                !
 ! A31   A(7,12,13)            115.7255         estimate D2E/DX2                !
 ! A32   A(11,12,13)           126.7459         estimate D2E/DX2                !
 ! A33   A(12,13,14)           118.0818         estimate D2E/DX2                !
 ! A34   A(13,14,22)           109.449          estimate D2E/DX2                !
 ! A35   A(13,14,23)           107.8766         estimate D2E/DX2                !
 ! A36   A(13,14,24)           105.401          estimate D2E/DX2                !
 ! A37   A(22,14,23)           114.6115         estimate D2E/DX2                !
 ! A38   A(22,14,24)           115.0157         estimate D2E/DX2                !
 ! A39   A(23,14,24)           103.8472         estimate D2E/DX2                !
 ! D1    D(6,1,2,3)             -0.6325         estimate D2E/DX2                !
 ! D2    D(6,1,2,16)          -176.4872         estimate D2E/DX2                !
 ! D3    D(15,1,2,3)          -177.1475         estimate D2E/DX2                !
 ! D4    D(15,1,2,16)            6.9978         estimate D2E/DX2                !
 ! D5    D(2,1,6,5)             -2.9412         estimate D2E/DX2                !
 ! D6    D(2,1,6,18)          -179.6362         estimate D2E/DX2                !
 ! D7    D(15,1,6,5)           173.6702         estimate D2E/DX2                !
 ! D8    D(15,1,6,18)           -3.0248         estimate D2E/DX2                !
 ! D9    D(1,2,3,4)              4.5359         estimate D2E/DX2                !
 ! D10   D(1,2,3,17)           178.6028         estimate D2E/DX2                !
 ! D11   D(16,2,3,4)          -179.3169         estimate D2E/DX2                !
 ! D12   D(16,2,3,17)           -5.25           estimate D2E/DX2                !
 ! D13   D(2,3,4,5)             -5.3251         estimate D2E/DX2                !
 ! D14   D(2,3,4,7)            179.3847         estimate D2E/DX2                !
 ! D15   D(17,3,4,5)          -179.9352         estimate D2E/DX2                !
 ! D16   D(17,3,4,7)             4.7746         estimate D2E/DX2                !
 ! D17   D(3,4,5,6)              1.9627         estimate D2E/DX2                !
 ! D18   D(7,4,5,6)            177.5821         estimate D2E/DX2                !
 ! D19   D(3,4,7,8)            115.0834         estimate D2E/DX2                !
 ! D20   D(3,4,7,12)           -63.1874         estimate D2E/DX2                !
 ! D21   D(5,4,7,8)            -60.503          estimate D2E/DX2                !
 ! D22   D(5,4,7,12)           121.2263         estimate D2E/DX2                !
 ! D23   D(4,5,6,1)              2.3291         estimate D2E/DX2                !
 ! D24   D(4,5,6,18)           179.051          estimate D2E/DX2                !
 ! D25   D(4,7,8,9)           -178.9958         estimate D2E/DX2                !
 ! D26   D(12,7,8,9)            -0.6443         estimate D2E/DX2                !
 ! D27   D(4,7,12,11)          177.2324         estimate D2E/DX2                !
 ! D28   D(4,7,12,13)           -0.2158         estimate D2E/DX2                !
 ! D29   D(8,7,12,11)           -0.9584         estimate D2E/DX2                !
 ! D30   D(8,7,12,13)         -178.4065         estimate D2E/DX2                !
 ! D31   D(7,8,9,10)             2.1464         estimate D2E/DX2                !
 ! D32   D(7,8,9,19)          -178.202          estimate D2E/DX2                !
 ! D33   D(8,9,10,11)           -1.9464         estimate D2E/DX2                !
 ! D34   D(8,9,10,20)         -176.1706         estimate D2E/DX2                !
 ! D35   D(19,9,10,11)         178.4277         estimate D2E/DX2                !
 ! D36   D(19,9,10,20)           4.2036         estimate D2E/DX2                !
 ! D37   D(9,10,11,12)           0.1904         estimate D2E/DX2                !
 ! D38   D(9,10,11,21)        -177.3901         estimate D2E/DX2                !
 ! D39   D(20,10,11,12)        173.9946         estimate D2E/DX2                !
 ! D40   D(20,10,11,21)         -3.5858         estimate D2E/DX2                !
 ! D41   D(10,11,12,7)           1.1932         estimate D2E/DX2                !
 ! D42   D(10,11,12,13)        178.324          estimate D2E/DX2                !
 ! D43   D(21,11,12,7)         178.5612         estimate D2E/DX2                !
 ! D44   D(21,11,12,13)         -4.308          estimate D2E/DX2                !
 ! D45   D(7,12,13,14)        -168.7166         estimate D2E/DX2                !
 ! D46   D(11,12,13,14)         14.1092         estimate D2E/DX2                !
 ! D47   D(12,13,14,22)         53.2237         estimate D2E/DX2                !
 ! D48   D(12,13,14,23)        -72.0838         estimate D2E/DX2                !
 ! D49   D(12,13,14,24)        177.4478         estimate D2E/DX2                !
 --------------------------------------------------------------------------------
 Trust Radius=3.00D-01 FncErr=1.00D-07 GrdErr=1.00D-06 EigMax=2.50D+02 EigMin=1.00D-04
 Number of steps in this run=    123 maximum allowed number of steps=    144.
 GradGradGradGradGradGradGradGradGradGradGradGradGradGradGradGradGradGrad

 Leave Link  103 at Sun Jul 26 12:21:40 2020, MaxMem=  4026531840 cpu:               0.2 elap:               0.0
 (Enter /opt/ohpc/pub/libs/gaussian/g16-A.03/sandybridge/g16/l202.exe)
                          Input orientation:                          
 ---------------------------------------------------------------------
 Center     Atomic      Atomic             Coordinates (Angstroms)
 Number     Number       Type             X           Y           Z
 ---------------------------------------------------------------------
      1          6           0       -3.780588    0.084203   -0.026896
      2          6           0       -3.053283    0.705841    0.979187
      3          6           0       -1.639594    0.502589    1.069253
      4          6           0       -1.000555   -0.251707    0.071212
      5          7           0       -1.690887   -0.874741   -0.905594
      6          6           0       -3.040523   -0.723531   -0.930183
      7          6           0        0.464773   -0.505642    0.071430
      8          7           0        0.840581   -1.849907    0.233945
      9          6           0        2.143449   -2.142363    0.263402
     10          6           0        3.115322   -1.194276    0.185889
     11          6           0        2.702788    0.112089    0.031127
     12          6           0        1.440360    0.487891   -0.041060
     13          8           0        0.973549    1.766729   -0.161848
     14          6           0        1.897891    2.785534   -0.522893
     15          1           0       -4.825140    0.234761   -0.167352
     16          1           0       -3.491906    1.286840    1.742222
     17          1           0       -0.998045    0.955029    1.794246
     18          1           0       -3.580225   -1.218668   -1.732311
     19          1           0        2.370107   -3.196578    0.360114
     20          1           0        4.191370   -1.536616    0.152025
     21          1           0        3.553291    0.837349   -0.072478
     22          1           0        2.383013    2.515731   -1.363547
     23          1           0        2.541668    2.969210    0.331285
     24          1           0        1.320024    3.676290   -0.602688
 ---------------------------------------------------------------------
                    Distance matrix (angstroms):
                    1          2          3          4          5
     1  C    0.000000
     2  C    1.388384   0.000000
     3  C    2.441402   1.431062   0.000000
     4  C    2.801971   2.440289   1.404784   0.000000
     5  N    2.461409   2.811896   2.408254   1.348658   0.000000
     6  C    1.419880   2.385154   2.731980   2.320965   1.358303
     7  C    4.287269   3.829939   2.537822   1.487168   2.395345
     8  N    5.016375   4.716928   3.518984   2.443462   2.942419
     9  C    6.335305   5.969140   4.685785   3.673728   4.204230
    10  C    7.016649   6.503188   5.125320   4.223983   4.938935
    11  C    6.483696   5.863763   4.481794   3.721385   4.599528
    12  C    5.236551   4.613159   3.274008   2.552974   3.522626
    13  O    5.044891   4.317733   3.153122   2.832929   3.824884
    14  C    6.307799   5.576333   4.501174   4.240139   5.140370
    15  H    1.064652   2.162393   3.427627   3.862773   3.405809
    16  H    2.158576   1.054596   2.121084   3.371384   3.863552
    17  H    3.437651   2.224954   1.068598   2.103584   3.334250
    18  H    2.155472   3.366545   3.818054   3.292781   2.090776
    19  H    6.981715   6.710088   5.501310   4.485208   4.846093
    20  H    8.137025   7.628749   6.244982   5.349169   6.013118
    21  H    7.372590   6.691047   5.327445   4.684464   5.579134
    22  H    6.759360   6.190107   5.113964   4.600628   5.319933
    23  H    6.958626   6.070098   4.910373   4.794715   5.849816
    24  H    6.265051   5.518307   4.650495   4.611766   5.465274
                    6          7          8          9         10
     6  C    0.000000
     7  C    3.652096   0.000000
     8  N    4.205578   1.405237   0.000000
     9  C    5.505569   2.352374   1.335613   0.000000
    10  C    6.273886   2.740936   2.367828   1.359932   0.000000
    11  C    5.882856   2.322052   2.712633   2.334388   1.378668
    12  C    4.726140   1.396972   2.429128   2.739574   2.384678
    13  O    4.785865   2.340287   3.640658   4.102500   3.670921
    14  C    6.071849   3.638528   4.814356   4.996271   4.221777
    15  H    2.164507   5.346811   6.050395   7.375466   8.075758
    16  H    3.374476   4.654014   5.557385   6.760441   7.227280
    17  H    3.796287   2.691002   3.699020   4.669722   4.911834
    18  H    1.086208   4.485967   4.879360   6.131601   6.964943
    19  H    6.087343   3.309799   2.041786   1.082634   2.143575
    20  H    7.357483   3.867419   3.366400   2.138531   1.129700
    21  H    6.830109   3.370946   3.830670   3.313481   2.094295
    22  H    6.332090   3.855840   4.897946   4.939858   4.086708
    23  H    6.810910   4.056552   5.111464   5.127511   4.205334
    24  H    6.203229   4.321394   5.609695   5.940106   5.250463
                   11         12         13         14         15
    11  C    0.000000
    12  C    1.319152   0.000000
    13  O    2.401112   1.366722   0.000000
    14  C    2.846420   2.391790   1.422225   0.000000
    15  H    7.531543   6.271883   5.997645   7.199444   0.000000
    16  H    6.533155   5.305249   4.878121   6.035457   2.555554
    17  H    4.185129   3.087456   2.893500   4.135980   4.360425
    18  H    6.660096   5.565873   5.667081   6.892465   2.472118
    19  H    3.341584   3.821084   5.182397   6.065340   7.988985
    20  H    2.224572   3.421106   4.622226   4.939285   9.194413
    21  H    1.122538   2.141865   2.743502   2.595891   8.400608
    22  H    2.797296   2.598019   1.997917   1.007391   7.654487
    23  H    2.877359   2.740158   2.036698   1.085268   7.873735
    24  H    3.875214   3.239721   1.990178   1.064774   7.056676
                   16         17         18         19         20
    16  H    0.000000
    17  H    2.516376   0.000000
    18  H    4.284595   4.881518   0.000000
    19  H    7.508292   5.535072   6.610357   0.000000
    20  H    8.338667   5.986252   8.003093   2.473009   0.000000
    21  H    7.289031   4.920688   7.607188   4.226065   2.468452
    22  H    6.758006   4.882520   7.045703   5.966712   4.689204
    23  H    6.420680   4.327441   7.698982   6.168242   4.801679
    24  H    5.861974   4.303951   7.017770   7.018973   5.999051
                   21         22         23         24
    21  H    0.000000
    22  H    2.419375   0.000000
    23  H    2.394000   1.761610   0.000000
    24  H    3.650779   1.748070   1.692537   0.000000
 Stoichiometry    C11H10N2O
 Framework group  C1[X(C11H10N2O)]
 Deg. of freedom    66
 Full point group                 C1      NOp   1
 Largest Abelian subgroup         C1      NOp   1
 Largest concise Abelian subgroup C1      NOp   1
                         Standard orientation:                         
 ---------------------------------------------------------------------
 Center     Atomic      Atomic             Coordinates (Angstroms)
 Number     Number       Type             X           Y           Z
 ---------------------------------------------------------------------
      1          6           0       -3.788603    0.074628   -0.055855
      2          6           0       -3.066096    0.681526    0.962609
      3          6           0       -1.652659    0.477888    1.055708
      4          6           0       -1.008772   -0.260857    0.049187
      5          7           0       -1.694431   -0.869567   -0.939865
      6          6           0       -3.044059   -0.718909   -0.968001
      7          6           0        0.456728   -0.513783    0.051908
      8          7           0        0.832822   -1.860091    0.195778
      9          6           0        2.135765   -2.152084    0.226453
     10          6           0        3.107265   -1.202285    0.167427
     11          6           0        2.694441    0.105986    0.030580
     12          6           0        1.432059    0.481986   -0.041389
     13          8           0        0.964832    1.762185   -0.144916
     14          6           0        1.889971    2.786934   -0.486579
     15          1           0       -4.832651    0.226584   -0.198536
     16          1           0       -3.508430    1.250669    1.732408
     17          1           0       -1.014573    0.919785    1.790197
     18          1           0       -3.579936   -1.202267   -1.779820
     19          1           0        2.362780   -3.207484    0.308252
     20          1           0        4.183701   -1.543354    0.133058
     21          1           0        3.544848    0.833295   -0.058415
     22          1           0        2.378908    2.530152   -1.329098
     23          1           0        2.529927    2.958152    0.373041
     24          1           0        1.311798    3.678403   -0.555442
 ---------------------------------------------------------------------
 Rotational constants (GHZ):           1.2414044           0.5063021           0.3961217
 Leave Link  202 at Sun Jul 26 12:21:40 2020, MaxMem=  4026531840 cpu:               0.3 elap:               0.1
 (Enter /opt/ohpc/pub/libs/gaussian/g16-A.03/sandybridge/g16/l301.exe)
 Standard basis: CC-pVDZ (5D, 7F)
 Ernie: Thresh=  0.10000D-02 Tol=  0.10000D-05 Strict=F.
 Ernie:  28 primitive shells out of 358 were deleted.
 There are   260 symmetry adapted cartesian basis functions of A   symmetry.
 There are   246 symmetry adapted basis functions of A   symmetry.
   246 basis functions,   532 primitive gaussians,   260 cartesian basis functions
    49 alpha electrons       49 beta electrons
       nuclear repulsion energy       823.3774071457 Hartrees.
 IExCor=32609 DFT=T Ex+Corr=LC-wPBE ExCW=0 ScaHFX=  1.000000
 ScaDFX=  1.000000  0.000000  1.000000  1.000000 ScalE2=  1.000000  1.000000
 IRadAn=      5 IRanWt=     -1 IRanGd=            0 ICorTp=0 IEmpDi=  4
 HFx  wShort=  0.000000 wLong=  0.177500 cFull=  0.000000 cShort=  0.000000 cLong=  1.000000
 DFx  wShort=  0.000000 wLong=  0.177500 cFull=  0.000000 cShort=  0.000000 cLong=  1.000000
 NAtoms=   24 NActive=   24 NUniq=   24 SFac= 1.00D+00 NAtFMM=   60 NAOKFM=F Big=F
 Integral buffers will be    131072 words long.
 Raffenetti 2 integral format.
 Two-electron integral symmetry is turned on.
 Leave Link  301 at Sun Jul 26 12:21:40 2020, MaxMem=  4026531840 cpu:               0.5 elap:               0.1
 (Enter /opt/ohpc/pub/libs/gaussian/g16-A.03/sandybridge/g16/l302.exe)
 NPDir=0 NMtPBC=     1 NCelOv=     1 NCel=       1 NClECP=     1 NCelD=      1
         NCelK=      1 NCelE2=     1 NClLst=     1 CellRange=     0.0.
 One-electron integrals computed using PRISM.
 One-electron integral symmetry used in STVInt
 NBasis=   246 RedAO= T EigKep=  5.42D-04  NBF=   246
 NBsUse=   246 1.00D-06 EigRej= -1.00D+00 NBFU=   246
 Precomputing XC quadrature grid using
 IXCGrd= 4 IRadAn=           5 IRanWt=          -1 IRanGd=           0 AccXCQ= 0.00D+00.
 Generated NRdTot=       0 NPtTot=           0 NUsed=           0 NTot=          32
 NSgBfM=   260   260   260   260   260 MxSgAt=    24 MxSgA2=    24.
 Leave Link  302 at Sun Jul 26 12:21:40 2020, MaxMem=  4026531840 cpu:               3.5 elap:               0.5
 (Enter /opt/ohpc/pub/libs/gaussian/g16-A.03/sandybridge/g16/l303.exe)
 DipDrv:  MaxL=1.
 Leave Link  303 at Sun Jul 26 12:21:41 2020, MaxMem=  4026531840 cpu:               0.5 elap:               0.1
 (Enter /opt/ohpc/pub/libs/gaussian/g16-A.03/sandybridge/g16/l401.exe)
 ExpMin= 1.22D-01 ExpMax= 1.17D+04 ExpMxC= 4.01D+02 IAcc=3 IRadAn=         5 AccDes= 0.00D+00
 Harris functional with IExCor=32609 and IRadAn=       5 diagonalized for initial guess.
 HarFok:  IExCor=32609 AccDes= 0.00D+00 IRadAn=         5 IDoV= 1 UseB2=F ITyADJ=14
 ICtDFT=  3500011 ScaDFX=  1.000000  1.000000  1.000000  1.000000
 FoFCou: FMM=F IPFlag=           0 FMFlag=      100000 FMFlg1=           0
         NFxFlg=           0 DoJE=T BraDBF=F KetDBF=T FulRan=T
         wScrn=  0.000000 ICntrl=       500 IOpCl=  0 I1Cent=   200000004 NGrid=           0
         NMat0=    1 NMatS0=      1 NMatT0=    0 NMatD0=    1 NMtDS0=    0 NMtDT0=    0
 Petite list used in FoFCou.
 Harris En= -609.385125073315    
 JPrj=0 DoOrth=F DoCkMO=F.
 Initial guess <Sx>= 0.0000 <Sy>= 0.0000 <Sz>= 0.0000 <S**2>= 0.0000 S= 0.0000
 Leave Link  401 at Sun Jul 26 12:21:43 2020, MaxMem=  4026531840 cpu:              21.6 elap:               2.7
 (Enter /opt/ohpc/pub/libs/gaussian/g16-A.03/sandybridge/g16/l502.exe)
 Integral symmetry usage will be decided dynamically.
 UHF open shell SCF:
 Using DIIS extrapolation, IDIIS=  1040.
 NGot=  4026531840 LenX=  4026391724 LenY=  4026323683
 Requested convergence on RMS density matrix=1.00D-08 within 128 cycles.
 Requested convergence on MAX density matrix=1.00D-06.
 Requested convergence on             energy=1.00D-06.
 No special actions if energy rises.
 Fock matrices will be formed incrementally for  20 cycles.
 Integral accuracy reduced to 1.0D-05 until final iterations.

 Cycle   1  Pass 0  IDiag  1:
 FoFJK:  IHMeth= 1 ICntrl=       0 DoSepK=T KAlg= 0 I1Cent=           0 FoldK=F
 IRaf=         1 NMat=       1 IRICut=       1 DoRegI=T DoRafI=F ISym2E= 0 IDoP0=0 IntGTp=1.
 FoFCou: FMM=F IPFlag=           0 FMFlag=      100000 FMFlg1=           0
         NFxFlg=           0 DoJE=T BraDBF=F KetDBF=F FulRan=T
         wScrn=  0.000000 ICntrl=       500 IOpCl=  0 I1Cent=           0 NGrid=           0
         NMat0=    1 NMatS0=      1 NMatT0=    0 NMatD0=    1 NMtDS0=    0 NMtDT0=    0
 Symmetry not used in FoFCou.
 E= -609.141288047806    
 DIIS: error= 2.08D-02 at cycle   1 NSaved=   1.
 NSaved= 1 IEnMin= 1 EnMin= -609.141288047806     IErMin= 1 ErrMin= 2.08D-02
 ErrMax= 2.08D-02  0.00D+00 EMaxC= 1.00D-01 BMatC= 6.56D-01 BMatP= 6.56D-01
 IDIUse=3 WtCom= 7.92D-01 WtEn= 2.08D-01
 Coeff-Com:  0.100D+01
 Coeff-En:   0.100D+01
 Coeff:      0.100D+01
 Gap=     0.305 Goal=   None    Shift=    0.000
 Gap=     0.305 Goal=   None    Shift=    0.000
 GapD=    0.305 DampG=1.000 DampE=0.500 DampFc=0.5000 IDamp=-1.
 Damping current iteration by 5.00D-01
 RMSDP=3.25D-03 MaxDP=7.95D-02              OVMax= 1.12D-01

 Cycle   2  Pass 0  IDiag  1:
 RMSU=  1.60D-03    CP:  9.88D-01
 E= -609.238998680773     Delta-E=       -0.097710632967 Rises=F Damp=T
 DIIS: error= 3.58D-03 at cycle   2 NSaved=   2.
 NSaved= 2 IEnMin= 2 EnMin= -609.238998680773     IErMin= 2 ErrMin= 3.58D-03
 ErrMax= 3.58D-03  0.00D+00 EMaxC= 1.00D-01 BMatC= 3.92D-02 BMatP= 6.56D-01
 IDIUse=3 WtCom= 9.64D-01 WtEn= 3.58D-02
 Coeff-Com: -0.682D-01 0.107D+01
 Coeff-En:   0.000D+00 0.100D+01
 Coeff:     -0.658D-01 0.107D+01
 Gap=     0.306 Goal=   None    Shift=    0.000
 Gap=     0.306 Goal=   None    Shift=    0.000
 RMSDP=9.98D-04 MaxDP=2.85D-02 DE=-9.77D-02 OVMax= 6.71D-02

 Cycle   3  Pass 0  IDiag  1:
 RMSU=  8.63D-04    CP:  9.82D-01  1.30D+00
 E= -609.325337537099     Delta-E=       -0.086338856326 Rises=F Damp=F
 DIIS: error= 4.24D-03 at cycle   3 NSaved=   3.
 NSaved= 3 IEnMin= 3 EnMin= -609.325337537099     IErMin= 2 ErrMin= 3.58D-03
 ErrMax= 4.24D-03  0.00D+00 EMaxC= 1.00D-01 BMatC= 2.96D-02 BMatP= 3.92D-02
 IDIUse=3 WtCom= 9.58D-01 WtEn= 4.24D-02
 Coeff-Com: -0.732D-01 0.526D+00 0.548D+00
 Coeff-En:   0.000D+00 0.000D+00 0.100D+01
 Coeff:     -0.701D-01 0.503D+00 0.567D+00
 Gap=     0.299 Goal=   None    Shift=    0.000
 Gap=     0.299 Goal=   None    Shift=    0.000
 RMSDP=4.60D-04 MaxDP=2.22D-02 DE=-8.63D-02 OVMax= 3.57D-02

 Cycle   4  Pass 0  IDiag  1:
 RMSU=  2.95D-04    CP:  9.84D-01  1.30D+00  5.92D-01
 E= -609.331885741903     Delta-E=       -0.006548204804 Rises=F Damp=F
 DIIS: error= 1.88D-03 at cycle   4 NSaved=   4.
 NSaved= 4 IEnMin= 4 EnMin= -609.331885741903     IErMin= 4 ErrMin= 1.88D-03
 ErrMax= 1.88D-03  0.00D+00 EMaxC= 1.00D-01 BMatC= 4.16D-03 BMatP= 2.96D-02
 IDIUse=3 WtCom= 9.81D-01 WtEn= 1.88D-02
 Coeff-Com: -0.175D-01 0.116D+00 0.298D+00 0.604D+00
 Coeff-En:   0.000D+00 0.000D+00 0.109D+00 0.891D+00
 Coeff:     -0.172D-01 0.114D+00 0.295D+00 0.609D+00
 Gap=     0.297 Goal=   None    Shift=    0.000
 Gap=     0.297 Goal=   None    Shift=    0.000
 RMSDP=1.45D-04 MaxDP=5.79D-03 DE=-6.55D-03 OVMax= 8.48D-03

 Cycle   5  Pass 0  IDiag  1:
 RMSU=  6.72D-05    CP:  9.83D-01  1.30D+00  6.93D-01  6.83D-01
 E= -609.332922266803     Delta-E=       -0.001036524899 Rises=F Damp=F
 DIIS: error= 2.28D-04 at cycle   5 NSaved=   5.
 NSaved= 5 IEnMin= 5 EnMin= -609.332922266803     IErMin= 5 ErrMin= 2.28D-04
 ErrMax= 2.28D-04  0.00D+00 EMaxC= 1.00D-01 BMatC= 1.89D-04 BMatP= 4.16D-03
 IDIUse=3 WtCom= 9.98D-01 WtEn= 2.28D-03
 Coeff-Com: -0.996D-03 0.146D-01 0.957D-01 0.269D+00 0.622D+00
 Coeff-En:   0.000D+00 0.000D+00 0.000D+00 0.000D+00 0.100D+01
 Coeff:     -0.993D-03 0.146D-01 0.955D-01 0.268D+00 0.623D+00
 Gap=     0.297 Goal=   None    Shift=    0.000
 Gap=     0.297 Goal=   None    Shift=    0.000
 RMSDP=3.05D-05 MaxDP=1.25D-03 DE=-1.04D-03 OVMax= 1.98D-03

 Cycle   6  Pass 0  IDiag  1:
 RMSU=  2.54D-05    CP:  9.83D-01  1.30D+00  6.93D-01  7.20D-01  8.10D-01
 E= -609.332960913130     Delta-E=       -0.000038646327 Rises=F Damp=F
 DIIS: error= 9.96D-05 at cycle   6 NSaved=   6.
 NSaved= 6 IEnMin= 6 EnMin= -609.332960913130     IErMin= 6 ErrMin= 9.96D-05
 ErrMax= 9.96D-05  0.00D+00 EMaxC= 1.00D-01 BMatC= 2.73D-05 BMatP= 1.89D-04
 IDIUse=1 WtCom= 1.00D+00 WtEn= 0.00D+00
 Coeff-Com:  0.215D-02-0.719D-02 0.130D-01 0.595D-01 0.310D+00 0.622D+00
 Coeff:      0.215D-02-0.719D-02 0.130D-01 0.595D-01 0.310D+00 0.622D+00
 Gap=     0.297 Goal=   None    Shift=    0.000
 Gap=     0.297 Goal=   None    Shift=    0.000
 RMSDP=1.10D-05 MaxDP=3.58D-04 DE=-3.86D-05 OVMax= 6.81D-04

 Cycle   7  Pass 0  IDiag  1:
 RMSU=  7.17D-06    CP:  9.84D-01  1.30D+00  6.96D-01  7.29D-01  9.10D-01
                    CP:  8.67D-01
 E= -609.332967682825     Delta-E=       -0.000006769695 Rises=F Damp=F
 DIIS: error= 2.08D-05 at cycle   7 NSaved=   7.
 NSaved= 7 IEnMin= 7 EnMin= -609.332967682825     IErMin= 7 ErrMin= 2.08D-05
 ErrMax= 2.08D-05  0.00D+00 EMaxC= 1.00D-01 BMatC= 1.13D-06 BMatP= 2.73D-05
 IDIUse=1 WtCom= 1.00D+00 WtEn= 0.00D+00
 Coeff-Com:  0.940D-03-0.326D-02-0.161D-02-0.207D-02 0.414D-01 0.177D+00
 Coeff-Com:  0.787D+00
 Coeff:      0.940D-03-0.326D-02-0.161D-02-0.207D-02 0.414D-01 0.177D+00
 Coeff:      0.787D+00
 Gap=     0.297 Goal=   None    Shift=    0.000
 Gap=     0.297 Goal=   None    Shift=    0.000
 RMSDP=3.72D-06 MaxDP=8.87D-05 DE=-6.77D-06 OVMax= 3.11D-04

 Initial convergence to 1.0D-05 achieved.  Increase integral accuracy.
 Cycle   8  Pass 1  IDiag  1:
 E= -609.332802903279     Delta-E=        0.000164779546 Rises=F Damp=F
 DIIS: error= 6.13D-05 at cycle   1 NSaved=   1.
 NSaved= 1 IEnMin= 1 EnMin= -609.332802903279     IErMin= 1 ErrMin= 6.13D-05
 ErrMax= 6.13D-05  0.00D+00 EMaxC= 1.00D-01 BMatC= 2.53D-06 BMatP= 2.53D-06
 IDIUse=1 WtCom= 1.00D+00 WtEn= 0.00D+00
 Coeff-Com:  0.100D+01
 Coeff:      0.100D+01
 Gap=     0.297 Goal=   None    Shift=    0.000
 Gap=     0.297 Goal=   None    Shift=    0.000
 RMSDP=3.72D-06 MaxDP=8.87D-05 DE= 1.65D-04 OVMax= 1.89D-04

 Cycle   9  Pass 1  IDiag  1:
 RMSU=  3.42D-05    CP:  1.00D+00
 E= -609.332803266678     Delta-E=       -0.000000363400 Rises=F Damp=F
 DIIS: error= 1.36D-05 at cycle   2 NSaved=   2.
 NSaved= 2 IEnMin= 2 EnMin= -609.332803266678     IErMin= 2 ErrMin= 1.36D-05
 ErrMax= 1.36D-05  0.00D+00 EMaxC= 1.00D-01 BMatC= 6.70D-07 BMatP= 2.53D-06
 IDIUse=1 WtCom= 1.00D+00 WtEn= 0.00D+00
 Coeff-Com:  0.267D+00 0.733D+00
 Coeff:      0.267D+00 0.733D+00
 Gap=     0.297 Goal=   None    Shift=    0.000
 Gap=     0.297 Goal=   None    Shift=    0.000
 RMSDP=2.94D-06 MaxDP=8.99D-05 DE=-3.63D-07 OVMax= 1.65D-04

 Cycle  10  Pass 1  IDiag  1:
 RMSU=  2.66D-06    CP:  1.00D+00  1.04D+00
 E= -609.332803330432     Delta-E=       -0.000000063754 Rises=F Damp=F
 DIIS: error= 1.28D-05 at cycle   3 NSaved=   3.
 NSaved= 3 IEnMin= 3 EnMin= -609.332803330432     IErMin= 3 ErrMin= 1.28D-05
 ErrMax= 1.28D-05  0.00D+00 EMaxC= 1.00D-01 BMatC= 4.42D-07 BMatP= 6.70D-07
 IDIUse=1 WtCom= 1.00D+00 WtEn= 0.00D+00
 Coeff-Com: -0.167D-01 0.449D+00 0.568D+00
 Coeff:     -0.167D-01 0.449D+00 0.568D+00
 Gap=     0.297 Goal=   None    Shift=    0.000
 Gap=     0.297 Goal=   None    Shift=    0.000
 RMSDP=1.42D-06 MaxDP=5.17D-05 DE=-6.38D-08 OVMax= 8.79D-05

 Cycle  11  Pass 1  IDiag  1:
 RMSU=  6.17D-07    CP:  1.00D+00  1.06D+00  6.12D-01
 E= -609.332803429799     Delta-E=       -0.000000099367 Rises=F Damp=F
 DIIS: error= 1.77D-06 at cycle   4 NSaved=   4.
 NSaved= 4 IEnMin= 4 EnMin= -609.332803429799     IErMin= 4 ErrMin= 1.77D-06
 ErrMax= 1.77D-06  0.00D+00 EMaxC= 1.00D-01 BMatC= 1.08D-08 BMatP= 4.42D-07
 IDIUse=1 WtCom= 1.00D+00 WtEn= 0.00D+00
 Coeff-Com: -0.147D-01 0.227D+00 0.301D+00 0.487D+00
 Coeff:     -0.147D-01 0.227D+00 0.301D+00 0.487D+00
 Gap=     0.297 Goal=   None    Shift=    0.000
 Gap=     0.297 Goal=   None    Shift=    0.000
 RMSDP=2.05D-07 MaxDP=6.44D-06 DE=-9.94D-08 OVMax= 1.84D-05

 Cycle  12  Pass 1  IDiag  1:
 RMSU=  1.92D-07    CP:  1.00D+00  1.06D+00  6.32D-01  9.70D-01
 E= -609.332803432669     Delta-E=       -0.000000002870 Rises=F Damp=F
 DIIS: error= 6.82D-07 at cycle   5 NSaved=   5.
 NSaved= 5 IEnMin= 5 EnMin= -609.332803432669     IErMin= 5 ErrMin= 6.82D-07
 ErrMax= 6.82D-07  0.00D+00 EMaxC= 1.00D-01 BMatC= 5.76D-10 BMatP= 1.08D-08
 IDIUse=1 WtCom= 1.00D+00 WtEn= 0.00D+00
 Coeff-Com:  0.271D-02-0.815D-01-0.110D+00 0.131D-02 0.119D+01
 Coeff:      0.271D-02-0.815D-01-0.110D+00 0.131D-02 0.119D+01
 Gap=     0.297 Goal=   None    Shift=    0.000
 Gap=     0.297 Goal=   None    Shift=    0.000
 RMSDP=1.85D-07 MaxDP=4.84D-06 DE=-2.87D-09 OVMax= 2.15D-05

 Cycle  13  Pass 1  IDiag  1:
 RMSU=  1.09D-07    CP:  1.00D+00  1.06D+00  6.38D-01  1.18D+00  1.29D+00
 E= -609.332803433320     Delta-E=       -0.000000000651 Rises=F Damp=F
 DIIS: error= 4.75D-07 at cycle   6 NSaved=   6.
 NSaved= 6 IEnMin= 6 EnMin= -609.332803433320     IErMin= 6 ErrMin= 4.75D-07
 ErrMax= 4.75D-07  0.00D+00 EMaxC= 1.00D-01 BMatC= 3.31D-10 BMatP= 5.76D-10
 IDIUse=1 WtCom= 1.00D+00 WtEn= 0.00D+00
 Coeff-Com:  0.363D-02-0.774D-01-0.105D+00-0.703D-01 0.694D+00 0.555D+00
 Coeff:      0.363D-02-0.774D-01-0.105D+00-0.703D-01 0.694D+00 0.555D+00
 Gap=     0.297 Goal=   None    Shift=    0.000
 Gap=     0.297 Goal=   None    Shift=    0.000
 RMSDP=5.74D-08 MaxDP=1.54D-06 DE=-6.51D-10 OVMax= 8.39D-06

 Cycle  14  Pass 1  IDiag  1:
 RMSU=  4.27D-08    CP:  1.00D+00  1.06D+00  6.41D-01  1.22D+00  1.44D+00
                    CP:  9.96D-01
 E= -609.332803433471     Delta-E=       -0.000000000151 Rises=F Damp=F
 DIIS: error= 1.30D-07 at cycle   7 NSaved=   7.
 NSaved= 7 IEnMin= 7 EnMin= -609.332803433471     IErMin= 7 ErrMin= 1.30D-07
 ErrMax= 1.30D-07  0.00D+00 EMaxC= 1.00D-01 BMatC= 2.02D-11 BMatP= 3.31D-10
 IDIUse=1 WtCom= 1.00D+00 WtEn= 0.00D+00
 Coeff-Com:  0.795D-03-0.134D-01-0.181D-01-0.261D-01 0.272D-01 0.183D+00
 Coeff-Com:  0.846D+00
 Coeff:      0.795D-03-0.134D-01-0.181D-01-0.261D-01 0.272D-01 0.183D+00
 Coeff:      0.846D+00
 Gap=     0.297 Goal=   None    Shift=    0.000
 Gap=     0.297 Goal=   None    Shift=    0.000
 RMSDP=2.39D-08 MaxDP=6.65D-07 DE=-1.51D-10 OVMax= 2.43D-06

 Cycle  15  Pass 1  IDiag  1:
 RMSU=  1.07D-08    CP:  1.00D+00  1.06D+00  6.41D-01  1.23D+00  1.48D+00
                    CP:  1.16D+00  1.07D+00
 E= -609.332803433491     Delta-E=       -0.000000000020 Rises=F Damp=F
 DIIS: error= 3.35D-08 at cycle   8 NSaved=   8.
 NSaved= 8 IEnMin= 8 EnMin= -609.332803433491     IErMin= 8 ErrMin= 3.35D-08
 ErrMax= 3.35D-08  0.00D+00 EMaxC= 1.00D-01 BMatC= 4.37D-12 BMatP= 2.02D-11
 IDIUse=1 WtCom= 1.00D+00 WtEn= 0.00D+00
 Coeff-Com: -0.199D-03 0.593D-02 0.809D-02 0.104D-03-0.907D-01 0.776D-02
 Coeff-Com:  0.411D+00 0.658D+00
 Coeff:     -0.199D-03 0.593D-02 0.809D-02 0.104D-03-0.907D-01 0.776D-02
 Coeff:      0.411D+00 0.658D+00
 Gap=     0.297 Goal=   None    Shift=    0.000
 Gap=     0.297 Goal=   None    Shift=    0.000
 RMSDP=7.25D-09 MaxDP=1.93D-07 DE=-2.00D-11 OVMax= 7.98D-07

 SCF Done:  E(ULC-wPBE) =  -609.332803433     A.U. after   15 cycles
            NFock= 15  Conv=0.72D-08     -V/T= 2.0058
 <Sx>= 0.0000 <Sy>= 0.0000 <Sz>= 0.0000 <S**2>=-0.0000 S=-0.0000
 <L.S>= 0.000000000000E+00
 KE= 6.057929237917D+02 PE=-3.065650081087D+03 EE= 1.027146946716D+03
 Annihilation of the first spin contaminant:
 S**2 before annihilation    -0.0000,   after    -0.0000
 Leave Link  502 at Sun Jul 26 12:23:47 2020, MaxMem=  4026531840 cpu:             986.7 elap:             123.8
 (Enter /opt/ohpc/pub/libs/gaussian/g16-A.03/sandybridge/g16/l601.exe)
 Copying SCF densities to generalized density rwf, IOpCl= 1 IROHF=0.

 **********************************************************************

            Population analysis using the SCF density.

 **********************************************************************

 Orbital symmetries:
 Alpha Orbitals:
       Occupied  (A) (A) (A) (A) (A) (A) (A) (A) (A) (A) (A) (A)
                 (A) (A) (A) (A) (A) (A) (A) (A) (A) (A) (A) (A)
                 (A) (A) (A) (A) (A) (A) (A) (A) (A) (A) (A) (A)
                 (A) (A) (A) (A) (A) (A) (A) (A) (A) (A) (A) (A)
                 (A)
       Virtual   (A) (A) (A) (A) (A) (A) (A) (A) (A) (A) (A) (A)
                 (A) (A) (A) (A) (A) (A) (A) (A) (A) (A) (A) (A)
                 (A) (A) (A) (A) (A) (A) (A) (A) (A) (A) (A) (A)
                 (A) (A) (A) (A) (A) (A) (A) (A) (A) (A) (A) (A)
                 (A) (A) (A) (A) (A) (A) (A) (A) (A) (A) (A) (A)
                 (A) (A) (A) (A) (A) (A) (A) (A) (A) (A) (A) (A)
                 (A) (A) (A) (A) (A) (A) (A) (A) (A) (A) (A) (A)
                 (A) (A) (A) (A) (A) (A) (A) (A) (A) (A) (A) (A)
                 (A) (A) (A) (A) (A) (A) (A) (A) (A) (A) (A) (A)
                 (A) (A) (A) (A) (A) (A) (A) (A) (A) (A) (A) (A)
                 (A) (A) (A) (A) (A) (A) (A) (A) (A) (A) (A) (A)
                 (A) (A) (A) (A) (A) (A) (A) (A) (A) (A) (A) (A)
                 (A) (A) (A) (A) (A) (A) (A) (A) (A) (A) (A) (A)
                 (A) (A) (A) (A) (A) (A) (A) (A) (A) (A) (A) (A)
                 (A) (A) (A) (A) (A) (A) (A) (A) (A) (A) (A) (A)
                 (A) (A) (A) (A) (A) (A) (A) (A) (A) (A) (A) (A)
                 (A) (A) (A) (A) (A)
 Beta  Orbitals:
       Occupied  (A) (A) (A) (A) (A) (A) (A) (A) (A) (A) (A) (A)
                 (A) (A) (A) (A) (A) (A) (A) (A) (A) (A) (A) (A)
                 (A) (A) (A) (A) (A) (A) (A) (A) (A) (A) (A) (A)
                 (A) (A) (A) (A) (A) (A) (A) (A) (A) (A) (A) (A)
                 (A)
       Virtual   (A) (A) (A) (A) (A) (A) (A) (A) (A) (A) (A) (A)
                 (A) (A) (A) (A) (A) (A) (A) (A) (A) (A) (A) (A)
                 (A) (A) (A) (A) (A) (A) (A) (A) (A) (A) (A) (A)
                 (A) (A) (A) (A) (A) (A) (A) (A) (A) (A) (A) (A)
                 (A) (A) (A) (A) (A) (A) (A) (A) (A) (A) (A) (A)
                 (A) (A) (A) (A) (A) (A) (A) (A) (A) (A) (A) (A)
                 (A) (A) (A) (A) (A) (A) (A) (A) (A) (A) (A) (A)
                 (A) (A) (A) (A) (A) (A) (A) (A) (A) (A) (A) (A)
                 (A) (A) (A) (A) (A) (A) (A) (A) (A) (A) (A) (A)
                 (A) (A) (A) (A) (A) (A) (A) (A) (A) (A) (A) (A)
                 (A) (A) (A) (A) (A) (A) (A) (A) (A) (A) (A) (A)
                 (A) (A) (A) (A) (A) (A) (A) (A) (A) (A) (A) (A)
                 (A) (A) (A) (A) (A) (A) (A) (A) (A) (A) (A) (A)
                 (A) (A) (A) (A) (A) (A) (A) (A) (A) (A) (A) (A)
                 (A) (A) (A) (A) (A) (A) (A) (A) (A) (A) (A) (A)
                 (A) (A) (A) (A) (A) (A) (A) (A) (A) (A) (A) (A)
                 (A) (A) (A) (A) (A)
 The electronic state is 1-A.
 Alpha  occ. eigenvalues --  -18.89924 -14.08963 -14.08680 -10.05620 -10.04424
 Alpha  occ. eigenvalues --  -10.03260 -10.03234 -10.02753 -10.01372 -10.01353
 Alpha  occ. eigenvalues --  -10.00713 -10.00541 -10.00521 -10.00467  -1.08616
 Alpha  occ. eigenvalues --   -0.95949  -0.94124  -0.83667  -0.82474  -0.81822
 Alpha  occ. eigenvalues --   -0.77861  -0.74783  -0.69165  -0.66595  -0.64783
 Alpha  occ. eigenvalues --   -0.63591  -0.58621  -0.56294  -0.55144  -0.53555
 Alpha  occ. eigenvalues --   -0.53122  -0.51872  -0.50227  -0.48060  -0.47349
 Alpha  occ. eigenvalues --   -0.46005  -0.44808  -0.44244  -0.43669  -0.42272
 Alpha  occ. eigenvalues --   -0.41185  -0.39435  -0.37926  -0.34051  -0.33350
 Alpha  occ. eigenvalues --   -0.31273  -0.29237  -0.28938  -0.28577
 Alpha virt. eigenvalues --    0.01132   0.02681   0.04554   0.06164   0.11330
 Alpha virt. eigenvalues --    0.12888   0.13841   0.15376   0.16889   0.17620
 Alpha virt. eigenvalues --    0.18221   0.18762   0.19239   0.19517   0.20362
 Alpha virt. eigenvalues --    0.20691   0.21132   0.26529   0.28983   0.29413
 Alpha virt. eigenvalues --    0.31875   0.33371   0.34240   0.35958   0.37838
 Alpha virt. eigenvalues --    0.39286   0.41124   0.43269   0.45650   0.47429
 Alpha virt. eigenvalues --    0.48553   0.49510   0.50309   0.50487   0.51259
 Alpha virt. eigenvalues --    0.51411   0.52425   0.53612   0.54526   0.55331
 Alpha virt. eigenvalues --    0.55546   0.56869   0.57193   0.58048   0.58185
 Alpha virt. eigenvalues --    0.59386   0.60352   0.61057   0.61559   0.63398
 Alpha virt. eigenvalues --    0.64158   0.65157   0.65290   0.67136   0.67826
 Alpha virt. eigenvalues --    0.68508   0.69406   0.69875   0.71047   0.71928
 Alpha virt. eigenvalues --    0.73000   0.73706   0.74114   0.74728   0.78052
 Alpha virt. eigenvalues --    0.78960   0.79535   0.81882   0.87393   0.89651
 Alpha virt. eigenvalues --    0.90557   0.91835   0.93007   0.94098   0.94907
 Alpha virt. eigenvalues --    0.95552   0.96027   0.97114   0.97224   0.98763
 Alpha virt. eigenvalues --    0.99699   1.01225   1.02432   1.04154   1.04845
 Alpha virt. eigenvalues --    1.05470   1.06427   1.08275   1.09222   1.11401
 Alpha virt. eigenvalues --    1.12085   1.14180   1.14668   1.18298   1.18939
 Alpha virt. eigenvalues --    1.20388   1.21927   1.23919   1.25396   1.27976
 Alpha virt. eigenvalues --    1.31084   1.32349   1.34851   1.37087   1.39699
 Alpha virt. eigenvalues --    1.40173   1.43300   1.45868   1.48836   1.49801
 Alpha virt. eigenvalues --    1.51838   1.52682   1.53111   1.53755   1.54619
 Alpha virt. eigenvalues --    1.55566   1.58309   1.58753   1.60877   1.62670
 Alpha virt. eigenvalues --    1.63836   1.64084   1.64678   1.65822   1.66286
 Alpha virt. eigenvalues --    1.66871   1.68430   1.69477   1.70726   1.72952
 Alpha virt. eigenvalues --    1.73838   1.74408   1.75509   1.76414   1.76590
 Alpha virt. eigenvalues --    1.78684   1.79573   1.81597   1.82739   1.84387
 Alpha virt. eigenvalues --    1.85356   1.86937   1.88419   1.90142   1.90489
 Alpha virt. eigenvalues --    1.93045   1.93363   1.94250   1.96905   1.97288
 Alpha virt. eigenvalues --    1.98543   2.01225   2.03018   2.04431   2.05196
 Alpha virt. eigenvalues --    2.05667   2.08188   2.10959   2.11208   2.13412
 Alpha virt. eigenvalues --    2.17163   2.19344   2.23300   2.25771   2.27688
 Alpha virt. eigenvalues --    2.30934   2.32364   2.35429   2.37689   2.43456
 Alpha virt. eigenvalues --    2.44234   2.46208   2.47909   2.48399   2.51296
 Alpha virt. eigenvalues --    2.51814   2.52961   2.54153   2.58123   2.62220
 Alpha virt. eigenvalues --    2.66411   2.68186   2.74212   2.74477   2.80201
 Alpha virt. eigenvalues --    2.81851   2.87335   2.89134   2.90047   2.93001
 Alpha virt. eigenvalues --    2.97371   3.03228   3.05990   3.27057   3.41645
 Alpha virt. eigenvalues --    3.48723   3.59995
  Beta  occ. eigenvalues --  -18.89924 -14.08963 -14.08680 -10.05620 -10.04424
  Beta  occ. eigenvalues --  -10.03260 -10.03234 -10.02753 -10.01372 -10.01353
  Beta  occ. eigenvalues --  -10.00713 -10.00541 -10.00521 -10.00467  -1.08616
  Beta  occ. eigenvalues --   -0.95949  -0.94124  -0.83667  -0.82474  -0.81822
  Beta  occ. eigenvalues --   -0.77861  -0.74783  -0.69165  -0.66595  -0.64783
  Beta  occ. eigenvalues --   -0.63591  -0.58621  -0.56294  -0.55144  -0.53555
  Beta  occ. eigenvalues --   -0.53122  -0.51872  -0.50227  -0.48060  -0.47349
  Beta  occ. eigenvalues --   -0.46005  -0.44808  -0.44244  -0.43669  -0.42272
  Beta  occ. eigenvalues --   -0.41185  -0.39435  -0.37926  -0.34051  -0.33350
  Beta  occ. eigenvalues --   -0.31273  -0.29237  -0.28938  -0.28577
  Beta virt. eigenvalues --    0.01132   0.02681   0.04554   0.06164   0.11330
  Beta virt. eigenvalues --    0.12888   0.13841   0.15376   0.16889   0.17620
  Beta virt. eigenvalues --    0.18221   0.18762   0.19239   0.19517   0.20362
  Beta virt. eigenvalues --    0.20691   0.21132   0.26529   0.28983   0.29413
  Beta virt. eigenvalues --    0.31875   0.33371   0.34240   0.35958   0.37838
  Beta virt. eigenvalues --    0.39286   0.41124   0.43269   0.45650   0.47429
  Beta virt. eigenvalues --    0.48553   0.49510   0.50309   0.50487   0.51259
  Beta virt. eigenvalues --    0.51411   0.52425   0.53612   0.54526   0.55331
  Beta virt. eigenvalues --    0.55546   0.56869   0.57193   0.58048   0.58185
  Beta virt. eigenvalues --    0.59386   0.60352   0.61057   0.61559   0.63398
  Beta virt. eigenvalues --    0.64158   0.65157   0.65290   0.67136   0.67826
  Beta virt. eigenvalues --    0.68508   0.69406   0.69875   0.71047   0.71928
  Beta virt. eigenvalues --    0.73000   0.73706   0.74114   0.74728   0.78052
  Beta virt. eigenvalues --    0.78960   0.79535   0.81882   0.87393   0.89651
  Beta virt. eigenvalues --    0.90557   0.91835   0.93007   0.94098   0.94907
  Beta virt. eigenvalues --    0.95552   0.96027   0.97114   0.97224   0.98763
  Beta virt. eigenvalues --    0.99699   1.01225   1.02432   1.04154   1.04845
  Beta virt. eigenvalues --    1.05470   1.06427   1.08275   1.09222   1.11401
  Beta virt. eigenvalues --    1.12085   1.14180   1.14668   1.18298   1.18939
  Beta virt. eigenvalues --    1.20388   1.21927   1.23919   1.25396   1.27976
  Beta virt. eigenvalues --    1.31084   1.32349   1.34851   1.37087   1.39699
  Beta virt. eigenvalues --    1.40173   1.43300   1.45868   1.48836   1.49801
  Beta virt. eigenvalues --    1.51838   1.52682   1.53111   1.53755   1.54619
  Beta virt. eigenvalues --    1.55566   1.58309   1.58753   1.60877   1.62670
  Beta virt. eigenvalues --    1.63836   1.64084   1.64678   1.65822   1.66286
  Beta virt. eigenvalues --    1.66871   1.68430   1.69477   1.70726   1.72952
  Beta virt. eigenvalues --    1.73838   1.74408   1.75509   1.76414   1.76590
  Beta virt. eigenvalues --    1.78684   1.79573   1.81597   1.82739   1.84387
  Beta virt. eigenvalues --    1.85356   1.86937   1.88419   1.90142   1.90489
  Beta virt. eigenvalues --    1.93045   1.93363   1.94250   1.96905   1.97288
  Beta virt. eigenvalues --    1.98543   2.01225   2.03018   2.04431   2.05196
  Beta virt. eigenvalues --    2.05667   2.08188   2.10959   2.11208   2.13412
  Beta virt. eigenvalues --    2.17163   2.19344   2.23300   2.25771   2.27688
  Beta virt. eigenvalues --    2.30934   2.32364   2.35429   2.37689   2.43456
  Beta virt. eigenvalues --    2.44234   2.46208   2.47909   2.48399   2.51296
  Beta virt. eigenvalues --    2.51814   2.52961   2.54153   2.58123   2.62220
  Beta virt. eigenvalues --    2.66411   2.68186   2.74212   2.74477   2.80201
  Beta virt. eigenvalues --    2.81851   2.87335   2.89134   2.90047   2.93001
  Beta virt. eigenvalues --    2.97371   3.03228   3.05990   3.27057   3.41645
  Beta virt. eigenvalues --    3.48723   3.59995
          Condensed to atoms (all electrons):
               1          2          3          4          5          6
     1  C    4.848132   0.493918  -0.001162  -0.044257  -0.033294   0.466190
     2  C    0.493918   4.688289   0.503473  -0.029814  -0.042324  -0.027505
     3  C   -0.001162   0.503473   4.838075   0.470635  -0.044240  -0.054086
     4  C   -0.044257  -0.029814   0.470635   4.952559   0.547214  -0.084829
     5  N   -0.033294  -0.042324  -0.044240   0.547214   6.262695   0.556917
     6  C    0.466190  -0.027505  -0.054086  -0.084829   0.556917   4.683404
     7  C    0.001611   0.004110  -0.093540   0.239930  -0.045643   0.004351
     8  N   -0.000045  -0.000004  -0.000164  -0.043935  -0.003075   0.000303
     9  C   -0.000001   0.000006   0.000067   0.002310   0.000298   0.000035
    10  C   -0.000000   0.000000  -0.000189   0.001741  -0.000050  -0.000002
    11  C    0.000000   0.000008   0.001506   0.010996  -0.000070   0.000019
    12  C   -0.000080   0.000398   0.007104  -0.095934   0.000713   0.000109
    13  O    0.000015  -0.000123   0.001468   0.009223  -0.000419  -0.000019
    14  C   -0.000001   0.000006  -0.000075  -0.000692   0.000005  -0.000002
    15  H    0.390049  -0.050160   0.008777   0.000595   0.005413  -0.037970
    16  H   -0.062232   0.407557  -0.049634   0.008708  -0.000603   0.009329
    17  H    0.008739  -0.049741   0.378163  -0.025702   0.007126   0.000342
    18  H   -0.058431   0.005932   0.001918   0.001737  -0.028298   0.391663
    19  H    0.000000  -0.000000   0.000014  -0.000866   0.000015  -0.000001
    20  H    0.000000  -0.000000  -0.000002   0.000085  -0.000000  -0.000000
    21  H    0.000000  -0.000000   0.000027  -0.000414   0.000002  -0.000000
    22  H    0.000000  -0.000001  -0.000002   0.000154   0.000001   0.000001
    23  H    0.000000   0.000000   0.000035   0.000119  -0.000002  -0.000000
    24  H   -0.000000   0.000003   0.000032  -0.000068   0.000002  -0.000001
               7          8          9         10         11         12
     1  C    0.001611  -0.000045  -0.000001  -0.000000   0.000000  -0.000080
     2  C    0.004110  -0.000004   0.000006   0.000000   0.000008   0.000398
     3  C   -0.093540  -0.000164   0.000067  -0.000189   0.001506   0.007104
     4  C    0.239930  -0.043935   0.002310   0.001741   0.010996  -0.095934
     5  N   -0.045643  -0.003075   0.000298  -0.000050  -0.000070   0.000713
     6  C    0.004351   0.000303   0.000035  -0.000002   0.000019   0.000109
     7  C    5.237690   0.555270  -0.089588  -0.043367  -0.076284   0.376599
     8  N    0.555270   6.263530   0.569118  -0.033560  -0.050662  -0.042844
     9  C   -0.089588   0.569118   4.639038   0.496760  -0.037307  -0.049084
    10  C   -0.043367  -0.033560   0.496760   4.852238   0.490915   0.014437
    11  C   -0.076284  -0.050662  -0.037307   0.490915   4.995013   0.319258
    12  C    0.376599  -0.042844  -0.049084   0.014437   0.319258   5.028658
    13  O   -0.076059   0.001230   0.000235   0.004082  -0.075797   0.457880
    14  C    0.007212  -0.000133   0.000026   0.001022   0.002329  -0.075671
    15  H    0.000066  -0.000000  -0.000000   0.000000  -0.000000  -0.000004
    16  H   -0.000447   0.000001  -0.000000  -0.000000   0.000000   0.000025
    17  H   -0.015985   0.000330  -0.000027  -0.000003  -0.000137   0.000568
    18  H   -0.000922   0.000017  -0.000002   0.000000  -0.000001   0.000015
    19  H    0.003639  -0.031235   0.390836  -0.060583   0.008315   0.001880
    20  H    0.001503   0.006225  -0.037209   0.370174  -0.040832   0.009789
    21  H    0.007322  -0.000199   0.010656  -0.040590   0.388091  -0.067522
    22  H    0.001506  -0.000026  -0.000069   0.000116   0.010775  -0.005751
    23  H   -0.000754  -0.000002  -0.000031   0.000328   0.013062  -0.013582
    24  H   -0.000233   0.000005   0.000004  -0.000045  -0.000830   0.003937
              13         14         15         16         17         18
     1  C    0.000015  -0.000001   0.390049  -0.062232   0.008739  -0.058431
     2  C   -0.000123   0.000006  -0.050160   0.407557  -0.049741   0.005932
     3  C    0.001468  -0.000075   0.008777  -0.049634   0.378163   0.001918
     4  C    0.009223  -0.000692   0.000595   0.008708  -0.025702   0.001737
     5  N   -0.000419   0.000005   0.005413  -0.000603   0.007126  -0.028298
     6  C   -0.000019  -0.000002  -0.037970   0.009329   0.000342   0.391663
     7  C   -0.076059   0.007212   0.000066  -0.000447  -0.015985  -0.000922
     8  N    0.001230  -0.000133  -0.000000   0.000001   0.000330   0.000017
     9  C    0.000235   0.000026  -0.000000  -0.000000  -0.000027  -0.000002
    10  C    0.004082   0.001022   0.000000  -0.000000  -0.000003   0.000000
    11  C   -0.075797   0.002329  -0.000000   0.000000  -0.000137  -0.000001
    12  C    0.457880  -0.075671  -0.000004   0.000025   0.000568   0.000015
    13  O    7.666993   0.347688   0.000000  -0.000009   0.005598   0.000001
    14  C    0.347688   4.388749  -0.000000  -0.000000  -0.000123   0.000000
    15  H    0.000000  -0.000000   0.731122  -0.014056  -0.000098  -0.009182
    16  H   -0.000009  -0.000000  -0.014056   0.741886  -0.014187  -0.000321
    17  H    0.005598  -0.000123  -0.000098  -0.014187   0.737909   0.000114
    18  H    0.000001   0.000000  -0.009182  -0.000321   0.000114   0.699303
    19  H    0.000010  -0.000001  -0.000000   0.000000  -0.000002  -0.000000
    20  H   -0.000040  -0.000041   0.000000  -0.000000   0.000000  -0.000000
    21  H   -0.009194   0.008360  -0.000000   0.000000   0.000009   0.000000
    22  H   -0.030233   0.396453   0.000000   0.000000   0.000072   0.000000
    23  H   -0.031282   0.390863   0.000000  -0.000000  -0.000082   0.000000
    24  H   -0.018082   0.400340  -0.000000   0.000000  -0.000051  -0.000000
              19         20         21         22         23         24
     1  C    0.000000   0.000000   0.000000   0.000000   0.000000  -0.000000
     2  C   -0.000000  -0.000000  -0.000000  -0.000001   0.000000   0.000003
     3  C    0.000014  -0.000002   0.000027  -0.000002   0.000035   0.000032
     4  C   -0.000866   0.000085  -0.000414   0.000154   0.000119  -0.000068
     5  N    0.000015  -0.000000   0.000002   0.000001  -0.000002   0.000002
     6  C   -0.000001  -0.000000  -0.000000   0.000001  -0.000000  -0.000001
     7  C    0.003639   0.001503   0.007322   0.001506  -0.000754  -0.000233
     8  N   -0.031235   0.006225  -0.000199  -0.000026  -0.000002   0.000005
     9  C    0.390836  -0.037209   0.010656  -0.000069  -0.000031   0.000004
    10  C   -0.060583   0.370174  -0.040590   0.000116   0.000328  -0.000045
    11  C    0.008315  -0.040832   0.388091   0.010775   0.013062  -0.000830
    12  C    0.001880   0.009789  -0.067522  -0.005751  -0.013582   0.003937
    13  O    0.000010  -0.000040  -0.009194  -0.030233  -0.031282  -0.018082
    14  C   -0.000001  -0.000041   0.008360   0.396453   0.390863   0.400340
    15  H   -0.000000   0.000000  -0.000000   0.000000   0.000000  -0.000000
    16  H    0.000000  -0.000000   0.000000   0.000000  -0.000000   0.000000
    17  H   -0.000002   0.000000   0.000009   0.000072  -0.000082  -0.000051
    18  H   -0.000000  -0.000000   0.000000   0.000000   0.000000  -0.000000
    19  H    0.711354  -0.009638  -0.000363  -0.000000   0.000000   0.000000
    20  H   -0.009638   0.721131  -0.016057   0.000011   0.000022  -0.000001
    21  H   -0.000363  -0.016057   0.722410   0.002483   0.002639  -0.000454
    22  H   -0.000000   0.000011   0.002483   0.670325  -0.044523  -0.025238
    23  H    0.000000   0.000022   0.002639  -0.044523   0.683447  -0.029749
    24  H    0.000000  -0.000001  -0.000454  -0.025238  -0.029749   0.633346
          Atomic-Atomic Spin Densities.
               1          2          3          4          5          6
     1  C   -0.000000   0.000000  -0.000000  -0.000000  -0.000000   0.000000
     2  C    0.000000  -0.000000   0.000000  -0.000000   0.000000  -0.000000
     3  C   -0.000000   0.000000  -0.000000   0.000000  -0.000000   0.000000
     4  C   -0.000000  -0.000000   0.000000   0.000000   0.000000  -0.000000
     5  N   -0.000000   0.000000  -0.000000   0.000000  -0.000000   0.000000
     6  C    0.000000  -0.000000   0.000000  -0.000000   0.000000  -0.000000
     7  C    0.000000  -0.000000   0.000000  -0.000000  -0.000000   0.000000
     8  N    0.000000  -0.000000   0.000000  -0.000000  -0.000000  -0.000000
     9  C    0.000000   0.000000  -0.000000  -0.000000  -0.000000  -0.000000
    10  C    0.000000   0.000000  -0.000000  -0.000000  -0.000000   0.000000
    11  C   -0.000000   0.000000   0.000000   0.000000   0.000000  -0.000000
    12  C    0.000000   0.000000   0.000000  -0.000000  -0.000000   0.000000
    13  O   -0.000000   0.000000  -0.000000   0.000000  -0.000000   0.000000
    14  C    0.000000  -0.000000  -0.000000  -0.000000   0.000000   0.000000
    15  H   -0.000000   0.000000  -0.000000   0.000000  -0.000000   0.000000
    16  H    0.000000  -0.000000   0.000000  -0.000000   0.000000  -0.000000
    17  H   -0.000000   0.000000  -0.000000   0.000000  -0.000000   0.000000
    18  H   -0.000000   0.000000  -0.000000   0.000000   0.000000  -0.000000
    19  H    0.000000  -0.000000   0.000000  -0.000000   0.000000   0.000000
    20  H   -0.000000   0.000000  -0.000000  -0.000000  -0.000000   0.000000
    21  H   -0.000000  -0.000000   0.000000   0.000000   0.000000   0.000000
    22  H   -0.000000   0.000000  -0.000000   0.000000  -0.000000  -0.000000
    23  H   -0.000000   0.000000  -0.000000   0.000000  -0.000000   0.000000
    24  H    0.000000  -0.000000   0.000000  -0.000000  -0.000000  -0.000000
               7          8          9         10         11         12
     1  C    0.000000   0.000000   0.000000   0.000000  -0.000000   0.000000
     2  C   -0.000000  -0.000000   0.000000   0.000000   0.000000   0.000000
     3  C    0.000000   0.000000  -0.000000  -0.000000   0.000000   0.000000
     4  C   -0.000000  -0.000000  -0.000000  -0.000000   0.000000  -0.000000
     5  N   -0.000000  -0.000000  -0.000000  -0.000000   0.000000  -0.000000
     6  C    0.000000  -0.000000  -0.000000   0.000000  -0.000000   0.000000
     7  C   -0.000000   0.000000   0.000000  -0.000000  -0.000000   0.000000
     8  N    0.000000  -0.000000   0.000000  -0.000000   0.000000  -0.000000
     9  C    0.000000   0.000000   0.000000  -0.000000   0.000000   0.000000
    10  C   -0.000000  -0.000000  -0.000000   0.000000  -0.000000  -0.000000
    11  C   -0.000000   0.000000   0.000000  -0.000000   0.000000  -0.000000
    12  C    0.000000  -0.000000   0.000000  -0.000000  -0.000000  -0.000000
    13  O    0.000000  -0.000000  -0.000000   0.000000   0.000000  -0.000000
    14  C   -0.000000   0.000000  -0.000000   0.000000   0.000000  -0.000000
    15  H    0.000000   0.000000   0.000000   0.000000  -0.000000  -0.000000
    16  H   -0.000000  -0.000000  -0.000000   0.000000   0.000000  -0.000000
    17  H    0.000000  -0.000000   0.000000  -0.000000   0.000000  -0.000000
    18  H   -0.000000   0.000000  -0.000000  -0.000000   0.000000  -0.000000
    19  H    0.000000  -0.000000   0.000000  -0.000000   0.000000  -0.000000
    20  H    0.000000  -0.000000  -0.000000   0.000000  -0.000000  -0.000000
    21  H   -0.000000   0.000000  -0.000000  -0.000000   0.000000   0.000000
    22  H   -0.000000  -0.000000  -0.000000   0.000000   0.000000  -0.000000
    23  H    0.000000  -0.000000   0.000000   0.000000  -0.000000   0.000000
    24  H    0.000000  -0.000000   0.000000  -0.000000   0.000000  -0.000000
              13         14         15         16         17         18
     1  C   -0.000000   0.000000  -0.000000   0.000000  -0.000000  -0.000000
     2  C    0.000000  -0.000000   0.000000  -0.000000   0.000000   0.000000
     3  C   -0.000000  -0.000000  -0.000000   0.000000  -0.000000  -0.000000
     4  C    0.000000  -0.000000   0.000000  -0.000000   0.000000   0.000000
     5  N   -0.000000   0.000000  -0.000000   0.000000  -0.000000   0.000000
     6  C    0.000000   0.000000   0.000000  -0.000000   0.000000  -0.000000
     7  C    0.000000  -0.000000   0.000000  -0.000000   0.000000  -0.000000
     8  N   -0.000000   0.000000   0.000000  -0.000000  -0.000000   0.000000
     9  C   -0.000000  -0.000000   0.000000  -0.000000   0.000000  -0.000000
    10  C    0.000000   0.000000   0.000000   0.000000  -0.000000  -0.000000
    11  C    0.000000   0.000000  -0.000000   0.000000   0.000000   0.000000
    12  C   -0.000000  -0.000000  -0.000000  -0.000000  -0.000000  -0.000000
    13  O   -0.000000  -0.000000  -0.000000   0.000000  -0.000000   0.000000
    14  C   -0.000000   0.000000   0.000000  -0.000000   0.000000  -0.000000
    15  H   -0.000000   0.000000  -0.000000   0.000000  -0.000000  -0.000000
    16  H    0.000000  -0.000000   0.000000  -0.000000   0.000000   0.000000
    17  H   -0.000000   0.000000  -0.000000   0.000000  -0.000000  -0.000000
    18  H    0.000000  -0.000000  -0.000000   0.000000  -0.000000  -0.000000
    19  H   -0.000000  -0.000000  -0.000000  -0.000000   0.000000  -0.000000
    20  H    0.000000  -0.000000   0.000000   0.000000  -0.000000  -0.000000
    21  H    0.000000   0.000000  -0.000000   0.000000   0.000000   0.000000
    22  H   -0.000000   0.000000  -0.000000   0.000000  -0.000000  -0.000000
    23  H   -0.000000  -0.000000  -0.000000   0.000000  -0.000000   0.000000
    24  H    0.000000  -0.000000   0.000000  -0.000000  -0.000000  -0.000000
              19         20         21         22         23         24
     1  C    0.000000  -0.000000  -0.000000  -0.000000  -0.000000   0.000000
     2  C   -0.000000   0.000000  -0.000000   0.000000   0.000000  -0.000000
     3  C    0.000000  -0.000000   0.000000  -0.000000  -0.000000   0.000000
     4  C   -0.000000  -0.000000   0.000000   0.000000   0.000000  -0.000000
     5  N    0.000000  -0.000000   0.000000  -0.000000  -0.000000  -0.000000
     6  C    0.000000   0.000000   0.000000  -0.000000   0.000000  -0.000000
     7  C    0.000000   0.000000  -0.000000  -0.000000   0.000000   0.000000
     8  N   -0.000000  -0.000000   0.000000  -0.000000  -0.000000  -0.000000
     9  C    0.000000  -0.000000  -0.000000  -0.000000   0.000000   0.000000
    10  C   -0.000000   0.000000  -0.000000   0.000000   0.000000  -0.000000
    11  C    0.000000  -0.000000   0.000000   0.000000  -0.000000   0.000000
    12  C   -0.000000  -0.000000   0.000000  -0.000000   0.000000  -0.000000
    13  O   -0.000000   0.000000   0.000000  -0.000000  -0.000000   0.000000
    14  C   -0.000000  -0.000000   0.000000   0.000000  -0.000000  -0.000000
    15  H   -0.000000   0.000000  -0.000000  -0.000000  -0.000000   0.000000
    16  H   -0.000000   0.000000   0.000000   0.000000   0.000000  -0.000000
    17  H    0.000000  -0.000000   0.000000  -0.000000  -0.000000  -0.000000
    18  H   -0.000000  -0.000000   0.000000  -0.000000   0.000000  -0.000000
    19  H    0.000000  -0.000000   0.000000  -0.000000   0.000000   0.000000
    20  H   -0.000000   0.000000  -0.000000  -0.000000  -0.000000  -0.000000
    21  H    0.000000  -0.000000  -0.000000   0.000000   0.000000   0.000000
    22  H   -0.000000  -0.000000   0.000000  -0.000000  -0.000000  -0.000000
    23  H    0.000000  -0.000000   0.000000  -0.000000  -0.000000  -0.000000
    24  H    0.000000  -0.000000   0.000000  -0.000000  -0.000000  -0.000000
 Mulliken charges and spin densities:
               1          2
     1  C   -0.009152   0.000000
     2  C    0.095974   0.000000
     3  C    0.031801  -0.000000
     4  C    0.080506   0.000000
     5  N   -0.182382  -0.000000
     6  C    0.091753   0.000000
     7  C    0.002012  -0.000000
     8  N   -0.190146  -0.000000
     9  C    0.103926   0.000000
    10  C   -0.053424  -0.000000
    11  C    0.041631   0.000000
    12  C    0.129102  -0.000000
    13  O   -0.253167  -0.000000
    14  C    0.133686   0.000000
    15  H   -0.024552  -0.000000
    16  H   -0.026017  -0.000000
    17  H   -0.032833  -0.000000
    18  H   -0.003541  -0.000000
    19  H   -0.013372   0.000000
    20  H   -0.005120   0.000000
    21  H   -0.007204  -0.000000
    22  H    0.023947  -0.000000
    23  H    0.029491  -0.000000
    24  H    0.037082  -0.000000
 Sum of Mulliken charges =  -0.00000  -0.00000
 Mulliken charges and spin densities with hydrogens summed into heavy atoms:
               1          2
     1  C   -0.033703   0.000000
     2  C    0.069957   0.000000
     3  C   -0.001032  -0.000000
     4  C    0.080506   0.000000
     5  N   -0.182382  -0.000000
     6  C    0.088211   0.000000
     7  C    0.002012  -0.000000
     8  N   -0.190146  -0.000000
     9  C    0.090554   0.000000
    10  C   -0.058544  -0.000000
    11  C    0.034427   0.000000
    12  C    0.129102  -0.000000
    13  O   -0.253167  -0.000000
    14  C    0.224206   0.000000
 Electronic spatial extent (au):  <R**2>=           2835.0382
 Charge=              0.0000 electrons
 Dipole moment (field-independent basis, Debye):
    X=              1.4621    Y=              3.4336    Z=              0.6638  Tot=              3.7906
 Quadrupole moment (field-independent basis, Debye-Ang):
   XX=            -62.0645   YY=            -77.0026   ZZ=            -80.7870
   XY=              0.5847   XZ=             -1.5233   YZ=             -0.0258
 Traceless Quadrupole moment (field-independent basis, Debye-Ang):
   XX=             11.2202   YY=             -3.7179   ZZ=             -7.5023
   XY=              0.5847   XZ=             -1.5233   YZ=             -0.0258
 Octapole moment (field-independent basis, Debye-Ang**2):
  XXX=             -6.8966  YYY=             30.8072  ZZZ=             -0.2742  XYY=             25.1867
  XXY=              6.0022  XXZ=             -6.6341  XZZ=             -4.3426  YZZ=              9.3066
  YYZ=             -1.7805  XYZ=             -8.8431
 Hexadecapole moment (field-independent basis, Debye-Ang**3):
 XXXX=          -2302.6115 YYYY=           -902.4865 ZZZZ=           -262.3004 XXXY=            -11.0441
 XXXZ=             19.0875 YYYX=             22.4004 YYYZ=            -12.8227 ZZZX=             -4.4135
 ZZZY=              3.8330 XXYY=           -550.8838 XXZZ=           -475.6725 YYZZ=           -207.5159
 XXYZ=             16.2287 YYXZ=             -5.3621 ZZXY=              7.7445
 N-N= 8.233774071457D+02 E-N=-3.065650074774D+03  KE= 6.057929237917D+02
                          Isotropic Fermi Contact Couplings
        Atom                 a.u.       MegaHertz       Gauss      10(-4) cm-1
     1  C(13)             -0.00000      -0.00000      -0.00000      -0.00000
     2  C(13)              0.00000       0.00000       0.00000       0.00000
     3  C(13)             -0.00000      -0.00000      -0.00000      -0.00000
     4  C(13)              0.00000       0.00000       0.00000       0.00000
     5  N(14)              0.00000       0.00000       0.00000       0.00000
     6  C(13)             -0.00000      -0.00000      -0.00000      -0.00000
     7  C(13)              0.00000       0.00000       0.00000       0.00000
     8  N(14)             -0.00000      -0.00000      -0.00000      -0.00000
     9  C(13)             -0.00000      -0.00000      -0.00000      -0.00000
    10  C(13)              0.00000       0.00000       0.00000       0.00000
    11  C(13)             -0.00000      -0.00000      -0.00000      -0.00000
    12  C(13)             -0.00000      -0.00000      -0.00000      -0.00000
    13  O(17)             -0.00000       0.00000       0.00000       0.00000
    14  C(13)              0.00000       0.00000       0.00000       0.00000
    15  H(1)              -0.00000      -0.00000      -0.00000      -0.00000
    16  H(1)              -0.00000      -0.00000      -0.00000      -0.00000
    17  H(1)               0.00000       0.00000       0.00000       0.00000
    18  H(1)               0.00000       0.00000       0.00000       0.00000
    19  H(1)              -0.00000      -0.00000      -0.00000      -0.00000
    20  H(1)              -0.00000      -0.00000      -0.00000      -0.00000
    21  H(1)              -0.00000      -0.00000      -0.00000      -0.00000
    22  H(1)              -0.00000      -0.00000      -0.00000      -0.00000
    23  H(1)              -0.00000      -0.00000      -0.00000      -0.00000
    24  H(1)              -0.00000      -0.00000      -0.00000      -0.00000
 --------------------------------------------------------
       Center         ----  Spin Dipole Couplings  ----
                      3XX-RR        3YY-RR        3ZZ-RR
 --------------------------------------------------------
     1   Atom       -0.000000      0.000000     -0.000000
     2   Atom        0.000000      0.000000     -0.000000
     3   Atom        0.000000      0.000000     -0.000000
     4   Atom        0.000000     -0.000000     -0.000000
     5   Atom        0.000000     -0.000000     -0.000000
     6   Atom        0.000000     -0.000000     -0.000000
     7   Atom       -0.000000     -0.000000      0.000000
     8   Atom       -0.000000      0.000000     -0.000000
     9   Atom       -0.000000      0.000000      0.000000
    10   Atom       -0.000000      0.000000      0.000000
    11   Atom        0.000000      0.000000     -0.000000
    12   Atom       -0.000000      0.000000      0.000000
    13   Atom       -0.000000     -0.000000      0.000000
    14   Atom       -0.000000     -0.000000      0.000000
    15   Atom       -0.000000      0.000000      0.000000
    16   Atom        0.000000     -0.000000      0.000000
    17   Atom       -0.000000      0.000000     -0.000000
    18   Atom        0.000000      0.000000     -0.000000
    19   Atom        0.000000     -0.000000     -0.000000
    20   Atom        0.000000     -0.000000     -0.000000
    21   Atom       -0.000000      0.000000     -0.000000
    22   Atom       -0.000000     -0.000000      0.000000
    23   Atom       -0.000000     -0.000000      0.000000
    24   Atom        0.000000     -0.000000     -0.000000
 --------------------------------------------------------
                        XY            XZ            YZ
 --------------------------------------------------------
     1   Atom       -0.000000     -0.000000      0.000000
     2   Atom       -0.000000      0.000000     -0.000000
     3   Atom       -0.000000     -0.000000     -0.000000
     4   Atom       -0.000000     -0.000000     -0.000000
     5   Atom       -0.000000     -0.000000     -0.000000
     6   Atom       -0.000000     -0.000000      0.000000
     7   Atom       -0.000000     -0.000000      0.000000
     8   Atom        0.000000     -0.000000     -0.000000
     9   Atom        0.000000     -0.000000      0.000000
    10   Atom        0.000000     -0.000000     -0.000000
    11   Atom       -0.000000      0.000000      0.000000
    12   Atom        0.000000      0.000000      0.000000
    13   Atom       -0.000000     -0.000000     -0.000000
    14   Atom       -0.000000      0.000000      0.000000
    15   Atom       -0.000000     -0.000000     -0.000000
    16   Atom        0.000000      0.000000     -0.000000
    17   Atom        0.000000     -0.000000     -0.000000
    18   Atom        0.000000     -0.000000      0.000000
    19   Atom        0.000000     -0.000000      0.000000
    20   Atom        0.000000      0.000000      0.000000
    21   Atom       -0.000000      0.000000     -0.000000
    22   Atom       -0.000000     -0.000000      0.000000
    23   Atom       -0.000000      0.000000     -0.000000
    24   Atom       -0.000000     -0.000000      0.000000
 --------------------------------------------------------


 ---------------------------------------------------------------------------------
              Anisotropic Spin Dipole Couplings in Principal Axis System
 ---------------------------------------------------------------------------------

       Atom             a.u.   MegaHertz   Gauss  10(-4) cm-1        Axes

              Baa    -0.0000    -0.000    -0.000    -0.000  0.1069 -0.6493  0.7530
     1 C(13)  Bbb    -0.0000    -0.000    -0.000    -0.000  0.9280  0.3370  0.1588
              Bcc     0.0000     0.000     0.000     0.000 -0.3568  0.6818  0.6386
 
              Baa    -0.0000    -0.000    -0.000    -0.000 -0.0093  0.1807  0.9835
     2 C(13)  Bbb     0.0000     0.000     0.000     0.000  0.4121  0.8968 -0.1609
              Bcc     0.0000     0.000     0.000     0.000  0.9111 -0.4038  0.0828
 
              Baa    -0.0000    -0.000    -0.000    -0.000  0.4741  0.4452  0.7596
     3 C(13)  Bbb     0.0000     0.000     0.000     0.000  0.8323 -0.5082 -0.2215
[...]
     8  N   -0.000000  -0.000000  -0.000000   0.000000  -0.000000  -0.000000
     9  C   -0.000000   0.000000   0.000000  -0.000000   0.000000  -0.000000
    10  C    0.000000   0.000000  -0.000000   0.000000   0.000000   0.000000
    11  C   -0.000000   0.000000   0.000000  -0.000000   0.000000  -0.000000
    12  C    0.000000  -0.000000  -0.000000  -0.000000   0.000000   0.000000
    13  O   -0.000000   0.000000  -0.000000   0.000000   0.000000   0.000000
    14  C    0.000000   0.000000  -0.000000  -0.000000   0.000000  -0.000000
    15  H   -0.000000  -0.000000  -0.000000  -0.000000  -0.000000  -0.000000
    16  H    0.000000  -0.000000  -0.000000   0.000000   0.000000   0.000000
    17  H    0.000000   0.000000  -0.000000   0.000000   0.000000  -0.000000
    18  H    0.000000  -0.000000  -0.000000   0.000000  -0.000000   0.000000
    19  H   -0.000000   0.000000   0.000000  -0.000000   0.000000  -0.000000
    20  H    0.000000  -0.000000  -0.000000   0.000000  -0.000000   0.000000
    21  H   -0.000000  -0.000000   0.000000  -0.000000  -0.000000  -0.000000
    22  H    0.000000   0.000000  -0.000000   0.000000   0.000000   0.000000
    23  H    0.000000  -0.000000  -0.000000   0.000000   0.000000   0.000000
    24  H    0.000000   0.000000  -0.000000  -0.000000   0.000000  -0.000000
              19         20         21         22         23         24
     1  C    0.000000  -0.000000   0.000000  -0.000000  -0.000000   0.000000
     2  C   -0.000000   0.000000  -0.000000   0.000000   0.000000   0.000000
     3  C    0.000000   0.000000  -0.000000  -0.000000  -0.000000   0.000000
     4  C   -0.000000   0.000000  -0.000000   0.000000   0.000000  -0.000000
     5  N    0.000000   0.000000  -0.000000   0.000000  -0.000000  -0.000000
     6  C   -0.000000   0.000000  -0.000000  -0.000000   0.000000  -0.000000
     7  C   -0.000000   0.000000   0.000000   0.000000  -0.000000   0.000000
     8  N    0.000000   0.000000   0.000000  -0.000000  -0.000000  -0.000000
     9  C   -0.000000  -0.000000   0.000000  -0.000000  -0.000000   0.000000
    10  C   -0.000000   0.000000  -0.000000   0.000000   0.000000  -0.000000
    11  C   -0.000000  -0.000000  -0.000000  -0.000000   0.000000  -0.000000
    12  C    0.000000  -0.000000   0.000000   0.000000  -0.000000  -0.000000
    13  O   -0.000000   0.000000  -0.000000   0.000000   0.000000   0.000000
    14  C    0.000000  -0.000000  -0.000000   0.000000  -0.000000   0.000000
    15  H    0.000000  -0.000000   0.000000  -0.000000  -0.000000  -0.000000
    16  H   -0.000000   0.000000  -0.000000   0.000000   0.000000  -0.000000
    17  H    0.000000  -0.000000  -0.000000   0.000000   0.000000   0.000000
    18  H   -0.000000   0.000000  -0.000000   0.000000   0.000000  -0.000000
    19  H    0.000000  -0.000000   0.000000  -0.000000  -0.000000   0.000000
    20  H   -0.000000   0.000000  -0.000000   0.000000   0.000000  -0.000000
    21  H    0.000000  -0.000000   0.000000   0.000000  -0.000000  -0.000000
    22  H   -0.000000   0.000000   0.000000  -0.000000   0.000000  -0.000000
    23  H   -0.000000   0.000000  -0.000000   0.000000  -0.000000   0.000000
    24  H    0.000000  -0.000000  -0.000000  -0.000000   0.000000  -0.000000
 Mulliken charges and spin densities:
               1          2
     1  C   -0.028225   0.000000
     2  C    0.065259   0.000000
     3  C    0.029477  -0.000000
     4  C    0.071069   0.000000
     5  N   -0.169721  -0.000000
     6  C    0.084646  -0.000000
     7  C    0.032325  -0.000000
     8  N   -0.162482  -0.000000
     9  C    0.079073  -0.000000
    10  C   -0.021766   0.000000
    11  C    0.016460  -0.000000
    12  C    0.112740   0.000000
    13  O   -0.239674  -0.000000
    14  C    0.059738   0.000000
    15  H   -0.014153   0.000000
    16  H   -0.012020   0.000000
    17  H   -0.021125  -0.000000
    18  H   -0.001185   0.000000
    19  H   -0.002638   0.000000
    20  H   -0.013966   0.000000
    21  H   -0.010051   0.000000
    22  H    0.047597  -0.000000
    23  H    0.045518  -0.000000
    24  H    0.053102   0.000000
 Sum of Mulliken charges =  -0.00000   0.00000
 Mulliken charges and spin densities with hydrogens summed into heavy atoms:
               1          2
     1  C   -0.042378   0.000000
     2  C    0.053240   0.000000
     3  C    0.008352  -0.000000
     4  C    0.071069   0.000000
     5  N   -0.169721  -0.000000
     6  C    0.083461  -0.000000
     7  C    0.032325  -0.000000
     8  N   -0.162482  -0.000000
     9  C    0.076436  -0.000000
    10  C   -0.035732   0.000000
    11  C    0.006409  -0.000000
    12  C    0.112740   0.000000
    13  O   -0.239674  -0.000000
    14  C    0.205955  -0.000000
 Electronic spatial extent (au):  <R**2>=           2842.9606
 Charge=             -0.0000 electrons
 Dipole moment (field-independent basis, Debye):
    X=              1.7040    Y=              3.7105    Z=              0.4753  Tot=              4.1107
 Quadrupole moment (field-independent basis, Debye-Ang):
   XX=            -62.9207   YY=            -76.1369   ZZ=            -82.4153
   XY=              0.6655   XZ=             -1.1491   YZ=              0.2471
 Traceless Quadrupole moment (field-independent basis, Debye-Ang):
   XX=             10.9036   YY=             -2.3126   ZZ=             -8.5910
   XY=              0.6655   XZ=             -1.1491   YZ=              0.2471
 Octapole moment (field-independent basis, Debye-Ang**2):
  XXX=             -2.9613  YYY=             30.6088  ZZZ=             -2.6626  XYY=             21.4609
  XXY=              6.9814  XXZ=             -3.9992  XZZ=             -0.6755  YZZ=              7.0894
  YYZ=              0.3942  XYZ=             -9.3686
 Hexadecapole moment (field-independent basis, Debye-Ang**3):
 XXXX=          -2323.4723 YYYY=           -988.7529 ZZZZ=           -192.4420 XXXY=              7.3628
 XXXZ=             12.6273 YYYX=             17.1210 YYYZ=            -11.7930 ZZZX=             -1.1695
 ZZZY=              0.6001 XXYY=           -550.4701 XXZZ=           -484.4568 YYZZ=           -208.6280
 XXYZ=             15.1305 YYXZ=             -6.2682 ZZXY=              9.5241
 N-N= 8.222396411639D+02 E-N=-3.062908755487D+03  KE= 6.052317218942D+02
                          Isotropic Fermi Contact Couplings
        Atom                 a.u.       MegaHertz       Gauss      10(-4) cm-1
     1  C(13)              0.00000       0.00000       0.00000       0.00000
     2  C(13)              0.00000       0.00000       0.00000       0.00000
     3  C(13)             -0.00000      -0.00000      -0.00000      -0.00000
     4  C(13)              0.00000       0.00000       0.00000       0.00000
     5  N(14)              0.00000       0.00000       0.00000       0.00000
     6  C(13)              0.00000       0.00000       0.00000       0.00000
     7  C(13)              0.00000       0.00000       0.00000       0.00000
     8  N(14)             -0.00000      -0.00000      -0.00000      -0.00000
     9  C(13)              0.00000       0.00000       0.00000       0.00000
    10  C(13)              0.00000       0.00000       0.00000       0.00000
    11  C(13)             -0.00000      -0.00000      -0.00000      -0.00000
    12  C(13)              0.00000       0.00000       0.00000       0.00000
    13  O(17)              0.00000      -0.00000      -0.00000      -0.00000
    14  C(13)             -0.00000      -0.00000      -0.00000      -0.00000
    15  H(1)              -0.00000      -0.00000      -0.00000      -0.00000
    16  H(1)               0.00000       0.00000       0.00000       0.00000
    17  H(1)               0.00000       0.00000       0.00000       0.00000
    18  H(1)               0.00000       0.00000       0.00000       0.00000
    19  H(1)               0.00000       0.00000       0.00000       0.00000
    20  H(1)              -0.00000      -0.00000      -0.00000      -0.00000
    21  H(1)               0.00000       0.00000       0.00000       0.00000
    22  H(1)              -0.00000      -0.00000      -0.00000      -0.00000
    23  H(1)               0.00000       0.00000       0.00000       0.00000
    24  H(1)              -0.00000      -0.00000      -0.00000      -0.00000
 --------------------------------------------------------
       Center         ----  Spin Dipole Couplings  ----
                      3XX-RR        3YY-RR        3ZZ-RR
 --------------------------------------------------------
     1   Atom        0.000000     -0.000000     -0.000000
     2   Atom       -0.000000      0.000000      0.000000
     3   Atom       -0.000000     -0.000000      0.000000
     4   Atom       -0.000000      0.000000      0.000000
     5   Atom        0.000000     -0.000000     -0.000000
     6   Atom        0.000000      0.000000     -0.000000
     7   Atom        0.000000     -0.000000     -0.000000
     8   Atom       -0.000000      0.000000      0.000000
     9   Atom        0.000000     -0.000000      0.000000
    10   Atom        0.000000     -0.000000     -0.000000
    11   Atom       -0.000000      0.000000      0.000000
    12   Atom       -0.000000      0.000000     -0.000000
    13   Atom       -0.000000      0.000000      0.000000
    14   Atom       -0.000000      0.000000      0.000000
    15   Atom        0.000000     -0.000000     -0.000000
    16   Atom        0.000000     -0.000000     -0.000000
    17   Atom       -0.000000      0.000000     -0.000000
    18   Atom        0.000000     -0.000000     -0.000000
    19   Atom       -0.000000      0.000000     -0.000000
    20   Atom        0.000000     -0.000000     -0.000000
    21   Atom        0.000000      0.000000     -0.000000
    22   Atom       -0.000000     -0.000000      0.000000
    23   Atom       -0.000000      0.000000      0.000000
    24   Atom        0.000000     -0.000000      0.000000
 --------------------------------------------------------
                        XY            XZ            YZ
 --------------------------------------------------------
     1   Atom       -0.000000      0.000000      0.000000
     2   Atom        0.000000      0.000000      0.000000
     3   Atom       -0.000000     -0.000000     -0.000000
     4   Atom       -0.000000     -0.000000      0.000000
     5   Atom        0.000000      0.000000      0.000000
     6   Atom       -0.000000     -0.000000      0.000000
     7   Atom        0.000000     -0.000000     -0.000000
     8   Atom        0.000000     -0.000000     -0.000000
     9   Atom        0.000000     -0.000000      0.000000
    10   Atom       -0.000000      0.000000     -0.000000
    11   Atom        0.000000      0.000000     -0.000000
    12   Atom       -0.000000     -0.000000      0.000000
    13   Atom        0.000000      0.000000     -0.000000
    14   Atom       -0.000000      0.000000      0.000000
    15   Atom       -0.000000     -0.000000     -0.000000
    16   Atom       -0.000000      0.000000     -0.000000
    17   Atom       -0.000000     -0.000000     -0.000000
    18   Atom       -0.000000      0.000000     -0.000000
    19   Atom        0.000000     -0.000000     -0.000000
    20   Atom       -0.000000      0.000000     -0.000000
    21   Atom       -0.000000     -0.000000     -0.000000
    22   Atom       -0.000000     -0.000000      0.000000
    23   Atom       -0.000000     -0.000000      0.000000
    24   Atom       -0.000000     -0.000000      0.000000
 --------------------------------------------------------


 ---------------------------------------------------------------------------------
              Anisotropic Spin Dipole Couplings in Principal Axis System
 ---------------------------------------------------------------------------------

       Atom             a.u.   MegaHertz   Gauss  10(-4) cm-1        Axes

              Baa    -0.0000    -0.000    -0.000    -0.000 -0.0594 -0.3411  0.9382
     1 C(13)  Bbb    -0.0000    -0.000    -0.000    -0.000  0.1097  0.9319  0.3457
              Bcc     0.0000     0.000     0.000     0.000  0.9922 -0.1234  0.0179
 
              Baa    -0.0000    -0.000    -0.000    -0.000  0.8306 -0.5195  0.2005
     2 C(13)  Bbb    -0.0000    -0.000    -0.000    -0.000 -0.5191 -0.5921  0.6165
              Bcc     0.0000     0.000     0.000     0.000  0.2016  0.6161  0.7614
 
              Baa    -0.0000    -0.000    -0.000    -0.000  0.6485  0.6668  0.3671
     3 C(13)  Bbb     0.0000     0.000     0.000     0.000  0.7279 -0.6844 -0.0428
              Bcc     0.0000     0.000     0.000     0.000 -0.2227 -0.2950  0.9292
 
              Baa    -0.0000    -0.000    -0.000    -0.000  0.9092 -0.0092  0.4162
     4 C(13)  Bbb     0.0000     0.000     0.000     0.000  0.2946  0.7207 -0.6275
              Bcc     0.0000     0.000     0.000     0.000 -0.2941  0.6932  0.6580
 
              Baa    -0.0000    -0.000    -0.000    -0.000 -0.0866  0.8046 -0.5874
     5 N(14)  Bbb    -0.0000    -0.000    -0.000    -0.000 -0.3803  0.5183  0.7660
              Bcc     0.0000     0.000     0.000     0.000  0.9208  0.2897  0.2611
 
              Baa    -0.0000    -0.000    -0.000    -0.000  0.1614  0.0219  0.9867
     6 C(13)  Bbb    -0.0000    -0.000    -0.000    -0.000  0.4828  0.8702 -0.0983
              Bcc     0.0000     0.000     0.000     0.000  0.8607 -0.4923 -0.1298
 
              Baa    -0.0000    -0.000    -0.000    -0.000 -0.3641  0.7742  0.5177
     7 C(13)  Bbb    -0.0000    -0.000    -0.000    -0.000  0.2362 -0.4609  0.8555
              Bcc     0.0000     0.000     0.000     0.000  0.9009  0.4338 -0.0151
 
              Baa    -0.0000    -0.000    -0.000    -0.000  0.9649 -0.2368  0.1135
     8 N(14)  Bbb     0.0000     0.000     0.000     0.000  0.1258  0.7963  0.5917
              Bcc     0.0000     0.000     0.000     0.000 -0.2305 -0.5567  0.7981
 
              Baa    -0.0000    -0.000    -0.000    -0.000 -0.0163  0.9721 -0.2341
     9 C(13)  Bbb     0.0000     0.000     0.000     0.000  0.5020  0.2104  0.8389
              Bcc     0.0000     0.000     0.000     0.000  0.8647 -0.1039 -0.4914
 
              Baa    -0.0000    -0.000    -0.000    -0.000  0.0285  0.1340  0.9906
    10 C(13)  Bbb    -0.0000    -0.000    -0.000    -0.000  0.2310  0.9633 -0.1369
              Bcc     0.0000     0.000     0.000     0.000  0.9725 -0.2327  0.0035
 
              Baa    -0.0000    -0.000    -0.000    -0.000  0.9029 -0.3952 -0.1694
    11 C(13)  Bbb     0.0000     0.000     0.000     0.000  0.4291  0.8047  0.4103
              Bcc     0.0000     0.000     0.000     0.000 -0.0258 -0.4432  0.8961
 
              Baa    -0.0000    -0.000    -0.000    -0.000  0.8313  0.5386  0.1373
    12 C(13)  Bbb    -0.0000    -0.000    -0.000    -0.000 -0.0979 -0.1013  0.9900
              Bcc     0.0000     0.000     0.000     0.000 -0.5471  0.8365  0.0315
 
              Baa    -0.0000     0.000     0.000     0.000  0.9486 -0.2867 -0.1338
    13 O(17)  Bbb     0.0000    -0.000    -0.000    -0.000  0.3071  0.9360  0.1718
              Bcc     0.0000    -0.000    -0.000    -0.000  0.0760 -0.2041  0.9760
 
              Baa    -0.0000    -0.000    -0.000    -0.000  0.8666  0.4835 -0.1231
    14 C(13)  Bbb     0.0000     0.000     0.000     0.000 -0.0698  0.3618  0.9296
              Bcc     0.0000     0.000     0.000     0.000 -0.4940  0.7971 -0.3473
 
              Baa    -0.0000    -0.000    -0.000    -0.000  0.1819  0.7098  0.6805
    15 H(1)   Bbb    -0.0000    -0.000    -0.000    -0.000  0.0297 -0.6957  0.7177
              Bcc     0.0000     0.000     0.000     0.000  0.9829 -0.1104 -0.1476
 
              Baa    -0.0000    -0.000    -0.000    -0.000 -0.0541  0.7258  0.6858
    16 H(1)   Bbb     0.0000     0.000     0.000     0.000 -0.2508 -0.6747  0.6942
              Bcc     0.0000     0.000     0.000     0.000  0.9665 -0.1345  0.2185
 
              Baa    -0.0000    -0.000    -0.000    -0.000  0.7628  0.4439  0.4702
    17 H(1)   Bbb     0.0000     0.000     0.000     0.000 -0.4137 -0.2237  0.8825
              Bcc     0.0000     0.000     0.000     0.000 -0.4969  0.8677 -0.0130
 
              Baa    -0.0000    -0.000    -0.000    -0.000  0.1409  0.8857  0.4424
    18 H(1)   Bbb     0.0000     0.000     0.000     0.000 -0.1695 -0.4187  0.8922
              Bcc     0.0000     0.000     0.000     0.000  0.9754 -0.2007  0.0911
 
              Baa    -0.0000    -0.000    -0.000    -0.000  0.7581 -0.6483  0.0707
    19 H(1)   Bbb    -0.0000    -0.000    -0.000    -0.000  0.0345  0.1481  0.9884
              Bcc     0.0000     0.000     0.000     0.000  0.6512  0.7469 -0.1346
 
              Baa    -0.0000    -0.000    -0.000    -0.000  0.0220  0.0904  0.9957
    20 H(1)   Bbb    -0.0000    -0.000    -0.000    -0.000  0.5064  0.8577 -0.0890
              Bcc     0.0000     0.000     0.000     0.000  0.8620 -0.5062  0.0269
 
              Baa    -0.0000    -0.000    -0.000    -0.000  0.0496  0.1096  0.9927
    21 H(1)   Bbb    -0.0000    -0.000    -0.000    -0.000  0.7979  0.5935 -0.1053
              Bcc     0.0000     0.000     0.000     0.000 -0.6007  0.7974 -0.0580
 
              Baa    -0.0000    -0.000    -0.000    -0.000  0.8917  0.4509 -0.0399
    22 H(1)   Bbb     0.0000     0.000     0.000     0.000 -0.4374  0.8358 -0.3319
              Bcc     0.0000     0.000     0.000     0.000 -0.1163  0.3134  0.9425
 
              Baa    -0.0000    -0.000    -0.000    -0.000  0.9707  0.1027  0.2174
    23 H(1)   Bbb     0.0000     0.000     0.000     0.000 -0.0917 -0.6778  0.7295
              Bcc     0.0000     0.000     0.000     0.000 -0.2223  0.7280  0.6485
 
              Baa    -0.0000    -0.000    -0.000    -0.000  0.0814  0.9495 -0.3031
    24 H(1)   Bbb     0.0000     0.000     0.000     0.000  0.6931  0.1646  0.7017
              Bcc     0.0000     0.000     0.000     0.000  0.7162 -0.2672 -0.6447
 

 ---------------------------------------------------------------------------------

 No NMR shielding tensors so no spin-rotation constants.
 Leave Link  601 at Sun Jul 26 12:47:31 2020, MaxMem=  4026531840 cpu:               3.0 elap:               0.4
 (Enter /opt/ohpc/pub/libs/gaussian/g16-A.03/sandybridge/g16/l9999.exe)

 Test job not archived.
 1\1\GINC-SKYLAKE050\FOpt\ULC-wPBE\CC-pVDZ\C11H10N2O1\RDU230\26-Jul-202
 0\0\\#P uLC-wPBE/cc-pVDZ iop(3/107=0177500000, 3/108=0177500000) opt\\
 H10 C11 N2 O1\\0,1\C,-3.7575358572,0.0245956745,-0.004558629\C,-2.9914
 112448,0.8887449945,0.7830578117\C,-1.6033092543,0.7305338007,0.799339
 4464\C,-1.0272178715,-0.2990692402,0.0330859997\N,-1.7586720266,-1.137
 8818053,-0.7278504562\C,-3.087556189,-0.9629455392,-0.7379323293\C,0.4
 493193618,-0.5718072649,0.0520813178\N,0.8020622425,-1.8640154484,0.11
 5356753\C,2.1061329586,-2.1792216252,0.1208663072\C,3.1241384696,-1.22
 62492992,0.0551310546\C,2.7740178923,0.1262525051,-0.0196546379\C,1.41
 46419081,0.4695586246,-0.0188493221\O,0.9461149535,1.7510833198,-0.097
 6500044\C,1.9024145146,2.7936447158,-0.2456260476\H,-4.8512559051,0.11
 01642342,-0.0530237245\H,-3.4681417054,1.6774498111,1.381569598\H,-0.9
 677844533,1.3912628813,1.4000481759\H,-3.6555608765,-1.6597994983,-1.3
 761505057\H,2.3431885809,-3.2530207647,0.1801733996\H,4.179699363,-1.5
 293999834,0.0594142239\H,3.5531624628,0.8949952566,-0.0821557431\H,2.5
 080093501,2.6657007987,-1.1677144935\H,2.5827471206,2.8574838485,0.630
 2888262\H,1.3202362054,3.7279970034,-0.3207600208\\Version=EM64L-G16Re
 vA.03\State=1-A\HF=-609.3678566\S2=0.\S2-1=0.\S2A=0.\RMSD=9.853e-09\RM
 SF=1.225e-05\Dipole=0.6462735,1.456716,0.2754484\Quadrupole=8.0780185,
 -1.7385836,-6.3394349,0.7199917,-0.8851594,0.4564374\PG=C01 [X(C11H10N
 2O1)]\\@


 HE THAT RISETH LATE MUST TROT ALL DAY.

                  -- BENJAMIN FRANKLIN
 Job cpu time:       0 days  3 hours 24 minutes 25.3 seconds.
 Elapsed time:       0 days  0 hours 25 minutes 51.3 seconds.
 File lengths (MBytes):  RWF=    128 Int=      0 D2E=      0 Chk=     12 Scr=      8
 Normal termination of Gaussian 16 at Sun Jul 26 12:47:31 2020.
