 Entering Gaussian System, Link 0=g16
 Input=mols_55_7_03_C-COC_opt_0.gjf
 Output=mols_55_7_03_C-COC_opt_0.log
 Initial command:
 /opt/ohpc/pub/libs/gaussian/g16-A.03/sandybridge/g16/l1.exe "/mnt/gpfs2_4m/scratch/rdu230/ondemand/projects/dihedral_energies/7trial/wtuning/mols_55_7_03_C-COC/Gau-306716.inp" -scrdir="/mnt/gpfs2_4m/scratch/rdu230/ondemand/projects/dihedral_energies/7trial/wtuning/mols_55_7_03_C-COC/"
 Entering Link 1 = /opt/ohpc/pub/libs/gaussian/g16-A.03/sandybridge/g16/l1.exe PID=    306717.
  
 Copyright (c) 1988,1990,1992,1993,1995,1998,2003,2009,2016,
            Gaussian, Inc.  All Rights Reserved.
  
 This is part of the Gaussian(R) 16 program.  It is based on
 the Gaussian(R) 09 system (copyright 2009, Gaussian, Inc.),
 the Gaussian(R) 03 system (copyright 2003, Gaussian, Inc.),
 the Gaussian(R) 98 system (copyright 1998, Gaussian, Inc.),
 the Gaussian(R) 94 system (copyright 1995, Gaussian, Inc.),
 the Gaussian 92(TM) system (copyright 1992, Gaussian, Inc.),
 the Gaussian 90(TM) system (copyright 1990, Gaussian, Inc.),
 the Gaussian 88(TM) system (copyright 1988, Gaussian, Inc.),
 the Gaussian 86(TM) system (copyright 1986, Carnegie Mellon
 University), and the Gaussian 82(TM) system (copyright 1983,
 Carnegie Mellon University). Gaussian is a federally registered
 trademark of Gaussian, Inc.
  
 This software contains proprietary and confidential information,
 including trade secrets, belonging to Gaussian, Inc.
  
 This software is provided under written license and may be
 used, copied, transmitted, or stored only in accord with that
 written license.
  
 The following legend is applicable only to US Government
 contracts under FAR:
  
                    RESTRICTED RIGHTS LEGEND
  
 Use, reproduction and disclosure by the US Government is
 subject to restrictions as set forth in subparagraphs (a)
 and (c) of the Commercial Computer Software - Restricted
 Rights clause in FAR 52.227-19.
  
 Gaussian, Inc.
 340 Quinnipiac St., Bldg. 40, Wallingford CT 06492
  
  
 ---------------------------------------------------------------
 Warning -- This program may not be used in any manner that
 competes with the business of Gaussian, Inc. or will provide
 assistance to any competitor of Gaussian, Inc.  The licensee
 of this program is prohibited from giving any competitor of
 Gaussian, Inc. access to this program.  By using this program,
 the user acknowledges that Gaussian, Inc. is engaged in the
 business of creating and licensing software in the field of
 computational chemistry and represents and warrants to the
 licensee that it is not a competitor of Gaussian, Inc. and that
 it will not use this program in any manner prohibited above.
 ---------------------------------------------------------------
  

 Cite this work as:
 Gaussian 16, Revision A.03,
 M. J. Frisch, G. W. Trucks, H. B. Schlegel, G. E. Scuseria, 
 M. A. Robb, J. R. Cheeseman, G. Scalmani, V. Barone, 
 G. A. Petersson, H. Nakatsuji, X. Li, M. Caricato, A. V. Marenich, 
 J. Bloino, B. G. Janesko, R. Gomperts, B. Mennucci, H. P. Hratchian, 
 J. V. Ortiz, A. F. Izmaylov, J. L. Sonnenberg, D. Williams-Young, 
 F. Ding, F. Lipparini, F. Egidi, J. Goings, B. Peng, A. Petrone, 
 T. Henderson, D. Ranasinghe, V. G. Zakrzewski, J. Gao, N. Rega, 
 G. Zheng, W. Liang, M. Hada, M. Ehara, K. Toyota, R. Fukuda, 
 J. Hasegawa, M. Ishida, T. Nakajima, Y. Honda, O. Kitao, H. Nakai, 
 T. Vreven, K. Throssell, J. A. Montgomery, Jr., J. E. Peralta, 
 F. Ogliaro, M. J. Bearpark, J. J. Heyd, E. N. Brothers, K. N. Kudin, 
 V. N. Staroverov, T. A. Keith, R. Kobayashi, J. Normand, 
 K. Raghavachari, A. P. Rendell, J. C. Burant, S. S. Iyengar, 
 J. Tomasi, M. Cossi, J. M. Millam, M. Klene, C. Adamo, R. Cammi, 
 J. W. Ochterski, R. L. Martin, K. Morokuma, O. Farkas, 
 J. B. Foresman, and D. J. Fox, Gaussian, Inc., Wallingford CT, 2016.
 
 ******************************************
 Gaussian 16:  EM64L-G16RevA.03 25-Dec-2016
                24-Jul-2020 
 ******************************************
 %mem=30GB
 %nproc=8
 Will use up to    8 processors via shared memory.
 ---------------------------------------------------------------
 #P uLC-wPBE/cc-pVDZ iop(3/107=0458800000, 3/108=0458800000) opt
 ---------------------------------------------------------------
 1/18=20,19=15,26=3,38=1/1,3;
 2/9=110,12=2,17=6,18=5,40=1/2;
 3/5=16,11=2,25=1,30=1,71=1,74=-41,107=458800000,108=458800000,116=2/1,2,3;
 4//1;
 5/5=2,38=5/2;
 6/7=2,8=2,9=2,10=2,28=1/1;
 7//1,2,3,16;
 1/18=20,19=15,26=3/3(2);
 2/9=110/2;
 99//99;
 2/9=110/2;
 3/5=16,11=2,25=1,30=1,71=1,74=-41,107=458800000,108=458800000,116=2/1,2,3;
 4/5=5,16=3,69=1/1;
 5/5=2,38=5/2;
 7//1,2,3,16;
 1/18=20,19=15,26=3/3(-5);
 2/9=110/2;
 6/7=2,8=2,9=2,10=2,19=2,28=1/1;
 99/9=1/99;
 Leave Link    1 at Fri Jul 24 15:24:37 2020, MaxMem=  4026531840 cpu:               1.7 elap:               0.2
 (Enter /opt/ohpc/pub/libs/gaussian/g16-A.03/sandybridge/g16/l101.exe)
 --------------
 H44 C63 S14 O7
 --------------
 Symbolic Z-matrix:
 Charge =  0 Multiplicity = 1
 C                    -24.575    4.97636  -0.94472 
 C                    -23.83608   5.26008   0.09533 
 C                    -22.8077   4.27212   0.44258 
 C                    -22.81262   3.21361  -0.48819 
 S                    -24.02724   3.4799   -1.66761 
 C                    -21.9588   2.07496  -0.61164 
 C                    -22.21038   0.76992  -0.8644 
 O                    -23.57728   0.3726   -1.04772 
 C                    -23.70123  -0.95278  -1.28476 
 C                    -21.07817  -0.01203  -0.77476 
 C                    -19.91973   0.60021  -0.50027 
 S                    -20.27893   2.33205  -0.23842 
 C                    -18.55277   0.04949  -0.40226 
 C                    -18.22251  -1.20528  -0.3626 
 C                    -16.82226  -1.51426  -0.18789 
 C                    -16.08601  -0.31575  -0.07138 
 S                    -17.13792   1.02726  -0.29821 
 C                    -14.66306  -0.19479   0.06663 
 C                    -14.01732   0.8334    0.81744 
 O                    -14.61979   1.77154   1.46104 
 C                    -13.81197   2.79423   2.12814 
 C                    -12.57667   0.53473   0.79843 
 C                    -12.18218  -0.54744   0.06484 
 S                    -13.66166  -1.33926  -0.57818 
 C                    -10.85782  -1.12286  -0.06666 
 C                    -10.52588  -2.41051  -0.49653 
 C                    -9.12737  -2.6851   -0.46413 
 C                    -8.40849  -1.61901  -0.01485 
 S                    -9.49348  -0.30638   0.29876 
 C                    -7.02088  -1.52996   0.19783 
 C                    -6.28374  -0.75412   1.10526 
 O                    -6.94156  -0.08786   2.03917 
 C                    -6.11853   0.66774   2.92088 
 C                    -4.87657  -0.96878   0.95677 
 C                    -4.49992  -1.86308  -0.00679 
 S                    -5.91825  -2.33883  -0.90792 
 C                    -3.22812  -2.24189  -0.4337 
 C                    -2.88831  -3.32944  -1.23989 
 C                    -1.41429  -3.51948  -1.40562 
 C                    -0.76435  -2.60186  -0.64933 
 S                    -1.75362  -1.54165   0.1255 
 C                     0.70284  -2.43879  -0.56477 
 C                     1.69931  -2.87638  -1.49836 
 O                     1.22897  -3.39711  -2.73686 
 C                     2.37778  -3.71509  -3.62005 
 C                     2.95889  -2.62246  -1.08349 
 C                     3.07648  -2.08293   0.17958 
 S                     1.44945  -1.8105    0.81794 
 C                     4.20632  -1.63027   0.95107 
 C                     4.25832  -0.87823   2.09179 
 C                     5.61976  -0.67398   2.54899 
 C                     6.62782  -1.1899    1.7003 
 S                     5.8116   -2.00508   0.376 
 C                     7.9953   -1.07925   1.80969 
 C                     8.77002  -1.04039   2.99312 
 O                     8.18445  -1.20115   4.17142 
 C                     9.01026  -1.09851   5.29374 
 C                     10.1677  -0.94431   2.63754 
 C                     10.42693  -0.88253   1.32366 
 S                     9.0513   -0.99033   0.36203 
 C                     11.76002  -0.67794   0.73468 
 C                     12.08074  -0.86778  -0.67234 
 C                     13.44929  -0.5178   -0.93568 
 C                     14.14371  -0.09524   0.20466 
 S                     13.08258  -0.12726   1.55538 
 C                     15.52536   0.40574   0.22689 
 C                     16.21467   1.09712   1.20556 
 O                     15.6082   1.42761   2.34295 
 C                     16.44127   2.08171   3.3161 
 C                     17.60294   1.37447   0.80922 
 C                     17.88962   0.94445  -0.54636 
 S                     16.5036   0.12716  -1.22326 
 C                     19.14347   1.1369   -1.20173 
 C                     19.35054   0.94622  -2.55458 
 C                     20.65534   1.19304  -2.98038 
 C                     21.4281   1.61234  -1.87767 
 S                     20.55189   1.532    -0.47639 
 C                     22.86781   1.90627  -1.98313 
 C                     23.53634   2.97848  -1.24257 
 O                     22.82774   3.7996   -0.44968 
 C                     23.73249   4.66437   0.34556 
 C                     24.99406   2.96594  -1.5856 
 C                     25.26849   1.92149  -2.4277 
 S                     23.99467   1.00532  -2.9394 
 H                    -25.45544   5.49991  -1.41597 
 H                    -23.9932   6.09978   0.71272 
 H                    -22.12282   4.28762   1.25637 
 H                    -23.37054  -1.60687  -0.43219 
 H                    -23.15817  -1.26319  -2.19811 
 H                    -24.74459  -1.18234  -1.49593 
 H                    -21.08291  -1.11815  -1.0352 
 H                    -18.99469  -2.07745  -0.41824 
 H                    -16.40586  -2.42117  -0.17754 
 H                    -14.43955   3.52347   2.5149 
 H                    -13.28116   2.31476   2.88777 
 H                    -13.15196   3.31183   1.35526 
 H                    -11.84614   1.18859   1.30736 
 H                    -11.26708  -3.17898  -0.8888 
 H                    -8.66622  -3.57805  -0.79879 
 H                    -5.42728   0.03247   3.57471 
 H                    -5.49009   1.409     2.39461 
 H                    -6.76592   1.26556   3.59818 
 H                    -4.08154  -0.56409   1.67797 
 H                    -3.55185  -3.93292  -1.81156 
 H                    -0.99536  -4.23556  -1.99425 
 H                     2.89294  -2.7633   -3.90019 
 H                     1.91197  -4.17629  -4.51175 
 H                     3.01249  -4.40578  -3.20718 
 H                     3.84638  -2.83311  -1.66808 
 H                     3.46955  -0.54342   2.58697 
 H                     5.87691  -0.07312   3.35164 
 H                     8.49268  -1.1729    6.22223 
 H                     9.79015  -1.89339   5.32217 
 H                     9.61438  -0.1108    5.36166 
 H                     10.91688  -0.86368   3.40896 
 H                     11.37589  -1.32549  -1.38018 
 H                     13.81893  -0.69034  -1.94772 
 H                     17.2647   1.49954   3.61396 
 H                     15.8692   2.2894    4.14173 
 H                     16.77931   3.07456   2.87097 
 H                     18.24187   1.86776   1.37697 
 H                     18.59652   0.68085  -3.2762 
 H                     21.02419   1.21452  -4.04168 
 H                     24.22208   5.36728  -0.23041 
 H                     24.37827   3.99247   0.98974 
 H                     23.04409   5.25066   1.03714 
 H                     25.6385   3.62097  -1.20571 
 H                     26.24932   1.77278  -2.87372 
 
 ITRead=  0  0  0  0  0  0  0  0  0  0  0  0  0  0  0  0  0  0  0  0
 ITRead=  0  0  0  0  0  0  0  0  0  0  0  0  0  0  0  0  0  0  0  0
 ITRead=  0  0  0  0  0  0  0  0  0  0  0  0  0  0  0  0  0  0  0  0
 ITRead=  0  0  0  0  0  0  0  0  0  0  0  0  0  0  0  0  0  0  0  0
 ITRead=  0  0  0  0  0  0  0  0  0  0  0  0  0  0  0  0  0  0  0  0
 ITRead=  0  0  0  0  0  0  0  0  0  0  0  0  0  0  0  0  0  0  0  0
 ITRead=  0  0  0  0  0  0  0  0
 MicOpt= -1 -1 -1 -1 -1 -1 -1 -1 -1 -1 -1 -1 -1 -1 -1 -1 -1 -1 -1 -1
 MicOpt= -1 -1 -1 -1 -1 -1 -1 -1 -1 -1 -1 -1 -1 -1 -1 -1 -1 -1 -1 -1
 MicOpt= -1 -1 -1 -1 -1 -1 -1 -1 -1 -1 -1 -1 -1 -1 -1 -1 -1 -1 -1 -1
 MicOpt= -1 -1 -1 -1 -1 -1 -1 -1 -1 -1 -1 -1 -1 -1 -1 -1 -1 -1 -1 -1
 MicOpt= -1 -1 -1 -1 -1 -1 -1 -1 -1 -1 -1 -1 -1 -1 -1 -1 -1 -1 -1 -1
 MicOpt= -1 -1 -1 -1 -1 -1 -1 -1 -1 -1 -1 -1 -1 -1 -1 -1 -1 -1 -1 -1
 MicOpt= -1 -1 -1 -1 -1 -1 -1 -1
 NAtoms=    128 NQM=      128 NQMF=       0 NMMI=      0 NMMIF=      0
                NMic=       0 NMicF=      0.
                    Isotopes and Nuclear Properties:
 (Nuclear quadrupole moments (NQMom) in fm**2, nuclear magnetic moments (NMagM)
  in nuclear magnetons)

  Atom         1           2           3           4           5           6           7           8           9          10
 IAtWgt=          12          12          12          12          32          12          12          16          12          12
 AtmWgt=  12.0000000  12.0000000  12.0000000  12.0000000  31.9720718  12.0000000  12.0000000  15.9949146  12.0000000  12.0000000
 NucSpn=           0           0           0           0           0           0           0           0           0           0
 AtZEff=  -0.0000000  -0.0000000  -0.0000000  -0.0000000  -0.0000000  -0.0000000  -0.0000000  -0.0000000  -0.0000000  -0.0000000
 NQMom=    0.0000000   0.0000000   0.0000000   0.0000000   0.0000000   0.0000000   0.0000000   0.0000000   0.0000000   0.0000000
 NMagM=    0.0000000   0.0000000   0.0000000   0.0000000   0.0000000   0.0000000   0.0000000   0.0000000   0.0000000   0.0000000
 AtZNuc=   6.0000000   6.0000000   6.0000000   6.0000000  16.0000000   6.0000000   6.0000000   8.0000000   6.0000000   6.0000000

  Atom        11          12          13          14          15          16          17          18          19          20
 IAtWgt=          12          32          12          12          12          12          32          12          12          16
 AtmWgt=  12.0000000  31.9720718  12.0000000  12.0000000  12.0000000  12.0000000  31.9720718  12.0000000  12.0000000  15.9949146
 NucSpn=           0           0           0           0           0           0           0           0           0           0
 AtZEff=  -0.0000000  -0.0000000  -0.0000000  -0.0000000  -0.0000000  -0.0000000  -0.0000000  -0.0000000  -0.0000000  -0.0000000
 NQMom=    0.0000000   0.0000000   0.0000000   0.0000000   0.0000000   0.0000000   0.0000000   0.0000000   0.0000000   0.0000000
 NMagM=    0.0000000   0.0000000   0.0000000   0.0000000   0.0000000   0.0000000   0.0000000   0.0000000   0.0000000   0.0000000
 AtZNuc=   6.0000000  16.0000000   6.0000000   6.0000000   6.0000000   6.0000000  16.0000000   6.0000000   6.0000000   8.0000000

  Atom        21          22          23          24          25          26          27          28          29          30
 IAtWgt=          12          12          12          32          12          12          12          12          32          12
 AtmWgt=  12.0000000  12.0000000  12.0000000  31.9720718  12.0000000  12.0000000  12.0000000  12.0000000  31.9720718  12.0000000
 NucSpn=           0           0           0           0           0           0           0           0           0           0
 AtZEff=  -0.0000000  -0.0000000  -0.0000000  -0.0000000  -0.0000000  -0.0000000  -0.0000000  -0.0000000  -0.0000000  -0.0000000
 NQMom=    0.0000000   0.0000000   0.0000000   0.0000000   0.0000000   0.0000000   0.0000000   0.0000000   0.0000000   0.0000000
 NMagM=    0.0000000   0.0000000   0.0000000   0.0000000   0.0000000   0.0000000   0.0000000   0.0000000   0.0000000   0.0000000
 AtZNuc=   6.0000000   6.0000000   6.0000000  16.0000000   6.0000000   6.0000000   6.0000000   6.0000000  16.0000000   6.0000000

  Atom        31          32          33          34          35          36          37          38          39          40
 IAtWgt=          12          16          12          12          12          32          12          12          12          12
 AtmWgt=  12.0000000  15.9949146  12.0000000  12.0000000  12.0000000  31.9720718  12.0000000  12.0000000  12.0000000  12.0000000
 NucSpn=           0           0           0           0           0           0           0           0           0           0
 AtZEff=  -0.0000000  -0.0000000  -0.0000000  -0.0000000  -0.0000000  -0.0000000  -0.0000000  -0.0000000  -0.0000000  -0.0000000
 NQMom=    0.0000000   0.0000000   0.0000000   0.0000000   0.0000000   0.0000000   0.0000000   0.0000000   0.0000000   0.0000000
 NMagM=    0.0000000   0.0000000   0.0000000   0.0000000   0.0000000   0.0000000   0.0000000   0.0000000   0.0000000   0.0000000
 AtZNuc=   6.0000000   8.0000000   6.0000000   6.0000000   6.0000000  16.0000000   6.0000000   6.0000000   6.0000000   6.0000000

  Atom        41          42          43          44          45          46          47          48          49          50
 IAtWgt=          32          12          12          16          12          12          12          32          12          12
 AtmWgt=  31.9720718  12.0000000  12.0000000  15.9949146  12.0000000  12.0000000  12.0000000  31.9720718  12.0000000  12.0000000
 NucSpn=           0           0           0           0           0           0           0           0           0           0
 AtZEff=  -0.0000000  -0.0000000  -0.0000000  -0.0000000  -0.0000000  -0.0000000  -0.0000000  -0.0000000  -0.0000000  -0.0000000
 NQMom=    0.0000000   0.0000000   0.0000000   0.0000000   0.0000000   0.0000000   0.0000000   0.0000000   0.0000000   0.0000000
 NMagM=    0.0000000   0.0000000   0.0000000   0.0000000   0.0000000   0.0000000   0.0000000   0.0000000   0.0000000   0.0000000
 AtZNuc=  16.0000000   6.0000000   6.0000000   8.0000000   6.0000000   6.0000000   6.0000000  16.0000000   6.0000000   6.0000000

  Atom        51          52          53          54          55          56          57          58          59          60
 IAtWgt=          12          12          32          12          12          16          12          12          12          32
 AtmWgt=  12.0000000  12.0000000  31.9720718  12.0000000  12.0000000  15.9949146  12.0000000  12.0000000  12.0000000  31.9720718
 NucSpn=           0           0           0           0           0           0           0           0           0           0
 AtZEff=  -0.0000000  -0.0000000  -0.0000000  -0.0000000  -0.0000000  -0.0000000  -0.0000000  -0.0000000  -0.0000000  -0.0000000
 NQMom=    0.0000000   0.0000000   0.0000000   0.0000000   0.0000000   0.0000000   0.0000000   0.0000000   0.0000000   0.0000000
 NMagM=    0.0000000   0.0000000   0.0000000   0.0000000   0.0000000   0.0000000   0.0000000   0.0000000   0.0000000   0.0000000
 AtZNuc=   6.0000000   6.0000000  16.0000000   6.0000000   6.0000000   8.0000000   6.0000000   6.0000000   6.0000000  16.0000000

  Atom        61          62          63          64          65          66          67          68          69          70
 IAtWgt=          12          12          12          12          32          12          12          16          12          12
 AtmWgt=  12.0000000  12.0000000  12.0000000  12.0000000  31.9720718  12.0000000  12.0000000  15.9949146  12.0000000  12.0000000
 NucSpn=           0           0           0           0           0           0           0           0           0           0
 AtZEff=  -0.0000000  -0.0000000  -0.0000000  -0.0000000  -0.0000000  -0.0000000  -0.0000000  -0.0000000  -0.0000000  -0.0000000
 NQMom=    0.0000000   0.0000000   0.0000000   0.0000000   0.0000000   0.0000000   0.0000000   0.0000000   0.0000000   0.0000000
 NMagM=    0.0000000   0.0000000   0.0000000   0.0000000   0.0000000   0.0000000   0.0000000   0.0000000   0.0000000   0.0000000
 AtZNuc=   6.0000000   6.0000000   6.0000000   6.0000000  16.0000000   6.0000000   6.0000000   8.0000000   6.0000000   6.0000000

  Atom        71          72          73          74          75          76          77          78          79          80
 IAtWgt=          12          32          12          12          12          12          32          12          12          16
 AtmWgt=  12.0000000  31.9720718  12.0000000  12.0000000  12.0000000  12.0000000  31.9720718  12.0000000  12.0000000  15.9949146
 NucSpn=           0           0           0           0           0           0           0           0           0           0
 AtZEff=  -0.0000000  -0.0000000  -0.0000000  -0.0000000  -0.0000000  -0.0000000  -0.0000000  -0.0000000  -0.0000000  -0.0000000
 NQMom=    0.0000000   0.0000000   0.0000000   0.0000000   0.0000000   0.0000000   0.0000000   0.0000000   0.0000000   0.0000000
 NMagM=    0.0000000   0.0000000   0.0000000   0.0000000   0.0000000   0.0000000   0.0000000   0.0000000   0.0000000   0.0000000
 AtZNuc=   6.0000000  16.0000000   6.0000000   6.0000000   6.0000000   6.0000000  16.0000000   6.0000000   6.0000000   8.0000000

  Atom        81          82          83          84          85          86          87          88          89          90
 IAtWgt=          12          12          12          32           1           1           1           1           1           1
 AtmWgt=  12.0000000  12.0000000  12.0000000  31.9720718   1.0078250   1.0078250   1.0078250   1.0078250   1.0078250   1.0078250
 NucSpn=           0           0           0           0           1           1           1           1           1           1
 AtZEff=  -0.0000000  -0.0000000  -0.0000000  -0.0000000  -0.0000000  -0.0000000  -0.0000000  -0.0000000  -0.0000000  -0.0000000
 NQMom=    0.0000000   0.0000000   0.0000000   0.0000000   0.0000000   0.0000000   0.0000000   0.0000000   0.0000000   0.0000000
 NMagM=    0.0000000   0.0000000   0.0000000   0.0000000   2.7928460   2.7928460   2.7928460   2.7928460   2.7928460   2.7928460
 AtZNuc=   6.0000000   6.0000000   6.0000000  16.0000000   1.0000000   1.0000000   1.0000000   1.0000000   1.0000000   1.0000000

  Atom        91          92          93          94          95          96          97          98          99         100
 IAtWgt=           1           1           1           1           1           1           1           1           1           1
 AtmWgt=   1.0078250   1.0078250   1.0078250   1.0078250   1.0078250   1.0078250   1.0078250   1.0078250   1.0078250   1.0078250
 NucSpn=           1           1           1           1           1           1           1           1           1           1
 AtZEff=  -0.0000000  -0.0000000  -0.0000000  -0.0000000  -0.0000000  -0.0000000  -0.0000000  -0.0000000  -0.0000000  -0.0000000
 NQMom=    0.0000000   0.0000000   0.0000000   0.0000000   0.0000000   0.0000000   0.0000000   0.0000000   0.0000000   0.0000000
 NMagM=    2.7928460   2.7928460   2.7928460   2.7928460   2.7928460   2.7928460   2.7928460   2.7928460   2.7928460   2.7928460
 AtZNuc=   1.0000000   1.0000000   1.0000000   1.0000000   1.0000000   1.0000000   1.0000000   1.0000000   1.0000000   1.0000000

  Atom       101         102         103         104         105         106         107         108         109         110
 IAtWgt=           1           1           1           1           1           1           1           1           1           1
 AtmWgt=   1.0078250   1.0078250   1.0078250   1.0078250   1.0078250   1.0078250   1.0078250   1.0078250   1.0078250   1.0078250
 NucSpn=           1           1           1           1           1           1           1           1           1           1
 AtZEff=  -0.0000000  -0.0000000  -0.0000000  -0.0000000  -0.0000000  -0.0000000  -0.0000000  -0.0000000  -0.0000000  -0.0000000
 NQMom=    0.0000000   0.0000000   0.0000000   0.0000000   0.0000000   0.0000000   0.0000000   0.0000000   0.0000000   0.0000000
 NMagM=    2.7928460   2.7928460   2.7928460   2.7928460   2.7928460   2.7928460   2.7928460   2.7928460   2.7928460   2.7928460
 AtZNuc=   1.0000000   1.0000000   1.0000000   1.0000000   1.0000000   1.0000000   1.0000000   1.0000000   1.0000000   1.0000000

  Atom       111         112         113         114         115         116         117         118         119         120
 IAtWgt=           1           1           1           1           1           1           1           1           1           1
 AtmWgt=   1.0078250   1.0078250   1.0078250   1.0078250   1.0078250   1.0078250   1.0078250   1.0078250   1.0078250   1.0078250
 NucSpn=           1           1           1           1           1           1           1           1           1           1
 AtZEff=  -0.0000000  -0.0000000  -0.0000000  -0.0000000  -0.0000000  -0.0000000  -0.0000000  -0.0000000  -0.0000000  -0.0000000
 NQMom=    0.0000000   0.0000000   0.0000000   0.0000000   0.0000000   0.0000000   0.0000000   0.0000000   0.0000000   0.0000000
 NMagM=    2.7928460   2.7928460   2.7928460   2.7928460   2.7928460   2.7928460   2.7928460   2.7928460   2.7928460   2.7928460
 AtZNuc=   1.0000000   1.0000000   1.0000000   1.0000000   1.0000000   1.0000000   1.0000000   1.0000000   1.0000000   1.0000000

  Atom       121         122         123         124         125         126         127         128
 IAtWgt=           1           1           1           1           1           1           1           1
 AtmWgt=   1.0078250   1.0078250   1.0078250   1.0078250   1.0078250   1.0078250   1.0078250   1.0078250
 NucSpn=           1           1           1           1           1           1           1           1
 AtZEff=  -0.0000000  -0.0000000  -0.0000000  -0.0000000  -0.0000000  -0.0000000  -0.0000000  -0.0000000
 NQMom=    0.0000000   0.0000000   0.0000000   0.0000000   0.0000000   0.0000000   0.0000000   0.0000000
 NMagM=    2.7928460   2.7928460   2.7928460   2.7928460   2.7928460   2.7928460   2.7928460   2.7928460
 AtZNuc=   1.0000000   1.0000000   1.0000000   1.0000000   1.0000000   1.0000000   1.0000000   1.0000000
 Leave Link  101 at Fri Jul 24 15:24:37 2020, MaxMem=  4026531840 cpu:               3.9 elap:               0.5
 (Enter /opt/ohpc/pub/libs/gaussian/g16-A.03/sandybridge/g16/l103.exe)

 GradGradGradGradGradGradGradGradGradGradGradGradGradGradGradGradGradGrad
 Berny optimization.
 Initialization pass.
                           ----------------------------
                           !    Initial Parameters    !
                           ! (Angstroms and Degrees)  !
 --------------------------                            --------------------------
 ! Name  Definition              Value          Derivative Info.                !
 --------------------------------------------------------------------------------
 ! R1    R(1,2)                  1.307          estimate D2E/DX2                !
 ! R2    R(1,5)                  1.7499         estimate D2E/DX2                !
 ! R3    R(1,85)                 1.1275         estimate D2E/DX2                !
 ! R4    R(2,3)                  1.4677         estimate D2E/DX2                !
 ! R5    R(2,86)                 1.054          estimate D2E/DX2                !
 ! R6    R(3,4)                  1.4095         estimate D2E/DX2                !
 ! R7    R(3,87)                 1.0637         estimate D2E/DX2                !
 ! R8    R(4,5)                  1.7138         estimate D2E/DX2                !
 ! R9    R(4,6)                  1.4286         estimate D2E/DX2                !
 ! R10   R(6,7)                  1.3529         estimate D2E/DX2                !
 ! R11   R(6,12)                 1.7399         estimate D2E/DX2                !
 ! R12   R(7,8)                  1.4352         estimate D2E/DX2                !
 ! R13   R(7,10)                 1.3789         estimate D2E/DX2                !
 ! R14   R(8,9)                  1.3521         estimate D2E/DX2                !
 ! R15   R(9,88)                 1.1243         estimate D2E/DX2                !
 ! R16   R(9,89)                 1.107          estimate D2E/DX2                !
 ! R17   R(9,90)                 1.089          estimate D2E/DX2                !
 ! R18   R(10,11)                1.3387         estimate D2E/DX2                !
 ! R19   R(10,91)                1.1364         estimate D2E/DX2                !
 ! R20   R(11,12)                1.788          estimate D2E/DX2                !
 ! R21   R(11,13)                1.477          estimate D2E/DX2                !
 ! R22   R(13,14)                1.2981         estimate D2E/DX2                !
 ! R23   R(13,17)                1.723          estimate D2E/DX2                !
 ! R24   R(14,15)                1.4445         estimate D2E/DX2                !
 ! R25   R(14,92)                1.1662         estimate D2E/DX2                !
 ! R26   R(15,16)                1.4114         estimate D2E/DX2                !
 ! R27   R(15,93)                0.998          estimate D2E/DX2                !
 ! R28   R(16,17)                1.7209         estimate D2E/DX2                !
 ! R29   R(16,18)                1.4347         estimate D2E/DX2                !
 ! R30   R(18,19)                1.4275         estimate D2E/DX2                !
 ! R31   R(18,24)                1.6518         estimate D2E/DX2                !
 ! R32   R(19,20)                1.2874         estimate D2E/DX2                !
 ! R33   R(19,22)                1.4714         estimate D2E/DX2                !
 ! R34   R(20,21)                1.4641         estimate D2E/DX2                !
 ! R35   R(21,94)                1.0369         estimate D2E/DX2                !
 ! R36   R(21,95)                1.0434         estimate D2E/DX2                !
 ! R37   R(21,96)                1.1406         estimate D2E/DX2                !
 ! R38   R(22,23)                1.3656         estimate D2E/DX2                !
 ! R39   R(22,97)                1.1046         estimate D2E/DX2                !
 ! R40   R(23,24)                1.797          estimate D2E/DX2                !
 ! R41   R(23,25)                1.4499         estimate D2E/DX2                !
 ! R42   R(25,26)                1.3975         estimate D2E/DX2                !
 ! R43   R(25,29)                1.6314         estimate D2E/DX2                !
 ! R44   R(26,27)                1.4256         estimate D2E/DX2                !
 ! R45   R(26,98)                1.1375         estimate D2E/DX2                !
 ! R46   R(27,28)                1.3621         estimate D2E/DX2                !
 ! R47   R(27,99)                1.0593         estimate D2E/DX2                !
 ! R48   R(28,29)                1.7316         estimate D2E/DX2                !
 ! R49   R(28,30)                1.4066         estimate D2E/DX2                !
 ! R50   R(30,31)                1.4031         estimate D2E/DX2                !
 ! R51   R(30,36)                1.7586         estimate D2E/DX2                !
 ! R52   R(31,32)                1.3224         estimate D2E/DX2                !
 ! R53   R(31,34)                1.4312         estimate D2E/DX2                !
 ! R54   R(32,33)                1.4233         estimate D2E/DX2                !
 ! R55   R(33,100)               1.1441         estimate D2E/DX2                !
 ! R56   R(33,101)               1.1052         estimate D2E/DX2                !
 ! R57   R(33,102)               1.1114         estimate D2E/DX2                !
 ! R58   R(34,35)                1.3675         estimate D2E/DX2                !
 ! R59   R(34,103)               1.1472         estimate D2E/DX2                !
 ! R60   R(35,36)                1.7464         estimate D2E/DX2                !
 ! R61   R(35,37)                1.394          estimate D2E/DX2                !
 ! R62   R(37,38)                1.3958         estimate D2E/DX2                !
 ! R63   R(37,41)                1.7255         estimate D2E/DX2                !
 ! R64   R(38,39)                1.4954         estimate D2E/DX2                !
 ! R65   R(38,104)               1.0636         estimate D2E/DX2                !
 ! R66   R(39,40)                1.3551         estimate D2E/DX2                !
 ! R67   R(39,105)               1.0172         estimate D2E/DX2                !
 ! R68   R(40,41)                1.6441         estimate D2E/DX2                !
 ! R69   R(40,42)                1.4786         estimate D2E/DX2                !
 ! R70   R(42,43)                1.4339         estimate D2E/DX2                !
 ! R71   R(42,48)                1.6924         estimate D2E/DX2                !
 ! R72   R(43,44)                1.4235         estimate D2E/DX2                !
 ! R73   R(43,46)                1.3502         estimate D2E/DX2                !
 ! R74   R(44,45)                1.4835         estimate D2E/DX2                !
 ! R75   R(45,106)               1.1179         estimate D2E/DX2                !
 ! R76   R(45,107)               1.1067         estimate D2E/DX2                !
 ! R77   R(45,108)               1.0249         estimate D2E/DX2                !
 ! R78   R(46,47)                1.3785         estimate D2E/DX2                !
 ! R79   R(46,109)               1.0834         estimate D2E/DX2                !
 ! R80   R(47,48)                1.7689         estimate D2E/DX2                !
 ! R81   R(47,49)                1.4411         estimate D2E/DX2                !
 ! R82   R(49,50)                1.3673         estimate D2E/DX2                !
 ! R83   R(49,53)                1.7459         estimate D2E/DX2                !
 ! R84   R(50,51)                1.4506         estimate D2E/DX2                !
 ! R85   R(50,110)               0.9897         estimate D2E/DX2                !
 ! R86   R(51,52)                1.4151         estimate D2E/DX2                !
 ! R87   R(51,111)               1.0351         estimate D2E/DX2                !
 ! R88   R(52,53)                1.7563         estimate D2E/DX2                !
 ! R89   R(52,54)                1.3763         estimate D2E/DX2                !
 ! R90   R(54,55)                1.415          estimate D2E/DX2                !
 ! R91   R(54,60)                1.7941         estimate D2E/DX2                !
 ! R92   R(55,56)                1.3256         estimate D2E/DX2                !
 ! R93   R(55,58)                1.4454         estimate D2E/DX2                !
 ! R94   R(56,57)                1.3972         estimate D2E/DX2                !
 ! R95   R(57,112)               1.0656         estimate D2E/DX2                !
 ! R96   R(57,113)               1.1139         estimate D2E/DX2                !
 ! R97   R(57,114)               1.1598         estimate D2E/DX2                !
 ! R98   R(58,59)                1.3406         estimate D2E/DX2                !
 ! R99   R(58,115)               1.0784         estimate D2E/DX2                !
 ! R100  R(59,60)                1.6819         estimate D2E/DX2                !
 ! R101  R(59,61)                1.4717         estimate D2E/DX2                !
 ! R102  R(61,62)                1.4555         estimate D2E/DX2                !
 ! R103  R(61,65)                1.651          estimate D2E/DX2                !
 ! R104  R(62,63)                1.4369         estimate D2E/DX2                !
 ! R105  R(62,116)               1.0988         estimate D2E/DX2                !
 ! R106  R(63,64)                1.4004         estimate D2E/DX2                !
 ! R107  R(63,117)               1.0912         estimate D2E/DX2                !
 ! R108  R(64,65)                1.718          estimate D2E/DX2                !
 ! R109  R(64,66)                1.4698         estimate D2E/DX2                !
 ! R110  R(66,67)                1.3824         estimate D2E/DX2                !
 ! R111  R(66,72)                1.7713         estimate D2E/DX2                !
 ! R112  R(67,68)                1.3307         estimate D2E/DX2                !
 ! R113  R(67,70)                1.4701         estimate D2E/DX2                !
 ! R114  R(68,69)                1.4384         estimate D2E/DX2                !
 ! R115  R(69,118)               1.0515         estimate D2E/DX2                !
 ! R116  R(69,119)               1.0257         estimate D2E/DX2                !
 ! R117  R(69,120)               1.1394         estimate D2E/DX2                !
 ! R118  R(70,71)                1.4508         estimate D2E/DX2                !
 ! R119  R(70,121)               0.9869         estimate D2E/DX2                !
 ! R120  R(71,72)                1.7456         estimate D2E/DX2                !
 ! R121  R(71,73)                1.4278         estimate D2E/DX2                !
 ! R122  R(73,74)                1.3818         estimate D2E/DX2                !
 ! R123  R(73,77)                1.6327         estimate D2E/DX2                !
 ! R124  R(74,75)                1.3945         estimate D2E/DX2                !
 ! R125  R(74,122)               1.0769         estimate D2E/DX2                !
 ! R126  R(75,76)                1.4103         estimate D2E/DX2                !
 ! R127  R(75,123)               1.1238         estimate D2E/DX2                !
 ! R128  R(76,77)                1.6546         estimate D2E/DX2                !
 ! R129  R(76,78)                1.4732         estimate D2E/DX2                !
 ! R130  R(78,79)                1.4646         estimate D2E/DX2                !
 ! R131  R(78,84)                1.7309         estimate D2E/DX2                !
 ! R132  R(79,80)                1.3435         estimate D2E/DX2                !
 ! R133  R(79,82)                1.4976         estimate D2E/DX2                !
 ! R134  R(80,81)                1.4828         estimate D2E/DX2                !
 ! R135  R(81,124)               1.0322         estimate D2E/DX2                !
 ! R136  R(81,125)               1.1329         estimate D2E/DX2                !
 ! R137  R(81,126)               1.1384         estimate D2E/DX2                !
 ! R138  R(82,83)                1.3694         estimate D2E/DX2                !
 ! R139  R(82,127)               0.9943         estimate D2E/DX2                !
 ! R140  R(83,84)                1.6504         estimate D2E/DX2                !
 ! R141  R(83,128)               1.0877         estimate D2E/DX2                !
 ! A1    A(2,1,5)              109.7194         estimate D2E/DX2                !
 ! A2    A(2,1,85)             132.318          estimate D2E/DX2                !
 ! A3    A(5,1,85)             117.9605         estimate D2E/DX2                !
 ! A4    A(1,2,3)              115.9939         estimate D2E/DX2                !
 ! A5    A(1,2,86)             123.6962         estimate D2E/DX2                !
 ! A6    A(3,2,86)             120.1398         estimate D2E/DX2                !
 ! A7    A(2,3,4)              110.2927         estimate D2E/DX2                !
 ! A8    A(2,3,87)             128.4846         estimate D2E/DX2                !
 ! A9    A(4,3,87)             121.2222         estimate D2E/DX2                !
 ! A10   A(3,4,5)              109.89           estimate D2E/DX2                !
 ! A11   A(3,4,6)              130.8093         estimate D2E/DX2                !
 ! A12   A(5,4,6)              119.2067         estimate D2E/DX2                !
 ! A13   A(1,5,4)               94.0388         estimate D2E/DX2                !
 ! A14   A(4,6,7)              132.3668         estimate D2E/DX2                !
 ! A15   A(4,6,12)             116.1512         estimate D2E/DX2                !
 ! A16   A(7,6,12)             111.2321         estimate D2E/DX2                !
 ! A17   A(6,7,8)              117.905          estimate D2E/DX2                !
 ! A18   A(6,7,10)             112.4695         estimate D2E/DX2                !
 ! A19   A(8,7,10)             129.2955         estimate D2E/DX2                !
 ! A20   A(7,8,9)              112.3996         estimate D2E/DX2                !
 ! A21   A(8,9,88)             114.2278         estimate D2E/DX2                !
 ! A22   A(8,9,89)             111.9956         estimate D2E/DX2                !
 ! A23   A(8,9,90)             109.176          estimate D2E/DX2                !
 ! A24   A(88,9,89)            108.5552         estimate D2E/DX2                !
 ! A25   A(88,9,90)            107.8312         estimate D2E/DX2                !
 ! A26   A(89,9,90)            104.5316         estimate D2E/DX2                !
 ! A27   A(7,10,11)            117.6783         estimate D2E/DX2                !
 ! A28   A(7,10,91)            122.2533         estimate D2E/DX2                !
 ! A29   A(11,10,91)           119.7192         estimate D2E/DX2                !
 ! A30   A(10,11,12)           107.4071         estimate D2E/DX2                !
 ! A31   A(10,11,13)           130.0877         estimate D2E/DX2                !
 ! A32   A(12,11,13)           122.505          estimate D2E/DX2                !
 ! A33   A(6,12,11)             91.1132         estimate D2E/DX2                !
 ! A34   A(11,13,14)           126.7202         estimate D2E/DX2                !
 ! A35   A(11,13,17)           123.5321         estimate D2E/DX2                !
 ! A36   A(14,13,17)           109.7418         estimate D2E/DX2                !
 ! A37   A(13,14,15)           117.1977         estimate D2E/DX2                !
 ! A38   A(13,14,92)           123.5727         estimate D2E/DX2                !
 ! A39   A(15,14,92)           119.1847         estimate D2E/DX2                !
 ! A40   A(14,15,16)           109.5121         estimate D2E/DX2                !
 ! A41   A(14,15,93)           126.8753         estimate D2E/DX2                !
 ! A42   A(16,15,93)           123.5837         estimate D2E/DX2                !
 ! A43   A(15,16,17)           109.4472         estimate D2E/DX2                !
 ! A44   A(15,16,18)           126.6476         estimate D2E/DX2                !
 ! A45   A(17,16,18)           123.5808         estimate D2E/DX2                !
 ! A46   A(13,17,16)            93.8435         estimate D2E/DX2                !
 ! A47   A(16,18,19)           124.0516         estimate D2E/DX2                !
 ! A48   A(16,18,24)           120.3519         estimate D2E/DX2                !
 ! A49   A(19,18,24)           115.4754         estimate D2E/DX2                !
 ! A50   A(18,19,20)           125.1783         estimate D2E/DX2                !
 ! A51   A(18,19,22)           106.8513         estimate D2E/DX2                !
 ! A52   A(20,19,22)           127.7768         estimate D2E/DX2                !
 ! A53   A(19,20,21)           118.5951         estimate D2E/DX2                !
 ! A54   A(20,21,94)           109.1023         estimate D2E/DX2                !
 ! A55   A(20,21,95)           106.944          estimate D2E/DX2                !
 ! A56   A(20,21,96)           109.1184         estimate D2E/DX2                !
 ! A57   A(94,21,95)           111.071          estimate D2E/DX2                !
 ! A58   A(94,21,96)           106.488          estimate D2E/DX2                !
 ! A59   A(95,21,96)           114.0481         estimate D2E/DX2                !
 ! A60   A(19,22,23)           116.7845         estimate D2E/DX2                !
 ! A61   A(19,22,97)           121.4262         estimate D2E/DX2                !
 ! A62   A(23,22,97)           121.7036         estimate D2E/DX2                !
 ! A63   A(22,23,24)           107.6717         estimate D2E/DX2                !
 ! A64   A(22,23,25)           128.8342         estimate D2E/DX2                !
 ! A65   A(24,23,25)           123.0019         estimate D2E/DX2                !
 ! A66   A(18,24,23)            93.1036         estimate D2E/DX2                !
 ! A67   A(23,25,26)           127.6266         estimate D2E/DX2                !
 ! A68   A(23,25,29)           123.0191         estimate D2E/DX2                !
 ! A69   A(26,25,29)           109.353          estimate D2E/DX2                !
 ! A70   A(25,26,27)           113.7972         estimate D2E/DX2                !
 ! A71   A(25,26,98)           125.0162         estimate D2E/DX2                !
 ! A72   A(27,26,98)           121.1281         estimate D2E/DX2                !
 ! A73   A(26,27,28)           111.9934         estimate D2E/DX2                !
 ! A74   A(26,27,99)           125.6115         estimate D2E/DX2                !
 ! A75   A(28,27,99)           122.2938         estimate D2E/DX2                !
 ! A76   A(27,28,29)           108.8057         estimate D2E/DX2                !
 ! A77   A(27,28,30)           128.3217         estimate D2E/DX2                !
 ! A78   A(29,28,30)           122.8691         estimate D2E/DX2                !
 ! A79   A(25,29,28)            95.9726         estimate D2E/DX2                !
 ! A80   A(28,30,31)           130.6202         estimate D2E/DX2                !
 ! A81   A(28,30,36)           119.6248         estimate D2E/DX2                !
 ! A82   A(31,30,36)           109.364          estimate D2E/DX2                !
 ! A83   A(30,31,32)           118.2925         estimate D2E/DX2                !
 ! A84   A(30,31,34)           111.5006         estimate D2E/DX2                !
 ! A85   A(32,31,34)           129.6377         estimate D2E/DX2                !
 ! A86   A(31,32,33)           114.6648         estimate D2E/DX2                !
 ! A87   A(32,33,100)          114.1193         estimate D2E/DX2                !
 ! A88   A(32,33,101)          112.9492         estimate D2E/DX2                !
 ! A89   A(32,33,102)          109.0412         estimate D2E/DX2                !
 ! A90   A(100,33,101)         107.518          estimate D2E/DX2                !
 ! A91   A(100,33,102)         107.5983         estimate D2E/DX2                !
 ! A92   A(101,33,102)         105.1086         estimate D2E/DX2                !
 ! A93   A(31,34,35)           116.2314         estimate D2E/DX2                !
 ! A94   A(31,34,103)          124.2826         estimate D2E/DX2                !
 ! A95   A(35,34,103)          118.8685         estimate D2E/DX2                !
 ! A96   A(34,35,36)           108.544          estimate D2E/DX2                !
 ! A97   A(34,35,37)           130.1488         estimate D2E/DX2                !
 ! A98   A(36,35,37)           120.5903         estimate D2E/DX2                !
 ! A99   A(30,36,35)            93.4093         estimate D2E/DX2                !
 ! A100  A(35,37,38)           127.6431         estimate D2E/DX2                !
 ! A101  A(35,37,41)           124.7585         estimate D2E/DX2                !
 ! A102  A(38,37,41)           107.1784         estimate D2E/DX2                !
 ! A103  A(37,38,39)           113.7661         estimate D2E/DX2                !
 ! A104  A(37,38,104)          126.9165         estimate D2E/DX2                !
 ! A105  A(39,38,104)          118.8979         estimate D2E/DX2                !
 ! A106  A(38,39,40)           108.9562         estimate D2E/DX2                !
 ! A107  A(38,39,105)          124.0231         estimate D2E/DX2                !
 ! A108  A(40,39,105)          127.0196         estimate D2E/DX2                !
 ! A109  A(39,40,41)           114.2729         estimate D2E/DX2                !
 ! A110  A(39,40,42)           125.626          estimate D2E/DX2                !
 ! A111  A(41,40,42)           119.9324         estimate D2E/DX2                !
 ! A112  A(37,41,40)            95.7253         estimate D2E/DX2                !
 ! A113  A(40,42,43)           128.2188         estimate D2E/DX2                !
 ! A114  A(40,42,48)           121.6966         estimate D2E/DX2                !
 ! A115  A(43,42,48)           109.7961         estimate D2E/DX2                !
 ! A116  A(42,43,44)           116.6476         estimate D2E/DX2                !
 ! A117  A(42,43,46)           113.0067         estimate D2E/DX2                !
 ! A118  A(44,43,46)           130.1181         estimate D2E/DX2                !
 ! A119  A(43,44,45)           109.9078         estimate D2E/DX2                !
 ! A120  A(44,45,106)          108.8775         estimate D2E/DX2                !
 ! A121  A(44,45,107)          104.0673         estimate D2E/DX2                !
 ! A122  A(44,45,108)          112.5934         estimate D2E/DX2                !
 ! A123  A(106,45,107)         110.2949         estimate D2E/DX2                !
 ! A124  A(106,45,108)         112.9126         estimate D2E/DX2                !
 ! A125  A(107,45,108)         107.7219         estimate D2E/DX2                !
 ! A126  A(43,46,47)           115.7668         estimate D2E/DX2                !
 ! A127  A(43,46,109)          124.1814         estimate D2E/DX2                !
 ! A128  A(47,46,109)          120.0413         estimate D2E/DX2                !
 ! A129  A(46,47,48)           108.2088         estimate D2E/DX2                !
 ! A130  A(46,47,49)           132.8715         estimate D2E/DX2                !
 ! A131  A(48,47,49)           118.6581         estimate D2E/DX2                !
 ! A132  A(42,48,47)            93.0816         estimate D2E/DX2                !
 ! A133  A(47,49,50)           130.4836         estimate D2E/DX2                !
 ! A134  A(47,49,53)           118.4971         estimate D2E/DX2                !
 ! A135  A(50,49,53)           110.9727         estimate D2E/DX2                !
 ! A136  A(49,50,51)           112.091          estimate D2E/DX2                !
 ! A137  A(49,50,110)          124.9734         estimate D2E/DX2                !
 ! A138  A(51,50,110)          122.8662         estimate D2E/DX2                !
 ! A139  A(50,51,52)           115.3534         estimate D2E/DX2                !
 ! A140  A(50,51,111)          124.0068         estimate D2E/DX2                !
 ! A141  A(52,51,111)          119.9812         estimate D2E/DX2                !
 ! A142  A(51,52,53)           106.8802         estimate D2E/DX2                !
 ! A143  A(51,52,54)           129.1088         estimate D2E/DX2                !
 ! A144  A(53,52,54)           123.9875         estimate D2E/DX2                !
 ! A145  A(49,53,52)            94.5483         estimate D2E/DX2                !
 ! A146  A(52,54,55)           127.7832         estimate D2E/DX2                !
 ! A147  A(52,54,60)           121.6467         estimate D2E/DX2                !
 ! A148  A(55,54,60)           110.5626         estimate D2E/DX2                !
 ! A149  A(54,55,56)           119.8837         estimate D2E/DX2                !
 ! A150  A(54,55,58)           108.9961         estimate D2E/DX2                !
 ! A151  A(56,55,58)           130.8369         estimate D2E/DX2                !
 ! A152  A(55,56,57)           116.3612         estimate D2E/DX2                !
 ! A153  A(56,57,112)          114.0611         estimate D2E/DX2                !
 ! A154  A(56,57,113)          112.451          estimate D2E/DX2                !
 ! A155  A(56,57,114)          114.6753         estimate D2E/DX2                !
 ! A156  A(112,57,113)         105.5454         estimate D2E/DX2                !
 ! A157  A(112,57,114)         105.1543         estimate D2E/DX2                !
 ! A158  A(113,57,114)         103.9757         estimate D2E/DX2                !
 ! A159  A(55,58,59)           115.5402         estimate D2E/DX2                !
 ! A160  A(55,58,115)          120.0522         estimate D2E/DX2                !
 ! A161  A(59,58,115)          124.2845         estimate D2E/DX2                !
 ! A162  A(58,59,60)           113.5308         estimate D2E/DX2                !
 ! A163  A(58,59,61)           125.0141         estimate D2E/DX2                !
 ! A164  A(60,59,61)           121.3974         estimate D2E/DX2                !
 ! A165  A(54,60,59)            91.332          estimate D2E/DX2                !
 ! A166  A(59,61,62)           124.6333         estimate D2E/DX2                !
 ! A167  A(59,61,65)           124.9621         estimate D2E/DX2                !
 ! A168  A(62,61,65)           110.3348         estimate D2E/DX2                !
 ! A169  A(61,62,63)           110.8084         estimate D2E/DX2                !
 ! A170  A(61,62,116)          122.3922         estimate D2E/DX2                !
 ! A171  A(63,62,116)          126.466          estimate D2E/DX2                !
 ! A172  A(62,63,64)           113.3613         estimate D2E/DX2                !
 ! A173  A(62,63,117)          117.0071         estimate D2E/DX2                !
 ! A174  A(64,63,117)          129.4188         estimate D2E/DX2                !
 ! A175  A(63,64,65)           109.1668         estimate D2E/DX2                !
 ! A176  A(63,64,66)           125.5401         estimate D2E/DX2                !
 ! A177  A(65,64,66)           125.1038         estimate D2E/DX2                !
 ! A178  A(61,65,64)            96.3253         estimate D2E/DX2                !
 ! A179  A(64,66,67)           130.5341         estimate D2E/DX2                !
 ! A180  A(64,66,72)           116.9459         estimate D2E/DX2                !
 ! A181  A(67,66,72)           112.512          estimate D2E/DX2                !
 ! A182  A(66,67,68)           120.1378         estimate D2E/DX2                !
 ! A183  A(66,67,70)           111.9854         estimate D2E/DX2                !
 ! A184  A(68,67,70)           127.8767         estimate D2E/DX2                !
 ! A185  A(67,68,69)           115.2946         estimate D2E/DX2                !
 ! A186  A(68,69,118)          113.1679         estimate D2E/DX2                !
 ! A187  A(68,69,119)          108.2799         estimate D2E/DX2                !
 ! A188  A(68,69,120)          107.6852         estimate D2E/DX2                !
 ! A189  A(118,69,119)         108.7143         estimate D2E/DX2                !
 ! A190  A(118,69,120)         111.148          estimate D2E/DX2                !
 ! A191  A(119,69,120)         107.6683         estimate D2E/DX2                !
 ! A192  A(67,70,71)           112.4939         estimate D2E/DX2                !
 ! A193  A(67,70,121)          123.4072         estimate D2E/DX2                !
 ! A194  A(71,70,121)          123.9029         estimate D2E/DX2                !
 ! A195  A(70,71,72)           110.1336         estimate D2E/DX2                !
 ! A196  A(70,71,73)           124.2263         estimate D2E/DX2                !
 ! A197  A(72,71,73)           125.6172         estimate D2E/DX2                !
 ! A198  A(66,72,71)            92.717          estimate D2E/DX2                !
 ! A199  A(71,73,74)           124.2196         estimate D2E/DX2                !
 ! A200  A(71,73,77)           125.888          estimate D2E/DX2                !
 ! A201  A(74,73,77)           109.82           estimate D2E/DX2                !
 ! A202  A(73,74,75)           114.5012         estimate D2E/DX2                !
 ! A203  A(73,74,122)          125.812          estimate D2E/DX2                !
 ! A204  A(75,74,122)          119.6129         estimate D2E/DX2                !
 ! A205  A(74,75,76)           109.0604         estimate D2E/DX2                !
 ! A206  A(74,75,123)          126.7873         estimate D2E/DX2                !
 ! A207  A(76,75,123)          123.5662         estimate D2E/DX2                !
 ! A208  A(75,76,77)           110.9518         estimate D2E/DX2                !
 ! A209  A(75,76,78)           122.6045         estimate D2E/DX2                !
 ! A210  A(77,76,78)           126.0031         estimate D2E/DX2                !
 ! A211  A(73,77,76)            95.2968         estimate D2E/DX2                !
 ! A212  A(76,78,79)           123.7775         estimate D2E/DX2                !
 ! A213  A(76,78,84)           124.8848         estimate D2E/DX2                !
 ! A214  A(79,78,84)           111.2996         estimate D2E/DX2                !
 ! A215  A(78,79,80)           120.3377         estimate D2E/DX2                !
 ! A216  A(78,79,82)           108.8063         estimate D2E/DX2                !
 ! A217  A(80,79,82)           130.8193         estimate D2E/DX2                !
 ! A218  A(79,80,81)           110.556          estimate D2E/DX2                !
 ! A219  A(80,81,124)          112.7849         estimate D2E/DX2                !
 ! A220  A(80,81,125)          107.8709         estimate D2E/DX2                !
 ! A221  A(80,81,126)          104.9036         estimate D2E/DX2                !
 ! A222  A(124,81,125)         116.7935         estimate D2E/DX2                !
 ! A223  A(124,81,126)         105.9669         estimate D2E/DX2                !
 ! A224  A(125,81,126)         107.741          estimate D2E/DX2                !
 ! A225  A(79,82,83)           110.017          estimate D2E/DX2                !
 ! A226  A(79,82,127)          122.5368         estimate D2E/DX2                !
 ! A227  A(83,82,127)          127.4083         estimate D2E/DX2                !
 ! A228  A(82,83,84)           117.3466         estimate D2E/DX2                !
 ! A229  A(82,83,128)          122.4893         estimate D2E/DX2                !
 ! A230  A(84,83,128)          119.5355         estimate D2E/DX2                !
 ! A231  A(78,84,83)            92.4208         estimate D2E/DX2                !
 ! D1    D(5,1,2,3)             -2.802          estimate D2E/DX2                !
 ! D2    D(5,1,2,86)          -178.0555         estimate D2E/DX2                !
 ! D3    D(85,1,2,3)           176.6398         estimate D2E/DX2                !
 ! D4    D(85,1,2,86)            1.3862         estimate D2E/DX2                !
 ! D5    D(2,1,5,4)              2.1812         estimate D2E/DX2                !
 ! D6    D(85,1,5,4)          -177.3515         estimate D2E/DX2                !
 ! D7    D(1,2,3,4)              2.1357         estimate D2E/DX2                !
 ! D8    D(1,2,3,87)          -178.0948         estimate D2E/DX2                !
 ! D9    D(86,2,3,4)           177.5697         estimate D2E/DX2                !
 ! D10   D(86,2,3,87)           -2.6608         estimate D2E/DX2                !
 ! D11   D(2,3,4,5)             -0.3541         estimate D2E/DX2                !
 ! D12   D(2,3,4,6)            176.0097         estimate D2E/DX2                !
 ! D13   D(87,3,4,5)           179.8569         estimate D2E/DX2                !
 ! D14   D(87,3,4,6)            -3.7793         estimate D2E/DX2                !
 ! D15   D(3,4,5,1)             -0.9662         estimate D2E/DX2                !
 ! D16   D(6,4,5,1)           -177.8137         estimate D2E/DX2                !
 ! D17   D(3,4,6,7)            136.8543         estimate D2E/DX2                !
 ! D18   D(3,4,6,12)           -36.8009         estimate D2E/DX2                !
 ! D19   D(5,4,6,7)            -47.0635         estimate D2E/DX2                !
 ! D20   D(5,4,6,12)           139.2814         estimate D2E/DX2                !
 ! D21   D(4,6,7,8)             -0.4587         estimate D2E/DX2                !
 ! D22   D(4,6,7,10)          -174.476          estimate D2E/DX2                !
 ! D23   D(12,6,7,8)           173.4321         estimate D2E/DX2                !
 ! D24   D(12,6,7,10)           -0.5852         estimate D2E/DX2                !
 ! D25   D(4,6,12,11)          176.9615         estimate D2E/DX2                !
 ! D26   D(7,6,12,11)            1.9869         estimate D2E/DX2                !
 ! D27   D(6,7,8,9)           -179.6035         estimate D2E/DX2                !
 ! D28   D(10,7,8,9)            -6.7528         estimate D2E/DX2                !
 ! D29   D(6,7,10,11)           -1.8596         estimate D2E/DX2                !
 ! D30   D(6,7,10,91)         -175.0496         estimate D2E/DX2                !
 ! D31   D(8,7,10,11)         -175.024          estimate D2E/DX2                !
 ! D32   D(8,7,10,91)           11.7859         estimate D2E/DX2                !
 ! D33   D(7,8,9,88)            63.7948         estimate D2E/DX2                !
 ! D34   D(7,8,9,89)           -60.131          estimate D2E/DX2                !
 ! D35   D(7,8,9,90)          -175.4073         estimate D2E/DX2                !
 ! D36   D(7,10,11,12)           3.2302         estimate D2E/DX2                !
 ! D37   D(7,10,11,13)        -176.967          estimate D2E/DX2                !
 ! D38   D(91,10,11,12)        176.5995         estimate D2E/DX2                !
 ! D39   D(91,10,11,13)         -3.5976         estimate D2E/DX2                !
 ! D40   D(10,11,12,6)          -2.8603         estimate D2E/DX2                !
 ! D41   D(13,11,12,6)         177.3186         estimate D2E/DX2                !
 ! D42   D(10,11,13,14)        -11.622          estimate D2E/DX2                !
 ! D43   D(10,11,13,17)        169.3598         estimate D2E/DX2                !
 ! D44   D(12,11,13,14)        168.1549         estimate D2E/DX2                !
 ! D45   D(12,11,13,17)        -10.8632         estimate D2E/DX2                !
 ! D46   D(11,13,14,15)       -176.5297         estimate D2E/DX2                !
 ! D47   D(11,13,14,92)          1.0082         estimate D2E/DX2                !
 ! D48   D(17,13,14,15)          2.6008         estimate D2E/DX2                !
 ! D49   D(17,13,14,92)       -179.8613         estimate D2E/DX2                !
 ! D50   D(11,13,17,16)        174.9026         estimate D2E/DX2                !
 ! D51   D(14,13,17,16)         -4.2613         estimate D2E/DX2                !
 ! D52   D(13,14,15,16)          0.9775         estimate D2E/DX2                !
 ! D53   D(13,14,15,93)       -177.1117         estimate D2E/DX2                !
 ! D54   D(92,14,15,16)       -176.6729         estimate D2E/DX2                !
 ! D55   D(92,14,15,93)          5.2379         estimate D2E/DX2                !
 ! D56   D(14,15,16,17)         -4.0545         estimate D2E/DX2                !
 ! D57   D(14,15,16,18)       -177.6591         estimate D2E/DX2                !
 ! D58   D(93,15,16,17)        174.1108         estimate D2E/DX2                !
 ! D59   D(93,15,16,18)          0.5062         estimate D2E/DX2                !
 ! D60   D(15,16,17,13)          4.7858         estimate D2E/DX2                !
 ! D61   D(18,16,17,13)        178.6277         estimate D2E/DX2                !
 ! D62   D(15,16,18,19)       -146.8831         estimate D2E/DX2                !
 ! D63   D(15,16,18,24)         28.9315         estimate D2E/DX2                !
 ! D64   D(17,16,18,19)         40.3597         estimate D2E/DX2                !
 ! D65   D(17,16,18,24)       -143.8257         estimate D2E/DX2                !
 ! D66   D(16,18,19,20)          0.1109         estimate D2E/DX2                !
 ! D67   D(16,18,19,22)        175.3784         estimate D2E/DX2                !
 ! D68   D(24,18,19,20)       -175.8887         estimate D2E/DX2                !
 ! D69   D(24,18,19,22)         -0.6212         estimate D2E/DX2                !
 ! D70   D(16,18,24,23)       -177.3318         estimate D2E/DX2                !
 ! D71   D(19,18,24,23)         -1.1725         estimate D2E/DX2                !
 ! D72   D(18,19,20,21)       -176.892          estimate D2E/DX2                !
 ! D73   D(22,19,20,21)          8.8414         estimate D2E/DX2                !
 ! D74   D(18,19,22,23)          2.9246         estimate D2E/DX2                !
 ! D75   D(18,19,22,97)        179.613          estimate D2E/DX2                !
 ! D76   D(20,19,22,23)        178.0303         estimate D2E/DX2                !
 ! D77   D(20,19,22,97)         -5.2813         estimate D2E/DX2                !
 ! D78   D(19,20,21,94)        174.2964         estimate D2E/DX2                !
 ! D79   D(19,20,21,95)        -65.488          estimate D2E/DX2                !
 ! D80   D(19,20,21,96)         58.3241         estimate D2E/DX2                !
 ! D81   D(19,22,23,24)         -3.6938         estimate D2E/DX2                !
 ! D82   D(19,22,23,25)       -175.7149         estimate D2E/DX2                !
 ! D83   D(97,22,23,24)        179.6276         estimate D2E/DX2                !
 ! D84   D(97,22,23,25)          7.6065         estimate D2E/DX2                !
 ! D85   D(22,23,24,18)          2.7271         estimate D2E/DX2                !
 ! D86   D(25,23,24,18)        175.3194         estimate D2E/DX2                !
 ! D87   D(22,23,25,26)        160.3949         estimate D2E/DX2                !
 ! D88   D(22,23,25,29)        -19.1428         estimate D2E/DX2                !
 ! D89   D(24,23,25,26)        -10.5315         estimate D2E/DX2                !
 ! D90   D(24,23,25,29)        169.9307         estimate D2E/DX2                !
 ! D91   D(23,25,26,27)       -177.6929         estimate D2E/DX2                !
 ! D92   D(23,25,26,98)          5.0745         estimate D2E/DX2                !
 ! D93   D(29,25,26,27)          1.8963         estimate D2E/DX2                !
 ! D94   D(29,25,26,98)       -175.3363         estimate D2E/DX2                !
 ! D95   D(23,25,29,28)        177.0841         estimate D2E/DX2                !
 ! D96   D(26,25,29,28)         -2.5279         estimate D2E/DX2                !
 ! D97   D(25,26,27,28)          0.0224         estimate D2E/DX2                !
 ! D98   D(25,26,27,99)       -176.3701         estimate D2E/DX2                !
 ! D99   D(98,26,27,28)        177.3747         estimate D2E/DX2                !
 ! D100  D(98,26,27,99)          0.9822         estimate D2E/DX2                !
 ! D101  D(26,27,28,29)         -1.8133         estimate D2E/DX2                !
 ! D102  D(26,27,28,30)        177.5166         estimate D2E/DX2                !
 ! D103  D(99,27,28,29)        174.7173         estimate D2E/DX2                !
 ! D104  D(99,27,28,30)         -5.9528         estimate D2E/DX2                !
 ! D105  D(27,28,29,25)          2.5795         estimate D2E/DX2                !
 ! D106  D(30,28,29,25)       -176.7946         estimate D2E/DX2                !
 ! D107  D(27,28,30,31)       -150.7753         estimate D2E/DX2                !
 ! D108  D(27,28,30,36)         37.2307         estimate D2E/DX2                !
 ! D109  D(29,28,30,31)         28.4694         estimate D2E/DX2                !
 ! D110  D(29,28,30,36)       -143.5246         estimate D2E/DX2                !
 ! D111  D(28,30,31,32)          8.7377         estimate D2E/DX2                !
 ! D112  D(28,30,31,34)       -179.0822         estimate D2E/DX2                !
 ! D113  D(36,30,31,32)       -178.6355         estimate D2E/DX2                !
 ! D114  D(36,30,31,34)         -6.4553         estimate D2E/DX2                !
 ! D115  D(28,30,36,35)       -177.6451         estimate D2E/DX2                !
 ! D116  D(31,30,36,35)          8.7887         estimate D2E/DX2                !
 ! D117  D(30,31,32,33)        179.714          estimate D2E/DX2                !
 ! D118  D(34,31,32,33)          9.1754         estimate D2E/DX2                !
 ! D119  D(30,31,34,35)         -0.1357         estimate D2E/DX2                !
 ! D120  D(30,31,34,103)      -170.9962         estimate D2E/DX2                !
 ! D121  D(32,31,34,35)        170.9143         estimate D2E/DX2                !
 ! D122  D(32,31,34,103)         0.0538         estimate D2E/DX2                !
 ! D123  D(31,32,33,100)       -65.2504         estimate D2E/DX2                !
 ! D124  D(31,32,33,101)        57.9607         estimate D2E/DX2                !
 ! D125  D(31,32,33,102)       174.4209         estimate D2E/DX2                !
 ! D126  D(31,34,35,36)          6.6709         estimate D2E/DX2                !
 ! D127  D(31,34,35,37)        176.7991         estimate D2E/DX2                !
 ! D128  D(103,34,35,36)       178.0516         estimate D2E/DX2                !
 ! D129  D(103,34,35,37)       -11.8201         estimate D2E/DX2                !
 ! D130  D(34,35,36,30)         -8.7375         estimate D2E/DX2                !
 ! D131  D(37,35,36,30)       -179.9812         estimate D2E/DX2                !
 ! D132  D(34,35,37,38)        167.0213         estimate D2E/DX2                !
 ! D133  D(34,35,37,41)         -4.5691         estimate D2E/DX2                !
 ! D134  D(36,35,37,38)        -23.8627         estimate D2E/DX2                !
 ! D135  D(36,35,37,41)        164.5469         estimate D2E/DX2                !
 ! D136  D(35,37,38,39)       -174.7322         estimate D2E/DX2                !
 ! D137  D(35,37,38,104)        12.8492         estimate D2E/DX2                !
 ! D138  D(41,37,38,39)         -1.957          estimate D2E/DX2                !
 ! D139  D(41,37,38,104)      -174.3756         estimate D2E/DX2                !
 ! D140  D(35,37,41,40)        173.1645         estimate D2E/DX2                !
 ! D141  D(38,37,41,40)          0.1265         estimate D2E/DX2                !
 ! D142  D(37,38,39,40)          3.3339         estimate D2E/DX2                !
 ! D143  D(37,38,39,105)      -177.0224         estimate D2E/DX2                !
 ! D144  D(104,38,39,40)       176.4138         estimate D2E/DX2                !
 ! D145  D(104,38,39,105)       -3.9425         estimate D2E/DX2                !
 ! D146  D(38,39,40,41)         -3.2062         estimate D2E/DX2                !
 ! D147  D(38,39,40,42)       -178.4515         estimate D2E/DX2                !
 ! D148  D(105,39,40,41)       177.1636         estimate D2E/DX2                !
 ! D149  D(105,39,40,42)         1.9183         estimate D2E/DX2                !
 ! D150  D(39,40,41,37)          1.9311         estimate D2E/DX2                !
 ! D151  D(42,40,41,37)        177.4721         estimate D2E/DX2                !
 ! D152  D(39,40,42,43)         20.7776         estimate D2E/DX2                !
 ! D153  D(39,40,42,48)       -152.4008         estimate D2E/DX2                !
 ! D154  D(41,40,42,43)       -154.2202         estimate D2E/DX2                !
 ! D155  D(41,40,42,48)         32.6013         estimate D2E/DX2                !
 ! D156  D(40,42,43,44)          7.9589         estimate D2E/DX2                !
 ! D157  D(40,42,43,46)       -176.9622         estimate D2E/DX2                !
 ! D158  D(48,42,43,44)       -178.207          estimate D2E/DX2                !
 ! D159  D(48,42,43,46)         -3.1281         estimate D2E/DX2                !
 ! D160  D(40,42,48,47)        175.3459         estimate D2E/DX2                !
 ! D161  D(43,42,48,47)          1.0378         estimate D2E/DX2                !
 ! D162  D(42,43,44,45)        176.1218         estimate D2E/DX2                !
 ! D163  D(46,43,44,45)          2.0484         estimate D2E/DX2                !
 ! D164  D(42,43,46,47)          4.2716         estimate D2E/DX2                !
 ! D165  D(42,43,46,109)      -176.9108         estimate D2E/DX2                !
 ! D166  D(44,43,46,47)        178.5174         estimate D2E/DX2                !
 ! D167  D(44,43,46,109)        -2.6651         estimate D2E/DX2                !
 ! D168  D(43,44,45,106)       -66.4226         estimate D2E/DX2                !
 ! D169  D(43,44,45,107)       175.9588         estimate D2E/DX2                !
 ! D170  D(43,44,45,108)        59.589          estimate D2E/DX2                !
 ! D171  D(43,46,47,48)         -3.3176         estimate D2E/DX2                !
 ! D172  D(43,46,47,49)       -177.1715         estimate D2E/DX2                !
 ! D173  D(109,46,47,48)       177.8124         estimate D2E/DX2                !
 ! D174  D(109,46,47,49)         3.9585         estimate D2E/DX2                !
 ! D175  D(46,47,48,42)          1.1712         estimate D2E/DX2                !
 ! D176  D(49,47,48,42)        176.041          estimate D2E/DX2                !
 ! D177  D(46,47,49,50)        166.1569         estimate D2E/DX2                !
 ! D178  D(46,47,49,53)        -11.113          estimate D2E/DX2                !
 ! D179  D(48,47,49,50)         -7.1875         estimate D2E/DX2                !
 ! D180  D(48,47,49,53)        175.5426         estimate D2E/DX2                !
 ! D181  D(47,49,50,51)        178.9823         estimate D2E/DX2                !
 ! D182  D(47,49,50,110)         1.9501         estimate D2E/DX2                !
 ! D183  D(53,49,50,51)         -3.5871         estimate D2E/DX2                !
 ! D184  D(53,49,50,110)       179.3807         estimate D2E/DX2                !
 ! D185  D(47,49,53,52)        179.4133         estimate D2E/DX2                !
 ! D186  D(50,49,53,52)          1.6368         estimate D2E/DX2                !
 ! D187  D(49,50,51,52)          4.4585         estimate D2E/DX2                !
 ! D188  D(49,50,51,111)       175.1218         estimate D2E/DX2                !
 ! D189  D(110,50,51,52)      -178.4367         estimate D2E/DX2                !
 ! D190  D(110,50,51,111)       -7.7734         estimate D2E/DX2                !
 ! D191  D(50,51,52,53)         -3.0484         estimate D2E/DX2                !
 ! D192  D(50,51,52,54)        175.2223         estimate D2E/DX2                !
 ! D193  D(111,51,52,53)      -174.1163         estimate D2E/DX2                !
 ! D194  D(111,51,52,54)         4.1544         estimate D2E/DX2                !
 ! D195  D(51,52,53,49)          0.8179         estimate D2E/DX2                !
 ! D196  D(54,52,53,49)       -177.5638         estimate D2E/DX2                !
 ! D197  D(51,52,54,55)         34.0599         estimate D2E/DX2                !
 ! D198  D(51,52,54,60)       -147.0266         estimate D2E/DX2                !
 ! D199  D(53,52,54,55)       -147.936          estimate D2E/DX2                !
 ! D200  D(53,52,54,60)         30.9776         estimate D2E/DX2                !
 ! D201  D(52,54,55,56)          4.3437         estimate D2E/DX2                !
 ! D202  D(52,54,55,58)        178.8746         estimate D2E/DX2                !
 ! D203  D(60,54,55,56)       -174.6685         estimate D2E/DX2                !
 ! D204  D(60,54,55,58)         -0.1376         estimate D2E/DX2                !
 ! D205  D(52,54,60,59)       -179.9465         estimate D2E/DX2                !
 ! D206  D(55,54,60,59)         -0.8636         estimate D2E/DX2                !
 ! D207  D(54,55,56,57)       -177.6316         estimate D2E/DX2                !
 ! D208  D(58,55,56,57)          9.2094         estimate D2E/DX2                !
 ! D209  D(54,55,58,59)          1.463          estimate D2E/DX2                !
 ! D210  D(54,55,58,115)       177.6014         estimate D2E/DX2                !
 ! D211  D(56,55,58,59)        175.1924         estimate D2E/DX2                !
 ! D212  D(56,55,58,115)        -8.6693         estimate D2E/DX2                !
 ! D213  D(55,56,57,112)       176.3717         estimate D2E/DX2                !
 ! D214  D(55,56,57,113)       -63.4908         estimate D2E/DX2                !
 ! D215  D(55,56,57,114)        55.0259         estimate D2E/DX2                !
 ! D216  D(55,58,59,60)         -2.2039         estimate D2E/DX2                !
 ! D217  D(55,58,59,61)        175.0552         estimate D2E/DX2                !
 ! D218  D(115,58,59,60)      -178.1582         estimate D2E/DX2                !
 ! D219  D(115,58,59,61)        -0.8991         estimate D2E/DX2                !
 ! D220  D(58,59,60,54)          1.7308         estimate D2E/DX2                !
 ! D221  D(61,59,60,54)       -175.6393         estimate D2E/DX2                !
 ! D222  D(58,59,61,62)        167.4864         estimate D2E/DX2                !
 ! D223  D(58,59,61,65)        -15.8493         estimate D2E/DX2                !
 ! D224  D(60,59,61,62)        -15.4579         estimate D2E/DX2                !
 ! D225  D(60,59,61,65)        161.2065         estimate D2E/DX2                !
 ! D226  D(59,61,62,63)        176.9175         estimate D2E/DX2                !
 ! D227  D(59,61,62,116)        -9.318          estimate D2E/DX2                !
 ! D228  D(65,61,62,63)         -0.1676         estimate D2E/DX2                !
 ! D229  D(65,61,62,116)       173.597          estimate D2E/DX2                !
 ! D230  D(59,61,65,64)       -177.2397         estimate D2E/DX2                !
 ! D231  D(62,61,65,64)         -0.1663         estimate D2E/DX2                !
 ! D232  D(61,62,63,64)          0.5232         estimate D2E/DX2                !
 ! D233  D(61,62,63,117)       175.7261         estimate D2E/DX2                !
 ! D234  D(116,62,63,64)      -172.9284         estimate D2E/DX2                !
 ! D235  D(116,62,63,117)        2.2745         estimate D2E/DX2                !
 ! D236  D(62,63,64,65)         -0.6291         estimate D2E/DX2                !
 ! D237  D(62,63,64,66)       -175.8255         estimate D2E/DX2                !
 ! D238  D(117,63,64,65)      -175.0945         estimate D2E/DX2                !
 ! D239  D(117,63,64,66)         9.7091         estimate D2E/DX2                !
 ! D240  D(63,64,65,61)          0.4607         estimate D2E/DX2                !
 ! D241  D(66,64,65,61)        175.683          estimate D2E/DX2                !
 ! D242  D(63,64,66,67)        164.8325         estimate D2E/DX2                !
 ! D243  D(63,64,66,72)        -14.0521         estimate D2E/DX2                !
 ! D244  D(65,64,66,67)         -9.6193         estimate D2E/DX2                !
 ! D245  D(65,64,66,72)        171.4961         estimate D2E/DX2                !
 ! D246  D(64,66,67,68)         -1.1649         estimate D2E/DX2                !
 ! D247  D(64,66,67,70)        178.726          estimate D2E/DX2                !
 ! D248  D(72,66,67,68)        177.7588         estimate D2E/DX2                !
 ! D249  D(72,66,67,70)         -2.3503         estimate D2E/DX2                !
 ! D250  D(64,66,72,71)        179.0841         estimate D2E/DX2                !
 ! D251  D(67,66,72,71)          0.0017         estimate D2E/DX2                !
 ! D252  D(66,67,68,69)        176.8319         estimate D2E/DX2                !
 ! D253  D(70,67,68,69)         -3.0399         estimate D2E/DX2                !
 ! D254  D(66,67,70,71)          4.1741         estimate D2E/DX2                !
 ! D255  D(66,67,70,121)       179.2595         estimate D2E/DX2                !
 ! D256  D(68,67,70,71)       -175.9454         estimate D2E/DX2                !
 ! D257  D(68,67,70,121)        -0.8601         estimate D2E/DX2                !
 ! D258  D(67,68,69,118)       -59.6183         estimate D2E/DX2                !
 ! D259  D(67,68,69,119)       179.7911         estimate D2E/DX2                !
 ! D260  D(67,68,69,120)        63.6349         estimate D2E/DX2                !
 ! D261  D(67,70,71,72)         -4.0833         estimate D2E/DX2                !
 ! D262  D(67,70,71,73)        177.5723         estimate D2E/DX2                !
 ! D263  D(121,70,71,72)      -179.1402         estimate D2E/DX2                !
 ! D264  D(121,70,71,73)         2.5154         estimate D2E/DX2                !
 ! D265  D(70,71,72,66)          2.3493         estimate D2E/DX2                !
 ! D266  D(73,71,72,66)       -179.3345         estimate D2E/DX2                !
 ! D267  D(70,71,73,74)       -168.1033         estimate D2E/DX2                !
 ! D268  D(70,71,73,77)         15.308          estimate D2E/DX2                !
 ! D269  D(72,71,73,74)         13.8089         estimate D2E/DX2                !
 ! D270  D(72,71,73,77)       -162.7798         estimate D2E/DX2                !
 ! D271  D(71,73,74,75)        179.9669         estimate D2E/DX2                !
 ! D272  D(71,73,74,122)         3.1255         estimate D2E/DX2                !
 ! D273  D(77,73,74,75)         -2.9704         estimate D2E/DX2                !
 ! D274  D(77,73,74,122)      -179.8118         estimate D2E/DX2                !
 ! D275  D(71,73,77,76)       -177.9298         estimate D2E/DX2                !
 ! D276  D(74,73,77,76)          5.0682         estimate D2E/DX2                !
[...]
  Beta virt. eigenvalues --    1.90450   1.90810   1.91099   1.91291   1.91383
  Beta virt. eigenvalues --    1.91423   1.91499   1.91746   1.91962   1.92201
  Beta virt. eigenvalues --    1.92277   1.92537   1.92924   1.93220   1.93715
  Beta virt. eigenvalues --    1.94095   1.94330   1.94592   1.94961   1.95576
  Beta virt. eigenvalues --    1.95740   1.95896   1.96116   1.96405   1.96758
  Beta virt. eigenvalues --    1.97028   1.97380   1.97447   1.97497   1.97916
  Beta virt. eigenvalues --    1.99096   1.99641   2.00371   2.00451   2.00583
  Beta virt. eigenvalues --    2.00885   2.01046   2.01226   2.01386   2.01652
  Beta virt. eigenvalues --    2.01771   2.02059   2.02505   2.02768   2.03068
  Beta virt. eigenvalues --    2.03281   2.03550   2.03661   2.03910   2.04129
  Beta virt. eigenvalues --    2.04188   2.04559   2.04795   2.05000   2.05386
  Beta virt. eigenvalues --    2.05621   2.06273   2.06404   2.06842   2.06891
  Beta virt. eigenvalues --    2.06971   2.07299   2.07392   2.07533   2.07644
  Beta virt. eigenvalues --    2.08377   2.08952   2.10084   2.10423   2.10936
  Beta virt. eigenvalues --    2.11416   2.11763   2.12057   2.12165   2.12574
  Beta virt. eigenvalues --    2.12619   2.12868   2.13021   2.13124   2.13795
  Beta virt. eigenvalues --    2.14143   2.14364   2.15065   2.15400   2.15920
  Beta virt. eigenvalues --    2.16347   2.16489   2.17098   2.17724   2.17830
  Beta virt. eigenvalues --    2.18051   2.18215   2.18318   2.18371   2.18519
  Beta virt. eigenvalues --    2.18613   2.19108   2.19222   2.19527   2.20488
  Beta virt. eigenvalues --    2.20694   2.21060   2.21385   2.21562   2.21621
  Beta virt. eigenvalues --    2.22096   2.22252   2.22319   2.22513   2.22550
  Beta virt. eigenvalues --    2.22630   2.22799   2.23150   2.23230   2.23625
  Beta virt. eigenvalues --    2.23943   2.24043   2.24765   2.25031   2.25666
  Beta virt. eigenvalues --    2.25813   2.25885   2.26384   2.26477   2.26885
  Beta virt. eigenvalues --    2.28682   2.29449   2.29513   2.29754   2.30066
  Beta virt. eigenvalues --    2.30181   2.30437   2.31185   2.31436   2.31958
  Beta virt. eigenvalues --    2.32084   2.32779   2.32996   2.33650   2.34516
  Beta virt. eigenvalues --    2.34845   2.35151   2.35305   2.35754   2.37927
  Beta virt. eigenvalues --    2.38164   2.38286   2.38449   2.39053   2.39440
  Beta virt. eigenvalues --    2.39987   2.40905   2.41004   2.41059   2.41277
  Beta virt. eigenvalues --    2.41749   2.42093   2.42898   2.42989   2.43401
  Beta virt. eigenvalues --    2.44266   2.44630   2.45436   2.46661   2.47182
  Beta virt. eigenvalues --    2.52388   2.52468   2.52773   2.52933   2.53068
  Beta virt. eigenvalues --    2.53153   2.53453   2.53479   2.53664   2.53805
  Beta virt. eigenvalues --    2.53829   2.54199   2.54599   2.54922   2.55448
  Beta virt. eigenvalues --    2.55702   2.56253   2.56568   2.56891   2.57296
  Beta virt. eigenvalues --    2.57985   2.58202   2.58592   2.58613   2.58944
  Beta virt. eigenvalues --    2.59270   2.59406   2.59648   2.59896   2.60124
  Beta virt. eigenvalues --    2.60457   2.60806   2.60930   2.61209   2.61744
  Beta virt. eigenvalues --    2.62025   2.62488   2.62974   2.64561   2.64829
  Beta virt. eigenvalues --    2.65538   2.65814   2.65980   2.66571   2.66889
  Beta virt. eigenvalues --    2.67476   2.67536   2.67829   2.68179   2.69094
  Beta virt. eigenvalues --    2.69421   2.69657   2.70720   2.71841   2.72183
  Beta virt. eigenvalues --    2.72752   2.72932   2.74023   2.78028   2.78547
  Beta virt. eigenvalues --    2.78646   2.79001   2.79783   2.80816   2.82149
  Beta virt. eigenvalues --    2.82980   2.83116   2.83667   2.84532   2.85344
  Beta virt. eigenvalues --    2.85990   2.86108   3.01444   3.01742   3.02107
  Beta virt. eigenvalues --    3.02342   3.02427   3.02443   3.02894   3.08745
  Beta virt. eigenvalues --    3.08819   3.09082   3.09130   3.09270   3.09853
  Beta virt. eigenvalues --    3.12539   3.15705   3.15992   3.16127   3.16220
  Beta virt. eigenvalues --    3.16350   3.16765   3.17165   3.17998   3.18121
  Beta virt. eigenvalues --    3.18464   3.18795   3.19258   3.19537   3.19716
  Beta virt. eigenvalues --    3.28921   3.29288   3.29668   3.29968   3.30661
  Beta virt. eigenvalues --    3.31433   3.33960   3.50564   3.51312   3.51676
  Beta virt. eigenvalues --    3.52087   3.52324   3.52372   3.52506   3.57918
  Beta virt. eigenvalues --    3.58351   3.58698   3.59078   3.59110   3.59248
  Beta virt. eigenvalues --    3.59493
          Condensed to atoms (all electrons):
          Atomic-Atomic Spin Densities.
 Mulliken charges and spin densities:
               1          2
     1  C   -0.160241   0.000000
     2  C    0.040014  -0.000000
     3  C   -0.035409   0.000000
     4  C   -0.113381   0.000000
     5  S    0.167153  -0.000000
     6  C   -0.158448  -0.000000
     7  C    0.156361   0.000000
     8  O   -0.268477  -0.000000
     9  C    0.036802   0.000000
    10  C   -0.003439  -0.000000
    11  C   -0.126162   0.000000
    12  S    0.177814  -0.000000
    13  C   -0.142928  -0.000000
    14  C    0.022216   0.000000
    15  C   -0.002986  -0.000000
    16  C   -0.111444   0.000000
    17  S    0.196910   0.000000
    18  C   -0.167499  -0.000000
    19  C    0.155219   0.000000
    20  O   -0.268583   0.000000
    21  C    0.036148   0.000000
    22  C   -0.004956  -0.000000
    23  C   -0.121592  -0.000000
    24  S    0.168517   0.000000
    25  C   -0.141630   0.000000
    26  C    0.022350   0.000000
    27  C   -0.001883   0.000000
    28  C   -0.108489  -0.000000
    29  S    0.182488  -0.000000
    30  C   -0.165142   0.000000
    31  C    0.153935   0.000000
    32  O   -0.269637   0.000000
    33  C    0.036068   0.000000
    34  C   -0.005120  -0.000000
    35  C   -0.121413  -0.000000
    36  S    0.170716  -0.000000
    37  C   -0.138735   0.000000
    38  C    0.029088   0.000000
    39  C    0.002766  -0.000000
    40  C   -0.109395   0.000000
    41  S    0.160466   0.000000
    42  C   -0.158903  -0.000000
    43  C    0.152341   0.000000
    44  O   -0.267549   0.000000
    45  C    0.034989  -0.000000
    46  C   -0.008329  -0.000000
    47  C   -0.123716   0.000000
    48  S    0.179898   0.000000
    49  C   -0.140500  -0.000000
    50  C    0.030092   0.000000
    51  C    0.001992  -0.000000
    52  C   -0.109385   0.000000
    53  S    0.160931   0.000000
    54  C   -0.159407  -0.000000
    55  C    0.152167   0.000000
    56  O   -0.267596  -0.000000
    57  C    0.035527  -0.000000
    58  C   -0.008203  -0.000000
    59  C   -0.123536  -0.000000
    60  S    0.180071   0.000000
    61  C   -0.143746  -0.000000
    62  C    0.023657   0.000000
    63  C   -0.002110  -0.000000
    64  C   -0.108034   0.000000
    65  S    0.181930   0.000000
    66  C   -0.165800   0.000000
    67  C    0.153693  -0.000000
    68  O   -0.269698  -0.000000
    69  C    0.036473   0.000000
    70  C   -0.004279  -0.000000
    71  C   -0.120920   0.000000
    72  S    0.171699  -0.000000
    73  C   -0.142348   0.000000
    74  C    0.020891  -0.000000
    75  C    0.002397  -0.000000
    76  C   -0.100357  -0.000000
    77  S    0.182889  -0.000000
    78  C   -0.175143  -0.000000
    79  C    0.137097   0.000000
    80  O   -0.268687   0.000000
    81  C    0.035349   0.000000
    82  C    0.003461  -0.000000
    83  C   -0.138632  -0.000000
    84  S    0.167107   0.000000
    85  H    0.042977  -0.000000
    86  H    0.011477  -0.000000
    87  H    0.018808   0.000000
    88  H    0.053161  -0.000000
    89  H    0.055468  -0.000000
    90  H    0.069697   0.000000
    91  H    0.015724  -0.000000
    92  H    0.007772   0.000000
    93  H    0.018711  -0.000000
    94  H    0.072108  -0.000000
    95  H    0.056731  -0.000000
    96  H    0.055644   0.000000
    97  H    0.024624   0.000000
    98  H    0.018869  -0.000000
    99  H    0.019976   0.000000
   100  H    0.057495   0.000000
   101  H    0.057758  -0.000000
   102  H    0.069854  -0.000000
   103  H    0.025790  -0.000000
   104  H    0.020360  -0.000000
   105  H    0.017645  -0.000000
   106  H    0.058415   0.000000
   107  H    0.068100  -0.000000
   108  H    0.057276   0.000000
   109  H    0.026682  -0.000000
   110  H    0.019947  -0.000000
   111  H    0.017144  -0.000000
   112  H    0.067668  -0.000000
   113  H    0.057921  -0.000000
   114  H    0.056019  -0.000000
   115  H    0.025420   0.000000
   116  H    0.019253   0.000000
   117  H    0.020317   0.000000
   118  H    0.055947  -0.000000
   119  H    0.069783  -0.000000
   120  H    0.058030  -0.000000
   121  H    0.024806  -0.000000
   122  H    0.019915  -0.000000
   123  H    0.020332  -0.000000
   124  H    0.055745   0.000000
   125  H    0.056624   0.000000
   126  H    0.070282  -0.000000
   127  H    0.024007  -0.000000
   128  H    0.053902   0.000000
 Sum of Mulliken charges =  -0.00000   0.00000
 Mulliken charges and spin densities with hydrogens summed into heavy atoms:
               1          2
     1  C   -0.117264   0.000000
     2  C    0.051491  -0.000000
     3  C   -0.016601   0.000000
     4  C   -0.113381   0.000000
     5  S    0.167153  -0.000000
     6  C   -0.158448  -0.000000
     7  C    0.156361   0.000000
     8  O   -0.268477  -0.000000
     9  C    0.215129  -0.000000
    10  C    0.012285  -0.000000
    11  C   -0.126162   0.000000
    12  S    0.177814  -0.000000
    13  C   -0.142928  -0.000000
    14  C    0.029987   0.000000
    15  C    0.015725  -0.000000
    16  C   -0.111444   0.000000
    17  S    0.196910   0.000000
    18  C   -0.167499  -0.000000
    19  C    0.155219   0.000000
    20  O   -0.268583   0.000000
    21  C    0.220631   0.000000
    22  C    0.019668  -0.000000
    23  C   -0.121592  -0.000000
    24  S    0.168517   0.000000
    25  C   -0.141630   0.000000
    26  C    0.041219   0.000000
    27  C    0.018093   0.000000
    28  C   -0.108489  -0.000000
    29  S    0.182488  -0.000000
    30  C   -0.165142   0.000000
    31  C    0.153935   0.000000
    32  O   -0.269637   0.000000
    33  C    0.221174   0.000000
    34  C    0.020670  -0.000000
    35  C   -0.121413  -0.000000
    36  S    0.170716  -0.000000
    37  C   -0.138735   0.000000
    38  C    0.049447   0.000000
    39  C    0.020412  -0.000000
    40  C   -0.109395   0.000000
    41  S    0.160466   0.000000
    42  C   -0.158903  -0.000000
    43  C    0.152341   0.000000
    44  O   -0.267549   0.000000
    45  C    0.218780   0.000000
    46  C    0.018353  -0.000000
    47  C   -0.123716   0.000000
    48  S    0.179898   0.000000
    49  C   -0.140500  -0.000000
    50  C    0.050039   0.000000
    51  C    0.019137  -0.000000
    52  C   -0.109385   0.000000
    53  S    0.160931   0.000000
    54  C   -0.159407  -0.000000
    55  C    0.152167   0.000000
    56  O   -0.267596  -0.000000
    57  C    0.217135  -0.000000
    58  C    0.017217   0.000000
    59  C   -0.123536  -0.000000
    60  S    0.180071   0.000000
    61  C   -0.143746  -0.000000
    62  C    0.042910   0.000000
    63  C    0.018208  -0.000000
    64  C   -0.108034   0.000000
    65  S    0.181930   0.000000
    66  C   -0.165800   0.000000
    67  C    0.153693  -0.000000
    68  O   -0.269698  -0.000000
    69  C    0.220233  -0.000000
    70  C    0.020526  -0.000000
    71  C   -0.120920   0.000000
    72  S    0.171699  -0.000000
    73  C   -0.142348   0.000000
    74  C    0.040806  -0.000000
    75  C    0.022729  -0.000000
    76  C   -0.100357  -0.000000
    77  S    0.182889  -0.000000
    78  C   -0.175143  -0.000000
    79  C    0.137097   0.000000
    80  O   -0.268687   0.000000
    81  C    0.218000   0.000000
    82  C    0.027469  -0.000000
    83  C   -0.084729  -0.000000
    84  S    0.167107   0.000000
 Electronic spatial extent (au):  <R**2>=         598972.0122
 Charge=             -0.0000 electrons
 Dipole moment (field-independent basis, Debye):
    X=             16.2385    Y=              4.4573    Z=             -1.4097  Tot=             16.8980
 Quadrupole moment (field-independent basis, Debye-Ang):
   XX=           -416.0984   YY=           -502.4860   ZZ=           -572.0016
   XY=             69.5466   XZ=             11.3417   YZ=              5.3471
 Traceless Quadrupole moment (field-independent basis, Debye-Ang):
   XX=             80.7636   YY=             -5.6240   ZZ=            -75.1396
   XY=             69.5466   XZ=             11.3417   YZ=              5.3471
 Octapole moment (field-independent basis, Debye-Ang**2):
  XXX=          10090.4947  YYY=             61.5376  ZZZ=            -41.7909  XYY=            529.4337
  XXY=           1358.2482  XXZ=           -902.9388  XZZ=           -385.2351  YZZ=             61.0247
  YYZ=            -15.6896  XYZ=           -439.8747
 Hexadecapole moment (field-independent basis, Debye-Ang**3):
 XXXX=        -624714.9657 YYYY=         -10328.4281 ZZZZ=          -3049.0834 XXXY=          36468.8354
 XXXZ=          17973.3935 YYYX=           2040.4754 YYYZ=            -48.4933 ZZZX=            284.1615
 ZZZY=             64.8654 XXYY=        -124495.8919 XXZZ=        -129836.6243 YYZZ=          -2412.1225
 XXYZ=           2414.4140 YYXZ=           -696.4112 ZZXY=             -6.3635
 N-N= 1.404445347405D+04 E-N=-4.820478859323D+04  KE= 8.493662034417D+03
 Leave Link  601 at Sat Jul 25 06:56:24 2020, MaxMem=  4026531840 cpu:              19.5 elap:               2.7
 (Enter /opt/ohpc/pub/libs/gaussian/g16-A.03/sandybridge/g16/l9999.exe)

 Test job not archived.
 1\1\GINC-SKYLAKE049\FOpt\ULC-wPBE\CC-pVDZ\C63H44O7S14\RDU230\25-Jul-20
 20\0\\#P uLC-wPBE/cc-pVDZ iop(3/107=0458800000, 3/108=0458800000) opt\
 \H44 C63 S14 O7\\0,1\C,-25.4143131885,1.0620026885,2.9660702819\C,-24.
 4607526059,0.5776665519,3.8006694803\C,-23.21392343,0.3976799788,3.145
 9166321\C,-23.244611393,0.7490063118,1.8254622344\S,-24.8173094633,1.3
 058275288,1.3828790413\C,-22.1455279778,0.6846890684,0.8751763469\C,-2
 2.1324923897,1.042285494,-0.4466780747\O,-23.2480744103,1.5272109785,-
 1.0280074115\C,-23.1688682675,1.8981819392,-2.3809264764\C,-20.8685186
 063,0.8585555229,-1.0735363393\C,-19.9353466398,0.3522206364,-0.218451
 1167\S,-20.5948876314,0.0950932839,1.3459695242\C,-18.5485458095,0.026
 2377715,-0.5249685468\C,-18.0481976719,-0.4270079444,-1.7095648269\C,-
 16.6492047806,-0.6352201542,-1.6698767754\C,-16.0946766743,-0.34549209
 19,-0.4535597726\S,-17.3018135051,0.2035711375,0.6497567817\C,-14.6962
 423628,-0.4538371137,-0.0787932674\C,-14.1127396818,-0.1899649428,1.13
 20751958\O,-14.864930771,0.2331030051,2.1658873127\C,-14.2163785694,0.
 4782373826,3.3892426666\C,-12.7087248131,-0.4170717002,1.1482899129\C,
 -12.2402554682,-0.8493371827,-0.0572744623\S,-13.5025612731,-0.9653252
 41,-1.2151304205\C,-10.8716047462,-1.1889700429,-0.4179436414\C,-10.44
 19086243,-2.0359807942,-1.3963359942\C,-9.0318278925,-2.1345543531,-1.
 4557509858\C,-8.3965733605,-1.3640094885,-0.5213285435\S,-9.5437234711
 ,-0.4970070119,0.4326189163\C,-6.9655235065,-1.2405765958,-0.312217217
 2\C,-6.2975448401,-0.4779595532,0.6091454262\O,-6.9842378977,0.2892745
 932,1.4774698386\C,-6.245001258,1.0625600632,2.3905399264\C,-4.8831562
 716,-0.606766088,0.5354021025\C,-4.4925073291,-1.4676539205,-0.4474396
 767\S,-5.8419194269,-2.1098176057,-1.2919301242\C,-3.1385741702,-1.855
 2453151,-0.8127771548\C,-2.7188516423,-2.9913637915,-1.4379346492\C,-1
 .3146520358,-3.0442369341,-1.6218710287\C,-0.6714247258,-1.9430500672,
 -1.1306488336\S,-1.8035774929,-0.8246079066,-0.4620185751\C,0.75143420
 76,-1.6504585009,-1.1322787139\C,1.7400235141,-2.2883607252,-1.8380852
 314\O,1.4529862234,-3.3302203281,-2.6435834696\C,2.5093494734,-3.87137
 34437,-3.3988224069\C,3.0312294969,-1.7301522343,-1.6278548255\C,3.010
 9687981,-0.677851168,-0.7603516212\S,1.4254400906,-0.3785823016,-0.179
 8517465\C,4.1296156557,0.1386486645,-0.3143502459\C,4.1141371607,1.418
 3310384,0.1545431141\C,5.4016796465,1.9100527361,0.4847513749\C,6.3938
 542127,0.9971897242,0.2613765592\S,5.7357237774,-0.4836432686,-0.33341
 52715\C,7.8235399394,1.1442543782,0.472757297\C,8.4729058695,2.1298962
 353,1.1720111517\O,7.7850253481,3.1309266715,1.7572795163\C,8.51671998
 63,4.0473204832,2.5337581919\C,9.8846710388,1.9596443505,1.2056259548\
 C,10.2939311363,0.8496789386,0.5266347251\S,8.9650212575,0.0229430569,
 -0.1742615241\C,11.6513358644,0.3543926124,0.3514060549\C,12.059005819
 3,-0.9261970858,0.1210222144\C,13.4647972429,-1.0426751893,0.012376927
 3\C,14.1189281938,0.1488355817,0.1634140596\S,12.9937163831,1.43053367
 74,0.4257993385\C,15.5521618882,0.3744519634,0.1183486034\C,16.2367339
 359,1.555724939,0.2302292992\O,15.5673567907,2.710440485,0.412990222\C
 ,16.3202596105,3.895761092,0.4880261073\C,17.647290076,1.4075994236,0.
 1244269465\C,18.0185315181,0.1089732973,-0.0639116719\S,16.6559659143,
 -0.9343799884,-0.0963384256\C,19.3634903844,-0.4251141787,-0.222181291
 1\C,19.7485257006,-1.5652430745,-0.8630902862\C,21.1485229114,-1.76764
 02461,-0.8268445026\C,21.8199010508,-0.7801459318,-0.161419578\S,20.71
 91710935,0.4039785995,0.4406677343\C,23.2548116572,-0.6827750608,0.050
 2997846\C,23.9538857566,0.2798548538,0.7293164925\O,23.3034873305,1.31
 04945112,1.304863828\C,24.0717195265,2.2544048855,2.0087552913\C,25.36
 21403321,0.0549427077,0.739809753\C,25.694120939,-1.0747544085,0.06645
 93344\S,24.3341426092,-1.8705097008,-0.5803902849\H,-26.4493407013,1.2
 928756143,3.1985598263\H,-24.6331876745,0.3538828435,4.8501420526\H,-2
 2.3214107147,0.0194502402,3.6391358376\H,-22.9071401373,1.0415059686,-
 3.0177980026\H,-22.4379132091,2.7043798915,-2.5345970484\H,-24.1617568
 814,2.2594226193,-2.6605746196\H,-20.6415684385,1.1140060125,-2.103568
 4794\H,-18.6693033874,-0.6313363547,-2.577716893\H,-16.0703633722,-1.0
 011642368,-2.5145255948\H,-14.9895084674,0.8105994954,4.0864021868\H,-
 13.7457135012,-0.4333368895,3.7828785717\H,-13.4590330992,1.2681836559
 ,3.2897230142\H,-12.0699303471,-0.2905173606,2.0169753884\H,-11.116576
 9998,-2.5900461061,-2.044500099\H,-8.502281773,-2.7650641106,-2.165841
 9315\H,-5.642315869,0.4293644466,3.0562959741\H,-5.5904354082,1.776906
 7187,1.8723467849\H,-6.9743700851,1.6154572599,2.9876855823\H,-4.17958
 76997,-0.1046830486,1.1924196425\H,-3.3977711534,-3.7852781106,-1.7404
 392756\H,-0.7864907803,-3.867370776,-2.0892630281\H,2.9514467426,-3.11
 94711848,-4.0669479847\H,2.0782022886,-4.6741607962,-4.0023077973\H,3.
 2920559455,-4.2916782563,-2.7520954358\H,3.9403659184,-2.0725218119,-2
 .1126013997\H,3.2028161888,2.0056412863,0.2401890243\H,5.6007810054,2.
 9058786254,0.8638139863\H,7.790586104,4.7531243201,2.9451270379\H,9.03
 74314392,3.5464810284,3.3615938767\H,9.2455311116,4.599497662,1.924156
 1694\H,10.5755612426,2.6136504501,1.7286488575\H,11.3732148271,-1.7669
 948116,0.0497471154\H,13.9784482538,-1.9843255862,-0.1654609973\H,17.0
 130387342,3.8771893208,1.3407966708\H,15.6030805033,4.7083199282,0.628
 411474\H,16.8842014513,4.0714848226,-0.4384689817\H,18.3616215302,2.22
 43078174,0.1613759427\H,19.0517802161,-2.2327279224,-1.3643601599\H,21
 .6452776017,-2.6179650492,-1.2877116841\H,24.7891682004,2.7609539824,1
 .3481553083\H,24.6098981091,1.789146228,2.8462861624\H,23.3686754775,2
 .9921653069,2.403430776\H,26.0905283547,0.6986658574,1.2224926457\H,26
 .688423168,-1.4832671589,-0.0829279813\\Version=EM64L-G16RevA.03\State
 =1-A\HF=-8524.8396981\S2=0.\S2-1=0.\S2A=0.\RMSD=2.211e-09\RMSF=1.705e-
 06\Dipole=6.3883103,1.7354825,0.6131717\Quadrupole=60.3713259,-27.8485
 277,-32.5227982,35.6622108,38.0647287,25.9354754\PG=C01 [X(C63H44O7S14
 )]\\@


 A FOOL CAN ASK MORE QUESTIONS THAN
 A WISE MAN CAN ANSWER.
 Job cpu time:       5 days  2 hours 18 minutes 14.6 seconds.
 Elapsed time:       0 days 15 hours 31 minutes 42.5 seconds.
 File lengths (MBytes):  RWF=   2348 Int=      0 D2E=      0 Chk=    212 Scr=      8
 Normal termination of Gaussian 16 at Sat Jul 25 06:56:25 2020.
