 Entering Gaussian System, Link 0=g16
 Input=mols_65_5_24_n-cOC-C_opt_0.gjf
 Output=mols_65_5_24_n-cOC-C_opt_0.log
 Initial command:
 /opt/ohpc/pub/libs/gaussian/g16-A.03/sandybridge/g16/l1.exe "/mnt/gpfs2_4m/scratch/rdu230/ondemand/projects/dihedral_energies/7trial/wtuning/mols_65_5_24_n-cOC-C/Gau-146643.inp" -scrdir="/mnt/gpfs2_4m/scratch/rdu230/ondemand/projects/dihedral_energies/7trial/wtuning/mols_65_5_24_n-cOC-C/"
 Entering Link 1 = /opt/ohpc/pub/libs/gaussian/g16-A.03/sandybridge/g16/l1.exe PID=    146644.
  
 Copyright (c) 1988,1990,1992,1993,1995,1998,2003,2009,2016,
            Gaussian, Inc.  All Rights Reserved.
  
 This is part of the Gaussian(R) 16 program.  It is based on
 the Gaussian(R) 09 system (copyright 2009, Gaussian, Inc.),
 the Gaussian(R) 03 system (copyright 2003, Gaussian, Inc.),
 the Gaussian(R) 98 system (copyright 1998, Gaussian, Inc.),
 the Gaussian(R) 94 system (copyright 1995, Gaussian, Inc.),
 the Gaussian 92(TM) system (copyright 1992, Gaussian, Inc.),
 the Gaussian 90(TM) system (copyright 1990, Gaussian, Inc.),
 the Gaussian 88(TM) system (copyright 1988, Gaussian, Inc.),
 the Gaussian 86(TM) system (copyright 1986, Carnegie Mellon
 University), and the Gaussian 82(TM) system (copyright 1983,
 Carnegie Mellon University). Gaussian is a federally registered
 trademark of Gaussian, Inc.
  
 This software contains proprietary and confidential information,
 including trade secrets, belonging to Gaussian, Inc.
  
 This software is provided under written license and may be
 used, copied, transmitted, or stored only in accord with that
 written license.
  
 The following legend is applicable only to US Government
 contracts under FAR:
  
                    RESTRICTED RIGHTS LEGEND
  
 Use, reproduction and disclosure by the US Government is
 subject to restrictions as set forth in subparagraphs (a)
 and (c) of the Commercial Computer Software - Restricted
 Rights clause in FAR 52.227-19.
  
 Gaussian, Inc.
 340 Quinnipiac St., Bldg. 40, Wallingford CT 06492
  
  
 ---------------------------------------------------------------
 Warning -- This program may not be used in any manner that
 competes with the business of Gaussian, Inc. or will provide
 assistance to any competitor of Gaussian, Inc.  The licensee
 of this program is prohibited from giving any competitor of
 Gaussian, Inc. access to this program.  By using this program,
 the user acknowledges that Gaussian, Inc. is engaged in the
 business of creating and licensing software in the field of
 computational chemistry and represents and warrants to the
 licensee that it is not a competitor of Gaussian, Inc. and that
 it will not use this program in any manner prohibited above.
 ---------------------------------------------------------------
  

 Cite this work as:
 Gaussian 16, Revision A.03,
 M. J. Frisch, G. W. Trucks, H. B. Schlegel, G. E. Scuseria, 
 M. A. Robb, J. R. Cheeseman, G. Scalmani, V. Barone, 
 G. A. Petersson, H. Nakatsuji, X. Li, M. Caricato, A. V. Marenich, 
 J. Bloino, B. G. Janesko, R. Gomperts, B. Mennucci, H. P. Hratchian, 
 J. V. Ortiz, A. F. Izmaylov, J. L. Sonnenberg, D. Williams-Young, 
 F. Ding, F. Lipparini, F. Egidi, J. Goings, B. Peng, A. Petrone, 
 T. Henderson, D. Ranasinghe, V. G. Zakrzewski, J. Gao, N. Rega, 
 G. Zheng, W. Liang, M. Hada, M. Ehara, K. Toyota, R. Fukuda, 
 J. Hasegawa, M. Ishida, T. Nakajima, Y. Honda, O. Kitao, H. Nakai, 
 T. Vreven, K. Throssell, J. A. Montgomery, Jr., J. E. Peralta, 
 F. Ogliaro, M. J. Bearpark, J. J. Heyd, E. N. Brothers, K. N. Kudin, 
 V. N. Staroverov, T. A. Keith, R. Kobayashi, J. Normand, 
 K. Raghavachari, A. P. Rendell, J. C. Burant, S. S. Iyengar, 
 J. Tomasi, M. Cossi, J. M. Millam, M. Klene, C. Adamo, R. Cammi, 
 J. W. Ochterski, R. L. Martin, K. Morokuma, O. Farkas, 
 J. B. Foresman, and D. J. Fox, Gaussian, Inc., Wallingford CT, 2016.
 
 ******************************************
 Gaussian 16:  EM64L-G16RevA.03 25-Dec-2016
                23-Jul-2020 
 ******************************************
 %mem=30GB
 %nproc=8
 Will use up to    8 processors via shared memory.
 ---------------------------------------------------------------
 #P uLC-wPBE/cc-pVDZ iop(3/107=0158200000, 3/108=0158200000) opt
 ---------------------------------------------------------------
 1/18=20,19=15,26=3,38=1/1,3;
 2/9=110,12=2,17=6,18=5,40=1/2;
 3/5=16,11=2,25=1,30=1,71=1,74=-41,107=158200000,108=158200000,116=2/1,2,3;
 4//1;
 5/5=2,38=5/2;
 6/7=2,8=2,9=2,10=2,28=1/1;
 7//1,2,3,16;
 1/18=20,19=15,26=3/3(2);
 2/9=110/2;
 99//99;
 2/9=110/2;
 3/5=16,11=2,25=1,30=1,71=1,74=-41,107=158200000,108=158200000,116=2/1,2,3;
 4/5=5,16=3,69=1/1;
 5/5=2,38=5/2;
 7//1,2,3,16;
 1/18=20,19=15,26=3/3(-5);
 2/9=110/2;
 6/7=2,8=2,9=2,10=2,19=2,28=1/1;
 99/9=1/99;
 Leave Link    1 at Thu Jul 23 17:01:26 2020, MaxMem=  4026531840 cpu:               3.1 elap:               0.4
 (Enter /opt/ohpc/pub/libs/gaussian/g16-A.03/sandybridge/g16/l101.exe)
 ----------------
 H37 C50 S5 N5 O5
 ----------------
 Symbolic Z-matrix:
 Charge =  0 Multiplicity = 1
 C                     18.53418   2.10106   0.07875 
 C                     17.56639   2.24706  -0.90061 
 N                     16.25002   1.7457   -0.83795 
 C                     15.98952   1.02229   0.38475 
 C                     16.89897   0.81454   1.35269 
 O                     16.47784   0.19425   2.48534 
 C                     17.40027   0.01859   3.5358 
 C                     18.23407   1.37526   1.18598 
 C                     14.63233   0.54908   0.41684 
 C                     14.14969  -0.75678   0.74978 
 C                     12.79209  -0.87142   0.72811 
 C                     12.17943   0.29563   0.21635 
 S                     13.30869   1.46214  -0.11982 
 C                     10.70208   0.46242   0.02592 
 C                     9.79806   0.03084   0.89801 
 N                     8.40147   0.17398   0.72989 
 C                     8.03913   0.80319  -0.33486 
 C                     8.80819   1.37009  -1.28987 
 O                     8.31638   2.07204  -2.38754 
 C                     9.14601   2.50314  -3.34366 
 C                     10.22707   1.24849  -1.1353 
 C                     6.55778   0.92523  -0.48023 
 C                     5.74462   2.03465  -0.66613 
 C                     4.29511   1.70158  -0.65431 
 C                     4.15095   0.32715  -0.51035 
 S                     5.55424  -0.51306  -0.30468 
 C                     2.79549  -0.4196   -0.50276 
 C                     1.74771   0.04691  -1.21472 
 N                     0.54267  -0.46184  -1.2482 
 C                     0.36712  -1.60622  -0.55437 
 C                     1.41968  -2.21312   0.25014 
 O                     1.16207  -3.4255    0.89303 
 C                     2.17334  -4.05555   1.501 
 C                     2.58462  -1.55935   0.20714 
 C                    -0.96349  -2.25761  -0.69487 
 C                    -1.30542  -3.54647  -0.8698 
 C                    -2.69651  -3.74259  -0.95037 
 C                    -3.44519  -2.60007  -0.64119 
 S                    -2.38203  -1.22515  -0.43546 
 C                    -4.94343  -2.39268  -0.58578 
 C                    -5.51823  -1.23583  -0.99829 
 N                    -6.90253  -1.01491  -0.9976 
 C                    -7.63034  -1.98662  -0.52739 
 C                    -7.09198  -3.16139   0.00961 
 O                    -7.981    -4.1317    0.4488 
 C                    -7.50074  -5.37028   0.98135 
 C                    -5.74258  -3.42251  -0.05535 
 C                    -9.04496  -1.65596  -0.45834 
 C                    -10.10301  -2.42696  -0.89681 
 C                    -11.38389  -1.83598  -0.82991 
 C                    -11.24287  -0.52055  -0.34116 
 S                    -9.67693  -0.14798   0.01663 
 C                    -12.34346   0.49052  -0.10207 
 C                    -12.13758   1.79626  -0.21974 
 N                    -13.11287   2.79795   0.03347 
 C                    -14.39422   2.31628   0.34791 
 C                    -14.66348   0.98398   0.55513 
 O                    -15.95793   0.60688   0.87841 
 C                    -16.27946  -0.70584   1.03482 
 C                    -13.63376   0.0011    0.29817 
 C                    -15.38592   3.41213   0.45828 
 C                    -16.65826   3.45131  -0.04533 
 C                    -17.28256   4.64531   0.32286 
 C                    -16.48709   5.5175    1.09933 
 S                    -14.98689   4.83778   1.46086 
 H                     19.48439   2.56776  -0.13308 
 H                     17.73996   2.77425  -1.80359 
 H                     18.27079  -0.51277   3.26619 
 H                     17.74215   1.00052   3.98149 
 H                     16.93094  -0.46787   4.34249 
 H                     18.99045   1.24643   1.94792 
 H                     14.80918  -1.49113   1.11522 
 H                     12.19654  -1.76057   0.93728 
 H                     10.10051  -0.56247   1.73477 
 H                     8.55385   3.02385  -4.09738 
 H                     9.80859   3.29595  -3.00254 
 H                     9.73382   1.68897  -3.84766 
 H                     10.9004   1.5884   -1.81362 
 H                     6.13344   3.03952  -0.76863 
 H                     3.59999   2.47172  -0.77177 
 H                     1.79711   0.98382  -1.84785 
 H                     1.86733  -4.97053   1.93279 
 H                     2.63009  -3.47198   2.28367 
 H                     2.99531  -4.25518   0.78514 
 H                     3.40245  -1.98802   0.84358 
 H                    -0.58231  -4.35733  -1.04046 
 H                    -3.18805  -4.73979  -1.11741 
 H                    -5.00416  -0.37569  -1.47453 
 H                    -6.99181  -5.86448   0.09612 
 H                    -6.77679  -5.18225   1.80585 
 H                    -8.31706  -5.97065   1.34137 
 H                    -5.28116  -4.33098   0.24556 
 H                    -10.03003  -3.46317  -1.23128 
 H                    -12.30811  -2.21745  -1.06275 
 H                    -11.18779   2.29289  -0.52701 
 H                    -15.67367  -1.22095   1.78232 
 H                    -17.36497  -0.82411   1.23046 
 H                    -16.13677  -1.28457   0.02162 
 H                    -13.77537  -1.0485    0.46035 
 H                    -17.07555   2.70529  -0.59809 
 H                    -18.28281   4.93073  -0.00144 
 H                    -16.73126   6.42029   1.56927 
 
 ITRead=  0  0  0  0  0  0  0  0  0  0  0  0  0  0  0  0  0  0  0  0
 ITRead=  0  0  0  0  0  0  0  0  0  0  0  0  0  0  0  0  0  0  0  0
 ITRead=  0  0  0  0  0  0  0  0  0  0  0  0  0  0  0  0  0  0  0  0
 ITRead=  0  0  0  0  0  0  0  0  0  0  0  0  0  0  0  0  0  0  0  0
 ITRead=  0  0  0  0  0  0  0  0  0  0  0  0  0  0  0  0  0  0  0  0
 ITRead=  0  0
 MicOpt= -1 -1 -1 -1 -1 -1 -1 -1 -1 -1 -1 -1 -1 -1 -1 -1 -1 -1 -1 -1
 MicOpt= -1 -1 -1 -1 -1 -1 -1 -1 -1 -1 -1 -1 -1 -1 -1 -1 -1 -1 -1 -1
 MicOpt= -1 -1 -1 -1 -1 -1 -1 -1 -1 -1 -1 -1 -1 -1 -1 -1 -1 -1 -1 -1
 MicOpt= -1 -1 -1 -1 -1 -1 -1 -1 -1 -1 -1 -1 -1 -1 -1 -1 -1 -1 -1 -1
 MicOpt= -1 -1 -1 -1 -1 -1 -1 -1 -1 -1 -1 -1 -1 -1 -1 -1 -1 -1 -1 -1
 MicOpt= -1 -1
 NAtoms=    102 NQM=      102 NQMF=       0 NMMI=      0 NMMIF=      0
                NMic=       0 NMicF=      0.
                    Isotopes and Nuclear Properties:
 (Nuclear quadrupole moments (NQMom) in fm**2, nuclear magnetic moments (NMagM)
  in nuclear magnetons)

  Atom         1           2           3           4           5           6           7           8           9          10
 IAtWgt=          12          12          14          12          12          16          12          12          12          12
 AtmWgt=  12.0000000  12.0000000  14.0030740  12.0000000  12.0000000  15.9949146  12.0000000  12.0000000  12.0000000  12.0000000
 NucSpn=           0           0           2           0           0           0           0           0           0           0
 AtZEff=  -0.0000000  -0.0000000  -0.0000000  -0.0000000  -0.0000000  -0.0000000  -0.0000000  -0.0000000  -0.0000000  -0.0000000
 NQMom=    0.0000000   0.0000000   2.0440000   0.0000000   0.0000000   0.0000000   0.0000000   0.0000000   0.0000000   0.0000000
 NMagM=    0.0000000   0.0000000   0.4037610   0.0000000   0.0000000   0.0000000   0.0000000   0.0000000   0.0000000   0.0000000
 AtZNuc=   6.0000000   6.0000000   7.0000000   6.0000000   6.0000000   8.0000000   6.0000000   6.0000000   6.0000000   6.0000000

  Atom        11          12          13          14          15          16          17          18          19          20
 IAtWgt=          12          12          32          12          12          14          12          12          16          12
 AtmWgt=  12.0000000  12.0000000  31.9720718  12.0000000  12.0000000  14.0030740  12.0000000  12.0000000  15.9949146  12.0000000
 NucSpn=           0           0           0           0           0           2           0           0           0           0
 AtZEff=  -0.0000000  -0.0000000  -0.0000000  -0.0000000  -0.0000000  -0.0000000  -0.0000000  -0.0000000  -0.0000000  -0.0000000
 NQMom=    0.0000000   0.0000000   0.0000000   0.0000000   0.0000000   2.0440000   0.0000000   0.0000000   0.0000000   0.0000000
 NMagM=    0.0000000   0.0000000   0.0000000   0.0000000   0.0000000   0.4037610   0.0000000   0.0000000   0.0000000   0.0000000
 AtZNuc=   6.0000000   6.0000000  16.0000000   6.0000000   6.0000000   7.0000000   6.0000000   6.0000000   8.0000000   6.0000000

  Atom        21          22          23          24          25          26          27          28          29          30
 IAtWgt=          12          12          12          12          12          32          12          12          14          12
 AtmWgt=  12.0000000  12.0000000  12.0000000  12.0000000  12.0000000  31.9720718  12.0000000  12.0000000  14.0030740  12.0000000
 NucSpn=           0           0           0           0           0           0           0           0           2           0
 AtZEff=  -0.0000000  -0.0000000  -0.0000000  -0.0000000  -0.0000000  -0.0000000  -0.0000000  -0.0000000  -0.0000000  -0.0000000
 NQMom=    0.0000000   0.0000000   0.0000000   0.0000000   0.0000000   0.0000000   0.0000000   0.0000000   2.0440000   0.0000000
 NMagM=    0.0000000   0.0000000   0.0000000   0.0000000   0.0000000   0.0000000   0.0000000   0.0000000   0.4037610   0.0000000
 AtZNuc=   6.0000000   6.0000000   6.0000000   6.0000000   6.0000000  16.0000000   6.0000000   6.0000000   7.0000000   6.0000000

  Atom        31          32          33          34          35          36          37          38          39          40
 IAtWgt=          12          16          12          12          12          12          12          12          32          12
 AtmWgt=  12.0000000  15.9949146  12.0000000  12.0000000  12.0000000  12.0000000  12.0000000  12.0000000  31.9720718  12.0000000
 NucSpn=           0           0           0           0           0           0           0           0           0           0
 AtZEff=  -0.0000000  -0.0000000  -0.0000000  -0.0000000  -0.0000000  -0.0000000  -0.0000000  -0.0000000  -0.0000000  -0.0000000
 NQMom=    0.0000000   0.0000000   0.0000000   0.0000000   0.0000000   0.0000000   0.0000000   0.0000000   0.0000000   0.0000000
 NMagM=    0.0000000   0.0000000   0.0000000   0.0000000   0.0000000   0.0000000   0.0000000   0.0000000   0.0000000   0.0000000
 AtZNuc=   6.0000000   8.0000000   6.0000000   6.0000000   6.0000000   6.0000000   6.0000000   6.0000000  16.0000000   6.0000000

  Atom        41          42          43          44          45          46          47          48          49          50
 IAtWgt=          12          14          12          12          16          12          12          12          12          12
 AtmWgt=  12.0000000  14.0030740  12.0000000  12.0000000  15.9949146  12.0000000  12.0000000  12.0000000  12.0000000  12.0000000
 NucSpn=           0           2           0           0           0           0           0           0           0           0
 AtZEff=  -0.0000000  -0.0000000  -0.0000000  -0.0000000  -0.0000000  -0.0000000  -0.0000000  -0.0000000  -0.0000000  -0.0000000
 NQMom=    0.0000000   2.0440000   0.0000000   0.0000000   0.0000000   0.0000000   0.0000000   0.0000000   0.0000000   0.0000000
 NMagM=    0.0000000   0.4037610   0.0000000   0.0000000   0.0000000   0.0000000   0.0000000   0.0000000   0.0000000   0.0000000
 AtZNuc=   6.0000000   7.0000000   6.0000000   6.0000000   8.0000000   6.0000000   6.0000000   6.0000000   6.0000000   6.0000000

  Atom        51          52          53          54          55          56          57          58          59          60
 IAtWgt=          12          32          12          12          14          12          12          16          12          12
 AtmWgt=  12.0000000  31.9720718  12.0000000  12.0000000  14.0030740  12.0000000  12.0000000  15.9949146  12.0000000  12.0000000
 NucSpn=           0           0           0           0           2           0           0           0           0           0
 AtZEff=  -0.0000000  -0.0000000  -0.0000000  -0.0000000  -0.0000000  -0.0000000  -0.0000000  -0.0000000  -0.0000000  -0.0000000
 NQMom=    0.0000000   0.0000000   0.0000000   0.0000000   2.0440000   0.0000000   0.0000000   0.0000000   0.0000000   0.0000000
 NMagM=    0.0000000   0.0000000   0.0000000   0.0000000   0.4037610   0.0000000   0.0000000   0.0000000   0.0000000   0.0000000
 AtZNuc=   6.0000000  16.0000000   6.0000000   6.0000000   7.0000000   6.0000000   6.0000000   8.0000000   6.0000000   6.0000000

  Atom        61          62          63          64          65          66          67          68          69          70
 IAtWgt=          12          12          12          12          32           1           1           1           1           1
 AtmWgt=  12.0000000  12.0000000  12.0000000  12.0000000  31.9720718   1.0078250   1.0078250   1.0078250   1.0078250   1.0078250
 NucSpn=           0           0           0           0           0           1           1           1           1           1
 AtZEff=  -0.0000000  -0.0000000  -0.0000000  -0.0000000  -0.0000000  -0.0000000  -0.0000000  -0.0000000  -0.0000000  -0.0000000
 NQMom=    0.0000000   0.0000000   0.0000000   0.0000000   0.0000000   0.0000000   0.0000000   0.0000000   0.0000000   0.0000000
 NMagM=    0.0000000   0.0000000   0.0000000   0.0000000   0.0000000   2.7928460   2.7928460   2.7928460   2.7928460   2.7928460
 AtZNuc=   6.0000000   6.0000000   6.0000000   6.0000000  16.0000000   1.0000000   1.0000000   1.0000000   1.0000000   1.0000000

  Atom        71          72          73          74          75          76          77          78          79          80
 IAtWgt=           1           1           1           1           1           1           1           1           1           1
 AtmWgt=   1.0078250   1.0078250   1.0078250   1.0078250   1.0078250   1.0078250   1.0078250   1.0078250   1.0078250   1.0078250
 NucSpn=           1           1           1           1           1           1           1           1           1           1
 AtZEff=  -0.0000000  -0.0000000  -0.0000000  -0.0000000  -0.0000000  -0.0000000  -0.0000000  -0.0000000  -0.0000000  -0.0000000
 NQMom=    0.0000000   0.0000000   0.0000000   0.0000000   0.0000000   0.0000000   0.0000000   0.0000000   0.0000000   0.0000000
 NMagM=    2.7928460   2.7928460   2.7928460   2.7928460   2.7928460   2.7928460   2.7928460   2.7928460   2.7928460   2.7928460
 AtZNuc=   1.0000000   1.0000000   1.0000000   1.0000000   1.0000000   1.0000000   1.0000000   1.0000000   1.0000000   1.0000000

  Atom        81          82          83          84          85          86          87          88          89          90
 IAtWgt=           1           1           1           1           1           1           1           1           1           1
 AtmWgt=   1.0078250   1.0078250   1.0078250   1.0078250   1.0078250   1.0078250   1.0078250   1.0078250   1.0078250   1.0078250
 NucSpn=           1           1           1           1           1           1           1           1           1           1
 AtZEff=  -0.0000000  -0.0000000  -0.0000000  -0.0000000  -0.0000000  -0.0000000  -0.0000000  -0.0000000  -0.0000000  -0.0000000
 NQMom=    0.0000000   0.0000000   0.0000000   0.0000000   0.0000000   0.0000000   0.0000000   0.0000000   0.0000000   0.0000000
 NMagM=    2.7928460   2.7928460   2.7928460   2.7928460   2.7928460   2.7928460   2.7928460   2.7928460   2.7928460   2.7928460
 AtZNuc=   1.0000000   1.0000000   1.0000000   1.0000000   1.0000000   1.0000000   1.0000000   1.0000000   1.0000000   1.0000000

  Atom        91          92          93          94          95          96          97          98          99         100
 IAtWgt=           1           1           1           1           1           1           1           1           1           1
 AtmWgt=   1.0078250   1.0078250   1.0078250   1.0078250   1.0078250   1.0078250   1.0078250   1.0078250   1.0078250   1.0078250
 NucSpn=           1           1           1           1           1           1           1           1           1           1
 AtZEff=  -0.0000000  -0.0000000  -0.0000000  -0.0000000  -0.0000000  -0.0000000  -0.0000000  -0.0000000  -0.0000000  -0.0000000
 NQMom=    0.0000000   0.0000000   0.0000000   0.0000000   0.0000000   0.0000000   0.0000000   0.0000000   0.0000000   0.0000000
 NMagM=    2.7928460   2.7928460   2.7928460   2.7928460   2.7928460   2.7928460   2.7928460   2.7928460   2.7928460   2.7928460
 AtZNuc=   1.0000000   1.0000000   1.0000000   1.0000000   1.0000000   1.0000000   1.0000000   1.0000000   1.0000000   1.0000000

  Atom       101         102
 IAtWgt=           1           1
 AtmWgt=   1.0078250   1.0078250
 NucSpn=           1           1
 AtZEff=  -0.0000000  -0.0000000
 NQMom=    0.0000000   0.0000000
 NMagM=    2.7928460   2.7928460
 AtZNuc=   1.0000000   1.0000000
 Leave Link  101 at Thu Jul 23 17:01:27 2020, MaxMem=  4026531840 cpu:               3.1 elap:               0.4
 (Enter /opt/ohpc/pub/libs/gaussian/g16-A.03/sandybridge/g16/l103.exe)

 GradGradGradGradGradGradGradGradGradGradGradGradGradGradGradGradGradGrad
 Berny optimization.
 Initialization pass.
                           ----------------------------
                           !    Initial Parameters    !
                           ! (Angstroms and Degrees)  !
 --------------------------                            --------------------------
 ! Name  Definition              Value          Derivative Info.                !
 --------------------------------------------------------------------------------
 ! R1    R(1,2)                  1.3846         estimate D2E/DX2                !
 ! R2    R(1,8)                  1.3575         estimate D2E/DX2                !
 ! R3    R(1,66)                 1.0796         estimate D2E/DX2                !
 ! R4    R(2,3)                  1.41           estimate D2E/DX2                !
 ! R5    R(2,67)                 1.0599         estimate D2E/DX2                !
 ! R6    R(3,4)                  1.4444         estimate D2E/DX2                !
 ! R7    R(4,5)                  1.3443         estimate D2E/DX2                !
 ! R8    R(4,9)                  1.4377         estimate D2E/DX2                !
 ! R9    R(5,6)                  1.3583         estimate D2E/DX2                !
 ! R10   R(5,8)                  1.4576         estimate D2E/DX2                !
 ! R11   R(6,7)                  1.409          estimate D2E/DX2                !
 ! R12   R(7,68)                 1.0549         estimate D2E/DX2                !
 ! R13   R(7,69)                 1.1313         estimate D2E/DX2                !
 ! R14   R(7,70)                 1.0525         estimate D2E/DX2                !
 ! R15   R(8,71)                 1.0813         estimate D2E/DX2                !
 ! R16   R(9,10)                 1.4314         estimate D2E/DX2                !
 ! R17   R(9,13)                 1.6952         estimate D2E/DX2                !
 ! R18   R(10,11)                1.3626         estimate D2E/DX2                !
 ! R19   R(10,72)                1.0525         estimate D2E/DX2                !
 ! R20   R(11,12)                1.414          estimate D2E/DX2                !
 ! R21   R(11,73)                1.0904         estimate D2E/DX2                !
 ! R22   R(12,13)                1.658          estimate D2E/DX2                !
 ! R23   R(12,14)                1.4989         estimate D2E/DX2                !
 ! R24   R(14,15)                1.3282         estimate D2E/DX2                !
 ! R25   R(14,21)                1.4805         estimate D2E/DX2                !
 ! R26   R(15,16)                1.4139         estimate D2E/DX2                !
 ! R27   R(15,74)                1.0694         estimate D2E/DX2                !
 ! R28   R(16,17)                1.2888         estimate D2E/DX2                !
 ! R29   R(17,18)                1.3509         estimate D2E/DX2                !
 ! R30   R(17,22)                1.4935         estimate D2E/DX2                !
 ! R31   R(18,19)                1.3927         estimate D2E/DX2                !
 ! R32   R(18,21)                1.4324         estimate D2E/DX2                !
 ! R33   R(19,20)                1.3373         estimate D2E/DX2                !
 ! R34   R(20,75)                1.0908         estimate D2E/DX2                !
 ! R35   R(20,76)                1.0881         estimate D2E/DX2                !
 ! R36   R(20,77)                1.1236         estimate D2E/DX2                !
 ! R37   R(21,78)                1.0144         estimate D2E/DX2                !
 ! R38   R(22,23)                1.388          estimate D2E/DX2                !
 ! R39   R(22,26)                1.7625         estimate D2E/DX2                !
 ! R40   R(23,24)                1.4873         estimate D2E/DX2                !
 ! R41   R(23,79)                1.0823         estimate D2E/DX2                !
 ! R42   R(24,25)                1.3894         estimate D2E/DX2                !
 ! R43   R(24,80)                1.0441         estimate D2E/DX2                !
 ! R44   R(25,26)                1.6485         estimate D2E/DX2                !
 ! R45   R(25,27)                1.5476         estimate D2E/DX2                !
 ! R46   R(27,28)                1.3499         estimate D2E/DX2                !
 ! R47   R(27,34)                1.3592         estimate D2E/DX2                !
 ! R48   R(28,29)                1.3085         estimate D2E/DX2                !
 ! R49   R(28,81)                1.1319         estimate D2E/DX2                !
 ! R50   R(29,30)                1.3498         estimate D2E/DX2                !
 ! R51   R(30,31)                1.4572         estimate D2E/DX2                !
 ! R52   R(30,35)                1.4881         estimate D2E/DX2                !
 ! R53   R(31,32)                1.3963         estimate D2E/DX2                !
 ! R54   R(31,34)                1.3365         estimate D2E/DX2                !
 ! R55   R(32,33)                1.3376         estimate D2E/DX2                !
 ! R56   R(33,82)                1.057          estimate D2E/DX2                !
 ! R57   R(33,83)                1.0778         estimate D2E/DX2                !
 ! R58   R(33,84)                1.1081         estimate D2E/DX2                !
 ! R59   R(34,85)                1.1215         estimate D2E/DX2                !
 ! R60   R(35,36)                1.3449         estimate D2E/DX2                !
 ! R61   R(35,39)                1.7736         estimate D2E/DX2                !
 ! R62   R(36,37)                1.4072         estimate D2E/DX2                !
 ! R63   R(36,86)                1.0998         estimate D2E/DX2                !
 ! R64   R(37,38)                1.4005         estimate D2E/DX2                !
 ! R65   R(37,87)                1.1242         estimate D2E/DX2                !
 ! R66   R(38,39)                1.7501         estimate D2E/DX2                !
 ! R67   R(38,40)                1.5135         estimate D2E/DX2                !
 ! R68   R(40,41)                1.356          estimate D2E/DX2                !
 ! R69   R(40,47)                1.4073         estimate D2E/DX2                !
 ! R70   R(41,42)                1.4018         estimate D2E/DX2                !
 ! R71   R(41,88)                1.1095         estimate D2E/DX2                !
 ! R72   R(42,43)                1.3019         estimate D2E/DX2                !
 ! R73   R(43,44)                1.3994         estimate D2E/DX2                !
 ! R74   R(43,48)                1.4544         estimate D2E/DX2                !
 ! R75   R(44,45)                1.3874         estimate D2E/DX2                !
 ! R76   R(44,47)                1.376          estimate D2E/DX2                !
 ! R77   R(45,46)                1.4312         estimate D2E/DX2                !
 ! R78   R(46,89)                1.1344         estimate D2E/DX2                !
 ! R79   R(46,90)                1.1132         estimate D2E/DX2                !
 ! R80   R(46,91)                1.0754         estimate D2E/DX2                !
 ! R81   R(47,92)                1.0624         estimate D2E/DX2                !
 ! R82   R(48,49)                1.3806         estimate D2E/DX2                !
 ! R83   R(48,52)                1.7026         estimate D2E/DX2                !
 ! R84   R(49,50)                1.4122         estimate D2E/DX2                !
 ! R85   R(49,93)                1.0913         estimate D2E/DX2                !
 ! R86   R(50,51)                1.4104         estimate D2E/DX2                !
 ! R87   R(50,94)                1.0266         estimate D2E/DX2                !
 ! R88   R(51,52)                1.6489         estimate D2E/DX2                !
 ! R89   R(51,53)                1.5135         estimate D2E/DX2                !
 ! R90   R(53,54)                1.3271         estimate D2E/DX2                !
 ! R91   R(53,60)                1.4369         estimate D2E/DX2                !
 ! R92   R(54,55)                1.4208         estimate D2E/DX2                !
 ! R93   R(54,95)                1.115          estimate D2E/DX2                !
 ! R94   R(55,56)                1.4045         estimate D2E/DX2                !
 ! R95   R(56,57)                1.3749         estimate D2E/DX2                !
 ! R96   R(56,61)                1.4821         estimate D2E/DX2                !
 ! R97   R(57,58)                1.3865         estimate D2E/DX2                !
 ! R98   R(57,60)                1.4465         estimate D2E/DX2                !
 ! R99   R(58,59)                1.3606         estimate D2E/DX2                !
 ! R100  R(59,96)                1.0914         estimate D2E/DX2                !
 ! R101  R(59,97)                1.1093         estimate D2E/DX2                !
 ! R102  R(59,98)                1.1755         estimate D2E/DX2                !
 ! R103  R(60,99)                1.0715         estimate D2E/DX2                !
 ! R104  R(61,62)                1.3689         estimate D2E/DX2                !
 ! R105  R(61,65)                1.788          estimate D2E/DX2                !
 ! R106  R(62,63)                1.3968         estimate D2E/DX2                !
 ! R107  R(62,100)               1.018          estimate D2E/DX2                !
 ! R108  R(63,64)                1.4129         estimate D2E/DX2                !
 ! R109  R(63,101)               1.0896         estimate D2E/DX2                !
 ! R110  R(64,65)                1.6862         estimate D2E/DX2                !
 ! R111  R(64,102)               1.0467         estimate D2E/DX2                !
 ! A1    A(2,1,8)              118.6057         estimate D2E/DX2                !
 ! A2    A(2,1,66)             115.5202         estimate D2E/DX2                !
 ! A3    A(8,1,66)             125.8544         estimate D2E/DX2                !
 ! A4    A(1,2,3)              125.7062         estimate D2E/DX2                !
 ! A5    A(1,2,67)             122.7231         estimate D2E/DX2                !
 ! A6    A(3,2,67)             111.5679         estimate D2E/DX2                !
 ! A7    A(2,3,4)              112.587          estimate D2E/DX2                !
 ! A8    A(3,4,5)              124.3966         estimate D2E/DX2                !
 ! A9    A(3,4,9)              110.7324         estimate D2E/DX2                !
 ! A10   A(5,4,9)              124.8694         estimate D2E/DX2                !
 ! A11   A(4,5,6)              117.4667         estimate D2E/DX2                !
 ! A12   A(4,5,8)              118.5454         estimate D2E/DX2                !
 ! A13   A(6,5,8)              123.7114         estimate D2E/DX2                !
 ! A14   A(5,6,7)              118.4016         estimate D2E/DX2                !
 ! A15   A(6,7,68)             114.3623         estimate D2E/DX2                !
 ! A16   A(6,7,69)             112.5425         estimate D2E/DX2                !
 ! A17   A(6,7,70)             109.7019         estimate D2E/DX2                !
 ! A18   A(68,7,69)            106.7694         estimate D2E/DX2                !
 ! A19   A(68,7,70)            109.3342         estimate D2E/DX2                !
 ! A20   A(69,7,70)            103.5321         estimate D2E/DX2                !
 ! A21   A(1,8,5)              120.0955         estimate D2E/DX2                !
 ! A22   A(1,8,71)             118.9333         estimate D2E/DX2                !
 ! A23   A(5,8,71)             120.949          estimate D2E/DX2                !
 ! A24   A(4,9,10)             128.5907         estimate D2E/DX2                !
 ! A25   A(4,9,13)             123.556          estimate D2E/DX2                !
 ! A26   A(10,9,13)            107.561          estimate D2E/DX2                !
 ! A27   A(9,10,11)            114.1413         estimate D2E/DX2                !
 ! A28   A(9,10,72)            120.3974         estimate D2E/DX2                !
 ! A29   A(11,10,72)           124.8278         estimate D2E/DX2                !
 ! A30   A(10,11,12)           111.5931         estimate D2E/DX2                !
 ! A31   A(10,11,73)           127.5693         estimate D2E/DX2                !
 ! A32   A(12,11,73)           120.3848         estimate D2E/DX2                !
 ! A33   A(11,12,13)           111.0374         estimate D2E/DX2                !
 ! A34   A(11,12,14)           124.3952         estimate D2E/DX2                !
 ! A35   A(13,12,14)           124.5597         estimate D2E/DX2                !
 ! A36   A(9,13,12)             95.0873         estimate D2E/DX2                !
 ! A37   A(12,14,15)           123.4556         estimate D2E/DX2                !
 ! A38   A(12,14,21)           118.3564         estimate D2E/DX2                !
 ! A39   A(15,14,21)           117.9786         estimate D2E/DX2                !
 ! A40   A(14,15,16)           124.1475         estimate D2E/DX2                !
 ! A41   A(14,15,74)           120.1014         estimate D2E/DX2                !
 ! A42   A(16,15,74)           115.3757         estimate D2E/DX2                !
 ! A43   A(15,16,17)           115.1744         estimate D2E/DX2                !
 ! A44   A(16,17,18)           128.9685         estimate D2E/DX2                !
 ! A45   A(16,17,22)           113.5278         estimate D2E/DX2                !
 ! A46   A(18,17,22)           117.4895         estimate D2E/DX2                !
 ! A47   A(17,18,19)           124.5886         estimate D2E/DX2                !
 ! A48   A(17,18,21)           116.8727         estimate D2E/DX2                !
 ! A49   A(19,18,21)           118.5311         estimate D2E/DX2                !
 ! A50   A(18,19,20)           120.4596         estimate D2E/DX2                !
 ! A51   A(19,20,75)           108.127          estimate D2E/DX2                !
 ! A52   A(19,20,76)           112.8626         estimate D2E/DX2                !
 ! A53   A(19,20,77)           114.3111         estimate D2E/DX2                !
 ! A54   A(75,20,76)           101.5004         estimate D2E/DX2                !
 ! A55   A(75,20,77)           108.6604         estimate D2E/DX2                !
 ! A56   A(76,20,77)           110.4896         estimate D2E/DX2                !
 ! A57   A(14,21,18)           116.5835         estimate D2E/DX2                !
 ! A58   A(14,21,78)           119.3018         estimate D2E/DX2                !
 ! A59   A(18,21,78)           123.8406         estimate D2E/DX2                !
 ! A60   A(17,22,23)           131.2574         estimate D2E/DX2                !
 ! A61   A(17,22,26)           119.2335         estimate D2E/DX2                !
 ! A62   A(23,22,26)           109.3913         estimate D2E/DX2                !
 ! A63   A(22,23,24)           113.0098         estimate D2E/DX2                !
 ! A64   A(22,23,79)           122.9769         estimate D2E/DX2                !
 ! A65   A(24,23,79)           123.9707         estimate D2E/DX2                !
 ! A66   A(23,24,25)           108.8719         estimate D2E/DX2                !
 ! A67   A(23,24,80)           118.8662         estimate D2E/DX2                !
 ! A68   A(25,24,80)           132.2398         estimate D2E/DX2                !
 ! A69   A(24,25,26)           115.3907         estimate D2E/DX2                !
 ! A70   A(24,25,27)           124.6594         estimate D2E/DX2                !
 ! A71   A(26,25,27)           119.9364         estimate D2E/DX2                !
 ! A72   A(22,26,25)            93.2294         estimate D2E/DX2                !
 ! A73   A(25,27,28)           120.6957         estimate D2E/DX2                !
 ! A74   A(25,27,34)           122.8925         estimate D2E/DX2                !
 ! A75   A(28,27,34)           116.4115         estimate D2E/DX2                !
 ! A76   A(27,28,29)           126.4382         estimate D2E/DX2                !
 ! A77   A(27,28,81)           123.1745         estimate D2E/DX2                !
 ! A78   A(29,28,81)           110.348          estimate D2E/DX2                !
 ! A79   A(28,29,30)           115.8664         estimate D2E/DX2                !
 ! A80   A(29,30,31)           122.886          estimate D2E/DX2                !
 ! A81   A(29,30,35)           116.0322         estimate D2E/DX2                !
 ! A82   A(31,30,35)           121.0424         estimate D2E/DX2                !
 ! A83   A(30,31,32)           118.8535         estimate D2E/DX2                !
 ! A84   A(30,31,34)           114.085          estimate D2E/DX2                !
 ! A85   A(32,31,34)           126.8953         estimate D2E/DX2                !
 ! A86   A(31,32,33)           118.6058         estimate D2E/DX2                !
 ! A87   A(32,33,82)           111.9948         estimate D2E/DX2                !
 ! A88   A(32,33,83)           113.2902         estimate D2E/DX2                !
 ! A89   A(32,33,84)           110.6106         estimate D2E/DX2                !
 ! A90   A(82,33,83)           107.1414         estimate D2E/DX2                !
 ! A91   A(82,33,84)           108.8266         estimate D2E/DX2                !
 ! A92   A(83,33,84)           104.6136         estimate D2E/DX2                !
 ! A93   A(27,34,31)           124.2076         estimate D2E/DX2                !
 ! A94   A(27,34,85)           120.2516         estimate D2E/DX2                !
 ! A95   A(31,34,85)           115.4925         estimate D2E/DX2                !
 ! A96   A(30,35,36)           131.2316         estimate D2E/DX2                !
 ! A97   A(30,35,39)           116.5215         estimate D2E/DX2                !
 ! A98   A(36,35,39)           111.9356         estimate D2E/DX2                !
 ! A99   A(35,36,37)           113.1012         estimate D2E/DX2                !
 ! A100  A(35,36,86)           124.0289         estimate D2E/DX2                !
 ! A101  A(37,36,86)           122.5715         estimate D2E/DX2                !
 ! A102  A(36,37,38)           113.7116         estimate D2E/DX2                !
 ! A103  A(36,37,87)           124.3569         estimate D2E/DX2                !
 ! A104  A(38,37,87)           121.5121         estimate D2E/DX2                !
 ! A105  A(37,38,39)           110.0042         estimate D2E/DX2                !
 ! A106  A(37,38,40)           130.4685         estimate D2E/DX2                !
 ! A107  A(39,38,40)           119.2999         estimate D2E/DX2                !
 ! A108  A(35,39,38)            90.6504         estimate D2E/DX2                !
 ! A109  A(38,40,41)           121.6919         estimate D2E/DX2                !
 ! A110  A(38,40,47)           118.4014         estimate D2E/DX2                !
 ! A111  A(41,40,47)           119.8828         estimate D2E/DX2                !
 ! A112  A(40,41,42)           123.5646         estimate D2E/DX2                !
 ! A113  A(40,41,88)           126.5531         estimate D2E/DX2                !
 ! A114  A(42,41,88)           109.6084         estimate D2E/DX2                !
 ! A115  A(41,42,43)           115.7597         estimate D2E/DX2                !
 ! A116  A(42,43,44)           123.3731         estimate D2E/DX2                !
 ! A117  A(42,43,48)           113.0293         estimate D2E/DX2                !
 ! A118  A(44,43,48)           123.1498         estimate D2E/DX2                !
 ! A119  A(43,44,45)           117.5221         estimate D2E/DX2                !
 ! A120  A(43,44,47)           121.2301         estimate D2E/DX2                !
 ! A121  A(45,44,47)           120.7074         estimate D2E/DX2                !
 ! A122  A(44,45,46)           120.5325         estimate D2E/DX2                !
 ! A123  A(45,46,89)           103.721          estimate D2E/DX2                !
 ! A124  A(45,46,90)           110.3439         estimate D2E/DX2                !
 ! A125  A(45,46,91)           110.6708         estimate D2E/DX2                !
 ! A126  A(89,46,90)           111.0869         estimate D2E/DX2                !
 ! A127  A(89,46,91)           111.0134         estimate D2E/DX2                !
 ! A128  A(90,46,91)           109.8765         estimate D2E/DX2                !
 ! A129  A(40,47,44)           115.8374         estimate D2E/DX2                !
 ! A130  A(40,47,92)           119.0679         estimate D2E/DX2                !
 ! A131  A(44,47,92)           125.0868         estimate D2E/DX2                !
 ! A132  A(43,48,49)           127.1102         estimate D2E/DX2                !
 ! A133  A(43,48,52)           125.1432         estimate D2E/DX2                !
 ! A134  A(49,48,52)           107.3822         estimate D2E/DX2                !
 ! A135  A(48,49,50)           116.5084         estimate D2E/DX2                !
 ! A136  A(48,49,93)           125.1937         estimate D2E/DX2                !
 ! A137  A(50,49,93)           118.1982         estimate D2E/DX2                !
 ! A138  A(49,50,51)           108.4238         estimate D2E/DX2                !
 ! A139  A(49,50,94)           130.5634         estimate D2E/DX2                !
 ! A140  A(51,50,94)           121.0098         estimate D2E/DX2                !
 ! A141  A(50,51,52)           112.3882         estimate D2E/DX2                !
 ! A142  A(50,51,53)           127.236          estimate D2E/DX2                !
 ! A143  A(52,51,53)           120.3555         estimate D2E/DX2                !
 ! A144  A(48,52,51)            95.2698         estimate D2E/DX2                !
 ! A145  A(51,53,54)           122.0366         estimate D2E/DX2                !
 ! A146  A(51,53,60)           117.9994         estimate D2E/DX2                !
 ! A147  A(54,53,60)           119.943          estimate D2E/DX2                !
 ! A148  A(53,54,55)           124.8464         estimate D2E/DX2                !
 ! A149  A(53,54,95)           126.5008         estimate D2E/DX2                !
 ! A150  A(55,54,95)           108.6527         estimate D2E/DX2                !
 ! A151  A(54,55,56)           115.1095         estimate D2E/DX2                !
 ! A152  A(55,56,57)           123.0042         estimate D2E/DX2                !
 ! A153  A(55,56,61)           111.9341         estimate D2E/DX2                !
 ! A154  A(57,56,61)           125.0445         estimate D2E/DX2                !
 ! A155  A(56,57,58)           118.7848         estimate D2E/DX2                !
 ! A156  A(56,57,60)           119.4872         estimate D2E/DX2                !
 ! A157  A(58,57,60)           121.4149         estimate D2E/DX2                !
 ! A158  A(57,58,59)           120.6548         estimate D2E/DX2                !
 ! A159  A(58,59,96)           113.763          estimate D2E/DX2                !
 ! A160  A(58,59,97)           110.7563         estimate D2E/DX2                !
 ! A161  A(58,59,98)           110.3183         estimate D2E/DX2                !
 ! A162  A(96,59,97)           111.8415         estimate D2E/DX2                !
 ! A163  A(96,59,98)           106.894          estimate D2E/DX2                !
 ! A164  A(97,59,98)           102.6097         estimate D2E/DX2                !
 ! A165  A(53,60,57)           117.2124         estimate D2E/DX2                !
 ! A166  A(53,60,99)           119.6378         estimate D2E/DX2                !
 ! A167  A(57,60,99)           123.0005         estimate D2E/DX2                !
 ! A168  A(56,61,62)           128.0012         estimate D2E/DX2                !
 ! A169  A(56,61,65)           118.8158         estimate D2E/DX2                !
 ! A170  A(62,61,65)           113.0095         estimate D2E/DX2                !
 ! A171  A(61,62,63)           110.0546         estimate D2E/DX2                !
 ! A172  A(61,62,100)          124.0414         estimate D2E/DX2                !
 ! A173  A(63,62,100)          125.9013         estimate D2E/DX2                !
 ! A174  A(62,63,64)           114.8915         estimate D2E/DX2                !
 ! A175  A(62,63,101)          123.7659         estimate D2E/DX2                !
 ! A176  A(64,63,101)          121.2455         estimate D2E/DX2                !
 ! A177  A(63,64,65)           111.7081         estimate D2E/DX2                !
 ! A178  A(63,64,102)          130.3788         estimate D2E/DX2                !
 ! A179  A(65,64,102)          117.3215         estimate D2E/DX2                !
 ! A180  A(61,65,64)            90.1512         estimate D2E/DX2                !
 ! D1    D(8,1,2,3)              2.5799         estimate D2E/DX2                !
 ! D2    D(8,1,2,67)          -178.0802         estimate D2E/DX2                !
 ! D3    D(66,1,2,3)          -178.939          estimate D2E/DX2                !
 ! D4    D(66,1,2,67)            0.4009         estimate D2E/DX2                !
 ! D5    D(2,1,8,5)             -2.5317         estimate D2E/DX2                !
 ! D6    D(2,1,8,71)           179.1673         estimate D2E/DX2                !
 ! D7    D(66,1,8,5)           179.1595         estimate D2E/DX2                !
 ! D8    D(66,1,8,71)            0.8585         estimate D2E/DX2                !
 ! D9    D(1,2,3,4)             -0.6151         estimate D2E/DX2                !
 ! D10   D(67,2,3,4)           179.982          estimate D2E/DX2                !
 ! D11   D(2,3,4,5)             -1.4266         estimate D2E/DX2                !
 ! D12   D(2,3,4,9)            179.0274         estimate D2E/DX2                !
 ! D13   D(3,4,5,6)            175.5973         estimate D2E/DX2                !
 ! D14   D(3,4,5,8)              1.4093         estimate D2E/DX2                !
 ! D15   D(9,4,5,6)             -4.9202         estimate D2E/DX2                !
 ! D16   D(9,4,5,8)           -179.1082         estimate D2E/DX2                !
 ! D17   D(3,4,9,10)           132.4934         estimate D2E/DX2                !
 ! D18   D(3,4,9,13)           -40.5036         estimate D2E/DX2                !
 ! D19   D(5,4,9,10)           -47.05           estimate D2E/DX2                !
 ! D20   D(5,4,9,13)           139.953          estimate D2E/DX2                !
 ! D21   D(4,5,6,7)           -177.2841         estimate D2E/DX2                !
 ! D22   D(8,5,6,7)             -3.4229         estimate D2E/DX2                !
 ! D23   D(4,5,8,1)              0.6735         estimate D2E/DX2                !
 ! D24   D(4,5,8,71)           178.9398         estimate D2E/DX2                !
 ! D25   D(6,5,8,1)           -173.1257         estimate D2E/DX2                !
 ! D26   D(6,5,8,71)             5.1405         estimate D2E/DX2                !
 ! D27   D(5,6,7,68)           -57.1087         estimate D2E/DX2                !
 ! D28   D(5,6,7,69)            64.9565         estimate D2E/DX2                !
 ! D29   D(5,6,7,70)           179.6483         estimate D2E/DX2                !
 ! D30   D(4,9,10,11)          177.8935         estimate D2E/DX2                !
 ! D31   D(4,9,10,72)            6.5864         estimate D2E/DX2                !
 ! D32   D(13,9,10,11)          -8.2241         estimate D2E/DX2                !
 ! D33   D(13,9,10,72)        -179.5312         estimate D2E/DX2                !
 ! D34   D(4,9,13,12)          179.6866         estimate D2E/DX2                !
 ! D35   D(10,9,13,12)           5.4232         estimate D2E/DX2                !
 ! D36   D(9,10,11,12)           7.3293         estimate D2E/DX2                !
 ! D37   D(9,10,11,73)         179.5398         estimate D2E/DX2                !
 ! D38   D(72,10,11,12)        178.1914         estimate D2E/DX2                !
 ! D39   D(72,10,11,73)         -9.598          estimate D2E/DX2                !
 ! D40   D(10,11,12,13)         -2.976          estimate D2E/DX2                !
 ! D41   D(10,11,12,14)        177.9983         estimate D2E/DX2                !
 ! D42   D(73,11,12,13)       -175.8223         estimate D2E/DX2                !
 ! D43   D(73,11,12,14)          5.152          estimate D2E/DX2                !
 ! D44   D(11,12,13,9)          -1.6162         estimate D2E/DX2                !
 ! D45   D(14,12,13,9)         177.4077         estimate D2E/DX2                !
 ! D46   D(11,12,14,15)         40.6464         estimate D2E/DX2                !
 ! D47   D(11,12,14,21)       -144.7251         estimate D2E/DX2                !
 ! D48   D(13,12,14,15)       -138.2494         estimate D2E/DX2                !
 ! D49   D(13,12,14,21)         36.3791         estimate D2E/DX2                !
 ! D50   D(12,14,15,16)       -179.6509         estimate D2E/DX2                !
 ! D51   D(12,14,15,74)         -7.0177         estimate D2E/DX2                !
 ! D52   D(21,14,15,16)          5.7016         estimate D2E/DX2                !
 ! D53   D(21,14,15,74)        178.3348         estimate D2E/DX2                !
 ! D54   D(12,14,21,18)        179.2657         estimate D2E/DX2                !
 ! D55   D(12,14,21,78)          5.0479         estimate D2E/DX2                !
 ! D56   D(15,14,21,18)         -5.8081         estimate D2E/DX2                !
 ! D57   D(15,14,21,78)        179.974          estimate D2E/DX2                !
 ! D58   D(14,15,16,17)         -2.0076         estimate D2E/DX2                !
 ! D59   D(74,15,16,17)       -174.9553         estimate D2E/DX2                !
 ! D60   D(15,16,17,18)         -1.8074         estimate D2E/DX2                !
 ! D61   D(15,16,17,22)        179.6138         estimate D2E/DX2                !
 ! D62   D(16,17,18,19)       -177.6955         estimate D2E/DX2                !
 ! D63   D(16,17,18,21)          1.29           estimate D2E/DX2                !
 ! D64   D(22,17,18,19)          0.8356         estimate D2E/DX2                !
 ! D65   D(22,17,18,21)        179.8211         estimate D2E/DX2                !
 ! D66   D(16,17,22,23)        125.7149         estimate D2E/DX2                !
 ! D67   D(16,17,22,26)        -49.8802         estimate D2E/DX2                !
 ! D68   D(18,17,22,23)        -53.0396         estimate D2E/DX2                !
 ! D69   D(18,17,22,26)        131.3654         estimate D2E/DX2                !
 ! D70   D(17,18,19,20)       -174.3289         estimate D2E/DX2                !
 ! D71   D(21,18,19,20)          6.7012         estimate D2E/DX2                !
 ! D72   D(17,18,21,14)          2.5691         estimate D2E/DX2                !
 ! D73   D(17,18,21,78)        176.4973         estimate D2E/DX2                !
 ! D74   D(19,18,21,14)       -178.3815         estimate D2E/DX2                !
 ! D75   D(19,18,21,78)         -4.4533         estimate D2E/DX2                !
 ! D76   D(18,19,20,75)       -179.8941         estimate D2E/DX2                !
 ! D77   D(18,19,20,76)        -68.4428         estimate D2E/DX2                !
 ! D78   D(18,19,20,77)         58.9535         estimate D2E/DX2                !
 ! D79   D(17,22,23,24)       -175.5163         estimate D2E/DX2                !
 ! D80   D(17,22,23,79)          2.1959         estimate D2E/DX2                !
 ! D81   D(26,22,23,24)          0.4092         estimate D2E/DX2                !
 ! D82   D(26,22,23,79)        178.1214         estimate D2E/DX2                !
 ! D83   D(17,22,26,25)        177.8625         estimate D2E/DX2                !
 ! D84   D(23,22,26,25)          1.3718         estimate D2E/DX2                !
 ! D85   D(22,23,24,25)         -2.4326         estimate D2E/DX2                !
 ! D86   D(22,23,24,80)        179.0712         estimate D2E/DX2                !
 ! D87   D(79,23,24,25)        179.8817         estimate D2E/DX2                !
 ! D88   D(79,23,24,80)          1.3854         estimate D2E/DX2                !
 ! D89   D(23,24,25,26)          3.5728         estimate D2E/DX2                !
 ! D90   D(23,24,25,27)       -177.7708         estimate D2E/DX2                !
 ! D91   D(80,24,25,26)       -178.2061         estimate D2E/DX2                !
 ! D92   D(80,24,25,27)          0.4503         estimate D2E/DX2                !
 ! D93   D(24,25,26,22)         -2.9742         estimate D2E/DX2                !
 ! D94   D(27,25,26,22)        178.3012         estimate D2E/DX2                !
 ! D95   D(24,25,27,28)         31.0018         estimate D2E/DX2                !
 ! D96   D(24,25,27,34)       -148.8091         estimate D2E/DX2                !
 ! D97   D(26,25,27,28)       -150.3989         estimate D2E/DX2                !
 ! D98   D(26,25,27,34)         29.7901         estimate D2E/DX2                !
 ! D99   D(25,27,28,29)       -177.1498         estimate D2E/DX2                !
 ! D100  D(25,27,28,81)          0.3443         estimate D2E/DX2                !
 ! D101  D(34,27,28,29)          2.673          estimate D2E/DX2                !
 ! D102  D(34,27,28,81)       -179.8329         estimate D2E/DX2                !
 ! D103  D(25,27,34,31)        178.8524         estimate D2E/DX2                !
 ! D104  D(25,27,34,85)          1.498          estimate D2E/DX2                !
 ! D105  D(28,27,34,31)         -0.9661         estimate D2E/DX2                !
 ! D106  D(28,27,34,85)       -178.3205         estimate D2E/DX2                !
 ! D107  D(27,28,29,30)         -3.8349         estimate D2E/DX2                !
 ! D108  D(81,28,29,30)        178.4021         estimate D2E/DX2                !
 ! D109  D(28,29,30,31)          3.3818         estimate D2E/DX2                !
 ! D110  D(28,29,30,35)       -174.3557         estimate D2E/DX2                !
 ! D111  D(29,30,31,32)       -177.5863         estimate D2E/DX2                !
 ! D112  D(29,30,31,34)         -1.9495         estimate D2E/DX2                !
 ! D113  D(35,30,31,32)          0.0409         estimate D2E/DX2                !
 ! D114  D(35,30,31,34)        175.6777         estimate D2E/DX2                !
 ! D115  D(29,30,35,36)        136.4138         estimate D2E/DX2                !
 ! D116  D(29,30,35,39)        -50.5994         estimate D2E/DX2                !
 ! D117  D(31,30,35,36)        -41.3688         estimate D2E/DX2                !
 ! D118  D(31,30,35,39)        131.6181         estimate D2E/DX2                !
 ! D119  D(30,31,32,33)        172.3712         estimate D2E/DX2                !
 ! D120  D(34,31,32,33)         -2.6466         estimate D2E/DX2                !
 ! D121  D(30,31,34,27)          0.6861         estimate D2E/DX2                !
 ! D122  D(30,31,34,85)        178.1544         estimate D2E/DX2                !
 ! D123  D(32,31,34,27)        175.9067         estimate D2E/DX2                !
 ! D124  D(32,31,34,85)         -6.625          estimate D2E/DX2                !
 ! D125  D(31,32,33,82)       -178.6779         estimate D2E/DX2                !
 ! D126  D(31,32,33,83)         59.9938         estimate D2E/DX2                !
 ! D127  D(31,32,33,84)        -57.0941         estimate D2E/DX2                !
 ! D128  D(30,35,36,37)        179.7239         estimate D2E/DX2                !
 ! D129  D(30,35,36,86)         -6.4223         estimate D2E/DX2                !
 ! D130  D(39,35,36,37)          6.4876         estimate D2E/DX2                !
 ! D131  D(39,35,36,86)       -179.6585         estimate D2E/DX2                !
 ! D132  D(30,35,39,38)       -176.5257         estimate D2E/DX2                !
 ! D133  D(36,35,39,38)         -2.2067         estimate D2E/DX2                !
 ! D134  D(35,36,37,38)         -8.7391         estimate D2E/DX2                !
 ! D135  D(35,36,37,87)        178.6196         estimate D2E/DX2                !
 ! D136  D(86,36,37,38)        177.3048         estimate D2E/DX2                !
 ! D137  D(86,36,37,87)          4.6636         estimate D2E/DX2                !
 ! D138  D(36,37,38,39)          6.7837         estimate D2E/DX2                !
 ! D139  D(36,37,38,40)       -178.8533         estimate D2E/DX2                !
 ! D140  D(87,37,38,39)        179.6592         estimate D2E/DX2                !
 ! D141  D(87,37,38,40)         -5.9779         estimate D2E/DX2                !
 ! D142  D(37,38,39,35)         -2.608          estimate D2E/DX2                !
 ! D143  D(40,38,39,35)       -177.6924         estimate D2E/DX2                !
 ! D144  D(37,38,40,41)       -142.6252         estimate D2E/DX2                !
 ! D145  D(37,38,40,47)         39.1578         estimate D2E/DX2                !
 ! D146  D(39,38,40,41)         31.2992         estimate D2E/DX2                !
 ! D147  D(39,38,40,47)       -146.9178         estimate D2E/DX2                !
 ! D148  D(38,40,41,42)        178.245          estimate D2E/DX2                !
 ! D149  D(38,40,41,88)          4.8919         estimate D2E/DX2                !
 ! D150  D(47,40,41,42)         -3.5639         estimate D2E/DX2                !
 ! D151  D(47,40,41,88)       -176.917          estimate D2E/DX2                !
 ! D152  D(38,40,47,44)        177.9873         estimate D2E/DX2                !
 ! D153  D(38,40,47,92)         -2.9818         estimate D2E/DX2                !
 ! D154  D(41,40,47,44)         -0.2629         estimate D2E/DX2                !
 ! D155  D(41,40,47,92)        178.7679         estimate D2E/DX2                !
 ! D156  D(40,41,42,43)          2.1944         estimate D2E/DX2                !
 ! D157  D(88,41,42,43)        176.5297         estimate D2E/DX2                !
 ! D158  D(41,42,43,44)          3.0106         estimate D2E/DX2                !
 ! D159  D(41,42,43,48)        175.5382         estimate D2E/DX2                !
 ! D160  D(42,43,44,45)       -178.5679         estimate D2E/DX2                !
 ! D161  D(42,43,44,47)         -6.9432         estimate D2E/DX2                !
 ! D162  D(48,43,44,45)          9.6507         estimate D2E/DX2                !
 ! D163  D(48,43,44,47)       -178.7247         estimate D2E/DX2                !
 ! D164  D(42,43,48,49)        132.3562         estimate D2E/DX2                !
 ! D165  D(42,43,48,52)        -39.8236         estimate D2E/DX2                !
 ! D166  D(44,43,48,49)        -55.097          estimate D2E/DX2                !
 ! D167  D(44,43,48,52)        132.7233         estimate D2E/DX2                !
 ! D168  D(43,44,45,46)        178.5903         estimate D2E/DX2                !
 ! D169  D(47,44,45,46)          6.9196         estimate D2E/DX2                !
 ! D170  D(43,44,47,40)          5.1994         estimate D2E/DX2                !
 ! D171  D(43,44,47,92)       -173.7654         estimate D2E/DX2                !
 ! D172  D(45,44,47,40)        176.5586         estimate D2E/DX2                !
 ! D173  D(45,44,47,92)         -2.4062         estimate D2E/DX2                !
 ! D174  D(44,45,46,89)        -65.2495         estimate D2E/DX2                !
 ! D175  D(44,45,46,90)         53.7972         estimate D2E/DX2                !
 ! D176  D(44,45,46,91)        175.6308         estimate D2E/DX2                !
 ! D177  D(43,48,49,50)       -174.4461         estimate D2E/DX2                !
 ! D178  D(43,48,49,93)          9.2651         estimate D2E/DX2                !
 ! D179  D(52,48,49,50)         -1.1412         estimate D2E/DX2                !
 ! D180  D(52,48,49,93)       -177.4301         estimate D2E/DX2                !
 ! D181  D(43,48,52,51)        173.5841         estimate D2E/DX2                !
 ! D182  D(49,48,52,51)          0.1128         estimate D2E/DX2                !
 ! D183  D(48,49,50,51)          1.7893         estimate D2E/DX2                !
 ! D184  D(48,49,50,94)       -177.5774         estimate D2E/DX2                !
 ! D185  D(93,49,50,51)        178.3484         estimate D2E/DX2                !
 ! D186  D(93,49,50,94)         -1.0182         estimate D2E/DX2                !
 ! D187  D(49,50,51,52)         -1.6192         estimate D2E/DX2                !
 ! D188  D(49,50,51,53)       -179.9671         estimate D2E/DX2                !
 ! D189  D(94,50,51,52)        177.8194         estimate D2E/DX2                !
 ! D190  D(94,50,51,53)         -0.5285         estimate D2E/DX2                !
 ! D191  D(50,51,52,48)          0.9073         estimate D2E/DX2                !
 ! D192  D(53,51,52,48)        179.383          estimate D2E/DX2                !
 ! D193  D(50,51,53,54)       -149.4947         estimate D2E/DX2                !
 ! D194  D(50,51,53,60)         32.1737         estimate D2E/DX2                !
 ! D195  D(52,51,53,54)         32.2756         estimate D2E/DX2                !
 ! D196  D(52,51,53,60)       -146.0561         estimate D2E/DX2                !
 ! D197  D(51,53,54,55)       -177.7918         estimate D2E/DX2                !
 ! D198  D(51,53,54,95)          2.109          estimate D2E/DX2                !
 ! D199  D(60,53,54,55)          0.5082         estimate D2E/DX2                !
 ! D200  D(60,53,54,95)       -179.591          estimate D2E/DX2                !
 ! D201  D(51,53,60,57)        178.4646         estimate D2E/DX2                !
 ! D202  D(51,53,60,99)          2.7724         estimate D2E/DX2                !
 ! D203  D(54,53,60,57)          0.0967         estimate D2E/DX2                !
 ! D204  D(54,53,60,99)       -175.5954         estimate D2E/DX2                !
 ! D205  D(53,54,55,56)         -4.0661         estimate D2E/DX2                !
 ! D206  D(95,54,55,56)        176.0181         estimate D2E/DX2                !
 ! D207  D(54,55,56,57)          7.4272         estimate D2E/DX2                !
 ! D208  D(54,55,56,61)       -174.0094         estimate D2E/DX2                !
 ! D209  D(55,56,57,58)        179.1652         estimate D2E/DX2                !
 ! D210  D(55,56,57,60)         -7.1688         estimate D2E/DX2                !
 ! D211  D(61,56,57,58)          0.7928         estimate D2E/DX2                !
 ! D212  D(61,56,57,60)        174.4589         estimate D2E/DX2                !
 ! D213  D(55,56,61,62)        135.994          estimate D2E/DX2                !
 ! D214  D(55,56,61,65)        -49.1552         estimate D2E/DX2                !
 ! D215  D(57,56,61,62)        -45.4775         estimate D2E/DX2                !
 ! D216  D(57,56,61,65)        129.3733         estimate D2E/DX2                !
 ! D217  D(56,57,58,59)        177.1464         estimate D2E/DX2                !
 ! D218  D(60,57,58,59)          3.6075         estimate D2E/DX2                !
 ! D219  D(56,57,60,53)          3.1112         estimate D2E/DX2                !
 ! D220  D(56,57,60,99)        178.6463         estimate D2E/DX2                !
 ! D221  D(58,57,60,53)        176.6057         estimate D2E/DX2                !
 ! D222  D(58,57,60,99)         -7.8592         estimate D2E/DX2                !
 ! D223  D(57,58,59,96)         56.4076         estimate D2E/DX2                !
 ! D224  D(57,58,59,97)       -176.6091         estimate D2E/DX2                !
 ! D225  D(57,58,59,98)        -63.6993         estimate D2E/DX2                !
 ! D226  D(56,61,62,63)        177.7513         estimate D2E/DX2                !
 ! D227  D(56,61,62,100)        -1.6905         estimate D2E/DX2                !
 ! D228  D(65,61,62,63)          2.6522         estimate D2E/DX2                !
 ! D229  D(65,61,62,100)      -176.7896         estimate D2E/DX2                !
 ! D230  D(56,61,65,64)       -179.4555         estimate D2E/DX2                !
 ! D231  D(62,61,65,64)         -3.8622         estimate D2E/DX2                !
 ! D232  D(61,62,63,64)          0.2988         estimate D2E/DX2                !
 ! D233  D(61,62,63,101)       176.7482         estimate D2E/DX2                !
 ! D234  D(100,62,63,64)       179.7278         estimate D2E/DX2                !
 ! D235  D(100,62,63,101)       -3.8228         estimate D2E/DX2                !
 ! D236  D(62,63,64,65)         -3.2648         estimate D2E/DX2                !
 ! D237  D(62,63,64,102)      -174.0428         estimate D2E/DX2                !
 ! D238  D(101,63,64,65)      -179.8125         estimate D2E/DX2                !
 ! D239  D(101,63,64,102)        9.4095         estimate D2E/DX2                !
 ! D240  D(63,64,65,61)          3.8656         estimate D2E/DX2                !
 ! D241  D(102,64,65,61)       175.9675         estimate D2E/DX2                !
 --------------------------------------------------------------------------------
 Trust Radius=3.00D-01 FncErr=1.00D-07 GrdErr=1.00D-06 EigMax=2.50D+02 EigMin=1.00D-04
 Number of steps in this run=    542 maximum allowed number of steps=    612.
 GradGradGradGradGradGradGradGradGradGradGradGradGradGradGradGradGradGrad

 Leave Link  103 at Thu Jul 23 17:01:27 2020, MaxMem=  4026531840 cpu:               0.2 elap:               0.0
 (Enter /opt/ohpc/pub/libs/gaussian/g16-A.03/sandybridge/g16/l202.exe)
 Stoichiometry    C50H37N5O5S5
 Framework group  C1[X(C50H37N5O5S5)]
 Deg. of freedom   300
 Full point group                 C1      NOp   1
 Largest Abelian subgroup         C1      NOp   1
 Largest concise Abelian subgroup C1      NOp   1
                         Standard orientation:                         
 ---------------------------------------------------------------------
 Center     Atomic      Atomic             Coordinates (Angstroms)
 Number     Number       Type             X           Y           Z
 ---------------------------------------------------------------------
      1          6           0       18.536944    2.097622    0.083353
      2          6           0       17.569320    2.244430   -0.896042
      3          7           0       16.252869    1.743205   -0.833918
      4          6           0       15.992097    1.018991    0.388247
      5          6           0       16.901370    0.810459    1.356172
      6          8           0       16.479992    0.189449    2.488335
      7          6           0       17.402245    0.012934    3.538807
      8          6           0       18.236573    1.371107    1.190047
      9          6           0       14.634832    0.545950    0.419812
     10          6           0       14.151962   -0.760063    0.751780
     11          6           0       12.794352   -0.874505    0.729836
     12          6           0       12.181932    0.292982    0.218785
     13         16           0       13.311399    1.459562   -0.116416
     14          6           0       10.704628    0.460105    0.028252
     15          6           0        9.800416    0.028056    0.899921
     16          7           0        8.403874    0.171506    0.731689
     17          6           0        8.041773    0.801494   -0.332679
     18          6           0        8.811061    1.368941   -1.287189
     19          8           0        8.319508    2.071721   -2.384452
     20          6           0        9.149338    2.503355   -3.340150
     21          6           0       10.229898    1.247042   -1.132497
     22          6           0        6.560463    0.923842   -0.478181
     23          6           0        5.747484    2.033505   -0.663441
     24          6           0        4.297928    1.700627   -0.652065
     25          6           0        4.153562    0.326125   -0.509067
     26         16           0        5.556705   -0.514423   -0.303767
     27          6           0        2.797996   -0.420445   -0.502189
     28          6           0        1.750382    0.046695   -1.213977
     29          7           0        0.545275   -0.461855   -1.247988
     30          6           0        0.369467   -1.606687   -0.554961
     31          6           0        1.421824   -2.214286    0.249282
     32          8           0        1.163951   -3.427076    0.891305
     33          6           0        2.175042   -4.057684    1.498992
     34          6           0        2.586864   -1.560649    0.206904
     35          6           0       -0.961214   -2.257798   -0.696105
     36          6           0       -1.303296   -3.546491   -0.871965
     37          6           0       -2.694409   -3.742355   -0.952880
     38          6           0       -3.442975   -2.599944   -0.643025
     39         16           0       -2.379653   -1.225322   -0.436196
     40          6           0       -4.941189   -2.392385   -0.587691
     41          6           0       -5.515767   -1.235172   -0.999494
     42          7           0       -6.900035   -1.014061   -0.998853
     43          6           0       -7.628055   -1.985990   -0.529416
     44          6           0       -7.089938   -3.161207    0.006858
     45          8           0       -7.979158   -4.131695    0.445248
     46          6           0       -7.499145   -5.370699    0.977021
     47          6           0       -5.740566   -3.422465   -0.058079
     48          6           0       -9.042635   -1.655183   -0.460344
     49          6           0      -10.100728   -2.425738   -0.899500
     50          6           0      -11.381533   -1.834619   -0.832378
     51          6           0      -11.240408   -0.519542   -0.342709
     52         16           0       -9.674461   -0.147437    0.015562
     53          6           0      -12.340890    0.491512   -0.103091
     54          6           0      -12.134814    1.797308   -0.219832
     55          7           0      -13.109999    2.798954    0.033917
     56          6           0      -14.391457    2.317246    0.347842
     57          6           0      -14.660933    0.984844    0.554106
     58          8           0      -15.955486    0.607709    0.876941
     59          6           0      -16.277226   -0.705081    1.032401
     60          6           0      -13.631312    0.002002    0.296627
     61          6           0      -15.383019    3.413162    0.458820
     62          6           0      -16.655281    3.452869   -0.044949
     63          6           0      -17.279470    4.646702    0.323967
     64          6           0      -16.483991    5.518246    1.101153
     65         16           0      -14.983941    4.838070    1.462439
     66          1           0       19.487254    2.564334   -0.128014
     67          1           0       17.743101    2.772212   -1.798638
     68          1           0       18.272727   -0.518356    3.268960
     69          1           0       17.744197    0.994520    3.985224
     70          1           0       16.932723   -0.474009    4.345098
     71          1           0       18.992822    1.241650    1.952010
     72          1           0       14.811298   -1.494758    1.116817
     73          1           0       12.198644   -1.763708    0.938307
     74          1           0       10.102663   -0.565868    1.736317
     75          1           0        8.557359    3.024662   -4.093601
     76          1           0        9.811977    3.295839   -2.998392
     77          1           0        9.737109    1.689454   -3.844624
     78          1           0       10.903373    1.587321   -1.810477
     79          1           0        6.136461    3.038397   -0.765191
     80          1           0        3.602933    2.470943   -0.769092
     81          1           0        1.800003    0.984035   -1.846459
     82          1           0        1.868836   -4.972914    1.930108
     83          1           0        2.631759   -3.474711    2.282123
     84          1           0        2.997089   -4.256932    0.783111
     85          1           0        3.404536   -1.989869    0.843171
     86          1           0       -0.580281   -4.357338   -1.043082
     87          1           0       -3.186056   -4.739380   -1.120674
     88          1           0       -5.001510   -0.374776   -1.475064
     89          1           0       -6.990153   -5.864363    0.091532
     90          1           0       -6.775290   -5.183341    1.801755
     91          1           0       -8.315598   -5.971208    1.336512
     92          1           0       -5.279313   -4.331206    0.242273
     93          1           0      -10.027849   -3.461728   -1.234673
     94          1           0      -12.305780   -2.215803   -1.065623
     95          1           0      -11.184910    2.294011   -0.526622
     96          1           0      -15.671618   -1.220788    1.779642
     97          1           0      -17.362781   -0.823331    1.227808
     98          1           0      -16.134464   -1.283127    0.018831
     99          1           0      -13.773095   -1.047692    0.458066
    100          1           0      -17.072596    2.707284   -0.598283
    101          1           0      -18.279631    4.932484   -0.000279
    102          1           0      -16.728106    6.420751    1.571671
 ---------------------------------------------------------------------
 Rotational constants (GHZ):           0.0823707           0.0043443           0.0042003
 Leave Link  202 at Thu Jul 23 17:01:27 2020, MaxMem=  4026531840 cpu:               0.1 elap:               0.0
 (Enter /opt/ohpc/pub/libs/gaussian/g16-A.03/sandybridge/g16/l301.exe)
 Standard basis: CC-pVDZ (5D, 7F)
 Ernie: Thresh=  0.10000D-02 Tol=  0.10000D-05 Strict=F.
 Ernie:  170 primitive shells out of 1755 were deleted.
 There are  1180 symmetry adapted cartesian basis functions of A   symmetry.
 There are  1115 symmetry adapted basis functions of A   symmetry.
  1115 basis functions,  2594 primitive gaussians,  1180 cartesian basis functions
   246 alpha electrons      246 beta electrons
       nuclear repulsion energy      8486.7091143430 Hartrees.
 IExCor=32609 DFT=T Ex+Corr=LC-wPBE ExCW=0 ScaHFX=  1.000000
 ScaDFX=  1.000000  0.000000  1.000000  1.000000 ScalE2=  1.000000  1.000000
 IRadAn=      5 IRanWt=     -1 IRanGd=            0 ICorTp=0 IEmpDi=  4
 HFx  wShort=  0.000000 wLong=  0.158200 cFull=  0.000000 cShort=  0.000000 cLong=  1.000000
 DFx  wShort=  0.000000 wLong=  0.158200 cFull=  0.000000 cShort=  0.000000 cLong=  1.000000
 NAtoms=  102 NActive=  102 NUniq=  102 SFac= 1.00D+00 NAtFMM=   60 NAOKFM=T Big=T
 Integral buffers will be    131072 words long.
 Raffenetti 2 integral format.
 Two-electron integral symmetry is turned on.
 Leave Link  301 at Thu Jul 23 17:01:27 2020, MaxMem=  4026531840 cpu:               0.5 elap:               0.1
 (Enter /opt/ohpc/pub/libs/gaussian/g16-A.03/sandybridge/g16/l302.exe)
 NPDir=0 NMtPBC=     1 NCelOv=     1 NCel=       1 NClECP=     1 NCelD=      1
         NCelK=      1 NCelE2=     1 NClLst=     1 CellRange=     0.0.
 One-electron integrals computed using PRISM.
 One-electron integral symmetry used in STVInt
 NBasis=  1115 RedAO= T EigKep=  3.89D-04  NBF=  1115
 NBsUse=  1115 1.00D-06 EigRej= -1.00D+00 NBFU=  1115
 Precomputing XC quadrature grid using
 IXCGrd= 4 IRadAn=           5 IRanWt=          -1 IRanGd=           0 AccXCQ= 0.00D+00.
 Generated NRdTot=       0 NPtTot=           0 NUsed=           0 NTot=          32
 NSgBfM=   710   707   708   708   710 MxSgAt=   102 MxSgA2=    96.
 Leave Link  302 at Thu Jul 23 17:01:31 2020, MaxMem=  4026531840 cpu:              35.5 elap:               4.5
 (Enter /opt/ohpc/pub/libs/gaussian/g16-A.03/sandybridge/g16/l303.exe)
 DipDrv:  MaxL=1.
 Leave Link  303 at Thu Jul 23 17:01:32 2020, MaxMem=  4026531840 cpu:               2.0 elap:               0.3
 (Enter /opt/ohpc/pub/libs/gaussian/g16-A.03/sandybridge/g16/l401.exe)
 ExpMin= 1.22D-01 ExpMax= 1.11D+05 ExpMxC= 1.07D+03 IAcc=3 IRadAn=         5 AccDes= 0.00D+00
 Harris functional with IExCor=32609 and IRadAn=       5 diagonalized for initial guess.
 HarFok:  IExCor=32609 AccDes= 0.00D+00 IRadAn=         5 IDoV= 1 UseB2=F ITyADJ=14
 ICtDFT=  3500011 ScaDFX=  1.000000  1.000000  1.000000  1.000000
 FoFCou: FMM=F IPFlag=           0 FMFlag=      100000 FMFlg1=        2001
         NFxFlg=           0 DoJE=T BraDBF=F KetDBF=T FulRan=T
         wScrn=  0.000000 ICntrl=       500 IOpCl=  0 I1Cent=   200000004 NGrid=           0
         NMat0=    1 NMatS0=      1 NMatT0=    0 NMatD0=    1 NMtDS0=    0 NMtDT0=    0
 Petite list used in FoFCou.
 Harris En= -4565.30280899543    
 JPrj=0 DoOrth=F DoCkMO=F.
 Initial guess <Sx>= 0.0000 <Sy>= 0.0000 <Sz>= 0.0000 <S**2>=-0.0000 S=-0.0000
 Leave Link  401 at Thu Jul 23 17:01:45 2020, MaxMem=  4026531840 cpu:             107.4 elap:              13.5
 (Enter /opt/ohpc/pub/libs/gaussian/g16-A.03/sandybridge/g16/l502.exe)
 Integral symmetry usage will be decided dynamically.
 UHF open shell SCF:
 Using DIIS extrapolation, IDIIS=  1040.
 NGot=  4026531840 LenX=  4023725560 LenY=  4022331980
 Requested convergence on RMS density matrix=1.00D-08 within 128 cycles.
 Requested convergence on MAX density matrix=1.00D-06.
 Requested convergence on             energy=1.00D-06.
 No special actions if energy rises.
 Fock matrices will be formed incrementally for  20 cycles.
 Integral accuracy reduced to 1.0D-05 until final iterations.

 Cycle   1  Pass 0  IDiag  1:
 FoFJK:  IHMeth= 1 ICntrl=       0 DoSepK=T KAlg= 0 I1Cent=           0 FoldK=F
 IRaf=         1 NMat=       1 IRICut=       1 DoRegI=T DoRafI=F ISym2E= 0 IDoP0=0 IntGTp=1.
 FoFCou: FMM=T IPFlag=           0 FMFlag=      100000 FMFlg1=        2001
         NFxFlg=           0 DoJE=T BraDBF=F KetDBF=F FulRan=T
         wScrn=  0.000000 ICntrl=       500 IOpCl=  0 I1Cent=           0 NGrid=           0
         NMat0=    1 NMatS0=      1 NMatT0=    0 NMatD0=    1 NMtDS0=    0 NMtDT0=    0
 Symmetry not used in FoFCou.
 FMM levels:  10  Number of levels for PrismC:   9
 E= -4563.95546307794    
 DIIS: error= 1.60D-02 at cycle   1 NSaved=   1.
 NSaved= 1 IEnMin= 1 EnMin= -4563.95546307794     IErMin= 1 ErrMin= 1.60D-02
 ErrMax= 1.60D-02  0.00D+00 EMaxC= 1.00D-01 BMatC= 4.38D+00 BMatP= 4.38D+00
 IDIUse=3 WtCom= 8.40D-01 WtEn= 1.60D-01
 Coeff-Com:  0.100D+01
 Coeff-En:   0.100D+01
 Coeff:      0.100D+01
 Gap=     0.209 Goal=   None    Shift=    0.000
 Gap=     0.209 Goal=   None    Shift=    0.000
 GapD=    0.209 DampG=1.000 DampE=0.500 DampFc=0.5000 IDamp=-1.
 Damping current iteration by 5.00D-01
 RMSDP=2.28D-03 MaxDP=1.73D-01              OVMax= 2.72D-01

[...]
  Beta virt. eigenvalues --    1.14891   1.15311   1.15476   1.16351   1.16595
  Beta virt. eigenvalues --    1.17114   1.17943   1.18504   1.18854   1.19336
  Beta virt. eigenvalues --    1.19487   1.19691   1.20050   1.20373   1.20849
  Beta virt. eigenvalues --    1.21098   1.21514   1.21640   1.21749   1.22478
  Beta virt. eigenvalues --    1.23066   1.24175   1.24351   1.24643   1.24824
  Beta virt. eigenvalues --    1.25121   1.25181   1.25410   1.25661   1.25729
  Beta virt. eigenvalues --    1.26015   1.26344   1.26583   1.26934   1.27072
  Beta virt. eigenvalues --    1.27193   1.27370   1.27456   1.27496   1.28073
  Beta virt. eigenvalues --    1.28258   1.28610   1.29053   1.29138   1.29825
  Beta virt. eigenvalues --    1.30280   1.31040   1.31387   1.32058   1.32390
  Beta virt. eigenvalues --    1.33447   1.34219   1.34646   1.35025   1.35293
  Beta virt. eigenvalues --    1.36725   1.36901   1.37175   1.37251   1.37367
  Beta virt. eigenvalues --    1.37589   1.37773   1.38186   1.38367   1.38634
  Beta virt. eigenvalues --    1.39294   1.40033   1.40092   1.40310   1.40395
  Beta virt. eigenvalues --    1.41800   1.42538   1.42910   1.43168   1.43362
  Beta virt. eigenvalues --    1.43544   1.43794   1.43965   1.44324   1.44551
  Beta virt. eigenvalues --    1.45152   1.45301   1.45717   1.46247   1.46784
  Beta virt. eigenvalues --    1.47361   1.48074   1.48097   1.48398   1.48703
  Beta virt. eigenvalues --    1.48914   1.49020   1.49200   1.49415   1.49498
  Beta virt. eigenvalues --    1.49742   1.50079   1.50155   1.50581   1.50750
  Beta virt. eigenvalues --    1.50974   1.51045   1.51410   1.51554   1.51863
  Beta virt. eigenvalues --    1.51931   1.52198   1.52409   1.53000   1.54071
  Beta virt. eigenvalues --    1.54678   1.55011   1.55403   1.55590   1.56055
  Beta virt. eigenvalues --    1.56117   1.56455   1.56973   1.57056   1.57407
  Beta virt. eigenvalues --    1.57523   1.57865   1.58020   1.58126   1.58269
  Beta virt. eigenvalues --    1.58606   1.58648   1.58739   1.58859   1.59092
  Beta virt. eigenvalues --    1.59182   1.60005   1.60187   1.60433   1.60624
  Beta virt. eigenvalues --    1.60724   1.61131   1.61306   1.61876   1.62535
  Beta virt. eigenvalues --    1.62570   1.62727   1.62836   1.62900   1.63031
  Beta virt. eigenvalues --    1.63296   1.63511   1.63593   1.63732   1.63789
  Beta virt. eigenvalues --    1.63911   1.64236   1.64615   1.64639   1.64823
  Beta virt. eigenvalues --    1.64986   1.65300   1.65368   1.65510   1.65962
  Beta virt. eigenvalues --    1.66228   1.66468   1.66663   1.66888   1.67142
  Beta virt. eigenvalues --    1.67325   1.67675   1.67757   1.67949   1.68060
  Beta virt. eigenvalues --    1.68131   1.68328   1.68730   1.69091   1.69352
  Beta virt. eigenvalues --    1.69558   1.69676   1.69981   1.70235   1.70423
  Beta virt. eigenvalues --    1.71009   1.71234   1.71572   1.71809   1.71968
  Beta virt. eigenvalues --    1.72416   1.72474   1.73044   1.73773   1.73979
  Beta virt. eigenvalues --    1.74615   1.74754   1.74969   1.75464   1.76113
  Beta virt. eigenvalues --    1.76329   1.76887   1.77211   1.77454   1.77558
  Beta virt. eigenvalues --    1.78169   1.78634   1.78912   1.79185   1.79530
  Beta virt. eigenvalues --    1.80173   1.80367   1.80662   1.80801   1.81506
  Beta virt. eigenvalues --    1.81804   1.82353   1.82645   1.82938   1.83456
  Beta virt. eigenvalues --    1.84102   1.84558   1.84814   1.85055   1.85992
  Beta virt. eigenvalues --    1.86191   1.86321   1.86717   1.87235   1.87473
  Beta virt. eigenvalues --    1.87549   1.87989   1.88365   1.88567   1.88733
  Beta virt. eigenvalues --    1.88841   1.89260   1.89344   1.89598   1.89924
  Beta virt. eigenvalues --    1.90045   1.90227   1.90508   1.90871   1.91268
  Beta virt. eigenvalues --    1.91572   1.91755   1.92206   1.92338   1.92830
  Beta virt. eigenvalues --    1.93089   1.93256   1.93860   1.94048   1.94369
  Beta virt. eigenvalues --    1.94542   1.95011   1.95230   1.95951   1.96309
  Beta virt. eigenvalues --    1.96610   1.96855   1.97350   1.97904   1.98092
  Beta virt. eigenvalues --    1.98220   1.98594   1.98716   1.98856   1.99445
  Beta virt. eigenvalues --    2.00133   2.00355   2.01017   2.01397   2.01501
  Beta virt. eigenvalues --    2.01915   2.02584   2.02986   2.03006   2.03703
  Beta virt. eigenvalues --    2.03752   2.04033   2.04368   2.04583   2.05900
  Beta virt. eigenvalues --    2.06338   2.06505   2.06687   2.07038   2.07083
  Beta virt. eigenvalues --    2.07390   2.07493   2.08265   2.09357   2.09967
  Beta virt. eigenvalues --    2.10209   2.10538   2.10884   2.10924   2.12979
  Beta virt. eigenvalues --    2.13231   2.13689   2.14042   2.14295   2.14641
  Beta virt. eigenvalues --    2.15092   2.15697   2.16088   2.16155   2.16801
  Beta virt. eigenvalues --    2.16988   2.17255   2.17502   2.18118   2.18382
  Beta virt. eigenvalues --    2.18623   2.18947   2.19617   2.21899   2.22392
  Beta virt. eigenvalues --    2.23342   2.23898   2.24668   2.25728   2.26465
  Beta virt. eigenvalues --    2.27117   2.27904   2.28380   2.28444   2.28728
  Beta virt. eigenvalues --    2.29077   2.29175   2.29550   2.29798   2.30213
  Beta virt. eigenvalues --    2.30672   2.31184   2.32640   2.33016   2.34334
  Beta virt. eigenvalues --    2.34634   2.35276   2.36234   2.37187   2.37298
  Beta virt. eigenvalues --    2.37405   2.37571   2.37695   2.37999   2.38107
  Beta virt. eigenvalues --    2.38249   2.38367   2.39005   2.40580   2.40992
  Beta virt. eigenvalues --    2.41579   2.41751   2.42817   2.43407   2.44146
  Beta virt. eigenvalues --    2.44522   2.44584   2.44680   2.44849   2.45286
  Beta virt. eigenvalues --    2.45426   2.45620   2.45958   2.46160   2.46288
  Beta virt. eigenvalues --    2.47289   2.47702   2.48006   2.48306   2.49905
  Beta virt. eigenvalues --    2.50011   2.50371   2.50729   2.51267   2.52797
  Beta virt. eigenvalues --    2.53453   2.53654   2.54441   2.55327   2.55987
  Beta virt. eigenvalues --    2.56316   2.56805   2.57642   2.58514   2.59447
  Beta virt. eigenvalues --    2.60244   2.60975   2.62037   2.64256   2.64856
  Beta virt. eigenvalues --    2.65926   2.66426   2.68174   2.68533   2.69234
  Beta virt. eigenvalues --    2.72683   2.73578   2.74296   2.74618   2.75916
  Beta virt. eigenvalues --    2.79226   2.79626   2.79974   2.80753   2.84822
  Beta virt. eigenvalues --    2.85026   2.85387   2.85540   2.85639   2.85677
  Beta virt. eigenvalues --    2.85808   2.85914   2.85934   2.86118   2.92396
  Beta virt. eigenvalues --    2.93624   2.94133   2.94731   2.95343   2.98525
  Beta virt. eigenvalues --    2.99034   2.99235   2.99365   2.99801   3.01963
  Beta virt. eigenvalues --    3.02860   3.03270   3.03390   3.03650   3.11914
  Beta virt. eigenvalues --    3.12373   3.13120   3.13463   3.17127   3.21626
  Beta virt. eigenvalues --    3.21992   3.22013   3.22364   3.24315   3.36822
  Beta virt. eigenvalues --    3.37735   3.37858   3.38002   3.38365   3.50618
  Beta virt. eigenvalues --    3.51047   3.51590   3.52176   3.54133
          Condensed to atoms (all electrons):
          Atomic-Atomic Spin Densities.
 Mulliken charges and spin densities:
               1          2
     1  C   -0.024525   0.000000
     2  C    0.088458  -0.000000
     3  N   -0.214110   0.000000
     4  C    0.121853   0.000000
     5  C    0.108011   0.000000
     6  O   -0.241865  -0.000000
     7  C    0.061158   0.000000
     8  C    0.024633  -0.000000
     9  C   -0.124599  -0.000000
    10  C    0.018580   0.000000
    11  C    0.041690  -0.000000
    12  C   -0.159878   0.000000
    13  S    0.171986  -0.000000
    14  C    0.012674  -0.000000
    15  C    0.081120   0.000000
    16  N   -0.212742  -0.000000
    17  C    0.129374   0.000000
    18  C    0.115452  -0.000000
    19  O   -0.244697   0.000000
    20  C    0.062513  -0.000000
    21  C    0.020744   0.000000
    22  C   -0.126598  -0.000000
    23  C    0.015654  -0.000000
    24  C    0.042334   0.000000
    25  C   -0.159757  -0.000000
    26  S    0.170035   0.000000
    27  C    0.013158  -0.000000
    28  C    0.081618  -0.000000
    29  N   -0.211392   0.000000
    30  C    0.129352   0.000000
    31  C    0.114782  -0.000000
    32  O   -0.245720   0.000000
    33  C    0.062954  -0.000000
    34  C    0.019837   0.000000
    35  C   -0.128522   0.000000
    36  C    0.014767  -0.000000
    37  C    0.038393  -0.000000
    38  C   -0.162249   0.000000
    39  S    0.188056   0.000000
    40  C    0.008951   0.000000
    41  C    0.082215   0.000000
    42  N   -0.210689  -0.000000
    43  C    0.131445  -0.000000
    44  C    0.113578   0.000000
    45  O   -0.245108  -0.000000
    46  C    0.065124  -0.000000
    47  C    0.022706  -0.000000
    48  C   -0.129422   0.000000
    49  C    0.013729  -0.000000
    50  C    0.038574  -0.000000
    51  C   -0.161477   0.000000
    52  S    0.189287  -0.000000
    53  C    0.007251  -0.000000
    54  C    0.080294   0.000000
    55  N   -0.211602  -0.000000
    56  C    0.141918   0.000000
    57  C    0.113490  -0.000000
    58  O   -0.243950   0.000000
    59  C    0.065559   0.000000
    60  C    0.021684   0.000000
    61  C   -0.137810  -0.000000
    62  C   -0.013056   0.000000
    63  C    0.075672  -0.000000
    64  C   -0.132341  -0.000000
    65  S    0.180502  -0.000000
    66  H   -0.013014  -0.000000
    67  H   -0.000898  -0.000000
    68  H    0.049883   0.000000
    69  H    0.049930  -0.000000
    70  H    0.054804  -0.000000
    71  H   -0.007663   0.000000
    72  H   -0.024452   0.000000
    73  H   -0.020951  -0.000000
    74  H   -0.008038   0.000000
    75  H    0.053048   0.000000
    76  H    0.052513  -0.000000
    77  H    0.052916  -0.000000
    78  H   -0.008422  -0.000000
    79  H   -0.024534   0.000000
    80  H   -0.020304   0.000000
    81  H   -0.006008  -0.000000
    82  H    0.051064   0.000000
    83  H    0.052402   0.000000
    84  H    0.052704   0.000000
    85  H   -0.008663  -0.000000
    86  H   -0.026761  -0.000000
    87  H   -0.029083   0.000000
    88  H    0.003559   0.000000
    89  H    0.047588  -0.000000
    90  H    0.051143   0.000000
    91  H    0.051387   0.000000
    92  H   -0.020366   0.000000
    93  H   -0.028073  -0.000000
    94  H   -0.029677   0.000000
    95  H    0.002300  -0.000000
    96  H    0.050436  -0.000000
    97  H    0.051120   0.000000
    98  H    0.046276   0.000000
    99  H   -0.021248   0.000000
   100  H   -0.024891  -0.000000
   101  H   -0.021881  -0.000000
   102  H    0.012804  -0.000000
 Sum of Mulliken charges =  -0.00000   0.00000
 Mulliken charges and spin densities with hydrogens summed into heavy atoms:
               1          2
     1  C   -0.037539   0.000000
     2  C    0.087559  -0.000000
     3  N   -0.214110   0.000000
     4  C    0.121853   0.000000
     5  C    0.108011   0.000000
     6  O   -0.241865  -0.000000
     7  C    0.215774   0.000000
     8  C    0.016970  -0.000000
     9  C   -0.124599  -0.000000
    10  C   -0.005873   0.000000
    11  C    0.020739  -0.000000
    12  C   -0.159878   0.000000
    13  S    0.171986  -0.000000
    14  C    0.012674  -0.000000
    15  C    0.073082   0.000000
    16  N   -0.212742  -0.000000
    17  C    0.129374   0.000000
    18  C    0.115452  -0.000000
    19  O   -0.244697   0.000000
    20  C    0.220990  -0.000000
    21  C    0.012323   0.000000
    22  C   -0.126598  -0.000000
    23  C   -0.008881  -0.000000
    24  C    0.022030   0.000000
    25  C   -0.159757  -0.000000
    26  S    0.170035   0.000000
    27  C    0.013158  -0.000000
    28  C    0.075610  -0.000000
    29  N   -0.211392   0.000000
    30  C    0.129352   0.000000
    31  C    0.114782  -0.000000
    32  O   -0.245720   0.000000
    33  C    0.219125  -0.000000
    34  C    0.011173   0.000000
    35  C   -0.128522   0.000000
    36  C   -0.011994  -0.000000
    37  C    0.009310   0.000000
    38  C   -0.162249   0.000000
    39  S    0.188056   0.000000
    40  C    0.008951   0.000000
    41  C    0.085774   0.000000
    42  N   -0.210689  -0.000000
    43  C    0.131445  -0.000000
    44  C    0.113578   0.000000
    45  O   -0.245108  -0.000000
    46  C    0.215242  -0.000000
    47  C    0.002340  -0.000000
    48  C   -0.129422   0.000000
    49  C   -0.014345  -0.000000
    50  C    0.008897  -0.000000
    51  C   -0.161477   0.000000
    52  S    0.189287  -0.000000
    53  C    0.007251  -0.000000
    54  C    0.082595   0.000000
    55  N   -0.211602  -0.000000
    56  C    0.141918   0.000000
    57  C    0.113490  -0.000000
    58  O   -0.243950   0.000000
    59  C    0.213390  -0.000000
    60  C    0.000436   0.000000
    61  C   -0.137810  -0.000000
    62  C   -0.037947   0.000000
    63  C    0.053791  -0.000000
    64  C   -0.119537  -0.000000
    65  S    0.180502  -0.000000
 Electronic spatial extent (au):  <R**2>=         223624.5004
 Charge=             -0.0000 electrons
 Dipole moment (field-independent basis, Debye):
    X=             10.5509    Y=             -6.1227    Z=              0.9528  Tot=             12.2359
 Quadrupole moment (field-independent basis, Debye-Ang):
   XX=           -200.5592   YY=           -355.7257   ZZ=           -394.6343
   XY=             70.0968   XZ=            -62.9882   YZ=             14.2029
 Traceless Quadrupole moment (field-independent basis, Debye-Ang):
   XX=            116.4138   YY=            -38.7526   ZZ=            -77.6612
   XY=             70.0968   XZ=            -62.9882   YZ=             14.2029
 Octapole moment (field-independent basis, Debye-Ang**2):
  XXX=           3003.7219  YYY=           -245.7993  ZZZ=             -5.0134  XYY=            -61.1086
  XXY=           -377.7314  XXZ=           -107.1845  XZZ=            251.5108  YZZ=             27.2067
  YYZ=             14.0794  XYZ=            150.3030
 Hexadecapole moment (field-independent basis, Debye-Ang**3):
 XXXX=        -187249.6726 YYYY=         -15322.9129 ZZZZ=          -2887.7682 XXXY=          10164.8958
 XXXZ=         -20237.3526 YYYX=            952.7030 YYYZ=             20.4228 ZZZX=           -723.8700
 ZZZY=            151.8576 XXYY=         -48378.2367 XXZZ=         -45086.3379 YYZZ=          -3364.9331
 XXYZ=           1075.3708 YYXZ=            486.6413 ZZXY=            328.0629
 N-N= 8.473733771493D+03 E-N=-2.767364929268D+04  KE= 4.543924784818D+03
 Leave Link  601 at Thu Jul 23 22:01:57 2020, MaxMem=  4026531840 cpu:              12.9 elap:               2.3
 (Enter /opt/ohpc/pub/libs/gaussian/g16-A.03/sandybridge/g16/l9999.exe)

 Test job not archived.
 1\1\GINC-SKYLAKE048\FOpt\ULC-wPBE\CC-pVDZ\C50H37N5O5S5\RDU230\23-Jul-2
 020\0\\#P uLC-wPBE/cc-pVDZ iop(3/107=0158200000, 3/108=0158200000) opt
 \\H37 C50 S5 N5 O5\\0,1\C,18.2533065169,2.2841921998,0.4059615273\C,17
 .0747378705,2.7157072764,1.0186306248\N,15.8664264801,2.235468677,0.69
 4267054\C,15.7600006064,1.2920599448,-0.2628134127\C,16.9108960355,0.7
 926574821,-0.940822818\O,16.7100626891,-0.1615133547,-1.8947890267\C,1
 7.8545176877,-0.668762297,-2.5756173686\C,18.1682202613,1.3050924492,-
 0.5915243953\C,14.3908225975,0.8358680995,-0.5350494858\C,13.867783219
 3,-0.0909359309,-1.4256890462\C,12.4546906051,-0.2114352726,-1.3404775
 19\C,11.8889575182,0.6206371893,-0.3858382306\S,13.1182132734,1.561028
 8167,0.4256177418\C,10.4700168737,0.7588284579,-0.0327963034\C,9.56263
 50488,-0.2999634103,-0.2332719959\N,8.2603879351,-0.2236250115,0.05197
 27599\C,7.7502402116,0.9092634157,0.5764610532\C,8.5881418848,2.032218
 9936,0.8376428384\O,8.0011307796,3.1391893778,1.3755275713\C,8.8316360
 52,4.2672630528,1.6418399324\C,9.9478123608,1.9450268329,0.5205166151\
 C,6.3085116212,0.8815925034,0.842587058\C,5.4327137857,1.8210949798,1.
 3691652011\C,4.0931829758,1.3546794612,1.4451693923\C,3.9347919297,0.0
 580647762,0.9783939605\S,5.4604356069,-0.5945343107,0.4290753949\C,2.7
 010923774,-0.7354830976,0.9123866528\C,1.4383498715,-0.1156438758,0.83
 00501031\N,0.2854012193,-0.7872605361,0.7859432472\C,0.2885741845,-2.1
 356320145,0.8037303572\C,1.5143830003,-2.8594399334,0.8645580117\O,1.4
 380844973,-4.2216410527,0.8713813064\C,2.6606709273,-4.9530604728,0.92
 25669042\C,2.7152390173,-2.1446244645,0.9260514149\C,-1.0358733829,-2.
 7639259504,0.7561979824\C,-1.4448294503,-4.0905890745,0.7560880222\C,-
 2.8564806151,-4.2369227108,0.7018203398\C,-3.5347859122,-3.0273996377,
 0.6578291677\S,-2.4154719829,-1.6865130392,0.6934051864\C,-4.985164407
 4,-2.8062023895,0.5892216043\C,-5.5422228855,-1.6457073802,0.017864557
 2\N,-6.8552524952,-1.4163981367,-0.0645743954\C,-7.729634084,-2.327846
 4202,0.406204711\C,-7.2685266898,-3.540526967,0.9966571948\O,-8.214581
 1288,-4.4120777274,1.4545525122\C,-7.7647649251,-5.6240127046,2.052444
 6498\C,-5.8911974151,-3.7639399819,1.0888202181\C,-9.1445751908,-1.968
 1201416,0.2650957274\C,-10.3181600215,-2.6222958595,0.6145178878\C,-11
 .4857284177,-1.8844690813,0.2832449918\C,-11.2143872756,-0.6658150547,
 -0.3218509812\S,-9.491952193,-0.4196074309,-0.4765815238\C,-12.1728201
 688,0.340118954,-0.7990835602\C,-11.8695397253,1.2297578036,-1.8470785
 221\N,-12.7194810973,2.1516840042,-2.3077730403\C,-13.9509992318,2.261
 6798666,-1.7716176724\C,-14.3596921982,1.4021827314,-0.7100511691\O,-1
 5.620322938,1.5762755963,-0.2145628799\C,-16.035235251,0.7297800666,0.
 8523777724\C,-13.4569503745,0.4496095072,-0.2274156307\C,-14.799099959
 5,3.30842971,-2.3546198587\C,-16.0956276737,3.7229469537,-2.0838091806
 \C,-16.5223569337,4.7988930352,-2.9155617403\C,-15.5493703848,5.192232
 0538,-3.8093460817\S,-14.1011853658,4.2602597707,-3.6521491638\H,19.22
 5979965,2.7016522918,0.6979210126\H,17.0939202268,3.4832270967,1.80784
 9039\H,18.38651059,0.1311025065,-3.1332261801\H,18.5625258496,-1.16019
 70644,-1.8749616504\H,17.4723043348,-1.4174845068,-3.2906265239\H,19.0
 776188337,0.9477441234,-1.08912631\H,14.4926919542,-0.6552732899,-2.12
 19070848\H,11.8629239534,-0.8713658333,-1.986153583\H,9.9139162798,-1.
 2646747181,-0.6301343033\H,8.1671426931,5.0333849473,2.0768583413\H,9.
 6337220663,4.0209278109,2.3692399493\H,9.2900972325,4.6653518493,0.711
 985964\H,10.6140140961,2.8014404296,0.6815036961\H,5.7596482338,2.8113
 510852,1.6952205611\H,3.2687900853,1.9464751932,1.8607555029\H,1.35946
 06437,0.9810525703,0.7805854584\H,2.3744199142,-6.0187288537,0.9043867
 523\H,3.2250539656,-4.7414827295,1.8554050378\H,3.3061820779,-4.731427
 2178,0.0465607627\H,3.6743877728,-2.6712328438,1.0030221576\H,-0.73846
 9926,-4.9236639486,0.7859498599\H,-3.3621222141,-5.2097175909,0.661983
 7356\H,-4.8883716264,-0.8673802985,-0.4066032172\H,-7.1753953187,-6.23
 82736486,1.3387954736\H,-7.1536322401,-5.4309753347,2.9597123631\H,-8.
 676910678,-6.1752079084,2.3392884465\H,-5.5039820558,-4.6702267553,1.5
 685868431\H,-10.3242332979,-3.6075702683,1.0868175549\H,-12.5040924984
 ,-2.2546852357,0.454865868\H,-10.8892108573,1.1835181948,-2.3476284048
 \H,-15.3988263501,0.8634402337,1.7530642901\H,-17.0700130269,1.0306441
 413,1.0909495566\H,-16.0250811854,-0.3403652096,0.5541076524\H,-13.728
 5615728,-0.2021565034,0.6110343143\H,-16.7108375242,3.2598391997,-1.30
 85287189\H,-17.5136288635,5.2641584902,-2.8539076106\H,-15.6054322795,
 5.9876582795,-4.5600438516\\Version=EM64L-G16RevA.03\State=1-A\HF=-456
 5.4546845\S2=0.\S2-1=0.\S2A=0.\RMSD=3.705e-09\RMSF=1.484e-06\Dipole=4.
 1349399,-2.1126475,1.2701859\Quadrupole=89.5797706,-24.6528816,-64.926
 889,35.2391823,-56.4123229,-0.083236\PG=C01 [X(C50H37N5O5S5)]\\@


  ON THE CHOICE OF THE CORRECT LANGUAGE -
 I SPEAK SPANISH TO GOD, ITALIAN TO WOMEN,
 FRENCH TO MEN, AND GERMAN TO MY HORSE.
          -- CHARLES V
 Job cpu time:       1 days 15 hours 21 minutes 43.2 seconds.
 Elapsed time:       0 days  5 hours  0 minutes 28.5 seconds.
 File lengths (MBytes):  RWF=   1412 Int=      0 D2E=      0 Chk=    128 Scr=      8
 Normal termination of Gaussian 16 at Thu Jul 23 22:01:57 2020.
