 Entering Gaussian System, Link 0=g16
 Input=mols_66_5_03_c-c-c-cF_opt_0.gjf
 Output=mols_66_5_03_c-c-c-cF_opt_0.log
 Initial command:
 /opt/ohpc/pub/libs/gaussian/g16-A.03/sandybridge/g16/l1.exe "/mnt/gpfs2_4m/scratch/rdu230/ondemand/projects/dihedral_energies/7trial/wtuning/mols_66_5_03_c-c-c-cF/Gau-350726.inp" -scrdir="/mnt/gpfs2_4m/scratch/rdu230/ondemand/projects/dihedral_energies/7trial/wtuning/mols_66_5_03_c-c-c-cF/"
 Entering Link 1 = /opt/ohpc/pub/libs/gaussian/g16-A.03/sandybridge/g16/l1.exe PID=    350729.
  
 Copyright (c) 1988,1990,1992,1993,1995,1998,2003,2009,2016,
            Gaussian, Inc.  All Rights Reserved.
  
 This is part of the Gaussian(R) 16 program.  It is based on
 the Gaussian(R) 09 system (copyright 2009, Gaussian, Inc.),
 the Gaussian(R) 03 system (copyright 2003, Gaussian, Inc.),
 the Gaussian(R) 98 system (copyright 1998, Gaussian, Inc.),
 the Gaussian(R) 94 system (copyright 1995, Gaussian, Inc.),
 the Gaussian 92(TM) system (copyright 1992, Gaussian, Inc.),
 the Gaussian 90(TM) system (copyright 1990, Gaussian, Inc.),
 the Gaussian 88(TM) system (copyright 1988, Gaussian, Inc.),
 the Gaussian 86(TM) system (copyright 1986, Carnegie Mellon
 University), and the Gaussian 82(TM) system (copyright 1983,
 Carnegie Mellon University). Gaussian is a federally registered
 trademark of Gaussian, Inc.
  
 This software contains proprietary and confidential information,
 including trade secrets, belonging to Gaussian, Inc.
  
 This software is provided under written license and may be
 used, copied, transmitted, or stored only in accord with that
 written license.
  
 The following legend is applicable only to US Government
 contracts under FAR:
  
                    RESTRICTED RIGHTS LEGEND
  
 Use, reproduction and disclosure by the US Government is
 subject to restrictions as set forth in subparagraphs (a)
 and (c) of the Commercial Computer Software - Restricted
 Rights clause in FAR 52.227-19.
  
 Gaussian, Inc.
 340 Quinnipiac St., Bldg. 40, Wallingford CT 06492
  
  
 ---------------------------------------------------------------
 Warning -- This program may not be used in any manner that
 competes with the business of Gaussian, Inc. or will provide
 assistance to any competitor of Gaussian, Inc.  The licensee
 of this program is prohibited from giving any competitor of
 Gaussian, Inc. access to this program.  By using this program,
 the user acknowledges that Gaussian, Inc. is engaged in the
 business of creating and licensing software in the field of
 computational chemistry and represents and warrants to the
 licensee that it is not a competitor of Gaussian, Inc. and that
 it will not use this program in any manner prohibited above.
 ---------------------------------------------------------------
  

 Cite this work as:
 Gaussian 16, Revision A.03,
 M. J. Frisch, G. W. Trucks, H. B. Schlegel, G. E. Scuseria, 
 M. A. Robb, J. R. Cheeseman, G. Scalmani, V. Barone, 
 G. A. Petersson, H. Nakatsuji, X. Li, M. Caricato, A. V. Marenich, 
 J. Bloino, B. G. Janesko, R. Gomperts, B. Mennucci, H. P. Hratchian, 
 J. V. Ortiz, A. F. Izmaylov, J. L. Sonnenberg, D. Williams-Young, 
 F. Ding, F. Lipparini, F. Egidi, J. Goings, B. Peng, A. Petrone, 
 T. Henderson, D. Ranasinghe, V. G. Zakrzewski, J. Gao, N. Rega, 
 G. Zheng, W. Liang, M. Hada, M. Ehara, K. Toyota, R. Fukuda, 
 J. Hasegawa, M. Ishida, T. Nakajima, Y. Honda, O. Kitao, H. Nakai, 
 T. Vreven, K. Throssell, J. A. Montgomery, Jr., J. E. Peralta, 
 F. Ogliaro, M. J. Bearpark, J. J. Heyd, E. N. Brothers, K. N. Kudin, 
 V. N. Staroverov, T. A. Keith, R. Kobayashi, J. Normand, 
 K. Raghavachari, A. P. Rendell, J. C. Burant, S. S. Iyengar, 
 J. Tomasi, M. Cossi, J. M. Millam, M. Klene, C. Adamo, R. Cammi, 
 J. W. Ochterski, R. L. Martin, K. Morokuma, O. Farkas, 
 J. B. Foresman, and D. J. Fox, Gaussian, Inc., Wallingford CT, 2016.
 
 ******************************************
 Gaussian 16:  EM64L-G16RevA.03 25-Dec-2016
                23-Jul-2020 
 ******************************************
 %mem=30GB
 %nproc=8
 Will use up to    8 processors via shared memory.
 ---------------------------------------------------------------
 #P uLC-wPBE/cc-pVDZ iop(3/107=0288000000, 3/108=0288000000) opt
 ---------------------------------------------------------------
 1/18=20,19=15,26=3,38=1/1,3;
 2/9=110,12=2,17=6,18=5,40=1/2;
 3/5=16,11=2,25=1,30=1,71=1,74=-41,107=288000000,108=288000000,116=2/1,2,3;
 4//1;
 5/5=2,38=5/2;
 6/7=2,8=2,9=2,10=2,28=1/1;
 7//1,2,3,16;
 1/18=20,19=15,26=3/3(2);
 2/9=110/2;
 99//99;
 2/9=110/2;
 3/5=16,11=2,25=1,30=1,71=1,74=-41,107=288000000,108=288000000,116=2/1,2,3;
 4/5=5,16=3,69=1/1;
 5/5=2,38=5/2;
 7//1,2,3,16;
 1/18=20,19=15,26=3/3(-5);
 2/9=110/2;
 6/7=2,8=2,9=2,10=2,19=2,28=1/1;
 99/9=1/99;
 Leave Link    1 at Thu Jul 23 10:00:15 2020, MaxMem=  4026531840 cpu:               2.5 elap:               0.4
 (Enter /opt/ohpc/pub/libs/gaussian/g16-A.03/sandybridge/g16/l101.exe)
 ----------
 H37 C60 F5
 ----------
 Symbolic Z-matrix:
 Charge =  0 Multiplicity = 1
 C                     20.89524  -0.71871   0.68016 
 C                     20.16603  -1.49042  -0.35646 
 C                     18.77084  -1.36179  -0.36423 
 C                     18.0494  -0.49668   0.42534 
 C                     18.75775   0.20102   1.45738 
 C                     20.18058   0.12999   1.49978 
 C                     16.63066  -0.3882    0.33798 
 C                     15.766   -0.58887   1.5355 
 C                     14.43924  -0.47786   1.42028 
 C                     13.75695  -0.26007   0.22953 
 C                     14.5724  -0.09174  -0.91535 
 C                     15.95202  -0.19971  -0.8529 
 F                     16.64335   0.03162  -2.01989 
 C                     12.28609  -0.0934    0.10145 
 C                     11.48664  -1.21432   0.54218 
 C                     10.05338  -1.12968   0.43861 
 C                     9.49917  -0.00354  -0.05426 
 C                     10.30758   1.06758  -0.4735 
 C                     11.6761   1.05696  -0.40174 
 C                     7.95242   0.10831  -0.13504 
 C                     7.27243  -0.91638  -0.81648 
 C                     5.9042   -0.80367  -0.93318 
 C                     5.12035   0.17148  -0.27274 
 C                     5.91112   1.19911   0.36689 
 C                     7.29722   1.1532    0.45507 
 F                     7.92784   2.08931   1.08008 
 C                     3.63004   0.18967  -0.36925 
 C                     2.87657  -0.9509   -0.04564 
 C                     1.53007  -0.90774  -0.1456 
 C                     0.84126   0.23333  -0.44228 
 C                     1.55432   1.40588  -0.79047 
 C                     3.00058   1.42556  -0.69053 
 C                    -0.69386   0.27518  -0.50129 
 C                    -1.40105  -0.70957  -1.17077 
 C                    -2.7332   -0.68618  -1.22115 
 C                    -3.5098    0.25742  -0.52328 
 C                    -2.81878   1.246     0.28043 
 C                    -1.39339   1.20166   0.24132 
 F                    -0.74195   2.2204    0.92961 
 C                    -4.99038   0.27256  -0.43784 
 C                    -5.66038  -0.9538   -0.15696 
 C                    -7.09388  -1.00652  -0.023 
 C                    -7.88137   0.12058  -0.33888 
 C                    -7.11638   1.28913  -0.67332 
 C                    -5.78394   1.32607  -0.70968 
 C                    -9.34142   0.1112   -0.32426 
 C                    -9.98979  -0.88396  -0.98535 
 C                    -11.38116  -0.95798  -0.90873 
 C                    -12.11339  -0.07705  -0.18837 
 C                    -11.43801   0.91533   0.52152 
 C                    -10.08183   0.97761   0.44314 
 F                    -9.48409   2.04291   1.08979 
 C                    -13.61037  -0.19309  -0.11725 
 C                    -14.24375  -1.33134   0.27694 
 C                    -15.70172  -1.4632    0.33191 
 C                    -16.48331  -0.37456   0.10206 
 C                    -15.80513   0.83274  -0.26037 
 C                    -14.45099   0.97537  -0.38434 
 C                    -17.95886  -0.43539   0.19111 
 C                    -18.71037   0.04795  -0.87289 
 C                    -20.0997  -0.00658  -0.82521 
 C                    -20.80849  -0.64173   0.25551 
 C                    -19.93895  -1.11676   1.31074 
 C                    -18.57041  -1.04803   1.27461 
 F                    -17.86075  -1.50401   2.22876 
 H                     21.91778  -0.8589    0.75609 
 H                     20.68161  -2.1478   -1.01829 
 H                     18.30509  -1.97942  -1.19616 
 H                     18.27626   0.82057   2.088 
 H                     20.74268   0.61898   2.28056 
 H                     16.27206  -0.86235   2.45243 
 H                     13.77794  -0.67956   2.32761 
 H                     14.15797   0.18887  -1.90907 
 H                     11.94061  -2.16944   0.82544 
 H                     9.5044   -1.94945   0.7041 
 H                     9.85805   2.01958  -0.85948 
 H                     12.21369   1.89708  -0.68844 
 H                     7.83473  -1.69449  -1.36991 
 H                     5.34757  -1.66435  -1.49685 
 H                     5.31506   2.01052   0.85044 
 H                     3.3958   -1.87899   0.26144 
 H                     1.00731  -1.77518   0.14266 
 H                     1.05031   2.38671  -0.99019 
 H                     3.47713   2.3324   -0.98171 
 H                    -0.88559  -1.45417  -1.78545 
 H                    -3.25418  -1.41834  -1.78676 
 H                    -3.28097   1.98279   0.79074 
 H                    -5.06075  -1.86898   0.14425 
 H                    -7.57195  -1.88793   0.22394 
 H                    -7.75366   2.20133  -0.90624 
 H                    -5.31602   2.31585  -1.00784 
 H                    -9.44921  -1.65954  -1.52766 
 H                    -11.94717  -1.7514   -1.46868 
 H                    -11.93715   1.66515   1.09635 
 H                    -13.68891  -2.20195   0.45102 
 H                    -16.14263  -2.43395   0.56203 
 H                    -16.39232   1.77777  -0.48289 
 H                    -13.99932   1.87143  -0.58708 
 H                    -18.27828   0.51404  -1.72327 
 H                    -20.72312   0.40703  -1.62407 
 H                    -21.8656  -0.7199    0.34356 
 H                    -20.44406  -1.54379   2.1568 
 
 ITRead=  0  0  0  0  0  0  0  0  0  0  0  0  0  0  0  0  0  0  0  0
 ITRead=  0  0  0  0  0  0  0  0  0  0  0  0  0  0  0  0  0  0  0  0
 ITRead=  0  0  0  0  0  0  0  0  0  0  0  0  0  0  0  0  0  0  0  0
 ITRead=  0  0  0  0  0  0  0  0  0  0  0  0  0  0  0  0  0  0  0  0
 ITRead=  0  0  0  0  0  0  0  0  0  0  0  0  0  0  0  0  0  0  0  0
 ITRead=  0  0
 MicOpt= -1 -1 -1 -1 -1 -1 -1 -1 -1 -1 -1 -1 -1 -1 -1 -1 -1 -1 -1 -1
 MicOpt= -1 -1 -1 -1 -1 -1 -1 -1 -1 -1 -1 -1 -1 -1 -1 -1 -1 -1 -1 -1
 MicOpt= -1 -1 -1 -1 -1 -1 -1 -1 -1 -1 -1 -1 -1 -1 -1 -1 -1 -1 -1 -1
 MicOpt= -1 -1 -1 -1 -1 -1 -1 -1 -1 -1 -1 -1 -1 -1 -1 -1 -1 -1 -1 -1
 MicOpt= -1 -1 -1 -1 -1 -1 -1 -1 -1 -1 -1 -1 -1 -1 -1 -1 -1 -1 -1 -1
 MicOpt= -1 -1
 NAtoms=    102 NQM=      102 NQMF=       0 NMMI=      0 NMMIF=      0
                NMic=       0 NMicF=      0.
                    Isotopes and Nuclear Properties:
 (Nuclear quadrupole moments (NQMom) in fm**2, nuclear magnetic moments (NMagM)
  in nuclear magnetons)

  Atom         1           2           3           4           5           6           7           8           9          10
 IAtWgt=          12          12          12          12          12          12          12          12          12          12
 AtmWgt=  12.0000000  12.0000000  12.0000000  12.0000000  12.0000000  12.0000000  12.0000000  12.0000000  12.0000000  12.0000000
 NucSpn=           0           0           0           0           0           0           0           0           0           0
 AtZEff=  -0.0000000  -0.0000000  -0.0000000  -0.0000000  -0.0000000  -0.0000000  -0.0000000  -0.0000000  -0.0000000  -0.0000000
 NQMom=    0.0000000   0.0000000   0.0000000   0.0000000   0.0000000   0.0000000   0.0000000   0.0000000   0.0000000   0.0000000
 NMagM=    0.0000000   0.0000000   0.0000000   0.0000000   0.0000000   0.0000000   0.0000000   0.0000000   0.0000000   0.0000000
 AtZNuc=   6.0000000   6.0000000   6.0000000   6.0000000   6.0000000   6.0000000   6.0000000   6.0000000   6.0000000   6.0000000

  Atom        11          12          13          14          15          16          17          18          19          20
 IAtWgt=          12          12          19          12          12          12          12          12          12          12
 AtmWgt=  12.0000000  12.0000000  18.9984033  12.0000000  12.0000000  12.0000000  12.0000000  12.0000000  12.0000000  12.0000000
 NucSpn=           0           0           1           0           0           0           0           0           0           0
 AtZEff=  -0.0000000  -0.0000000  -0.0000000  -0.0000000  -0.0000000  -0.0000000  -0.0000000  -0.0000000  -0.0000000  -0.0000000
 NQMom=    0.0000000   0.0000000   0.0000000   0.0000000   0.0000000   0.0000000   0.0000000   0.0000000   0.0000000   0.0000000
 NMagM=    0.0000000   0.0000000   2.6288670   0.0000000   0.0000000   0.0000000   0.0000000   0.0000000   0.0000000   0.0000000
 AtZNuc=   6.0000000   6.0000000   9.0000000   6.0000000   6.0000000   6.0000000   6.0000000   6.0000000   6.0000000   6.0000000

  Atom        21          22          23          24          25          26          27          28          29          30
 IAtWgt=          12          12          12          12          12          19          12          12          12          12
 AtmWgt=  12.0000000  12.0000000  12.0000000  12.0000000  12.0000000  18.9984033  12.0000000  12.0000000  12.0000000  12.0000000
 NucSpn=           0           0           0           0           0           1           0           0           0           0
 AtZEff=  -0.0000000  -0.0000000  -0.0000000  -0.0000000  -0.0000000  -0.0000000  -0.0000000  -0.0000000  -0.0000000  -0.0000000
 NQMom=    0.0000000   0.0000000   0.0000000   0.0000000   0.0000000   0.0000000   0.0000000   0.0000000   0.0000000   0.0000000
 NMagM=    0.0000000   0.0000000   0.0000000   0.0000000   0.0000000   2.6288670   0.0000000   0.0000000   0.0000000   0.0000000
 AtZNuc=   6.0000000   6.0000000   6.0000000   6.0000000   6.0000000   9.0000000   6.0000000   6.0000000   6.0000000   6.0000000

  Atom        31          32          33          34          35          36          37          38          39          40
 IAtWgt=          12          12          12          12          12          12          12          12          19          12
 AtmWgt=  12.0000000  12.0000000  12.0000000  12.0000000  12.0000000  12.0000000  12.0000000  12.0000000  18.9984033  12.0000000
 NucSpn=           0           0           0           0           0           0           0           0           1           0
 AtZEff=  -0.0000000  -0.0000000  -0.0000000  -0.0000000  -0.0000000  -0.0000000  -0.0000000  -0.0000000  -0.0000000  -0.0000000
 NQMom=    0.0000000   0.0000000   0.0000000   0.0000000   0.0000000   0.0000000   0.0000000   0.0000000   0.0000000   0.0000000
 NMagM=    0.0000000   0.0000000   0.0000000   0.0000000   0.0000000   0.0000000   0.0000000   0.0000000   2.6288670   0.0000000
 AtZNuc=   6.0000000   6.0000000   6.0000000   6.0000000   6.0000000   6.0000000   6.0000000   6.0000000   9.0000000   6.0000000

  Atom        41          42          43          44          45          46          47          48          49          50
 IAtWgt=          12          12          12          12          12          12          12          12          12          12
 AtmWgt=  12.0000000  12.0000000  12.0000000  12.0000000  12.0000000  12.0000000  12.0000000  12.0000000  12.0000000  12.0000000
 NucSpn=           0           0           0           0           0           0           0           0           0           0
 AtZEff=  -0.0000000  -0.0000000  -0.0000000  -0.0000000  -0.0000000  -0.0000000  -0.0000000  -0.0000000  -0.0000000  -0.0000000
 NQMom=    0.0000000   0.0000000   0.0000000   0.0000000   0.0000000   0.0000000   0.0000000   0.0000000   0.0000000   0.0000000
 NMagM=    0.0000000   0.0000000   0.0000000   0.0000000   0.0000000   0.0000000   0.0000000   0.0000000   0.0000000   0.0000000
 AtZNuc=   6.0000000   6.0000000   6.0000000   6.0000000   6.0000000   6.0000000   6.0000000   6.0000000   6.0000000   6.0000000

  Atom        51          52          53          54          55          56          57          58          59          60
 IAtWgt=          12          19          12          12          12          12          12          12          12          12
 AtmWgt=  12.0000000  18.9984033  12.0000000  12.0000000  12.0000000  12.0000000  12.0000000  12.0000000  12.0000000  12.0000000
 NucSpn=           0           1           0           0           0           0           0           0           0           0
 AtZEff=  -0.0000000  -0.0000000  -0.0000000  -0.0000000  -0.0000000  -0.0000000  -0.0000000  -0.0000000  -0.0000000  -0.0000000
 NQMom=    0.0000000   0.0000000   0.0000000   0.0000000   0.0000000   0.0000000   0.0000000   0.0000000   0.0000000   0.0000000
 NMagM=    0.0000000   2.6288670   0.0000000   0.0000000   0.0000000   0.0000000   0.0000000   0.0000000   0.0000000   0.0000000
 AtZNuc=   6.0000000   9.0000000   6.0000000   6.0000000   6.0000000   6.0000000   6.0000000   6.0000000   6.0000000   6.0000000

  Atom        61          62          63          64          65          66          67          68          69          70
 IAtWgt=          12          12          12          12          19           1           1           1           1           1
 AtmWgt=  12.0000000  12.0000000  12.0000000  12.0000000  18.9984033   1.0078250   1.0078250   1.0078250   1.0078250   1.0078250
 NucSpn=           0           0           0           0           1           1           1           1           1           1
 AtZEff=  -0.0000000  -0.0000000  -0.0000000  -0.0000000  -0.0000000  -0.0000000  -0.0000000  -0.0000000  -0.0000000  -0.0000000
 NQMom=    0.0000000   0.0000000   0.0000000   0.0000000   0.0000000   0.0000000   0.0000000   0.0000000   0.0000000   0.0000000
 NMagM=    0.0000000   0.0000000   0.0000000   0.0000000   2.6288670   2.7928460   2.7928460   2.7928460   2.7928460   2.7928460
 AtZNuc=   6.0000000   6.0000000   6.0000000   6.0000000   9.0000000   1.0000000   1.0000000   1.0000000   1.0000000   1.0000000

  Atom        71          72          73          74          75          76          77          78          79          80
 IAtWgt=           1           1           1           1           1           1           1           1           1           1
 AtmWgt=   1.0078250   1.0078250   1.0078250   1.0078250   1.0078250   1.0078250   1.0078250   1.0078250   1.0078250   1.0078250
 NucSpn=           1           1           1           1           1           1           1           1           1           1
 AtZEff=  -0.0000000  -0.0000000  -0.0000000  -0.0000000  -0.0000000  -0.0000000  -0.0000000  -0.0000000  -0.0000000  -0.0000000
 NQMom=    0.0000000   0.0000000   0.0000000   0.0000000   0.0000000   0.0000000   0.0000000   0.0000000   0.0000000   0.0000000
 NMagM=    2.7928460   2.7928460   2.7928460   2.7928460   2.7928460   2.7928460   2.7928460   2.7928460   2.7928460   2.7928460
 AtZNuc=   1.0000000   1.0000000   1.0000000   1.0000000   1.0000000   1.0000000   1.0000000   1.0000000   1.0000000   1.0000000

  Atom        81          82          83          84          85          86          87          88          89          90
 IAtWgt=           1           1           1           1           1           1           1           1           1           1
 AtmWgt=   1.0078250   1.0078250   1.0078250   1.0078250   1.0078250   1.0078250   1.0078250   1.0078250   1.0078250   1.0078250
 NucSpn=           1           1           1           1           1           1           1           1           1           1
 AtZEff=  -0.0000000  -0.0000000  -0.0000000  -0.0000000  -0.0000000  -0.0000000  -0.0000000  -0.0000000  -0.0000000  -0.0000000
 NQMom=    0.0000000   0.0000000   0.0000000   0.0000000   0.0000000   0.0000000   0.0000000   0.0000000   0.0000000   0.0000000
 NMagM=    2.7928460   2.7928460   2.7928460   2.7928460   2.7928460   2.7928460   2.7928460   2.7928460   2.7928460   2.7928460
 AtZNuc=   1.0000000   1.0000000   1.0000000   1.0000000   1.0000000   1.0000000   1.0000000   1.0000000   1.0000000   1.0000000

  Atom        91          92          93          94          95          96          97          98          99         100
 IAtWgt=           1           1           1           1           1           1           1           1           1           1
 AtmWgt=   1.0078250   1.0078250   1.0078250   1.0078250   1.0078250   1.0078250   1.0078250   1.0078250   1.0078250   1.0078250
 NucSpn=           1           1           1           1           1           1           1           1           1           1
 AtZEff=  -0.0000000  -0.0000000  -0.0000000  -0.0000000  -0.0000000  -0.0000000  -0.0000000  -0.0000000  -0.0000000  -0.0000000
 NQMom=    0.0000000   0.0000000   0.0000000   0.0000000   0.0000000   0.0000000   0.0000000   0.0000000   0.0000000   0.0000000
 NMagM=    2.7928460   2.7928460   2.7928460   2.7928460   2.7928460   2.7928460   2.7928460   2.7928460   2.7928460   2.7928460
 AtZNuc=   1.0000000   1.0000000   1.0000000   1.0000000   1.0000000   1.0000000   1.0000000   1.0000000   1.0000000   1.0000000

  Atom       101         102
 IAtWgt=           1           1
 AtmWgt=   1.0078250   1.0078250
 NucSpn=           1           1
 AtZEff=  -0.0000000  -0.0000000
 NQMom=    0.0000000   0.0000000
 NMagM=    2.7928460   2.7928460
 AtZNuc=   1.0000000   1.0000000
 Leave Link  101 at Thu Jul 23 10:00:15 2020, MaxMem=  4026531840 cpu:               2.5 elap:               0.5
 (Enter /opt/ohpc/pub/libs/gaussian/g16-A.03/sandybridge/g16/l103.exe)

 GradGradGradGradGradGradGradGradGradGradGradGradGradGradGradGradGradGrad
 Berny optimization.
 Initialization pass.
                           ----------------------------
                           !    Initial Parameters    !
                           ! (Angstroms and Degrees)  !
 --------------------------                            --------------------------
 ! Name  Definition              Value          Derivative Info.                !
 --------------------------------------------------------------------------------
 ! R1    R(1,2)                  1.4839         estimate D2E/DX2                !
 ! R2    R(1,6)                  1.3794         estimate D2E/DX2                !
 ! R3    R(1,66)                 1.0349         estimate D2E/DX2                !
 ! R4    R(2,3)                  1.4011         estimate D2E/DX2                !
 ! R5    R(2,67)                 1.0658         estimate D2E/DX2                !
 ! R6    R(3,4)                  1.3756         estimate D2E/DX2                !
 ! R7    R(3,68)                 1.136          estimate D2E/DX2                !
 ! R8    R(4,5)                  1.4331         estimate D2E/DX2                !
 ! R9    R(4,7)                  1.4256         estimate D2E/DX2                !
 ! R10   R(5,6)                  1.4252         estimate D2E/DX2                !
 ! R11   R(5,69)                 1.0067         estimate D2E/DX2                !
 ! R12   R(6,70)                 1.0792         estimate D2E/DX2                !
 ! R13   R(7,8)                  1.4906         estimate D2E/DX2                !
 ! R14   R(7,12)                 1.3836         estimate D2E/DX2                !
 ! R15   R(8,9)                  1.3364         estimate D2E/DX2                !
 ! R16   R(8,71)                 1.0824         estimate D2E/DX2                !
 ! R17   R(9,10)                 1.3895         estimate D2E/DX2                !
 ! R18   R(9,72)                 1.1407         estimate D2E/DX2                !
 ! R19   R(10,11)                1.4156         estimate D2E/DX2                !
 ! R20   R(10,14)                1.4858         estimate D2E/DX2                !
 ! R21   R(11,12)                1.3853         estimate D2E/DX2                !
 ! R22   R(11,73)                1.1126         estimate D2E/DX2                !
 ! R23   R(12,13)                1.376          estimate D2E/DX2                !
 ! R24   R(14,15)                1.4456         estimate D2E/DX2                !
 ! R25   R(14,19)                1.3959         estimate D2E/DX2                !
 ! R26   R(15,16)                1.4395         estimate D2E/DX2                !
 ! R27   R(15,74)                1.0948         estimate D2E/DX2                !
 ! R28   R(16,17)                1.3484         estimate D2E/DX2                !
 ! R29   R(16,75)                1.0217         estimate D2E/DX2                !
 ! R30   R(17,18)                1.4059         estimate D2E/DX2                !
 ! R31   R(17,20)                1.5529         estimate D2E/DX2                !
 ! R32   R(18,19)                1.3704         estimate D2E/DX2                !
 ! R33   R(18,76)                1.1213         estimate D2E/DX2                !
 ! R34   R(19,77)                1.0378         estimate D2E/DX2                !
 ! R35   R(20,21)                1.406          estimate D2E/DX2                !
 ! R36   R(20,25)                1.3672         estimate D2E/DX2                !
 ! R37   R(21,22)                1.3778         estimate D2E/DX2                !
 ! R38   R(21,78)                1.1081         estimate D2E/DX2                !
 ! R39   R(22,23)                1.4148         estimate D2E/DX2                !
 ! R40   R(22,79)                1.1698         estimate D2E/DX2                !
 ! R41   R(23,24)                1.4458         estimate D2E/DX2                !
 ! R42   R(23,27)                1.4935         estimate D2E/DX2                !
 ! R43   R(24,25)                1.3897         estimate D2E/DX2                !
 ! R44   R(24,80)                1.1169         estimate D2E/DX2                !
 ! R45   R(25,26)                1.2902         estimate D2E/DX2                !
 ! R46   R(27,28)                1.4048         estimate D2E/DX2                !
 ! R47   R(27,32)                1.4237         estimate D2E/DX2                !
 ! R48   R(28,29)                1.3509         estimate D2E/DX2                !
 ! R49   R(28,81)                1.1069         estimate D2E/DX2                !
 ! R50   R(29,30)                1.3655         estimate D2E/DX2                !
 ! R51   R(29,82)                1.053          estimate D2E/DX2                !
 ! R52   R(30,31)                1.4158         estimate D2E/DX2                !
 ! R53   R(30,33)                1.5368         estimate D2E/DX2                !
 ! R54   R(31,32)                1.4498         estimate D2E/DX2                !
 ! R55   R(31,83)                1.1207         estimate D2E/DX2                !
 ! R56   R(32,84)                1.065          estimate D2E/DX2                !
 ! R57   R(33,34)                1.3849         estimate D2E/DX2                !
 ! R58   R(33,38)                1.3781         estimate D2E/DX2                !
 ! R59   R(34,35)                1.3333         estimate D2E/DX2                !
 ! R60   R(34,85)                1.0945         estimate D2E/DX2                !
 ! R61   R(35,36)                1.4073         estimate D2E/DX2                !
 ! R62   R(35,86)                1.0618         estimate D2E/DX2                !
 ! R63   R(36,37)                1.4494         estimate D2E/DX2                !
 ! R64   R(36,40)                1.4831         estimate D2E/DX2                !
 ! R65   R(37,38)                1.4266         estimate D2E/DX2                !
 ! R66   R(37,87)                1.0084         estimate D2E/DX2                !
 ! R67   R(38,39)                1.3914         estimate D2E/DX2                !
 ! R68   R(40,41)                1.4254         estimate D2E/DX2                !
 ! R69   R(40,45)                1.3467         estimate D2E/DX2                !
 ! R70   R(41,42)                1.4407         estimate D2E/DX2                !
 ! R71   R(41,88)                1.1348         estimate D2E/DX2                !
 ! R72   R(42,43)                1.4108         estimate D2E/DX2                !
 ! R73   R(42,89)                1.0327         estimate D2E/DX2                !
 ! R74   R(43,44)                1.4362         estimate D2E/DX2                !
 ! R75   R(43,46)                1.4602         estimate D2E/DX2                !
 ! R76   R(44,45)                1.3334         estimate D2E/DX2                !
 ! R77   R(44,90)                1.1369         estimate D2E/DX2                !
 ! R78   R(45,91)                1.1347         estimate D2E/DX2                !
 ! R79   R(46,47)                1.3593         estimate D2E/DX2                !
 ! R80   R(46,51)                1.374          estimate D2E/DX2                !
 ! R81   R(47,48)                1.3954         estimate D2E/DX2                !
 ! R82   R(47,92)                1.0899         estimate D2E/DX2                !
 ! R83   R(48,49)                1.3532         estimate D2E/DX2                !
 ! R84   R(48,93)                1.124          estimate D2E/DX2                !
 ! R85   R(49,50)                1.3946         estimate D2E/DX2                !
 ! R86   R(49,53)                1.5032         estimate D2E/DX2                !
 ! R87   R(50,51)                1.3599         estimate D2E/DX2                !
 ! R88   R(50,94)                1.0686         estimate D2E/DX2                !
 ! R89   R(51,52)                1.3821         estimate D2E/DX2                !
 ! R90   R(53,54)                1.3609         estimate D2E/DX2                !
 ! R91   R(53,58)                1.464          estimate D2E/DX2                !
 ! R92   R(54,55)                1.465          estimate D2E/DX2                !
 ! R93   R(54,95)                1.047          estimate D2E/DX2                !
 ! R94   R(55,56)                1.3597         estimate D2E/DX2                !
 ! R95   R(55,96)                1.0907         estimate D2E/DX2                !
 ! R96   R(56,57)                1.4314         estimate D2E/DX2                !
 ! R97   R(56,59)                1.4795         estimate D2E/DX2                !
 ! R98   R(57,58)                1.3673         estimate D2E/DX2                !
 ! R99   R(57,97)                1.1346         estimate D2E/DX2                !
 ! R100  R(58,98)                1.0237         estimate D2E/DX2                !
 ! R101  R(59,60)                1.3894         estimate D2E/DX2                !
 ! R102  R(59,64)                1.3868         estimate D2E/DX2                !
 ! R103  R(60,61)                1.3912         estimate D2E/DX2                !
 ! R104  R(60,99)                1.0616         estimate D2E/DX2                !
 ! R105  R(61,62)                1.4401         estimate D2E/DX2                !
 ! R106  R(61,100)               1.0945         estimate D2E/DX2                !
 ! R107  R(62,63)                1.4475         estimate D2E/DX2                !
 ! R108  R(62,101)               1.0636         estimate D2E/DX2                !
 ! R109  R(63,64)                1.3707         estimate D2E/DX2                !
 ! R110  R(63,102)               1.0739         estimate D2E/DX2                !
 ! R111  R(64,65)                1.2736         estimate D2E/DX2                !
 ! A1    A(2,1,6)              118.7151         estimate D2E/DX2                !
 ! A2    A(2,1,66)             117.7988         estimate D2E/DX2                !
 ! A3    A(6,1,66)             123.4805         estimate D2E/DX2                !
 ! A4    A(1,2,3)              116.454          estimate D2E/DX2                !
 ! A5    A(1,2,67)             121.1202         estimate D2E/DX2                !
 ! A6    A(3,2,67)             122.3346         estimate D2E/DX2                !
 ! A7    A(2,3,4)              125.2243         estimate D2E/DX2                !
 ! A8    A(2,3,68)             111.2481         estimate D2E/DX2                !
 ! A9    A(4,3,68)             123.1777         estimate D2E/DX2                !
 ! A10   A(3,4,5)              117.4068         estimate D2E/DX2                !
 ! A11   A(3,4,7)              122.3187         estimate D2E/DX2                !
 ! A12   A(5,4,7)              119.9346         estimate D2E/DX2                !
 ! A13   A(4,5,6)              119.3815         estimate D2E/DX2                !
 ! A14   A(4,5,69)             120.9553         estimate D2E/DX2                !
 ! A15   A(6,5,69)             119.3097         estimate D2E/DX2                !
 ! A16   A(1,6,5)              122.0189         estimate D2E/DX2                !
 ! A17   A(1,6,70)             116.0275         estimate D2E/DX2                !
 ! A18   A(5,6,70)             121.2592         estimate D2E/DX2                !
 ! A19   A(4,7,8)              121.1862         estimate D2E/DX2                !
 ! A20   A(4,7,12)             123.4534         estimate D2E/DX2                !
 ! A21   A(8,7,12)             115.1697         estimate D2E/DX2                !
 ! A22   A(7,8,9)              119.6992         estimate D2E/DX2                !
 ! A23   A(7,8,71)             116.318          estimate D2E/DX2                !
 ! A24   A(9,8,71)             123.9305         estimate D2E/DX2                !
 ! A25   A(8,9,10)             125.0566         estimate D2E/DX2                !
 ! A26   A(8,9,72)             119.4907         estimate D2E/DX2                !
 ! A27   A(10,9,72)            115.1299         estimate D2E/DX2                !
 ! A28   A(9,10,11)            115.3936         estimate D2E/DX2                !
 ! A29   A(9,10,14)            125.2771         estimate D2E/DX2                !
 ! A30   A(11,10,14)           119.1551         estimate D2E/DX2                !
 ! A31   A(10,11,12)           121.8678         estimate D2E/DX2                !
 ! A32   A(10,11,73)           122.5293         estimate D2E/DX2                !
 ! A33   A(12,11,73)           115.5234         estimate D2E/DX2                !
 ! A34   A(7,12,11)            122.5425         estimate D2E/DX2                !
 ! A35   A(7,12,13)            120.4288         estimate D2E/DX2                !
 ! A36   A(11,12,13)           116.6824         estimate D2E/DX2                !
 ! A37   A(10,14,15)           115.7335         estimate D2E/DX2                !
 ! A38   A(10,14,19)           123.7868         estimate D2E/DX2                !
 ! A39   A(15,14,19)           120.4792         estimate D2E/DX2                !
 ! A40   A(14,15,16)           118.8876         estimate D2E/DX2                !
 ! A41   A(14,15,74)           121.7377         estimate D2E/DX2                !
 ! A42   A(16,15,74)           118.8671         estimate D2E/DX2                !
 ! A43   A(15,16,17)           118.9882         estimate D2E/DX2                !
 ! A44   A(15,16,75)           117.9768         estimate D2E/DX2                !
 ! A45   A(17,16,75)           122.9719         estimate D2E/DX2                !
 ! A46   A(16,17,18)           120.5934         estimate D2E/DX2                !
 ! A47   A(16,17,20)           119.2451         estimate D2E/DX2                !
 ! A48   A(18,17,20)           120.1551         estimate D2E/DX2                !
 ! A49   A(17,18,19)           123.5513         estimate D2E/DX2                !
 ! A50   A(17,18,76)           121.2625         estimate D2E/DX2                !
 ! A51   A(19,18,76)           115.1461         estimate D2E/DX2                !
 ! A52   A(14,19,18)           117.4921         estimate D2E/DX2                !
 ! A53   A(14,19,77)           122.707          estimate D2E/DX2                !
 ! A54   A(18,19,77)           119.772          estimate D2E/DX2                !
 ! A55   A(17,20,21)           117.0295         estimate D2E/DX2                !
 ! A56   A(17,20,25)           120.6584         estimate D2E/DX2                !
 ! A57   A(21,20,25)           122.304          estimate D2E/DX2                !
 ! A58   A(20,21,22)           117.4982         estimate D2E/DX2                !
 ! A59   A(20,21,78)           120.5582         estimate D2E/DX2                !
 ! A60   A(22,21,78)           121.2679         estimate D2E/DX2                !
 ! A61   A(21,22,23)           124.5441         estimate D2E/DX2                !
 ! A62   A(21,22,79)           116.9475         estimate D2E/DX2                !
 ! A63   A(23,22,79)           117.9336         estimate D2E/DX2                !
 ! A64   A(22,23,24)           113.1653         estimate D2E/DX2                !
 ! A65   A(22,23,27)           122.0789         estimate D2E/DX2                !
 ! A66   A(24,23,27)           124.4493         estimate D2E/DX2                !
 ! A67   A(23,24,25)           123.3752         estimate D2E/DX2                !
 ! A68   A(23,24,80)           114.5812         estimate D2E/DX2                !
 ! A69   A(25,24,80)           121.9266         estimate D2E/DX2                !
 ! A70   A(20,25,24)           118.4147         estimate D2E/DX2                !
 ! A71   A(20,25,26)           121.9616         estimate D2E/DX2                !
 ! A72   A(24,25,26)           119.6232         estimate D2E/DX2                !
 ! A73   A(23,27,28)           120.6927         estimate D2E/DX2                !
 ! A74   A(23,27,32)           117.7964         estimate D2E/DX2                !
 ! A75   A(28,27,32)           121.3107         estimate D2E/DX2                !
 ! A76   A(27,28,29)           119.4483         estimate D2E/DX2                !
 ! A77   A(27,28,81)           119.5429         estimate D2E/DX2                !
 ! A78   A(29,28,81)           120.9888         estimate D2E/DX2                !
 ! A79   A(28,29,30)           123.0642         estimate D2E/DX2                !
 ! A80   A(28,29,82)           116.6313         estimate D2E/DX2                !
 ! A81   A(30,29,82)           119.8316         estimate D2E/DX2                !
 ! A82   A(29,30,31)           119.4358         estimate D2E/DX2                !
 ! A83   A(29,30,33)           122.3429         estimate D2E/DX2                !
 ! A84   A(31,30,33)           118.1046         estimate D2E/DX2                !
 ! A85   A(30,31,32)           119.7806         estimate D2E/DX2                !
 ! A86   A(30,31,83)           122.8295         estimate D2E/DX2                !
 ! A87   A(32,31,83)           116.6817         estimate D2E/DX2                !
 ! A88   A(27,32,31)           116.4115         estimate D2E/DX2                !
 ! A89   A(27,32,84)           127.0877         estimate D2E/DX2                !
 ! A90   A(31,32,84)           116.0441         estimate D2E/DX2                !
 ! A91   A(30,33,34)           120.6143         estimate D2E/DX2                !
 ! A92   A(30,33,38)           120.3089         estimate D2E/DX2                !
 ! A93   A(34,33,38)           118.6406         estimate D2E/DX2                !
 ! A94   A(33,34,35)           121.0628         estimate D2E/DX2                !
 ! A95   A(33,34,85)           120.9792         estimate D2E/DX2                !
 ! A96   A(35,34,85)           117.4679         estimate D2E/DX2                !
 ! A97   A(34,35,36)           122.9823         estimate D2E/DX2                !
 ! A98   A(34,35,86)           119.8858         estimate D2E/DX2                !
 ! A99   A(36,35,86)           117.1123         estimate D2E/DX2                !
 ! A100  A(35,36,37)           117.983          estimate D2E/DX2                !
 ! A101  A(35,36,40)           125.8949         estimate D2E/DX2                !
 ! A102  A(37,36,40)           115.9151         estimate D2E/DX2                !
 ! A103  A(36,37,38)           116.1008         estimate D2E/DX2                !
 ! A104  A(36,37,87)           124.0866         estimate D2E/DX2                !
 ! A105  A(38,37,87)           119.6381         estimate D2E/DX2                !
 ! A106  A(33,38,37)           122.8769         estimate D2E/DX2                !
 ! A107  A(33,38,39)           121.4084         estimate D2E/DX2                !
 ! A108  A(37,38,39)           115.5614         estimate D2E/DX2                !
 ! A109  A(36,40,41)           118.152          estimate D2E/DX2                !
 ! A110  A(36,40,45)           125.7762         estimate D2E/DX2                !
 ! A111  A(41,40,45)           115.8402         estimate D2E/DX2                !
 ! A112  A(40,41,42)           121.1649         estimate D2E/DX2                !
 ! A113  A(40,41,88)           119.8527         estimate D2E/DX2                !
 ! A114  A(42,41,88)           118.1352         estimate D2E/DX2                !
 ! A115  A(41,42,43)           120.3543         estimate D2E/DX2                !
 ! A116  A(41,42,89)           120.9375         estimate D2E/DX2                !
 ! A117  A(43,42,89)           118.4913         estimate D2E/DX2                !
 ! A118  A(42,43,44)           113.8826         estimate D2E/DX2                !
 ! A119  A(42,43,46)           123.4208         estimate D2E/DX2                !
 ! A120  A(44,43,46)           122.696          estimate D2E/DX2                !
 ! A121  A(43,44,45)           124.1356         estimate D2E/DX2                !
 ! A122  A(43,44,90)           113.702          estimate D2E/DX2                !
 ! A123  A(45,44,90)           122.1621         estimate D2E/DX2                !
 ! A124  A(40,45,44)           124.1699         estimate D2E/DX2                !
 ! A125  A(40,45,91)           119.5014         estimate D2E/DX2                !
 ! A126  A(44,45,91)           116.3209         estimate D2E/DX2                !
 ! A127  A(43,46,47)           118.4748         estimate D2E/DX2                !
 ! A128  A(43,46,51)           122.7105         estimate D2E/DX2                !
 ! A129  A(47,46,51)           118.4409         estimate D2E/DX2                !
 ! A130  A(46,47,48)           119.1902         estimate D2E/DX2                !
 ! A131  A(46,47,92)           121.7615         estimate D2E/DX2                !
 ! A132  A(48,47,92)           118.9556         estimate D2E/DX2                !
 ! A133  A(47,48,49)           122.2924         estimate D2E/DX2                !
 ! A134  A(47,48,93)           120.8086         estimate D2E/DX2                !
 ! A135  A(49,48,93)           116.8874         estimate D2E/DX2                !
 ! A136  A(48,49,50)           118.175          estimate D2E/DX2                !
 ! A137  A(48,49,53)           120.9193         estimate D2E/DX2                !
 ! A138  A(50,49,53)           120.8734         estimate D2E/DX2                !
 ! A139  A(49,50,51)           119.0926         estimate D2E/DX2                !
 ! A140  A(49,50,94)           123.1575         estimate D2E/DX2                !
 ! A141  A(51,50,94)           117.6925         estimate D2E/DX2                !
 ! A142  A(46,51,50)           122.7338         estimate D2E/DX2                !
 ! A143  A(46,51,52)           120.9503         estimate D2E/DX2                !
 ! A144  A(50,51,52)           116.0805         estimate D2E/DX2                !
 ! A145  A(49,53,54)           122.8034         estimate D2E/DX2                !
 ! A146  A(49,53,58)           120.1052         estimate D2E/DX2                !
 ! A147  A(54,53,58)           116.9457         estimate D2E/DX2                !
 ! A148  A(53,54,55)           123.321          estimate D2E/DX2                !
 ! A149  A(53,54,95)           119.8025         estimate D2E/DX2                !
 ! A150  A(55,54,95)           116.5093         estimate D2E/DX2                !
 ! A151  A(54,55,56)           119.5821         estimate D2E/DX2                !
 ! A152  A(54,55,96)           119.3621         estimate D2E/DX2                !
 ! A153  A(56,55,96)           121.0551         estimate D2E/DX2                !
 ! A154  A(55,56,57)           116.4714         estimate D2E/DX2                !
 ! A155  A(55,56,59)           122.0189         estimate D2E/DX2                !
 ! A156  A(57,56,59)           121.4965         estimate D2E/DX2                !
 ! A157  A(56,57,58)           125.464          estimate D2E/DX2                !
 ! A158  A(56,57,97)           120.4625         estimate D2E/DX2                !
 ! A159  A(58,57,97)           114.0713         estimate D2E/DX2                !
 ! A160  A(53,58,57)           117.9616         estimate D2E/DX2                !
 ! A161  A(53,58,98)           118.776          estimate D2E/DX2                !
 ! A162  A(57,58,98)           123.109          estimate D2E/DX2                !
 ! A163  A(56,59,60)           118.6237         estimate D2E/DX2                !
 ! A164  A(56,59,64)           120.3297         estimate D2E/DX2                !
 ! A165  A(60,59,64)           120.8944         estimate D2E/DX2                !
 ! A166  A(59,60,61)           120.0181         estimate D2E/DX2                !
 ! A167  A(59,60,99)           123.0916         estimate D2E/DX2                !
 ! A168  A(61,60,99)           116.8149         estimate D2E/DX2                !
 ! A169  A(60,61,62)           122.3122         estimate D2E/DX2                !
 ! A170  A(60,61,100)          121.9381         estimate D2E/DX2                !
 ! A171  A(62,61,100)          115.7274         estimate D2E/DX2                !
 ! A172  A(61,62,63)           113.3391         estimate D2E/DX2                !
 ! A173  A(61,62,101)          125.7119         estimate D2E/DX2                !
 ! A174  A(63,62,101)          120.8344         estimate D2E/DX2                !
 ! A175  A(62,63,64)           124.3384         estimate D2E/DX2                !
 ! A176  A(62,63,102)          114.9781         estimate D2E/DX2                !
 ! A177  A(64,63,102)          120.6835         estimate D2E/DX2                !
 ! A178  A(59,64,63)           118.8817         estimate D2E/DX2                !
 ! A179  A(59,64,65)           119.8537         estimate D2E/DX2                !
 ! A180  A(63,64,65)           121.2403         estimate D2E/DX2                !
 ! D1    D(6,1,2,3)             -4.169          estimate D2E/DX2                !
 ! D2    D(6,1,2,67)           179.2245         estimate D2E/DX2                !
 ! D3    D(66,1,2,3)           175.0055         estimate D2E/DX2                !
 ! D4    D(66,1,2,67)           -1.601          estimate D2E/DX2                !
 ! D5    D(2,1,6,5)              5.4788         estimate D2E/DX2                !
 ! D6    D(2,1,6,70)           176.0369         estimate D2E/DX2                !
 ! D7    D(66,1,6,5)          -173.6457         estimate D2E/DX2                !
 ! D8    D(66,1,6,70)           -3.0876         estimate D2E/DX2                !
 ! D9    D(1,2,3,4)              6.0811         estimate D2E/DX2                !
 ! D10   D(1,2,3,68)           179.445          estimate D2E/DX2                !
 ! D11   D(67,2,3,4)          -177.3573         estimate D2E/DX2                !
 ! D12   D(67,2,3,68)           -3.9933         estimate D2E/DX2                !
 ! D13   D(2,3,4,5)             -8.6338         estimate D2E/DX2                !
 ! D14   D(2,3,4,7)            178.0723         estimate D2E/DX2                !
 ! D15   D(68,3,4,5)           178.7598         estimate D2E/DX2                !
 ! D16   D(68,3,4,7)             5.4659         estimate D2E/DX2                !
 ! D17   D(3,4,5,6)              9.1765         estimate D2E/DX2                !
 ! D18   D(3,4,5,69)          -177.697          estimate D2E/DX2                !
 ! D19   D(7,4,5,6)           -177.3624         estimate D2E/DX2                !
 ! D20   D(7,4,5,69)            -4.2359         estimate D2E/DX2                !
 ! D21   D(3,4,7,8)            123.9573         estimate D2E/DX2                !
 ! D22   D(3,4,7,12)           -50.7792         estimate D2E/DX2                !
 ! D23   D(5,4,7,8)            -49.1721         estimate D2E/DX2                !
 ! D24   D(5,4,7,12)           136.0915         estimate D2E/DX2                !
 ! D25   D(4,5,6,1)             -8.0739         estimate D2E/DX2                !
 ! D26   D(4,5,6,70)          -178.144          estimate D2E/DX2                !
 ! D27   D(69,5,6,1)           178.6854         estimate D2E/DX2                !
 ! D28   D(69,5,6,70)            8.6153         estimate D2E/DX2                !
 ! D29   D(4,7,8,9)            179.8842         estimate D2E/DX2                !
 ! D30   D(4,7,8,71)            -2.6443         estimate D2E/DX2                !
 ! D31   D(12,7,8,9)            -4.9671         estimate D2E/DX2                !
 ! D32   D(12,7,8,71)          172.5044         estimate D2E/DX2                !
 ! D33   D(4,7,12,11)         -179.7495         estimate D2E/DX2                !
 ! D34   D(4,7,12,13)           -6.732          estimate D2E/DX2                !
 ! D35   D(8,7,12,11)            5.2251         estimate D2E/DX2                !
 ! D36   D(8,7,12,13)          178.2426         estimate D2E/DX2                !
 ! D37   D(7,8,9,10)             4.0349         estimate D2E/DX2                !
 ! D38   D(7,8,9,72)           177.1802         estimate D2E/DX2                !
 ! D39   D(71,8,9,10)         -173.2334         estimate D2E/DX2                !
 ! D40   D(71,8,9,72)           -0.0881         estimate D2E/DX2                !
 ! D41   D(8,9,10,11)           -2.828          estimate D2E/DX2                !
 ! D42   D(8,9,10,14)         -177.967          estimate D2E/DX2                !
 ! D43   D(72,9,10,11)        -176.2388         estimate D2E/DX2                !
 ! D44   D(72,9,10,14)           8.6222         estimate D2E/DX2                !
 ! D45   D(9,10,11,12)           2.8361         estimate D2E/DX2                !
 ! D46   D(9,10,11,73)        -173.7745         estimate D2E/DX2                !
 ! D47   D(14,10,11,12)        178.2928         estimate D2E/DX2                !
 ! D48   D(14,10,11,73)          1.6822         estimate D2E/DX2                !
 ! D49   D(9,10,14,15)         -60.5107         estimate D2E/DX2                !
 ! D50   D(9,10,14,19)         119.2432         estimate D2E/DX2                !
 ! D51   D(11,10,14,15)        124.518          estimate D2E/DX2                !
 ! D52   D(11,10,14,19)        -55.728          estimate D2E/DX2                !
 ! D53   D(10,11,12,7)          -4.4536         estimate D2E/DX2                !
 ! D54   D(10,11,12,13)       -177.7165         estimate D2E/DX2                !
 ! D55   D(73,11,12,7)         172.3799         estimate D2E/DX2                !
 ! D56   D(73,11,12,13)         -0.883          estimate D2E/DX2                !
 ! D57   D(10,14,15,16)       -179.5177         estimate D2E/DX2                !
 ! D58   D(10,14,15,74)         -7.7857         estimate D2E/DX2                !
 ! D59   D(19,14,15,16)          0.7196         estimate D2E/DX2                !
 ! D60   D(19,14,15,74)        172.4516         estimate D2E/DX2                !
 ! D61   D(10,14,19,18)        179.4471         estimate D2E/DX2                !
 ! D62   D(10,14,19,77)         -2.5158         estimate D2E/DX2                !
 ! D63   D(15,14,19,18)         -0.8101         estimate D2E/DX2                !
 ! D64   D(15,14,19,77)        177.227          estimate D2E/DX2                !
 ! D65   D(14,15,16,17)         -0.6158         estimate D2E/DX2                !
 ! D66   D(14,15,16,75)        176.5833         estimate D2E/DX2                !
 ! D67   D(74,15,16,17)       -172.5881         estimate D2E/DX2                !
 ! D68   D(74,15,16,75)          4.611          estimate D2E/DX2                !
 ! D69   D(15,16,17,18)          0.6247         estimate D2E/DX2                !
 ! D70   D(15,16,17,20)       -178.4587         estimate D2E/DX2                !
 ! D71   D(75,16,17,18)       -176.4267         estimate D2E/DX2                !
 ! D72   D(75,16,17,20)          4.4899         estimate D2E/DX2                !
 ! D73   D(16,17,18,19)         -0.7644         estimate D2E/DX2                !
 ! D74   D(16,17,18,76)       -178.3485         estimate D2E/DX2                !
 ! D75   D(20,17,18,19)        178.3107         estimate D2E/DX2                !
 ! D76   D(20,17,18,76)          0.7266         estimate D2E/DX2                !
 ! D77   D(16,17,20,21)        -54.1904         estimate D2E/DX2                !
 ! D78   D(16,17,20,25)        124.7977         estimate D2E/DX2                !
 ! D79   D(18,17,20,21)        126.7221         estimate D2E/DX2                !
 ! D80   D(18,17,20,25)        -54.2898         estimate D2E/DX2                !
 ! D81   D(17,18,19,14)          0.8356         estimate D2E/DX2                !
 ! D82   D(17,18,19,77)       -177.2616         estimate D2E/DX2                !
 ! D83   D(76,18,19,14)        178.5543         estimate D2E/DX2                !
 ! D84   D(76,18,19,77)          0.4571         estimate D2E/DX2                !
 ! D85   D(17,20,21,22)       -177.8563         estimate D2E/DX2                !
 ! D86   D(17,20,21,78)         -7.1581         estimate D2E/DX2                !
 ! D87   D(25,20,21,22)          3.1735         estimate D2E/DX2                !
 ! D88   D(25,20,21,78)        173.8717         estimate D2E/DX2                !
 ! D89   D(17,20,25,24)       -179.2787         estimate D2E/DX2                !
 ! D90   D(17,20,25,26)          0.9887         estimate D2E/DX2                !
 ! D91   D(21,20,25,24)         -0.3451         estimate D2E/DX2                !
 ! D92   D(21,20,25,26)        179.9223         estimate D2E/DX2                !
 ! D93   D(20,21,22,23)         -8.579          estimate D2E/DX2                !
 ! D94   D(20,21,22,79)       -179.6797         estimate D2E/DX2                !
 ! D95   D(78,21,22,23)       -179.2073         estimate D2E/DX2                !
 ! D96   D(78,21,22,79)          9.692          estimate D2E/DX2                !
 ! D97   D(21,22,23,24)         10.1083         estimate D2E/DX2                !
 ! D98   D(21,22,23,27)       -175.9872         estimate D2E/DX2                !
 ! D99   D(79,22,23,24)       -178.8716         estimate D2E/DX2                !
 ! D100  D(79,22,23,27)         -4.967          estimate D2E/DX2                !
 ! D101  D(22,23,24,25)         -6.9006         estimate D2E/DX2                !
 ! D102  D(22,23,24,80)        176.9697         estimate D2E/DX2                !
 ! D103  D(27,23,24,25)        179.3632         estimate D2E/DX2                !
 ! D104  D(27,23,24,80)          3.2335         estimate D2E/DX2                !
 ! D105  D(22,23,27,28)         54.2203         estimate D2E/DX2                !
 ! D106  D(22,23,27,32)       -130.8544         estimate D2E/DX2                !
 ! D107  D(24,23,27,28)       -132.5787         estimate D2E/DX2                !
 ! D108  D(24,23,27,32)         42.3466         estimate D2E/DX2                !
 ! D109  D(23,24,25,20)          2.4728         estimate D2E/DX2                !
 ! D110  D(23,24,25,26)       -177.7881         estimate D2E/DX2                !
 ! D111  D(80,24,25,20)        178.3255         estimate D2E/DX2                !
 ! D112  D(80,24,25,26)         -1.9355         estimate D2E/DX2                !
 ! D113  D(23,27,28,29)       -179.8104         estimate D2E/DX2                !
 ! D114  D(23,27,28,81)         -1.4184         estimate D2E/DX2                !
 ! D115  D(32,27,28,29)          5.4445         estimate D2E/DX2                !
 ! D116  D(32,27,28,81)       -176.1636         estimate D2E/DX2                !
 ! D117  D(23,27,32,31)        179.3647         estimate D2E/DX2                !
 ! D118  D(23,27,32,84)          7.476          estimate D2E/DX2                !
 ! D119  D(28,27,32,31)         -5.7431         estimate D2E/DX2                !
 ! D120  D(28,27,32,84)       -177.6317         estimate D2E/DX2                !
 ! D121  D(27,28,29,30)         -5.6681         estimate D2E/DX2                !
 ! D122  D(27,28,29,82)       -177.75           estimate D2E/DX2                !
 ! D123  D(81,28,29,30)        175.9638         estimate D2E/DX2                !
 ! D124  D(81,28,29,82)          3.8819         estimate D2E/DX2                !
 ! D125  D(28,29,30,31)          6.2987         estimate D2E/DX2                !
 ! D126  D(28,29,30,33)       -177.7052         estimate D2E/DX2                !
 ! D127  D(82,29,30,31)        178.1379         estimate D2E/DX2                !
 ! D128  D(82,29,30,33)         -5.8661         estimate D2E/DX2                !
 ! D129  D(29,30,31,32)         -6.5691         estimate D2E/DX2                !
 ! D130  D(29,30,31,83)       -176.6009         estimate D2E/DX2                !
 ! D131  D(33,30,31,32)        177.2656         estimate D2E/DX2                !
 ! D132  D(33,30,31,83)          7.2338         estimate D2E/DX2                !
 ! D133  D(29,30,33,34)        -46.1169         estimate D2E/DX2                !
 ! D134  D(29,30,33,38)        126.2011         estimate D2E/DX2                !
 ! D135  D(31,30,33,34)        129.93           estimate D2E/DX2                !
 ! D136  D(31,30,33,38)        -57.752          estimate D2E/DX2                !
 ! D137  D(30,31,32,27)          6.2713         estimate D2E/DX2                !
 ! D138  D(30,31,32,84)        179.0746         estimate D2E/DX2                !
 ! D139  D(83,31,32,27)        176.9025         estimate D2E/DX2                !
 ! D140  D(83,31,32,84)        -10.2942         estimate D2E/DX2                !
 ! D141  D(30,33,34,35)        179.616          estimate D2E/DX2                !
 ! D142  D(30,33,34,85)         -8.6193         estimate D2E/DX2                !
 ! D143  D(38,33,34,35)          7.1718         estimate D2E/DX2                !
 ! D144  D(38,33,34,85)        178.9366         estimate D2E/DX2                !
 ! D145  D(30,33,38,37)       -176.7466         estimate D2E/DX2                !
 ! D146  D(30,33,38,39)          7.9552         estimate D2E/DX2                !
 ! D147  D(34,33,38,37)         -4.2787         estimate D2E/DX2                !
 ! D148  D(34,33,38,39)       -179.5769         estimate D2E/DX2                !
 ! D149  D(33,34,35,36)         -5.2169         estimate D2E/DX2                !
 ! D150  D(33,34,35,86)        176.4394         estimate D2E/DX2                !
 ! D151  D(85,34,35,36)       -177.2611         estimate D2E/DX2                !
 ! D152  D(85,34,35,86)          4.3951         estimate D2E/DX2                !
 ! D153  D(34,35,36,37)          0.1756         estimate D2E/DX2                !
 ! D154  D(34,35,36,40)       -174.3638         estimate D2E/DX2                !
 ! D155  D(86,35,36,37)        178.5623         estimate D2E/DX2                !
 ! D156  D(86,35,36,40)          4.023          estimate D2E/DX2                !
 ! D157  D(35,36,37,38)          2.5851         estimate D2E/DX2                !
 ! D158  D(35,36,37,87)        177.7517         estimate D2E/DX2                !
 ! D159  D(40,36,37,38)        177.6683         estimate D2E/DX2                !
 ! D160  D(40,36,37,87)         -7.1651         estimate D2E/DX2                !
 ! D161  D(35,36,40,41)         45.9752         estimate D2E/DX2                !
 ! D162  D(35,36,40,45)       -128.2464         estimate D2E/DX2                !
 ! D163  D(37,36,40,41)       -128.6638         estimate D2E/DX2                !
 ! D164  D(37,36,40,45)         57.1146         estimate D2E/DX2                !
 ! D165  D(36,37,38,33)         -0.5161         estimate D2E/DX2                !
 ! D166  D(36,37,38,39)        175.0362         estimate D2E/DX2                !
 ! D167  D(87,37,38,33)       -175.9111         estimate D2E/DX2                !
 ! D168  D(87,37,38,39)         -0.3588         estimate D2E/DX2                !
 ! D169  D(36,40,41,42)        178.2697         estimate D2E/DX2                !
 ! D170  D(36,40,41,88)          9.004          estimate D2E/DX2                !
 ! D171  D(45,40,41,42)         -6.9375         estimate D2E/DX2                !
 ! D172  D(45,40,41,88)       -176.2032         estimate D2E/DX2                !
 ! D173  D(36,40,45,44)        177.226          estimate D2E/DX2                !
 ! D174  D(36,40,45,91)         -1.7193         estimate D2E/DX2                !
 ! D175  D(41,40,45,44)          2.8864         estimate D2E/DX2                !
 ! D176  D(41,40,45,91)       -176.0588         estimate D2E/DX2                !
 ! D177  D(40,41,42,43)          8.3105         estimate D2E/DX2                !
 ! D178  D(40,41,42,89)       -177.1219         estimate D2E/DX2                !
 ! D179  D(88,41,42,43)        177.755          estimate D2E/DX2                !
 ! D180  D(88,41,42,89)         -7.6773         estimate D2E/DX2                !
 ! D181  D(41,42,43,44)         -5.0047         estimate D2E/DX2                !
 ! D182  D(41,42,43,46)        175.2468         estimate D2E/DX2                !
 ! D183  D(89,42,43,44)       -179.7035         estimate D2E/DX2                !
 ! D184  D(89,42,43,46)          0.548          estimate D2E/DX2                !
 ! D185  D(42,43,44,45)          1.0008         estimate D2E/DX2                !
 ! D186  D(42,43,44,90)       -178.7957         estimate D2E/DX2                !
 ! D187  D(46,43,44,45)       -179.2486         estimate D2E/DX2                !
 ! D188  D(46,43,44,90)          0.9548         estimate D2E/DX2                !
 ! D189  D(42,43,46,47)        -49.9235         estimate D2E/DX2                !
 ! D190  D(42,43,46,51)        122.9426         estimate D2E/DX2                !
 ! D191  D(44,43,46,47)        130.3498         estimate D2E/DX2                !
 ! D192  D(44,43,46,51)        -56.7841         estimate D2E/DX2                !
 ! D193  D(43,44,45,40)          0.0224         estimate D2E/DX2                !
 ! D194  D(43,44,45,91)        178.9983         estimate D2E/DX2                !
 ! D195  D(90,44,45,40)        179.8024         estimate D2E/DX2                !
 ! D196  D(90,44,45,91)         -1.2218         estimate D2E/DX2                !
 ! D197  D(43,46,47,48)        175.8414         estimate D2E/DX2                !
 ! D198  D(43,46,47,92)         -0.6195         estimate D2E/DX2                !
 ! D199  D(51,46,47,48)          2.6663         estimate D2E/DX2                !
 ! D200  D(51,46,47,92)       -173.7946         estimate D2E/DX2                !
 ! D201  D(43,46,51,50)       -175.7869         estimate D2E/DX2                !
 ! D202  D(43,46,51,52)         10.0072         estimate D2E/DX2                !
 ! D203  D(47,46,51,50)         -2.9185         estimate D2E/DX2                !
 ! D204  D(47,46,51,52)       -177.1244         estimate D2E/DX2                !
 ! D205  D(46,47,48,49)         -0.5184         estimate D2E/DX2                !
 ! D206  D(46,47,48,93)        178.205          estimate D2E/DX2                !
 ! D207  D(92,47,48,49)        176.0428         estimate D2E/DX2                !
 ! D208  D(92,47,48,93)         -5.2338         estimate D2E/DX2                !
 ! D209  D(47,48,49,50)         -1.4956         estimate D2E/DX2                !
 ! D210  D(47,48,49,53)       -179.4442         estimate D2E/DX2                !
 ! D211  D(93,48,49,50)        179.7337         estimate D2E/DX2                !
 ! D212  D(93,48,49,53)          1.7852         estimate D2E/DX2                !
 ! D213  D(48,49,50,51)          1.301          estimate D2E/DX2                !
 ! D214  D(48,49,50,94)        178.4778         estimate D2E/DX2                !
 ! D215  D(53,49,50,51)        179.2505         estimate D2E/DX2                !
 ! D216  D(53,49,50,94)         -3.5727         estimate D2E/DX2                !
 ! D217  D(48,49,53,54)         54.6868         estimate D2E/DX2                !
 ! D218  D(48,49,53,58)       -129.8374         estimate D2E/DX2                !
 ! D219  D(50,49,53,54)       -123.2063         estimate D2E/DX2                !
 ! D220  D(50,49,53,58)         52.2695         estimate D2E/DX2                !
 ! D221  D(49,50,51,46)          0.9034         estimate D2E/DX2                !
 ! D222  D(49,50,51,52)        175.3718         estimate D2E/DX2                !
 ! D223  D(94,50,51,46)       -176.4275         estimate D2E/DX2                !
 ! D224  D(94,50,51,52)         -1.959          estimate D2E/DX2                !
 ! D225  D(49,53,54,55)       -179.0853         estimate D2E/DX2                !
 ! D226  D(49,53,54,95)         -6.2902         estimate D2E/DX2                !
 ! D227  D(58,53,54,55)          5.305          estimate D2E/DX2                !
 ! D228  D(58,53,54,95)        178.1001         estimate D2E/DX2                !
 ! D229  D(49,53,58,57)       -177.6863         estimate D2E/DX2                !
 ! D230  D(49,53,58,98)         -2.0456         estimate D2E/DX2                !
 ! D231  D(54,53,58,57)         -1.9517         estimate D2E/DX2                !
 ! D232  D(54,53,58,98)        173.689          estimate D2E/DX2                !
 ! D233  D(53,54,55,56)         -6.3315         estimate D2E/DX2                !
 ! D234  D(53,54,55,96)        173.9797         estimate D2E/DX2                !
 ! D235  D(95,54,55,56)       -179.346          estimate D2E/DX2                !
 ! D236  D(95,54,55,96)          0.9651         estimate D2E/DX2                !
 ! D237  D(54,55,56,57)          3.5163         estimate D2E/DX2                !
 ! D238  D(54,55,56,59)       -177.7862         estimate D2E/DX2                !
 ! D239  D(96,55,56,57)       -176.8003         estimate D2E/DX2                !
 ! D240  D(96,55,56,59)          1.8972         estimate D2E/DX2                !
 ! D241  D(55,56,57,58)         -0.3733         estimate D2E/DX2                !
 ! D242  D(55,56,57,97)        179.0586         estimate D2E/DX2                !
 ! D243  D(59,56,57,58)       -179.0781         estimate D2E/DX2                !
 ! D244  D(59,56,57,97)          0.3538         estimate D2E/DX2                !
 ! D245  D(55,56,59,60)       -128.6547         estimate D2E/DX2                !
 ! D246  D(55,56,59,64)         46.9025         estimate D2E/DX2                !
 ! D247  D(57,56,59,60)         49.9779         estimate D2E/DX2                !
 ! D248  D(57,56,59,64)       -134.4649         estimate D2E/DX2                !
 ! D249  D(56,57,58,53)         -0.4995         estimate D2E/DX2                !
 ! D250  D(56,57,58,98)       -175.9375         estimate D2E/DX2                !
 ! D251  D(97,57,58,53)       -179.9632         estimate D2E/DX2                !
 ! D252  D(97,57,58,98)          4.5988         estimate D2E/DX2                !
 ! D253  D(56,59,60,61)        179.3947         estimate D2E/DX2                !
 ! D254  D(56,59,60,99)         -3.8663         estimate D2E/DX2                !
 ! D255  D(64,59,60,61)          3.8635         estimate D2E/DX2                !
 ! D256  D(64,59,60,99)       -179.3975         estimate D2E/DX2                !
 ! D257  D(56,59,64,63)       -178.4018         estimate D2E/DX2                !
 ! D258  D(56,59,64,65)          3.3652         estimate D2E/DX2                !
 ! D259  D(60,59,64,63)         -2.9466         estimate D2E/DX2                !
 ! D260  D(60,59,64,65)        178.8203         estimate D2E/DX2                !
 ! D261  D(59,60,61,62)         -4.6982         estimate D2E/DX2                !
 ! D262  D(59,60,61,100)       177.0918         estimate D2E/DX2                !
 ! D263  D(99,60,61,62)        178.3628         estimate D2E/DX2                !
 ! D264  D(99,60,61,100)         0.1529         estimate D2E/DX2                !
 ! D265  D(60,61,62,63)          4.2877         estimate D2E/DX2                !
 ! D266  D(60,61,62,101)      -179.6022         estimate D2E/DX2                !
 ! D267  D(100,61,62,63)      -177.3985         estimate D2E/DX2                !
 ! D268  D(100,61,62,101)       -1.2884         estimate D2E/DX2                !
 ! D269  D(61,62,63,64)         -3.4607         estimate D2E/DX2                !
 ! D270  D(61,62,63,102)       176.5949         estimate D2E/DX2                !
 ! D271  D(101,62,63,64)      -179.7826         estimate D2E/DX2                !
 ! D272  D(101,62,63,102)        0.2729         estimate D2E/DX2                !
 ! D273  D(62,63,64,59)          2.9095         estimate D2E/DX2                !
 ! D274  D(62,63,64,65)       -178.8829         estimate D2E/DX2                !
 ! D275  D(102,63,64,59)      -177.1491         estimate D2E/DX2                !
 ! D276  D(102,63,64,65)         1.0585         estimate D2E/DX2                !
 --------------------------------------------------------------------------------
 Trust Radius=3.00D-01 FncErr=1.00D-07 GrdErr=1.00D-06 EigMax=2.50D+02 EigMin=1.00D-04
 Number of steps in this run=    577 maximum allowed number of steps=    612.
 GradGradGradGradGradGradGradGradGradGradGradGradGradGradGradGradGradGrad

 Leave Link  103 at Thu Jul 23 10:00:15 2020, MaxMem=  4026531840 cpu:               0.2 elap:               0.1
 (Enter /opt/ohpc/pub/libs/gaussian/g16-A.03/sandybridge/g16/l202.exe)
 Stoichiometry    C60H37F5
 Framework group  C1[X(C60H37F5)]
 Deg. of freedom   300
 Full point group                 C1      NOp   1
 Largest Abelian subgroup         C1      NOp   1
 Largest concise Abelian subgroup C1      NOp   1
                         Standard orientation:                         
 ---------------------------------------------------------------------
 Center     Atomic      Atomic             Coordinates (Angstroms)
 Number     Number       Type             X           Y           Z
 ---------------------------------------------------------------------
      1          6           0       20.891742   -0.722517    0.680304
      2          6           0       20.162382   -1.495628   -0.355163
      3          6           0       18.767228   -1.366627   -0.363229
      4          6           0       18.045971   -0.500099    0.424949
      5          6           0       18.754445    0.198996    1.455956
      6          6           0       20.177261    0.127642    1.498561
      7          6           0       16.627272   -0.391365    0.337334
      8          6           0       15.762477   -0.589938    1.535104
      9          6           0       14.435750   -0.478748    1.419622
     10          6           0       13.753605   -0.262611    0.228493
     11          6           0       14.569176   -0.096274   -0.916590
     12          6           0       15.948766   -0.204525   -0.853882
     13          9           0       16.640230    0.024805   -2.021187
     14          6           0       12.282804   -0.095728    0.100050
     15          6           0       11.483012   -1.215748    0.542468
     16          6           0       10.049777   -1.130872    0.438672
     17          6           0        9.495914   -0.005346   -0.055977
     18          6           0       10.304644    1.064903   -0.476821
     19          6           0       11.673162    1.054019   -0.404955
     20          6           0        7.949196    0.106809   -0.137033
     21          6           0        7.268970   -0.918745   -0.816932
     22          6           0        5.900783   -0.805846   -0.933906
     23          6           0        5.117152    0.170540   -0.275021
     24          6           0        5.908170    1.198945    0.363065
     25          6           0        7.294249    1.152791    0.451406
     26          9           0        7.925087    2.089695    1.075010
     27          6           0        3.626854    0.188993   -0.371664
     28          6           0        2.873052   -0.950863   -0.046342
     29          6           0        1.526567   -0.907486   -0.146456
     30          6           0        0.838097    0.233314   -0.444950
     31          6           0        1.551506    1.405128   -0.794900
     32          6           0        2.997764    1.424558   -0.694901
     33          6           0       -0.697006    0.275499   -0.504122
     34          6           0       -1.404421   -0.710090   -1.172132
     35          6           0       -2.736561   -0.686413   -1.222635
     36          6           0       -3.512948    0.258478   -0.526276
     37          6           0       -2.821714    1.248106    0.275953
     38          6           0       -1.396331    1.203314    0.237007
     39          9           0       -0.744654    2.222937    0.923761
     40          6           0       -4.993532    0.274156   -0.440961
     41          6           0       -5.663891   -0.951579   -0.158223
     42          6           0       -7.097411   -1.003702   -0.024282
     43          6           0       -7.884568    0.123128   -0.341960
     44          6           0       -7.119234    1.290946   -0.678157
     45          6           0       -5.786781    1.327468   -0.714480
     46          6           0       -9.344626    0.114177   -0.327416
     47          6           0       -9.993227   -0.881831   -0.987016
     48          6           0      -11.384626   -0.955342   -0.910371
     49          6           0      -12.116661   -0.073105   -0.191429
     50          6           0      -11.441045    0.920188    0.516977
     51          6           0      -10.084847    0.981974    0.438590
     52          9           0       -9.486855    2.048113    1.083630
     53          6           0      -13.613674   -0.188621   -0.120223
     54          6           0      -14.247396   -1.326081    0.275685
     55          6           0      -15.705404   -1.457453    0.330755
     56          6           0      -16.486679   -0.368958    0.099174
     57          6           0      -15.808143    0.837595   -0.265075
     58          6           0      -14.453953    0.979661   -0.389179
     59          6           0      -17.962256   -0.429237    0.188213
     60          6           0      -18.713559    0.052657   -0.876574
     61          6           0      -20.102906   -0.001417   -0.828910
     62          6           0      -20.811939   -0.634690    0.252749
     63          6           0      -19.942602   -1.108333    1.308769
     64          6           0      -18.574042   -1.040037    1.272620
     65          9           0      -17.864573   -1.494737    2.227527
     66          1           0       21.914237   -0.862870    0.756519
     67          1           0       20.677826   -2.154179   -1.015940
     68          1           0       18.301360   -1.985419   -1.194229
     69          1           0       18.273089    0.819657    2.085586
     70          1           0       20.739444    0.617685    2.278622
     71          1           0       16.268403   -0.862137    2.452487
     72          1           0       13.774340   -0.678858    2.327215
     73          1           0       14.154890    0.182906   -1.910771
     74          1           0       11.936697   -2.170553    0.827230
     75          1           0        9.500556   -1.950084    0.705389
     76          1           0        9.855408    2.016430   -0.864303
     77          1           0       12.210999    1.893546   -0.692916
     78          1           0        7.831092   -1.697869   -1.369120
     79          1           0        5.343954   -1.667239   -1.496277
     80          1           0        5.312295    2.011267    0.845316
     81          1           0        3.392006   -1.878619    0.262207
     82          1           0        1.003555   -1.774337    0.143114
     83          1           0        1.047772    2.385787   -0.996173
     84          1           0        3.474582    2.330818   -0.987451
     85          1           0       -0.889131   -1.455783   -1.785617
     86          1           0       -3.257709   -1.419302   -1.787140
     87          1           0       -3.283732    1.985813    0.785090
     88          1           0       -5.064531   -1.866460    0.144435
     89          1           0       -7.575747   -1.884596    0.223995
     90          1           0       -7.756254    2.202964   -0.912526
     91          1           0       -5.318573    2.316650   -1.014143
     92          1           0       -9.452825   -1.658391   -1.528083
     93          1           0      -11.950816   -1.749477   -1.469127
     94          1           0      -11.940024    1.671034    1.090614
     95          1           0      -13.692805   -2.196575    0.451149
     96          1           0      -16.146596   -2.427724    0.562351
     97          1           0      -16.395052    1.782445   -0.489100
     98          1           0      -14.002019    1.875276   -0.593279
     99          1           0      -18.281279    0.517309   -1.727647
    100          1           0      -20.726156    0.411135   -1.628445
    101          1           0      -21.869077   -0.712436    0.340848
    102          1           0      -20.447891   -1.533915    2.155453
 ---------------------------------------------------------------------
 Rotational constants (GHZ):           0.3248788           0.0038059           0.0037977
 Leave Link  202 at Thu Jul 23 10:00:15 2020, MaxMem=  4026531840 cpu:               0.1 elap:               0.0
 (Enter /opt/ohpc/pub/libs/gaussian/g16-A.03/sandybridge/g16/l301.exe)
 Standard basis: CC-pVDZ (5D, 7F)
 Ernie: Thresh=  0.10000D-02 Tol=  0.10000D-05 Strict=F.
 Ernie:  130 primitive shells out of 1615 were deleted.
 There are  1160 symmetry adapted cartesian basis functions of A   symmetry.
 There are  1095 symmetry adapted basis functions of A   symmetry.
  1095 basis functions,  2404 primitive gaussians,  1160 cartesian basis functions
   221 alpha electrons      221 beta electrons
       nuclear repulsion energy      6827.3735315882 Hartrees.
 IExCor=32609 DFT=T Ex+Corr=LC-wPBE ExCW=0 ScaHFX=  1.000000
 ScaDFX=  1.000000  0.000000  1.000000  1.000000 ScalE2=  1.000000  1.000000
 IRadAn=      5 IRanWt=     -1 IRanGd=            0 ICorTp=0 IEmpDi=  4
 HFx  wShort=  0.000000 wLong=  0.288000 cFull=  0.000000 cShort=  0.000000 cLong=  1.000000
 DFx  wShort=  0.000000 wLong=  0.288000 cFull=  0.000000 cShort=  0.000000 cLong=  1.000000
 NAtoms=  102 NActive=  102 NUniq=  102 SFac= 1.00D+00 NAtFMM=   60 NAOKFM=T Big=T
 Integral buffers will be    131072 words long.
 Raffenetti 2 integral format.
 Two-electron integral symmetry is turned on.
 Leave Link  301 at Thu Jul 23 10:00:16 2020, MaxMem=  4026531840 cpu:               0.6 elap:               0.1
 (Enter /opt/ohpc/pub/libs/gaussian/g16-A.03/sandybridge/g16/l302.exe)
 NPDir=0 NMtPBC=     1 NCelOv=     1 NCel=       1 NClECP=     1 NCelD=      1
         NCelK=      1 NCelE2=     1 NClLst=     1 CellRange=     0.0.
 One-electron integrals computed using PRISM.
 One-electron integral symmetry used in STVInt
 NBasis=  1095 RedAO= T EigKep=  2.62D-04  NBF=  1095
 NBsUse=  1095 1.00D-06 EigRej= -1.00D+00 NBFU=  1095
 Precomputing XC quadrature grid using
 IXCGrd= 4 IRadAn=           5 IRanWt=          -1 IRanGd=           0 AccXCQ= 0.00D+00.
 Generated NRdTot=       0 NPtTot=           0 NUsed=           0 NTot=          32
 NSgBfM=   636   636   636   636   636 MxSgAt=   102 MxSgA2=    86.
 Leave Link  302 at Thu Jul 23 10:00:20 2020, MaxMem=  4026531840 cpu:              29.3 elap:               3.8
 (Enter /opt/ohpc/pub/libs/gaussian/g16-A.03/sandybridge/g16/l303.exe)
 DipDrv:  MaxL=1.
[...]
  Beta virt. eigenvalues --    1.26149   1.26273   1.26488   1.26900   1.27296
  Beta virt. eigenvalues --    1.27323   1.29253   1.30369   1.30691   1.31207
  Beta virt. eigenvalues --    1.31332   1.31853   1.32139   1.32531   1.32693
  Beta virt. eigenvalues --    1.33125   1.33601   1.33933   1.35090   1.36685
  Beta virt. eigenvalues --    1.37890   1.38229   1.38484   1.38899   1.39082
  Beta virt. eigenvalues --    1.39710   1.39949   1.40648   1.40826   1.41050
  Beta virt. eigenvalues --    1.41319   1.41500   1.42308   1.42762   1.42937
  Beta virt. eigenvalues --    1.43449   1.43641   1.44198   1.44648   1.45664
  Beta virt. eigenvalues --    1.46583   1.47761   1.47981   1.48500   1.49813
  Beta virt. eigenvalues --    1.50264   1.50721   1.51324   1.51621   1.51676
  Beta virt. eigenvalues --    1.51983   1.52141   1.52393   1.52685   1.52812
  Beta virt. eigenvalues --    1.53051   1.53309   1.53728   1.54252   1.54361
  Beta virt. eigenvalues --    1.54903   1.55144   1.55696   1.55844   1.56120
  Beta virt. eigenvalues --    1.56156   1.56541   1.56615   1.56740   1.56929
  Beta virt. eigenvalues --    1.57160   1.57397   1.57701   1.58132   1.58397
  Beta virt. eigenvalues --    1.58578   1.58786   1.58907   1.59159   1.59824
  Beta virt. eigenvalues --    1.60284   1.60807   1.61442   1.61578   1.61703
  Beta virt. eigenvalues --    1.62031   1.62378   1.62715   1.63205   1.63512
  Beta virt. eigenvalues --    1.63657   1.63792   1.64178   1.64340   1.64521
  Beta virt. eigenvalues --    1.64680   1.65017   1.65147   1.65569   1.65766
  Beta virt. eigenvalues --    1.66204   1.66779   1.66859   1.66930   1.67334
  Beta virt. eigenvalues --    1.67482   1.67827   1.68090   1.68275   1.68469
  Beta virt. eigenvalues --    1.68722   1.68812   1.68899   1.69061   1.69351
  Beta virt. eigenvalues --    1.69623   1.69737   1.69898   1.70198   1.70318
  Beta virt. eigenvalues --    1.70420   1.70515   1.70889   1.70998   1.71249
  Beta virt. eigenvalues --    1.71279   1.71355   1.71880   1.72058   1.72199
  Beta virt. eigenvalues --    1.72499   1.72556   1.72725   1.72919   1.73030
  Beta virt. eigenvalues --    1.73350   1.73788   1.74008   1.74421   1.74547
  Beta virt. eigenvalues --    1.74873   1.74945   1.75028   1.75708   1.76032
  Beta virt. eigenvalues --    1.76393   1.76995   1.77272   1.77423   1.77749
  Beta virt. eigenvalues --    1.77924   1.78203   1.78319   1.78392   1.78899
  Beta virt. eigenvalues --    1.79010   1.79153   1.79428   1.79702   1.79762
  Beta virt. eigenvalues --    1.79928   1.80027   1.80233   1.80449   1.80654
  Beta virt. eigenvalues --    1.80715   1.80930   1.81014   1.81423   1.81561
  Beta virt. eigenvalues --    1.81716   1.82089   1.82292   1.82606   1.82949
  Beta virt. eigenvalues --    1.83032   1.83108   1.83158   1.83528   1.83839
  Beta virt. eigenvalues --    1.83967   1.84103   1.84488   1.84613   1.84936
  Beta virt. eigenvalues --    1.85295   1.85417   1.85597   1.85779   1.86474
  Beta virt. eigenvalues --    1.86907   1.87042   1.87463   1.87808   1.87979
  Beta virt. eigenvalues --    1.88401   1.88941   1.89663   1.89798   1.89864
  Beta virt. eigenvalues --    1.90120   1.90336   1.90575   1.90605   1.90881
  Beta virt. eigenvalues --    1.91102   1.91225   1.91854   1.92093   1.92162
  Beta virt. eigenvalues --    1.92416   1.92503   1.92662   1.93002   1.93129
  Beta virt. eigenvalues --    1.93308   1.93594   1.93857   1.94126   1.94454
  Beta virt. eigenvalues --    1.94672   1.95117   1.95257   1.95465   1.95717
  Beta virt. eigenvalues --    1.96001   1.96231   1.96372   1.96734   1.96993
  Beta virt. eigenvalues --    1.97487   1.97610   1.97683   1.98408   1.98618
  Beta virt. eigenvalues --    1.99020   1.99229   1.99520   1.99922   1.99987
  Beta virt. eigenvalues --    2.00217   2.00766   2.00846   2.01080   2.01737
  Beta virt. eigenvalues --    2.01974   2.02423   2.02782   2.03351   2.03674
  Beta virt. eigenvalues --    2.04068   2.04153   2.04604   2.04860   2.05023
  Beta virt. eigenvalues --    2.05122   2.05255   2.05550   2.05805   2.05852
  Beta virt. eigenvalues --    2.06001   2.06611   2.06896   2.07147   2.07704
  Beta virt. eigenvalues --    2.08208   2.08429   2.08554   2.08842   2.09270
  Beta virt. eigenvalues --    2.09336   2.09699   2.10763   2.11531   2.13113
  Beta virt. eigenvalues --    2.13181   2.13376   2.14535   2.14785   2.16239
  Beta virt. eigenvalues --    2.16338   2.16500   2.16710   2.17920   2.18559
  Beta virt. eigenvalues --    2.19633   2.20761   2.20885   2.21086   2.21291
  Beta virt. eigenvalues --    2.21455   2.21872   2.23151   2.24305   2.25005
  Beta virt. eigenvalues --    2.25233   2.25457   2.25890   2.25995   2.26380
  Beta virt. eigenvalues --    2.26906   2.27904   2.28234   2.28716   2.29247
  Beta virt. eigenvalues --    2.29674   2.30068   2.30523   2.31015   2.31533
  Beta virt. eigenvalues --    2.31838   2.32340   2.34352   2.35182   2.35656
  Beta virt. eigenvalues --    2.36475   2.37137   2.37399   2.37939   2.38172
  Beta virt. eigenvalues --    2.38668   2.39566   2.43840   2.43939   2.44274
  Beta virt. eigenvalues --    2.44405   2.45353   2.45961   2.46461   2.46523
  Beta virt. eigenvalues --    2.46960   2.47362   2.47559   2.47956   2.48281
  Beta virt. eigenvalues --    2.49392   2.49538   2.49621   2.49745   2.50090
  Beta virt. eigenvalues --    2.50443   2.50604   2.50866   2.51471   2.51612
  Beta virt. eigenvalues --    2.51749   2.52037   2.52177   2.52662   2.55969
  Beta virt. eigenvalues --    2.57053   2.58190   2.59164   2.59363   2.59857
  Beta virt. eigenvalues --    2.60680   2.60939   2.61705   2.64953   2.66349
  Beta virt. eigenvalues --    2.68070   2.68984   2.69139   2.69275   2.69741
  Beta virt. eigenvalues --    2.70218   2.70843   2.71614   2.72104   2.72813
  Beta virt. eigenvalues --    2.72961   2.73155   2.73312   2.74910   2.75119
  Beta virt. eigenvalues --    2.75160   2.76372   2.76783   2.77796   2.77923
  Beta virt. eigenvalues --    2.78115   2.79168   2.80217   2.80419   2.81411
  Beta virt. eigenvalues --    2.82071   2.82504   2.84026   2.84651   2.85339
  Beta virt. eigenvalues --    2.85478   2.85816   2.86213   2.86552   2.86775
  Beta virt. eigenvalues --    2.87955   2.88869   2.89452   2.90166   2.92785
  Beta virt. eigenvalues --    2.94086   2.94289   2.94817   2.95382   2.99021
  Beta virt. eigenvalues --    3.01788   3.02731   3.03956   3.05111   3.34625
  Beta virt. eigenvalues --    3.36299   3.38668   3.40832   3.47332   3.55047
  Beta virt. eigenvalues --    3.56869   3.58478   3.59485   3.63069   3.63259
  Beta virt. eigenvalues --    3.63273   3.63306   3.63349   3.63594   3.66586
  Beta virt. eigenvalues --    3.66794   3.67111   3.67407   3.67843   3.81295
  Beta virt. eigenvalues --    3.81321   3.81358   3.81443   3.81657   4.03482
  Beta virt. eigenvalues --    4.03688   4.03756   4.03833   4.04030   4.24630
  Beta virt. eigenvalues --    4.24798   4.24919   4.25018   4.25150
          Condensed to atoms (all electrons):
          Atomic-Atomic Spin Densities.
 Mulliken charges and spin densities:
               1          2
     1  C    0.012318   0.000000
     2  C    0.018983  -0.000000
     3  C    0.017131  -0.000000
     4  C    0.003097   0.000000
     5  C    0.001845  -0.000000
     6  C    0.019683  -0.000000
     7  C   -0.041245  -0.000000
     8  C    0.021325  -0.000000
     9  C    0.011957  -0.000000
    10  C    0.016820   0.000000
    11  C    0.005602   0.000000
    12  C    0.100191  -0.000000
    13  F   -0.127271   0.000000
    14  C    0.009144  -0.000000
    15  C    0.008794   0.000000
    16  C    0.013422  -0.000000
    17  C    0.012159  -0.000000
    18  C    0.029466   0.000000
    19  C    0.008906  -0.000000
    20  C   -0.038663  -0.000000
    21  C    0.018294   0.000000
    22  C    0.011307   0.000000
    23  C    0.019183  -0.000000
    24  C    0.005358   0.000000
    25  C    0.097281  -0.000000
    26  F   -0.126824  -0.000000
    27  C    0.011835  -0.000000
    28  C    0.008082  -0.000000
    29  C    0.012159   0.000000
    30  C    0.015240  -0.000000
    31  C    0.028406   0.000000
    32  C    0.007764  -0.000000
    33  C   -0.038522   0.000000
    34  C    0.017988  -0.000000
    35  C    0.011584  -0.000000
    36  C    0.019291   0.000000
    37  C    0.005627  -0.000000
    38  C    0.097093  -0.000000
    39  F   -0.126933  -0.000000
    40  C    0.011757  -0.000000
    41  C    0.008120  -0.000000
    42  C    0.012131  -0.000000
    43  C    0.015355   0.000000
    44  C    0.028362  -0.000000
    45  C    0.007784   0.000000
    46  C   -0.038500  -0.000000
    47  C    0.017761   0.000000
    48  C    0.012126  -0.000000
    49  C    0.019731   0.000000
    50  C    0.005956  -0.000000
    51  C    0.096919   0.000000
    52  F   -0.127152  -0.000000
    53  C    0.008688  -0.000000
    54  C    0.008091  -0.000000
    55  C    0.031348   0.000000
    56  C    0.011949  -0.000000
    57  C    0.015331   0.000000
    58  C    0.008603  -0.000000
    59  C   -0.046915   0.000000
    60  C    0.009633   0.000000
    61  C    0.022563  -0.000000
    62  C    0.023697   0.000000
    63  C    0.010602  -0.000000
    64  C    0.090818   0.000000
    65  F   -0.127895   0.000000
    66  H   -0.008095  -0.000000
    67  H   -0.006419  -0.000000
    68  H   -0.013061  -0.000000
    69  H   -0.014236  -0.000000
    70  H   -0.007078  -0.000000
    71  H   -0.007200  -0.000000
    72  H   -0.014084  -0.000000
    73  H   -0.001156  -0.000000
    74  H   -0.013487   0.000000
    75  H   -0.013498   0.000000
    76  H   -0.011161   0.000000
    77  H   -0.011406   0.000000
    78  H   -0.006898   0.000000
    79  H   -0.014497   0.000000
    80  H    0.001159   0.000000
    81  H   -0.013551  -0.000000
    82  H   -0.013066   0.000000
    83  H   -0.011138   0.000000
    84  H   -0.012100   0.000000
    85  H   -0.007301   0.000000
    86  H   -0.014415   0.000000
    87  H    0.001320   0.000000
    88  H   -0.013463   0.000000
    89  H   -0.012723  -0.000000
    90  H   -0.011284  -0.000000
    91  H   -0.012182   0.000000
    92  H   -0.007139   0.000000
    93  H   -0.013575   0.000000
    94  H    0.000493   0.000000
    95  H   -0.012639   0.000000
    96  H   -0.011237   0.000000
    97  H   -0.012270   0.000000
    98  H   -0.012935  -0.000000
    99  H   -0.006672  -0.000000
   100  H   -0.005111   0.000000
   101  H   -0.000197   0.000000
   102  H    0.007564   0.000000
 Sum of Mulliken charges =  -0.00000   0.00000
 Mulliken charges and spin densities with hydrogens summed into heavy atoms:
               1          2
     1  C    0.004223   0.000000
     2  C    0.012563  -0.000000
     3  C    0.004070  -0.000000
     4  C    0.003097   0.000000
     5  C   -0.012392  -0.000000
     6  C    0.012605  -0.000000
     7  C   -0.041245  -0.000000
     8  C    0.014125  -0.000000
     9  C   -0.002127  -0.000000
    10  C    0.016820   0.000000
    11  C    0.004445   0.000000
    12  C    0.100191  -0.000000
    13  F   -0.127271   0.000000
    14  C    0.009144  -0.000000
    15  C   -0.004693   0.000000
    16  C   -0.000076  -0.000000
    17  C    0.012159  -0.000000
    18  C    0.018305   0.000000
    19  C   -0.002500  -0.000000
    20  C   -0.038663  -0.000000
    21  C    0.011396   0.000000
    22  C   -0.003191   0.000000
    23  C    0.019183  -0.000000
    24  C    0.006517   0.000000
    25  C    0.097281  -0.000000
    26  F   -0.126824  -0.000000
    27  C    0.011835  -0.000000
    28  C   -0.005469  -0.000000
    29  C   -0.000907   0.000000
    30  C    0.015240  -0.000000
    31  C    0.017268   0.000000
    32  C   -0.004336  -0.000000
    33  C   -0.038522   0.000000
    34  C    0.010687  -0.000000
    35  C   -0.002831   0.000000
    36  C    0.019291   0.000000
    37  C    0.006947  -0.000000
    38  C    0.097093  -0.000000
    39  F   -0.126933  -0.000000
    40  C    0.011757  -0.000000
    41  C   -0.005343  -0.000000
    42  C   -0.000592  -0.000000
    43  C    0.015355   0.000000
    44  C    0.017078  -0.000000
    45  C   -0.004398   0.000000
    46  C   -0.038500  -0.000000
    47  C    0.010622   0.000000
    48  C   -0.001449  -0.000000
    49  C    0.019731   0.000000
    50  C    0.006450  -0.000000
    51  C    0.096919   0.000000
    52  F   -0.127152  -0.000000
    53  C    0.008688  -0.000000
    54  C   -0.004547  -0.000000
    55  C    0.020111   0.000000
    56  C    0.011949  -0.000000
    57  C    0.003060   0.000000
    58  C   -0.004333  -0.000000
    59  C   -0.046915   0.000000
    60  C    0.002961   0.000000
    61  C    0.017452  -0.000000
    62  C    0.023500   0.000000
    63  C    0.018166  -0.000000
    64  C    0.090818   0.000000
    65  F   -0.127895   0.000000
 Electronic spatial extent (au):  <R**2>=         250835.1684
 Charge=             -0.0000 electrons
 Dipole moment (field-independent basis, Debye):
    X=             -3.4207    Y=             -2.5224    Z=             -1.4484  Tot=              4.4902
 Quadrupole moment (field-independent basis, Debye-Ang):
   XX=           -298.9741   YY=           -350.2234   ZZ=           -370.4324
   XY=            -16.7169   XZ=             31.2557   YZ=             -5.2200
 Traceless Quadrupole moment (field-independent basis, Debye-Ang):
   XX=             40.9025   YY=            -10.3468   ZZ=            -30.5557
   XY=            -16.7169   XZ=             31.2557   YZ=             -5.2200
 Octapole moment (field-independent basis, Debye-Ang**2):
  XXX=          -1448.0388  YYY=             35.2323  ZZZ=             24.7506  XYY=            -98.9471
  XXY=           -152.8762  XXZ=            -97.2089  XZZ=             78.5915  YZZ=             11.4286
  YYZ=             -5.1120  XYZ=             36.3153
 Hexadecapole moment (field-independent basis, Debye-Ang**3):
 XXXX=        -285162.2558 YYYY=          -2561.5382 ZZZZ=          -1538.3866 XXXY=          -4799.8573
 XXXZ=           9014.6204 YYYX=            399.9860 YYYZ=            -12.7328 ZZZX=           -390.9744
 ZZZY=             19.9236 XXYY=         -57291.9231 XXZZ=         -56419.9514 YYZZ=           -691.7387
 XXYZ=           -730.1388 YYXZ=           -159.6828 ZZXY=           -110.9974
 N-N= 6.825601453411D+03 E-N=-2.019012542256D+04  KE= 2.787375409223D+03
 Leave Link  601 at Thu Jul 23 12:47:47 2020, MaxMem=  4026531840 cpu:               8.2 elap:               1.1
 (Enter /opt/ohpc/pub/libs/gaussian/g16-A.03/sandybridge/g16/l9999.exe)

 Test job not archived.
 1\1\GINC-SKYLAKE038\FOpt\ULC-wPBE\CC-pVDZ\C60H37F5\RDU230\23-Jul-2020\
 0\\#P uLC-wPBE/cc-pVDZ iop(3/107=0288000000, 3/108=0288000000) opt\\H3
 7 C60 F5\\0,1\C,20.9415120699,-0.5354708772,0.0760695633\C,20.24310258
 72,-0.8723464565,-1.0838648113\C,18.8521969176,-0.7962704518,-1.115424
 7096\C,18.1340772078,-0.3864681984,0.0173015661\C,18.8461870347,-0.046
 5876878,1.1760637856\C,20.2379659166,-0.1203918303,1.2062226467\C,16.6
 46872401,-0.3333843602,0.0164741041\C,15.8964981637,-0.8308938434,1.09
 13470641\C,14.5058609936,-0.7745391311,1.1087537865\C,13.7983749254,-0
 .2086741121,0.0390622474\C,14.5296026631,0.2947482383,-1.0431150706\C,
 15.9151581497,0.2238036173,-1.036973294\F,16.5728919077,0.7230236133,-
 2.1074188193\C,12.3120404886,-0.1427665779,0.0460868324\C,11.545514866
 6,-1.222389064,0.5035773404\C,10.1547443933,-1.1596147042,0.5098722903
 \C,9.4808755713,-0.0161262272,0.0603692992\C,10.2476710031,1.067421917
 3,-0.3908450834\C,11.6375271136,1.0020225612,-0.4003729665\C,7.9942506
 541,0.0176799175,0.0442106011\C,7.2420115302,-1.0814733636,-0.39467502
 89\C,5.8503733562,-1.0676010125,-0.3990817713\C,5.1432772493,0.0600232
 931,0.0413106404\C,5.8763956791,1.1679954379,0.4821290448\C,7.26310489
 75,1.129414434,0.4749327057\F,7.9230326446,2.2198480337,0.9254630187\C
 ,3.6559002947,0.086761957,0.0389129612\C,2.9153606316,-1.0335350631,0.
 4379568622\C,1.5234697034,-1.0078495188,0.4357759621\C,0.8222357803,0.
 1367853054,0.0330542745\C,1.562925139,1.2601690689,-0.3607230879\C,2.9
 540566084,1.2329073888,-0.3592686147\C,-0.6644946503,0.1315780509,0.00
 56242859\C,-1.3834657852,-0.9687118187,-0.4833340076\C,-2.7748613671,-
 0.9919896099,-0.4988902093\C,-3.5154192918,0.0976523502,-0.019538152\C
 ,-2.8158592089,1.2061247705,0.4716434492\C,-1.428610021,1.2050339917,0
 .4745537788\F,-0.801831757,2.293691933,0.974001647\C,-5.0029048487,0.0
 848174264,-0.0336742144\C,-5.7160133866,-1.0697764259,0.3142652793\C,-
 7.1080367856,-1.0810081395,0.3010846436\C,-7.8367457053,0.059684267,-0
 .0621538788\C,-7.123540156,1.2171193669,-0.4047588354\C,-5.7322383692,
 1.2268605666,-0.3922250944\C,-9.3225399324,0.0160526949,-0.1027645782\
 C,-10.0079371326,-1.0833107579,-0.6397619119\C,-11.3980206777,-1.14306
 1385,-0.668412155\C,-12.1713340515,-0.0926563611,-0.1544181394\C,-11.5
 056074168,1.0141528492,0.3851235674\C,-10.1188880185,1.0498584532,0.40
 02756181\F,-9.5256878932,2.1348511668,0.9467362547\C,-13.6578544545,-0
 .1442525856,-0.1831289051\C,-14.343187988,-1.3291567667,0.1187400397\C
 ,-15.7334737437,-1.3814499835,0.0946797511\C,-16.4889308212,-0.2491226
 758,-0.2403050966\C,-15.8044920868,0.9365296841,-0.5387473301\C,-14.41
 35438939,0.9889525772,-0.5102703956\C,-17.9747292024,-0.2929394412,-0.
 3094610938\C,-18.6707903196,0.2993711838,-1.3736139768\C,-20.062507565
 3,0.2781046775,-1.4409137191\C,-20.7982536469,-0.3425930287,-0.4313394
 29\C,-20.1369921376,-0.9405980375,0.6394054974\C,-18.7491951658,-0.907
 084173,0.6806257082\F,-18.1331024901,-1.4888389357,1.7340859568\H,22.0
 35286636,-0.5936991971,0.0977791687\H,20.7872379166,-1.200348167,-1.97
 64864774\H,18.3131210403,-1.0643889684,-2.0290585826\H,18.3005436247,0
 .2978035504,2.0619283837\H,20.7766353448,0.1550202961,2.1196745875\H,1
 6.4285988962,-1.2851387612,1.9344368743\H,13.96033314,-1.1608326333,1.
 976002108\H,14.0345889591,0.7336232756,-1.9149724947\H,12.0455826337,-
 2.1350989489,0.8461567447\H,9.5788998314,-2.014341566,0.8821469855\H,9
 .7487024284,1.976321947,-0.7397087675\H,12.2131354427,1.8684959776,-0.
 7447091754\H,7.7734813089,-1.9637647751,-0.7679558963\H,5.3029681875,-
 1.9364312034,-0.7790538101\H,5.3825138405,2.0667090861,0.8643942515\H,
 3.4373038212,-1.9324067713,0.7844550126\H,0.9682911191,-1.888214172,0.
 7784632804\H,1.042338113,2.1655193128,-0.6864221767\H,3.5081298255,2.1
 154261357,-0.6981018814\H,-0.8255517157,-1.8206503096,-0.8872828139\H,
 -3.2958121144,-1.8590851493,-0.9179890903\H,-3.3367500232,2.075056636,
 0.8855860812\H,-5.1727520505,-1.9675573265,0.6294098234\H,-7.641878103
 8,-1.9887480652,0.6039149385\H,-7.6657839178,2.1205378625,-0.698904547
 3\H,-5.199558532,2.1366140546,-0.6909821837\H,-9.4242789889,-1.9040405
 683,-1.07102045\H,-11.8921550403,-2.0071480222,-1.1245265351\H,-12.052
 7256558,1.852309744,0.8277031715\H,-13.7769473958,-2.2244661907,0.3985
 408388\H,-16.2419751598,-2.318162848,0.3413249028\H,-16.3725790501,1.8
 396352571,-0.7885093244\H,-13.9043781856,1.9257143371,-0.7629985889\H,
 -18.0940107183,0.7723749905,-2.1761518684\H,-20.5738749206,0.743828578
 8,-2.2896061808\H,-21.8922777848,-0.3654730471,-0.4753916249\H,-20.676
 2093241,-1.4331795393,1.4542716228\\Version=EM64L-G16RevA.03\State=1-A
 \HF=-2805.868155\S2=0.\S2-1=0.\S2A=0.\RMSD=6.800e-09\RMSF=1.320e-06\Di
 pole=-1.3443087,-1.0164253,-0.5296593\Quadrupole=30.4179031,-8.0612205
 ,-22.3566826,-11.4239556,23.752374,-4.4532716\PG=C01 [X(C60H37F5)]\\@


 THE WORLD IS MADE UP OF THE WILLS, THE WON'TS, AND THE CANT'S:
 THE WILLS DO EVERYTHING,
 THE WON'TS DO NOTHING,
 THE CAN'TS CAN'T DO ANYTHING.

                               -- FROM WALT DISNEY'S "BLACK HOLE"
 Job cpu time:       0 days 21 hours 56 minutes 17.0 seconds.
 Elapsed time:       0 days  2 hours 47 minutes 30.2 seconds.
 File lengths (MBytes):  RWF=   1364 Int=      0 D2E=      0 Chk=    124 Scr=      8
 Normal termination of Gaussian 16 at Thu Jul 23 12:47:47 2020.
