 Entering Gaussian System, Link 0=g16
 Input=mols_55_7_05_CF-N_opt_0.gjf
 Output=mols_55_7_05_CF-N_opt_0.log
 Initial command:
 /opt/ohpc/pub/libs/gaussian/g16-A.03/sandybridge/g16/l1.exe "/mnt/gpfs2_4m/scratch/rdu230/ondemand/projects/dihedral_energies/7trial/wtuning/mols_55_7_05_CF-N/Gau-363359.inp" -scrdir="/mnt/gpfs2_4m/scratch/rdu230/ondemand/projects/dihedral_energies/7trial/wtuning/mols_55_7_05_CF-N/"
 Entering Link 1 = /opt/ohpc/pub/libs/gaussian/g16-A.03/sandybridge/g16/l1.exe PID=    363360.
  
 Copyright (c) 1988,1990,1992,1993,1995,1998,2003,2009,2016,
            Gaussian, Inc.  All Rights Reserved.
  
 This is part of the Gaussian(R) 16 program.  It is based on
 the Gaussian(R) 09 system (copyright 2009, Gaussian, Inc.),
 the Gaussian(R) 03 system (copyright 2003, Gaussian, Inc.),
 the Gaussian(R) 98 system (copyright 1998, Gaussian, Inc.),
 the Gaussian(R) 94 system (copyright 1995, Gaussian, Inc.),
 the Gaussian 92(TM) system (copyright 1992, Gaussian, Inc.),
 the Gaussian 90(TM) system (copyright 1990, Gaussian, Inc.),
 the Gaussian 88(TM) system (copyright 1988, Gaussian, Inc.),
 the Gaussian 86(TM) system (copyright 1986, Carnegie Mellon
 University), and the Gaussian 82(TM) system (copyright 1983,
 Carnegie Mellon University). Gaussian is a federally registered
 trademark of Gaussian, Inc.
  
 This software contains proprietary and confidential information,
 including trade secrets, belonging to Gaussian, Inc.
  
 This software is provided under written license and may be
 used, copied, transmitted, or stored only in accord with that
 written license.
  
 The following legend is applicable only to US Government
 contracts under FAR:
  
                    RESTRICTED RIGHTS LEGEND
  
 Use, reproduction and disclosure by the US Government is
 subject to restrictions as set forth in subparagraphs (a)
 and (c) of the Commercial Computer Software - Restricted
 Rights clause in FAR 52.227-19.
  
 Gaussian, Inc.
 340 Quinnipiac St., Bldg. 40, Wallingford CT 06492
  
  
 ---------------------------------------------------------------
 Warning -- This program may not be used in any manner that
 competes with the business of Gaussian, Inc. or will provide
 assistance to any competitor of Gaussian, Inc.  The licensee
 of this program is prohibited from giving any competitor of
 Gaussian, Inc. access to this program.  By using this program,
 the user acknowledges that Gaussian, Inc. is engaged in the
 business of creating and licensing software in the field of
 computational chemistry and represents and warrants to the
 licensee that it is not a competitor of Gaussian, Inc. and that
 it will not use this program in any manner prohibited above.
 ---------------------------------------------------------------
  

 Cite this work as:
 Gaussian 16, Revision A.03,
 M. J. Frisch, G. W. Trucks, H. B. Schlegel, G. E. Scuseria, 
 M. A. Robb, J. R. Cheeseman, G. Scalmani, V. Barone, 
 G. A. Petersson, H. Nakatsuji, X. Li, M. Caricato, A. V. Marenich, 
 J. Bloino, B. G. Janesko, R. Gomperts, B. Mennucci, H. P. Hratchian, 
 J. V. Ortiz, A. F. Izmaylov, J. L. Sonnenberg, D. Williams-Young, 
 F. Ding, F. Lipparini, F. Egidi, J. Goings, B. Peng, A. Petrone, 
 T. Henderson, D. Ranasinghe, V. G. Zakrzewski, J. Gao, N. Rega, 
 G. Zheng, W. Liang, M. Hada, M. Ehara, K. Toyota, R. Fukuda, 
 J. Hasegawa, M. Ishida, T. Nakajima, Y. Honda, O. Kitao, H. Nakai, 
 T. Vreven, K. Throssell, J. A. Montgomery, Jr., J. E. Peralta, 
 F. Ogliaro, M. J. Bearpark, J. J. Heyd, E. N. Brothers, K. N. Kudin, 
 V. N. Staroverov, T. A. Keith, R. Kobayashi, J. Normand, 
 K. Raghavachari, A. P. Rendell, J. C. Burant, S. S. Iyengar, 
 J. Tomasi, M. Cossi, J. M. Millam, M. Klene, C. Adamo, R. Cammi, 
 J. W. Ochterski, R. L. Martin, K. Morokuma, O. Farkas, 
 J. B. Foresman, and D. J. Fox, Gaussian, Inc., Wallingford CT, 2016.
 
 ******************************************
 Gaussian 16:  EM64L-G16RevA.03 25-Dec-2016
                23-Jul-2020 
 ******************************************
 %mem=30GB
 %nproc=8
 Will use up to    8 processors via shared memory.
 ---------------------------------------------------------------
 #P uLC-wPBE/cc-pVDZ iop(3/107=0398900000, 3/108=0398900000) opt
 ---------------------------------------------------------------
 1/18=20,19=15,26=3,38=1/1,3;
 2/9=110,12=2,17=6,18=5,40=1/2;
 3/5=16,11=2,25=1,30=1,71=1,74=-41,107=398900000,108=398900000,116=2/1,2,3;
 4//1;
 5/5=2,38=5/2;
 6/7=2,8=2,9=2,10=2,28=1/1;
 7//1,2,3,16;
 1/18=20,19=15,26=3/3(2);
 2/9=110/2;
 99//99;
 2/9=110/2;
 3/5=16,11=2,25=1,30=1,71=1,74=-41,107=398900000,108=398900000,116=2/1,2,3;
 4/5=5,16=3,69=1/1;
 5/5=2,38=5/2;
 7//1,2,3,16;
 1/18=20,19=15,26=3/3(-5);
 2/9=110/2;
 6/7=2,8=2,9=2,10=2,19=2,28=1/1;
 99/9=1/99;
 Leave Link    1 at Thu Jul 23 10:50:50 2020, MaxMem=  4026531840 cpu:               1.9 elap:               0.3
 (Enter /opt/ohpc/pub/libs/gaussian/g16-A.03/sandybridge/g16/l101.exe)
 -----------------
 H16 C49 S14 N7 F7
 -----------------
 Symbolic Z-matrix:
 Charge =  0 Multiplicity = 1
 C                    -25.28858   2.69703   0.49934 
 C                    -24.29634   3.52582   1.09923 
 C                    -23.00748   3.06846   0.89175 
 F                    -21.91277   3.67612   1.39093 
 C                    -22.90459   1.85794   0.23788 
 S                    -24.48056   1.29219  -0.17772 
 C                    -21.79747   1.05622  -0.17087 
 N                    -21.86141  -0.14872  -0.74388 
 C                    -20.65255  -0.62452  -0.9718 
 C                    -19.57283   0.11034  -0.54527 
 S                    -20.153    1.55462   0.22546 
 C                    -18.11751  -0.19998  -0.58908 
 C                    -17.65102  -1.44437  -1.04898 
 C                    -16.15148  -1.43158  -1.04964 
 F                    -15.52233  -2.51978  -1.39199 
 C                    -15.64    -0.28082  -0.58053 
 S                    -16.89672   0.82382  -0.08776 
 C                    -14.27976   0.07864  -0.34555 
 N                    -13.83269   1.21264   0.02863 
 C                    -12.42748   1.32878   0.06907 
 C                    -11.76592   0.15114  -0.17006 
 S                    -12.9453  -1.12067  -0.59703 
 C                    -10.40702  -0.21754  -0.18645 
 C                    -9.71737  -1.39784  -0.41143 
 C                    -8.35883  -1.2844   -0.30563 
 F                    -7.63314  -2.39129  -0.5564 
 C                    -7.82421  -0.05257  -0.04474 
 S                    -9.17818   0.98182   0.14481 
 C                    -6.45681   0.37706   0.11698 
 N                    -6.15197   1.6127    0.42849 
 C                    -4.80334   1.69972   0.50421 
 C                    -4.03395   0.59518   0.25246 
 S                    -5.21214  -0.67212  -0.01563 
 C                    -2.6481    0.47062   0.33925 
 C                    -1.69339   1.42674   0.66155 
 C                    -0.32359   0.85949   0.61998 
 F                     0.63702   1.63346   0.94756 
 C                    -0.30249  -0.48992   0.24633 
 S                    -1.82934  -1.07512  -0.06831 
 C                     0.83991  -1.30531   0.20171 
 N                     0.75361  -2.61637  -0.2363 
 C                     2.01938  -3.22294  -0.25158 
 C                     3.07178  -2.42896   0.15246 
 S                     2.51011  -0.84959   0.54609 
 C                     4.4045   -2.86536   0.30694 
 C                     4.83608  -4.11791   0.56762 
 C                     6.27468  -4.14063   0.67832 
 F                     6.92521  -5.30275   0.89923 
 C                     6.92187  -2.9463    0.43496 
 S                     5.72926  -1.72817   0.13163 
 C                     8.30892  -2.79035   0.42528 
 N                     9.14321  -3.78442   0.50722 
 C                     10.52621  -3.365     0.43284 
 C                     10.61046  -1.95397   0.29116 
 S                     9.11582  -1.2167    0.25735 
 C                     11.87643  -1.24898   0.14746 
 C                     12.05189   0.15466   0.08602 
 C                     13.35061   0.52756  -0.01275 
 F                     13.78385   1.82389  -0.13269 
 C                     14.28826  -0.49782  -0.03379 
 S                     13.42807  -1.97251   0.20967 
 C                     15.69487  -0.44966  -0.07085 
 N                     16.44948  -1.61749  -0.06463 
 C                     17.77571  -1.22903  -0.0788 
 C                     18.11915   0.08401  -0.18189 
 S                     16.64491   0.96196  -0.16765 
 C                     19.39637   0.65368  -0.15622 
 C                     20.65607   0.01108  -0.20105 
 C                     21.70111   0.82193  -0.2893 
 F                     23.02261   0.33445  -0.31732 
 C                     21.42745   2.15412  -0.26015 
 S                     19.71113   2.38856  -0.22427 
 C                     22.22509   3.35386  -0.34992 
 N                     21.81417   4.5713   -0.3281 
 C                     22.80201   5.48194  -0.39528 
 C                     24.13246   4.95058  -0.41866 
 S                     23.96842   3.2563   -0.36701 
 H                    -26.3305   2.77743   0.43925 
 H                    -24.61781   4.39809   1.55661 
 H                    -20.53357  -1.55111  -1.55269 
 H                    -18.16161  -2.30263  -1.37316 
 H                    -11.98516   2.2577    0.41547 
 H                    -10.30502  -2.35831  -0.67418 
 H                    -4.3621    2.70606   0.73834 
 H                    -1.906     2.43109   0.97606 
 H                     2.03719  -4.26805  -0.56346 
 H                     4.23997  -5.00574   0.77338 
 H                     11.30562  -4.06788   0.53546 
 H                     11.24786   0.87023  -0.0035 
 H                     18.48534  -2.05522  -0.05601 
 H                     20.7055  -1.15085  -0.19996 
 H                     22.61006   6.56475  -0.50263 
 H                     25.08096   5.41582  -0.50781 
 
 ITRead=  0  0  0  0  0  0  0  0  0  0  0  0  0  0  0  0  0  0  0  0
 ITRead=  0  0  0  0  0  0  0  0  0  0  0  0  0  0  0  0  0  0  0  0
 ITRead=  0  0  0  0  0  0  0  0  0  0  0  0  0  0  0  0  0  0  0  0
 ITRead=  0  0  0  0  0  0  0  0  0  0  0  0  0  0  0  0  0  0  0  0
 ITRead=  0  0  0  0  0  0  0  0  0  0  0  0  0
 MicOpt= -1 -1 -1 -1 -1 -1 -1 -1 -1 -1 -1 -1 -1 -1 -1 -1 -1 -1 -1 -1
 MicOpt= -1 -1 -1 -1 -1 -1 -1 -1 -1 -1 -1 -1 -1 -1 -1 -1 -1 -1 -1 -1
 MicOpt= -1 -1 -1 -1 -1 -1 -1 -1 -1 -1 -1 -1 -1 -1 -1 -1 -1 -1 -1 -1
 MicOpt= -1 -1 -1 -1 -1 -1 -1 -1 -1 -1 -1 -1 -1 -1 -1 -1 -1 -1 -1 -1
 MicOpt= -1 -1 -1 -1 -1 -1 -1 -1 -1 -1 -1 -1 -1
 NAtoms=     93 NQM=       93 NQMF=       0 NMMI=      0 NMMIF=      0
                NMic=       0 NMicF=      0.
                    Isotopes and Nuclear Properties:
 (Nuclear quadrupole moments (NQMom) in fm**2, nuclear magnetic moments (NMagM)
  in nuclear magnetons)

  Atom         1           2           3           4           5           6           7           8           9          10
 IAtWgt=          12          12          12          19          12          32          12          14          12          12
 AtmWgt=  12.0000000  12.0000000  12.0000000  18.9984033  12.0000000  31.9720718  12.0000000  14.0030740  12.0000000  12.0000000
 NucSpn=           0           0           0           1           0           0           0           2           0           0
 AtZEff=  -0.0000000  -0.0000000  -0.0000000  -0.0000000  -0.0000000  -0.0000000  -0.0000000  -0.0000000  -0.0000000  -0.0000000
 NQMom=    0.0000000   0.0000000   0.0000000   0.0000000   0.0000000   0.0000000   0.0000000   2.0440000   0.0000000   0.0000000
 NMagM=    0.0000000   0.0000000   0.0000000   2.6288670   0.0000000   0.0000000   0.0000000   0.4037610   0.0000000   0.0000000
 AtZNuc=   6.0000000   6.0000000   6.0000000   9.0000000   6.0000000  16.0000000   6.0000000   7.0000000   6.0000000   6.0000000

  Atom        11          12          13          14          15          16          17          18          19          20
 IAtWgt=          32          12          12          12          19          12          32          12          14          12
 AtmWgt=  31.9720718  12.0000000  12.0000000  12.0000000  18.9984033  12.0000000  31.9720718  12.0000000  14.0030740  12.0000000
 NucSpn=           0           0           0           0           1           0           0           0           2           0
 AtZEff=  -0.0000000  -0.0000000  -0.0000000  -0.0000000  -0.0000000  -0.0000000  -0.0000000  -0.0000000  -0.0000000  -0.0000000
 NQMom=    0.0000000   0.0000000   0.0000000   0.0000000   0.0000000   0.0000000   0.0000000   0.0000000   2.0440000   0.0000000
 NMagM=    0.0000000   0.0000000   0.0000000   0.0000000   2.6288670   0.0000000   0.0000000   0.0000000   0.4037610   0.0000000
 AtZNuc=  16.0000000   6.0000000   6.0000000   6.0000000   9.0000000   6.0000000  16.0000000   6.0000000   7.0000000   6.0000000

  Atom        21          22          23          24          25          26          27          28          29          30
 IAtWgt=          12          32          12          12          12          19          12          32          12          14
 AtmWgt=  12.0000000  31.9720718  12.0000000  12.0000000  12.0000000  18.9984033  12.0000000  31.9720718  12.0000000  14.0030740
 NucSpn=           0           0           0           0           0           1           0           0           0           2
 AtZEff=  -0.0000000  -0.0000000  -0.0000000  -0.0000000  -0.0000000  -0.0000000  -0.0000000  -0.0000000  -0.0000000  -0.0000000
 NQMom=    0.0000000   0.0000000   0.0000000   0.0000000   0.0000000   0.0000000   0.0000000   0.0000000   0.0000000   2.0440000
 NMagM=    0.0000000   0.0000000   0.0000000   0.0000000   0.0000000   2.6288670   0.0000000   0.0000000   0.0000000   0.4037610
 AtZNuc=   6.0000000  16.0000000   6.0000000   6.0000000   6.0000000   9.0000000   6.0000000  16.0000000   6.0000000   7.0000000

  Atom        31          32          33          34          35          36          37          38          39          40
 IAtWgt=          12          12          32          12          12          12          19          12          32          12
 AtmWgt=  12.0000000  12.0000000  31.9720718  12.0000000  12.0000000  12.0000000  18.9984033  12.0000000  31.9720718  12.0000000
 NucSpn=           0           0           0           0           0           0           1           0           0           0
 AtZEff=  -0.0000000  -0.0000000  -0.0000000  -0.0000000  -0.0000000  -0.0000000  -0.0000000  -0.0000000  -0.0000000  -0.0000000
 NQMom=    0.0000000   0.0000000   0.0000000   0.0000000   0.0000000   0.0000000   0.0000000   0.0000000   0.0000000   0.0000000
 NMagM=    0.0000000   0.0000000   0.0000000   0.0000000   0.0000000   0.0000000   2.6288670   0.0000000   0.0000000   0.0000000
 AtZNuc=   6.0000000   6.0000000  16.0000000   6.0000000   6.0000000   6.0000000   9.0000000   6.0000000  16.0000000   6.0000000

  Atom        41          42          43          44          45          46          47          48          49          50
 IAtWgt=          14          12          12          32          12          12          12          19          12          32
 AtmWgt=  14.0030740  12.0000000  12.0000000  31.9720718  12.0000000  12.0000000  12.0000000  18.9984033  12.0000000  31.9720718
 NucSpn=           2           0           0           0           0           0           0           1           0           0
 AtZEff=  -0.0000000  -0.0000000  -0.0000000  -0.0000000  -0.0000000  -0.0000000  -0.0000000  -0.0000000  -0.0000000  -0.0000000
 NQMom=    2.0440000   0.0000000   0.0000000   0.0000000   0.0000000   0.0000000   0.0000000   0.0000000   0.0000000   0.0000000
 NMagM=    0.4037610   0.0000000   0.0000000   0.0000000   0.0000000   0.0000000   0.0000000   2.6288670   0.0000000   0.0000000
 AtZNuc=   7.0000000   6.0000000   6.0000000  16.0000000   6.0000000   6.0000000   6.0000000   9.0000000   6.0000000  16.0000000

  Atom        51          52          53          54          55          56          57          58          59          60
 IAtWgt=          12          14          12          12          32          12          12          12          19          12
 AtmWgt=  12.0000000  14.0030740  12.0000000  12.0000000  31.9720718  12.0000000  12.0000000  12.0000000  18.9984033  12.0000000
 NucSpn=           0           2           0           0           0           0           0           0           1           0
 AtZEff=  -0.0000000  -0.0000000  -0.0000000  -0.0000000  -0.0000000  -0.0000000  -0.0000000  -0.0000000  -0.0000000  -0.0000000
 NQMom=    0.0000000   2.0440000   0.0000000   0.0000000   0.0000000   0.0000000   0.0000000   0.0000000   0.0000000   0.0000000
 NMagM=    0.0000000   0.4037610   0.0000000   0.0000000   0.0000000   0.0000000   0.0000000   0.0000000   2.6288670   0.0000000
 AtZNuc=   6.0000000   7.0000000   6.0000000   6.0000000  16.0000000   6.0000000   6.0000000   6.0000000   9.0000000   6.0000000

  Atom        61          62          63          64          65          66          67          68          69          70
 IAtWgt=          32          12          14          12          12          32          12          12          12          19
 AtmWgt=  31.9720718  12.0000000  14.0030740  12.0000000  12.0000000  31.9720718  12.0000000  12.0000000  12.0000000  18.9984033
 NucSpn=           0           0           2           0           0           0           0           0           0           1
 AtZEff=  -0.0000000  -0.0000000  -0.0000000  -0.0000000  -0.0000000  -0.0000000  -0.0000000  -0.0000000  -0.0000000  -0.0000000
 NQMom=    0.0000000   0.0000000   2.0440000   0.0000000   0.0000000   0.0000000   0.0000000   0.0000000   0.0000000   0.0000000
 NMagM=    0.0000000   0.0000000   0.4037610   0.0000000   0.0000000   0.0000000   0.0000000   0.0000000   0.0000000   2.6288670
 AtZNuc=  16.0000000   6.0000000   7.0000000   6.0000000   6.0000000  16.0000000   6.0000000   6.0000000   6.0000000   9.0000000

  Atom        71          72          73          74          75          76          77          78          79          80
 IAtWgt=          12          32          12          14          12          12          32           1           1           1
 AtmWgt=  12.0000000  31.9720718  12.0000000  14.0030740  12.0000000  12.0000000  31.9720718   1.0078250   1.0078250   1.0078250
 NucSpn=           0           0           0           2           0           0           0           1           1           1
 AtZEff=  -0.0000000  -0.0000000  -0.0000000  -0.0000000  -0.0000000  -0.0000000  -0.0000000  -0.0000000  -0.0000000  -0.0000000
 NQMom=    0.0000000   0.0000000   0.0000000   2.0440000   0.0000000   0.0000000   0.0000000   0.0000000   0.0000000   0.0000000
 NMagM=    0.0000000   0.0000000   0.0000000   0.4037610   0.0000000   0.0000000   0.0000000   2.7928460   2.7928460   2.7928460
 AtZNuc=   6.0000000  16.0000000   6.0000000   7.0000000   6.0000000   6.0000000  16.0000000   1.0000000   1.0000000   1.0000000

  Atom        81          82          83          84          85          86          87          88          89          90
 IAtWgt=           1           1           1           1           1           1           1           1           1           1
 AtmWgt=   1.0078250   1.0078250   1.0078250   1.0078250   1.0078250   1.0078250   1.0078250   1.0078250   1.0078250   1.0078250
 NucSpn=           1           1           1           1           1           1           1           1           1           1
 AtZEff=  -0.0000000  -0.0000000  -0.0000000  -0.0000000  -0.0000000  -0.0000000  -0.0000000  -0.0000000  -0.0000000  -0.0000000
 NQMom=    0.0000000   0.0000000   0.0000000   0.0000000   0.0000000   0.0000000   0.0000000   0.0000000   0.0000000   0.0000000
 NMagM=    2.7928460   2.7928460   2.7928460   2.7928460   2.7928460   2.7928460   2.7928460   2.7928460   2.7928460   2.7928460
 AtZNuc=   1.0000000   1.0000000   1.0000000   1.0000000   1.0000000   1.0000000   1.0000000   1.0000000   1.0000000   1.0000000

  Atom        91          92          93
 IAtWgt=           1           1           1
 AtmWgt=   1.0078250   1.0078250   1.0078250
 NucSpn=           1           1           1
 AtZEff=  -0.0000000  -0.0000000  -0.0000000
 NQMom=    0.0000000   0.0000000   0.0000000
 NMagM=    2.7928460   2.7928460   2.7928460
 AtZNuc=   1.0000000   1.0000000   1.0000000
 Leave Link  101 at Thu Jul 23 10:50:51 2020, MaxMem=  4026531840 cpu:               3.3 elap:               0.5
 (Enter /opt/ohpc/pub/libs/gaussian/g16-A.03/sandybridge/g16/l103.exe)

 GradGradGradGradGradGradGradGradGradGradGradGradGradGradGradGradGradGrad
 Berny optimization.
 Initialization pass.
                           ----------------------------
                           !    Initial Parameters    !
                           ! (Angstroms and Degrees)  !
 --------------------------                            --------------------------
 ! Name  Definition              Value          Derivative Info.                !
 --------------------------------------------------------------------------------
 ! R1    R(1,2)                  1.4252         estimate D2E/DX2                !
 ! R2    R(1,6)                  1.7564         estimate D2E/DX2                !
 ! R3    R(1,78)                 1.0467         estimate D2E/DX2                !
 ! R4    R(2,3)                  1.3833         estimate D2E/DX2                !
 ! R5    R(2,79)                 1.036          estimate D2E/DX2                !
 ! R6    R(3,4)                  1.3479         estimate D2E/DX2                !
 ! R7    R(3,5)                  1.3797         estimate D2E/DX2                !
 ! R8    R(5,6)                  1.7252         estimate D2E/DX2                !
 ! R9    R(5,7)                  1.4267         estimate D2E/DX2                !
 ! R10   R(7,8)                  1.3358         estimate D2E/DX2                !
 ! R11   R(7,11)                 1.7635         estimate D2E/DX2                !
 ! R12   R(8,9)                  1.319          estimate D2E/DX2                !
 ! R13   R(9,10)                 1.374          estimate D2E/DX2                !
 ! R14   R(9,80)                 1.1001         estimate D2E/DX2                !
 ! R15   R(10,11)                1.7368         estimate D2E/DX2                !
 ! R16   R(10,12)                1.4887         estimate D2E/DX2                !
 ! R17   R(12,13)                1.4063         estimate D2E/DX2                !
 ! R18   R(12,17)                1.6703         estimate D2E/DX2                !
 ! R19   R(13,14)                1.4996         estimate D2E/DX2                !
 ! R20   R(13,81)                1.05           estimate D2E/DX2                !
 ! R21   R(14,15)                1.3028         estimate D2E/DX2                !
 ! R22   R(14,16)                1.3438         estimate D2E/DX2                !
 ! R23   R(16,17)                1.7442         estimate D2E/DX2                !
 ! R24   R(16,18)                1.4264         estimate D2E/DX2                !
 ! R25   R(18,19)                1.2751         estimate D2E/DX2                !
 ! R26   R(18,22)                1.8117         estimate D2E/DX2                !
 ! R27   R(19,20)                1.4106         estimate D2E/DX2                !
 ! R28   R(20,21)                1.3718         estimate D2E/DX2                !
 ! R29   R(20,82)                1.0856         estimate D2E/DX2                !
 ! R30   R(21,22)                1.7863         estimate D2E/DX2                !
 ! R31   R(21,23)                1.4081         estimate D2E/DX2                !
 ! R32   R(23,24)                1.3854         estimate D2E/DX2                !
 ! R33   R(23,28)                1.7488         estimate D2E/DX2                !
 ! R34   R(24,25)                1.3674         estimate D2E/DX2                !
 ! R35   R(24,83)                1.1562         estimate D2E/DX2                !
 ! R36   R(25,26)                1.3471         estimate D2E/DX2                !
 ! R37   R(25,27)                1.3679         estimate D2E/DX2                !
 ! R38   R(27,28)                1.7144         estimate D2E/DX2                !
 ! R39   R(27,29)                1.4424         estimate D2E/DX2                !
 ! R40   R(29,30)                1.3103         estimate D2E/DX2                !
 ! R41   R(29,33)                1.6333         estimate D2E/DX2                !
 ! R42   R(30,31)                1.3536         estimate D2E/DX2                !
 ! R43   R(31,32)                1.3694         estimate D2E/DX2                !
 ! R44   R(31,84)                1.1235         estimate D2E/DX2                !
 ! R45   R(32,33)                1.751          estimate D2E/DX2                !
 ! R46   R(32,34)                1.3941         estimate D2E/DX2                !
 ! R47   R(34,35)                1.3891         estimate D2E/DX2                !
 ! R48   R(34,39)                1.796          estimate D2E/DX2                !
 ! R49   R(35,36)                1.4832         estimate D2E/DX2                !
 ! R50   R(35,85)                1.0737         estimate D2E/DX2                !
 ! R51   R(36,37)                1.2764         estimate D2E/DX2                !
 ! R52   R(36,38)                1.4003         estimate D2E/DX2                !
 ! R53   R(38,39)                1.6652         estimate D2E/DX2                !
 ! R54   R(38,40)                1.4043         estimate D2E/DX2                !
 ! R55   R(40,41)                1.385          estimate D2E/DX2                !
 ! R56   R(40,44)                1.7652         estimate D2E/DX2                !
 ! R57   R(41,42)                1.4037         estimate D2E/DX2                !
 ! R58   R(42,43)                1.3788         estimate D2E/DX2                !
 ! R59   R(42,86)                1.0908         estimate D2E/DX2                !
 ! R60   R(43,44)                1.7219         estimate D2E/DX2                !
 ! R61   R(43,45)                1.4108         estimate D2E/DX2                !
 ! R62   R(45,46)                1.3502         estimate D2E/DX2                !
 ! R63   R(45,50)                1.7547         estimate D2E/DX2                !
 ! R64   R(46,47)                1.443          estimate D2E/DX2                !
 ! R65   R(46,87)                1.089          estimate D2E/DX2                !
 ! R66   R(47,48)                1.35           estimate D2E/DX2                !
 ! R67   R(47,49)                1.38           estimate D2E/DX2                !
 ! R68   R(49,50)                1.7315         estimate D2E/DX2                !
 ! R69   R(49,51)                1.3958         estimate D2E/DX2                !
 ! R70   R(51,52)                1.3004         estimate D2E/DX2                !
 ! R71   R(51,55)                1.7764         estimate D2E/DX2                !
 ! R72   R(52,53)                1.4471         estimate D2E/DX2                !
 ! R73   R(53,54)                1.4206         estimate D2E/DX2                !
 ! R74   R(53,88)                1.0545         estimate D2E/DX2                !
 ! R75   R(54,55)                1.6669         estimate D2E/DX2                !
 ! R76   R(54,56)                1.4561         estimate D2E/DX2                !
 ! R77   R(56,57)                1.4159         estimate D2E/DX2                !
 ! R78   R(56,61)                1.7132         estimate D2E/DX2                !
 ! R79   R(57,58)                1.3548         estimate D2E/DX2                !
 ! R80   R(57,89)                1.0801         estimate D2E/DX2                !
 ! R81   R(58,59)                1.3721         estimate D2E/DX2                !
 ! R82   R(58,60)                1.3896         estimate D2E/DX2                !
 ! R83   R(60,61)                1.7245         estimate D2E/DX2                !
 ! R84   R(60,62)                1.4079         estimate D2E/DX2                !
 ! R85   R(62,63)                1.3904         estimate D2E/DX2                !
 ! R86   R(62,66)                1.7043         estimate D2E/DX2                !
 ! R87   R(63,64)                1.382          estimate D2E/DX2                !
 ! R88   R(64,65)                1.3611         estimate D2E/DX2                !
 ! R89   R(64,90)                1.0893         estimate D2E/DX2                !
 ! R90   R(65,66)                1.7159         estimate D2E/DX2                !
 ! R91   R(65,67)                1.3987         estimate D2E/DX2                !
 ! R92   R(67,68)                1.4149         estimate D2E/DX2                !
 ! R93   R(67,72)                1.7645         estimate D2E/DX2                !
 ! R94   R(68,69)                1.3257         estimate D2E/DX2                !
 ! R95   R(68,91)                1.163          estimate D2E/DX2                !
 ! R96   R(69,70)                1.4088         estimate D2E/DX2                !
 ! R97   R(69,71)                1.3603         estimate D2E/DX2                !
 ! R98   R(71,72)                1.7326         estimate D2E/DX2                !
 ! R99   R(71,73)                1.4435         estimate D2E/DX2                !
 ! R100  R(73,74)                1.2851         estimate D2E/DX2                !
 ! R101  R(73,77)                1.7461         estimate D2E/DX2                !
 ! R102  R(74,75)                1.3452         estimate D2E/DX2                !
 ! R103  R(75,76)                1.4328         estimate D2E/DX2                !
 ! R104  R(75,92)                1.1049         estimate D2E/DX2                !
 ! R105  R(76,77)                1.703          estimate D2E/DX2                !
 ! R106  R(76,93)                1.0602         estimate D2E/DX2                !
 ! A1    A(2,1,6)              107.8845         estimate D2E/DX2                !
 ! A2    A(2,1,78)             132.2589         estimate D2E/DX2                !
 ! A3    A(6,1,78)             119.8167         estimate D2E/DX2                !
 ! A4    A(1,2,3)              113.1585         estimate D2E/DX2                !
 ! A5    A(1,2,79)             117.3479         estimate D2E/DX2                !
 ! A6    A(3,2,79)             129.3235         estimate D2E/DX2                !
 ! A7    A(2,3,4)              123.5131         estimate D2E/DX2                !
 ! A8    A(2,3,5)              115.5106         estimate D2E/DX2                !
 ! A9    A(4,3,5)              120.6973         estimate D2E/DX2                !
 ! A10   A(3,5,6)              109.4975         estimate D2E/DX2                !
 ! A11   A(3,5,7)              133.3682         estimate D2E/DX2                !
 ! A12   A(6,5,7)              117.1009         estimate D2E/DX2                !
 ! A13   A(1,6,5)               93.7318         estimate D2E/DX2                !
 ! A14   A(5,7,8)              126.3449         estimate D2E/DX2                !
 ! A15   A(5,7,11)             120.0282         estimate D2E/DX2                !
 ! A16   A(8,7,11)             113.3275         estimate D2E/DX2                !
 ! A17   A(7,8,9)              110.834          estimate D2E/DX2                !
 ! A18   A(8,9,10)             118.2723         estimate D2E/DX2                !
 ! A19   A(8,9,80)             119.6188         estimate D2E/DX2                !
 ! A20   A(10,9,80)            121.9672         estimate D2E/DX2                !
 ! A21   A(9,10,11)            108.6641         estimate D2E/DX2                !
 ! A22   A(9,10,12)            130.3618         estimate D2E/DX2                !
 ! A23   A(11,10,12)           120.8607         estimate D2E/DX2                !
 ! A24   A(7,11,10)             88.6675         estimate D2E/DX2                !
 ! A25   A(10,12,13)           121.2225         estimate D2E/DX2                !
 ! A26   A(10,12,17)           125.3033         estimate D2E/DX2                !
 ! A27   A(13,12,17)           113.4595         estimate D2E/DX2                !
 ! A28   A(12,13,14)           108.9232         estimate D2E/DX2                !
 ! A29   A(12,13,81)           131.5279         estimate D2E/DX2                !
 ! A30   A(14,13,81)           119.5456         estimate D2E/DX2                !
 ! A31   A(13,14,15)           118.4181         estimate D2E/DX2                !
 ! A32   A(13,14,16)           112.8145         estimate D2E/DX2                !
 ! A33   A(15,14,16)           128.5504         estimate D2E/DX2                !
 ! A34   A(14,16,17)           111.5118         estimate D2E/DX2                !
 ! A35   A(14,16,18)           129.5127         estimate D2E/DX2                !
 ! A36   A(17,16,18)           118.7468         estimate D2E/DX2                !
 ! A37   A(12,17,16)            93.0741         estimate D2E/DX2                !
 ! A38   A(16,18,19)           127.359          estimate D2E/DX2                !
 ! A39   A(16,18,22)           120.8446         estimate D2E/DX2                !
 ! A40   A(19,18,22)           111.7901         estimate D2E/DX2                !
 ! A41   A(18,19,20)           115.5261         estimate D2E/DX2                !
 ! A42   A(19,20,21)           113.8761         estimate D2E/DX2                !
 ! A43   A(19,20,82)           119.045          estimate D2E/DX2                !
 ! A44   A(21,20,82)           126.4208         estimate D2E/DX2                !
 ! A45   A(20,21,22)           109.5412         estimate D2E/DX2                !
 ! A46   A(20,21,23)           133.8066         estimate D2E/DX2                !
 ! A47   A(22,21,23)           116.6138         estimate D2E/DX2                !
 ! A48   A(18,22,21)            88.9586         estimate D2E/DX2                !
 ! A49   A(21,23,24)           134.8579         estimate D2E/DX2                !
 ! A50   A(21,23,28)           119.7589         estimate D2E/DX2                !
 ! A51   A(24,23,28)           105.3822         estimate D2E/DX2                !
 ! A52   A(23,24,25)           114.2892         estimate D2E/DX2                !
 ! A53   A(23,24,83)           119.446          estimate D2E/DX2                !
 ! A54   A(25,24,83)           126.2611         estimate D2E/DX2                !
 ! A55   A(24,25,26)           116.9139         estimate D2E/DX2                !
 ! A56   A(24,25,27)           118.5389         estimate D2E/DX2                !
 ! A57   A(26,25,27)           124.3942         estimate D2E/DX2                !
 ! A58   A(25,27,28)           104.8184         estimate D2E/DX2                !
 ! A59   A(25,27,29)           131.3074         estimate D2E/DX2                !
 ! A60   A(28,27,29)           123.8201         estimate D2E/DX2                !
 ! A61   A(23,28,27)            96.9044         estimate D2E/DX2                !
 ! A62   A(27,29,30)           121.8781         estimate D2E/DX2                !
 ! A63   A(27,29,33)           121.4668         estimate D2E/DX2                !
 ! A64   A(30,29,33)           116.6026         estimate D2E/DX2                !
 ! A65   A(29,30,31)           107.8028         estimate D2E/DX2                !
 ! A66   A(30,31,32)           119.8445         estimate D2E/DX2                !
 ! A67   A(30,31,84)           117.4234         estimate D2E/DX2                !
 ! A68   A(32,31,84)           122.6914         estimate D2E/DX2                !
 ! A69   A(31,32,33)           103.5247         estimate D2E/DX2                !
 ! A70   A(31,32,34)           128.2511         estimate D2E/DX2                !
 ! A71   A(33,32,34)           127.8595         estimate D2E/DX2                !
 ! A72   A(29,33,32)            92.0296         estimate D2E/DX2                !
 ! A73   A(32,34,35)           129.5061         estimate D2E/DX2                !
 ! A74   A(32,34,39)           121.0592         estimate D2E/DX2                !
 ! A75   A(35,34,39)           109.3734         estimate D2E/DX2                !
 ! A76   A(34,35,36)           111.408          estimate D2E/DX2                !
 ! A77   A(34,35,85)           125.1509         estimate D2E/DX2                !
 ! A78   A(36,35,85)           123.2867         estimate D2E/DX2                !
 ! A79   A(35,36,37)           117.1275         estimate D2E/DX2                !
 ! A80   A(35,36,38)           112.9505         estimate D2E/DX2                !
 ! A81   A(37,36,38)           129.9013         estimate D2E/DX2                !
 ! A82   A(36,38,39)           112.0402         estimate D2E/DX2                !
 ! A83   A(36,38,40)           125.4699         estimate D2E/DX2                !
 ! A84   A(39,38,40)           122.4042         estimate D2E/DX2                !
 ! A85   A(34,39,38)            94.1671         estimate D2E/DX2                !
 ! A86   A(38,40,41)           120.5984         estimate D2E/DX2                !
 ! A87   A(38,40,44)           127.8536         estimate D2E/DX2                !
 ! A88   A(41,40,44)           111.4111         estimate D2E/DX2                !
 ! A89   A(40,41,42)           110.8741         estimate D2E/DX2                !
 ! A90   A(41,42,43)           115.8636         estimate D2E/DX2                !
 ! A91   A(41,42,86)           115.5859         estimate D2E/DX2                !
 ! A92   A(43,42,86)           128.5384         estimate D2E/DX2                !
 ! A93   A(42,43,44)           110.2548         estimate D2E/DX2                !
 ! A94   A(42,43,45)           125.0966         estimate D2E/DX2                !
 ! A95   A(44,43,45)           124.5296         estimate D2E/DX2                !
 ! A96   A(40,44,43)            91.561          estimate D2E/DX2                !
 ! A97   A(43,45,46)           127.591          estimate D2E/DX2                !
 ! A98   A(43,45,50)           120.1177         estimate D2E/DX2                !
 ! A99   A(46,45,50)           112.2827         estimate D2E/DX2                !
 ! A100  A(45,46,47)           110.369          estimate D2E/DX2                !
 ! A101  A(45,46,87)           128.156          estimate D2E/DX2                !
 ! A102  A(47,46,87)           121.224          estimate D2E/DX2                !
 ! A103  A(46,47,48)           120.4304         estimate D2E/DX2                !
 ! A104  A(46,47,49)           116.1278         estimate D2E/DX2                !
 ! A105  A(48,47,49)           123.2206         estimate D2E/DX2                !
 ! A106  A(47,49,50)           108.4645         estimate D2E/DX2                !
 ! A107  A(47,49,51)           124.328          estimate D2E/DX2                !
 ! A108  A(50,49,51)           127.2019         estimate D2E/DX2                !
 ! A109  A(45,50,49)            92.6695         estimate D2E/DX2                !
 ! A110  A(49,51,52)           123.4848         estimate D2E/DX2                !
 ! A111  A(49,51,55)           123.4358         estimate D2E/DX2                !
 ! A112  A(52,51,55)           113.0616         estimate D2E/DX2                !
 ! A113  A(51,52,53)           112.8528         estimate D2E/DX2                !
 ! A114  A(52,53,54)           110.4679         estimate D2E/DX2                !
 ! A115  A(52,53,88)           120.542          estimate D2E/DX2                !
 ! A116  A(54,53,88)           128.8951         estimate D2E/DX2                !
 ! A117  A(53,54,55)           112.8392         estimate D2E/DX2                !
 ! A118  A(53,54,56)           122.8395         estimate D2E/DX2                !
 ! A119  A(55,54,56)           124.2916         estimate D2E/DX2                !
 ! A120  A(51,55,54)            90.777          estimate D2E/DX2                !
 ! A121  A(54,56,57)           126.2976         estimate D2E/DX2                !
 ! A122  A(54,56,61)           125.4064         estimate D2E/DX2                !
 ! A123  A(57,56,61)           107.9397         estimate D2E/DX2                !
 ! A124  A(56,57,58)           113.2547         estimate D2E/DX2                !
 ! A125  A(56,57,89)           124.621          estimate D2E/DX2                !
 ! A126  A(58,57,89)           121.6826         estimate D2E/DX2                !
 ! A127  A(57,58,59)           124.6884         estimate D2E/DX2                !
 ! A128  A(57,58,60)           116.4119         estimate D2E/DX2                !
 ! A129  A(59,58,60)           118.8672         estimate D2E/DX2                !
 ! A130  A(58,60,61)           106.9951         estimate D2E/DX2                !
 ! A131  A(58,60,62)           130.4874         estimate D2E/DX2                !
 ! A132  A(61,60,62)           122.0938         estimate D2E/DX2                !
 ! A133  A(56,61,60)            94.9045         estimate D2E/DX2                !
 ! A134  A(60,62,63)           120.888          estimate D2E/DX2                !
 ! A135  A(60,62,66)           125.9263         estimate D2E/DX2                !
 ! A136  A(63,62,66)           113.166          estimate D2E/DX2                !
 ! A137  A(62,63,64)           106.5397         estimate D2E/DX2                !
 ! A138  A(63,64,65)           120.9345         estimate D2E/DX2                !
 ! A139  A(63,64,90)           114.3142         estimate D2E/DX2                !
 ! A140  A(65,64,90)           124.6699         estimate D2E/DX2                !
 ! A141  A(64,65,66)           106.0314         estimate D2E/DX2                !
 ! A142  A(64,65,67)           128.4545         estimate D2E/DX2                !
 ! A143  A(66,65,67)           125.1684         estimate D2E/DX2                !
 ! A144  A(62,66,65)            93.188          estimate D2E/DX2                !
 ! A145  A(65,67,68)           128.8612         estimate D2E/DX2                !
 ! A146  A(65,67,72)           124.2366         estimate D2E/DX2                !
 ! A147  A(68,67,72)           106.6489         estimate D2E/DX2                !
 ! A148  A(67,68,69)           115.2256         estimate D2E/DX2                !
 ! A149  A(67,68,91)           119.4444         estimate D2E/DX2                !
 ! A150  A(69,68,91)           125.2864         estimate D2E/DX2                !
 ! A151  A(68,69,70)           121.9472         estimate D2E/DX2                !
 ! A152  A(68,69,71)           116.0397         estimate D2E/DX2                !
 ! A153  A(70,69,71)           121.8698         estimate D2E/DX2                !
 ! A154  A(69,71,72)           109.4043         estimate D2E/DX2                !
 ! A155  A(69,71,73)           134.5438         estimate D2E/DX2                !
 ! A156  A(72,71,73)           115.8621         estimate D2E/DX2                !
 ! A157  A(67,72,71)            92.5487         estimate D2E/DX2                !
 ! A158  A(71,73,74)           127.5627         estimate D2E/DX2                !
 ! A159  A(71,73,77)           120.3884         estimate D2E/DX2                !
 ! A160  A(74,73,77)           111.86           estimate D2E/DX2                !
 ! A161  A(73,74,75)           113.9319         estimate D2E/DX2                !
 ! A162  A(74,75,76)           115.5713         estimate D2E/DX2                !
 ! A163  A(74,75,92)           122.7304         estimate D2E/DX2                !
 ! A164  A(76,75,92)           121.5439         estimate D2E/DX2                !
 ! A165  A(75,76,77)           106.2014         estimate D2E/DX2                !
 ! A166  A(75,76,93)           132.0167         estimate D2E/DX2                !
 ! A167  A(77,76,93)           121.6886         estimate D2E/DX2                !
 ! A168  A(73,77,76)            92.3429         estimate D2E/DX2                !
 ! D1    D(6,1,2,3)              4.9641         estimate D2E/DX2                !
 ! D2    D(6,1,2,79)          -179.3314         estimate D2E/DX2                !
 ! D3    D(78,1,2,3)          -177.4092         estimate D2E/DX2                !
 ! D4    D(78,1,2,79)           -1.7047         estimate D2E/DX2                !
 ! D5    D(2,1,6,5)             -3.3614         estimate D2E/DX2                !
 ! D6    D(78,1,6,5)           178.663          estimate D2E/DX2                !
 ! D7    D(1,2,3,4)           -178.517          estimate D2E/DX2                !
 ! D8    D(1,2,3,5)             -4.5599         estimate D2E/DX2                !
 ! D9    D(79,2,3,4)             6.4166         estimate D2E/DX2                !
 ! D10   D(79,2,3,5)          -179.6263         estimate D2E/DX2                !
 ! D11   D(2,3,5,6)              1.8143         estimate D2E/DX2                !
 ! D12   D(2,3,5,7)            179.5833         estimate D2E/DX2                !
 ! D13   D(4,3,5,6)            175.9556         estimate D2E/DX2                !
 ! D14   D(4,3,5,7)             -6.2754         estimate D2E/DX2                !
 ! D15   D(3,5,6,1)              1.0061         estimate D2E/DX2                !
 ! D16   D(7,5,6,1)           -177.1722         estimate D2E/DX2                !
 ! D17   D(3,5,7,8)            176.1717         estimate D2E/DX2                !
 ! D18   D(3,5,7,11)             2.8931         estimate D2E/DX2                !
 ! D19   D(6,5,7,8)             -6.1908         estimate D2E/DX2                !
 ! D20   D(6,5,7,11)          -179.4694         estimate D2E/DX2                !
 ! D21   D(5,7,8,9)           -178.8313         estimate D2E/DX2                !
 ! D22   D(11,7,8,9)            -5.167          estimate D2E/DX2                !
 ! D23   D(5,7,11,10)          178.5308         estimate D2E/DX2                !
 ! D24   D(8,7,11,10)            4.4235         estimate D2E/DX2                !
 ! D25   D(7,8,9,10)             3.3569         estimate D2E/DX2                !
 ! D26   D(7,8,9,80)          -172.4017         estimate D2E/DX2                !
 ! D27   D(8,9,10,11)            0.0236         estimate D2E/DX2                !
 ! D28   D(8,9,10,12)          176.0932         estimate D2E/DX2                !
 ! D29   D(80,9,10,11)         175.6771         estimate D2E/DX2                !
 ! D30   D(80,9,10,12)          -8.2534         estimate D2E/DX2                !
 ! D31   D(9,10,11,7)           -2.4056         estimate D2E/DX2                !
 ! D32   D(12,10,11,7)        -178.9173         estimate D2E/DX2                !
 ! D33   D(9,10,12,13)          -4.242          estimate D2E/DX2                !
 ! D34   D(9,10,12,17)         177.2451         estimate D2E/DX2                !
 ! D35   D(11,10,12,13)        171.4193         estimate D2E/DX2                !
 ! D36   D(11,10,12,17)         -7.0936         estimate D2E/DX2                !
 ! D37   D(10,12,13,14)        176.8024         estimate D2E/DX2                !
 ! D38   D(10,12,13,81)         -2.5155         estimate D2E/DX2                !
 ! D39   D(17,12,13,14)         -4.5206         estimate D2E/DX2                !
 ! D40   D(17,12,13,81)        176.1615         estimate D2E/DX2                !
 ! D41   D(10,12,17,16)       -176.8369         estimate D2E/DX2                !
 ! D42   D(13,12,17,16)          4.5494         estimate D2E/DX2                !
 ! D43   D(12,13,14,15)        177.1541         estimate D2E/DX2                !
 ! D44   D(12,13,14,16)          2.0488         estimate D2E/DX2                !
 ! D45   D(81,13,14,15)         -3.4329         estimate D2E/DX2                !
 ! D46   D(81,13,14,16)       -178.5382         estimate D2E/DX2                !
 ! D47   D(13,14,16,17)          1.1629         estimate D2E/DX2                !
 ! D48   D(13,14,16,18)        175.5059         estimate D2E/DX2                !
 ! D49   D(15,14,16,17)       -173.3308         estimate D2E/DX2                !
 ! D50   D(15,14,16,18)          1.0122         estimate D2E/DX2                !
 ! D51   D(14,16,17,12)         -3.2514         estimate D2E/DX2                !
 ! D52   D(18,16,17,12)       -178.2754         estimate D2E/DX2                !
 ! D53   D(14,16,18,19)        175.5645         estimate D2E/DX2                !
 ! D54   D(14,16,18,22)         -3.4365         estimate D2E/DX2                !
 ! D55   D(17,16,18,19)        -10.4395         estimate D2E/DX2                !
 ! D56   D(17,16,18,22)        170.5594         estimate D2E/DX2                !
 ! D57   D(16,18,19,20)       -174.4968         estimate D2E/DX2                !
 ! D58   D(22,18,19,20)          4.5796         estimate D2E/DX2                !
 ! D59   D(16,18,22,21)        177.7109         estimate D2E/DX2                !
 ! D60   D(19,18,22,21)         -1.434          estimate D2E/DX2                !
 ! D61   D(18,19,20,21)         -6.4209         estimate D2E/DX2                !
 ! D62   D(18,19,20,82)       -177.7185         estimate D2E/DX2                !
 ! D63   D(19,20,21,22)          4.9031         estimate D2E/DX2                !
 ! D64   D(19,20,21,23)       -177.5019         estimate D2E/DX2                !
 ! D65   D(82,20,21,22)        175.4417         estimate D2E/DX2                !
 ! D66   D(82,20,21,23)         -6.9633         estimate D2E/DX2                !
 ! D67   D(20,21,22,18)         -2.0419         estimate D2E/DX2                !
 ! D68   D(23,21,22,18)        179.8992         estimate D2E/DX2                !
 ! D69   D(20,21,23,24)        179.2426         estimate D2E/DX2                !
 ! D70   D(20,21,23,28)         -0.3249         estimate D2E/DX2                !
 ! D71   D(22,21,23,24)         -3.2925         estimate D2E/DX2                !
 ! D72   D(22,21,23,28)        177.1399         estimate D2E/DX2                !
 ! D73   D(21,23,24,25)       -179.2352         estimate D2E/DX2                !
 ! D74   D(21,23,24,83)          1.4192         estimate D2E/DX2                !
 ! D75   D(28,23,24,25)          0.3754         estimate D2E/DX2                !
 ! D76   D(28,23,24,83)       -178.9702         estimate D2E/DX2                !
 ! D77   D(21,23,28,27)       -179.259          estimate D2E/DX2                !
 ! D78   D(24,23,28,27)          1.0589         estimate D2E/DX2                !
 ! D79   D(23,24,25,26)       -177.9343         estimate D2E/DX2                !
 ! D80   D(23,24,25,27)         -2.2299         estimate D2E/DX2                !
 ! D81   D(83,24,25,26)          1.3589         estimate D2E/DX2                !
 ! D82   D(83,24,25,27)        177.0633         estimate D2E/DX2                !
 ! D83   D(24,25,27,28)          2.8198         estimate D2E/DX2                !
 ! D84   D(24,25,27,29)       -179.8425         estimate D2E/DX2                !
 ! D85   D(26,25,27,28)        178.1772         estimate D2E/DX2                !
 ! D86   D(26,25,27,29)         -4.4851         estimate D2E/DX2                !
 ! D87   D(25,27,28,23)         -2.1227         estimate D2E/DX2                !
 ! D88   D(29,27,28,23)       -179.7156         estimate D2E/DX2                !
 ! D89   D(25,27,29,30)       -176.7801         estimate D2E/DX2                !
 ! D90   D(25,27,29,33)          0.4925         estimate D2E/DX2                !
 ! D91   D(28,27,29,30)          0.1215         estimate D2E/DX2                !
 ! D92   D(28,27,29,33)        177.3941         estimate D2E/DX2                !
 ! D93   D(27,29,30,31)       -179.896          estimate D2E/DX2                !
 ! D94   D(33,29,30,31)          2.7056         estimate D2E/DX2                !
 ! D95   D(27,29,33,32)        178.5384         estimate D2E/DX2                !
 ! D96   D(30,29,33,32)         -4.0518         estimate D2E/DX2                !
 ! D97   D(29,30,31,32)          0.7262         estimate D2E/DX2                !
 ! D98   D(29,30,31,84)        178.4712         estimate D2E/DX2                !
 ! D99   D(30,31,32,33)         -3.3412         estimate D2E/DX2                !
 ! D100  D(30,31,32,34)       -176.7721         estimate D2E/DX2                !
 ! D101  D(84,31,32,33)        179.0373         estimate D2E/DX2                !
 ! D102  D(84,31,32,34)          5.6064         estimate D2E/DX2                !
 ! D103  D(31,32,33,29)          3.8315         estimate D2E/DX2                !
 ! D104  D(34,32,33,29)        177.2976         estimate D2E/DX2                !
 ! D105  D(31,32,34,35)         -2.0126         estimate D2E/DX2                !
 ! D106  D(31,32,34,39)       -178.8459         estimate D2E/DX2                !
 ! D107  D(33,32,34,35)       -173.9137         estimate D2E/DX2                !
 ! D108  D(33,32,34,39)          9.253          estimate D2E/DX2                !
 ! D109  D(32,34,35,36)       -179.3797         estimate D2E/DX2                !
 ! D110  D(32,34,35,85)          5.0272         estimate D2E/DX2                !
 ! D111  D(39,34,35,36)         -2.255          estimate D2E/DX2                !
 ! D112  D(39,34,35,85)       -177.8481         estimate D2E/DX2                !
 ! D113  D(32,34,39,38)        179.7979         estimate D2E/DX2                !
 ! D114  D(35,34,39,38)          2.3874         estimate D2E/DX2                !
 ! D115  D(34,35,36,37)       -177.4597         estimate D2E/DX2                !
 ! D116  D(34,35,36,38)          1.0526         estimate D2E/DX2                !
 ! D117  D(85,35,36,37)         -1.7699         estimate D2E/DX2                !
 ! D118  D(85,35,36,38)        176.7424         estimate D2E/DX2                !
 ! D119  D(35,36,38,39)          0.7928         estimate D2E/DX2                !
 ! D120  D(35,36,38,40)       -175.8934         estimate D2E/DX2                !
 ! D121  D(37,36,38,39)        179.0668         estimate D2E/DX2                !
 ! D122  D(37,36,38,40)          2.3806         estimate D2E/DX2                !
 ! D123  D(36,38,39,34)         -1.7943         estimate D2E/DX2                !
 ! D124  D(40,38,39,34)        175.0092         estimate D2E/DX2                !
 ! D125  D(36,38,40,41)       -177.3523         estimate D2E/DX2                !
 ! D126  D(36,38,40,44)         -1.9882         estimate D2E/DX2                !
 ! D127  D(39,38,40,41)          6.2863         estimate D2E/DX2                !
 ! D128  D(39,38,40,44)       -178.3496         estimate D2E/DX2                !
 ! D129  D(38,40,41,42)        177.4905         estimate D2E/DX2                !
 ! D130  D(44,40,41,42)          1.4211         estimate D2E/DX2                !
 ! D131  D(38,40,44,43)       -177.4777         estimate D2E/DX2                !
 ! D132  D(41,40,44,43)         -1.7633         estimate D2E/DX2                !
 ! D133  D(40,41,42,43)         -0.2064         estimate D2E/DX2                !
 ! D134  D(40,41,42,86)        178.6352         estimate D2E/DX2                !
 ! D135  D(41,42,43,44)         -1.1286         estimate D2E/DX2                !
 ! D136  D(41,42,43,45)        175.0463         estimate D2E/DX2                !
 ! D137  D(86,42,43,44)       -179.7928         estimate D2E/DX2                !
 ! D138  D(86,42,43,45)         -3.618          estimate D2E/DX2                !
 ! D139  D(42,43,44,40)          1.6044         estimate D2E/DX2                !
 ! D140  D(45,43,44,40)       -174.5967         estimate D2E/DX2                !
 ! D141  D(42,43,45,46)        -25.6596         estimate D2E/DX2                !
 ! D142  D(42,43,45,50)        153.1908         estimate D2E/DX2                !
 ! D143  D(44,43,45,46)        149.9835         estimate D2E/DX2                !
 ! D144  D(44,43,45,50)        -31.1662         estimate D2E/DX2                !
 ! D145  D(43,45,46,47)       -178.7966         estimate D2E/DX2                !
 ! D146  D(43,45,46,87)         -4.5705         estimate D2E/DX2                !
 ! D147  D(50,45,46,47)          2.2781         estimate D2E/DX2                !
 ! D148  D(50,45,46,87)        176.5042         estimate D2E/DX2                !
 ! D149  D(43,45,50,49)       -179.736          estimate D2E/DX2                !
 ! D150  D(46,45,50,49)         -0.7205         estimate D2E/DX2                !
 ! D151  D(45,46,47,48)       -178.0929         estimate D2E/DX2                !
 ! D152  D(45,46,47,49)         -3.3241         estimate D2E/DX2                !
 ! D153  D(87,46,47,48)          7.215          estimate D2E/DX2                !
 ! D154  D(87,46,47,49)       -178.0162         estimate D2E/DX2                !
 ! D155  D(46,47,49,50)          2.7176         estimate D2E/DX2                !
 ! D156  D(46,47,49,51)       -176.4744         estimate D2E/DX2                !
 ! D157  D(48,47,49,50)        177.3255         estimate D2E/DX2                !
 ! D158  D(48,47,49,51)         -1.8666         estimate D2E/DX2                !
 ! D159  D(47,49,50,45)         -1.1281         estimate D2E/DX2                !
 ! D160  D(51,49,50,45)        178.0343         estimate D2E/DX2                !
 ! D161  D(47,49,51,52)          7.4554         estimate D2E/DX2                !
 ! D162  D(47,49,51,55)       -174.1877         estimate D2E/DX2                !
 ! D163  D(50,49,51,52)       -171.5824         estimate D2E/DX2                !
 ! D164  D(50,49,51,55)          6.7744         estimate D2E/DX2                !
 ! D165  D(49,51,52,53)        178.1395         estimate D2E/DX2                !
 ! D166  D(55,51,52,53)         -0.3702         estimate D2E/DX2                !
 ! D167  D(49,51,55,54)       -178.126          estimate D2E/DX2                !
 ! D168  D(52,51,55,54)          0.3846         estimate D2E/DX2                !
 ! D169  D(51,52,53,54)          0.1604         estimate D2E/DX2                !
 ! D170  D(51,52,53,88)        176.9225         estimate D2E/DX2                !
 ! D171  D(52,53,54,55)          0.1355         estimate D2E/DX2                !
 ! D172  D(52,53,54,56)       -177.9575         estimate D2E/DX2                !
 ! D173  D(88,53,54,55)       -176.281          estimate D2E/DX2                !
 ! D174  D(88,53,54,56)          5.626          estimate D2E/DX2                !
 ! D175  D(53,54,55,51)         -0.2797         estimate D2E/DX2                !
 ! D176  D(56,54,55,51)        177.781          estimate D2E/DX2                !
 ! D177  D(53,54,56,57)       -175.7581         estimate D2E/DX2                !
 ! D178  D(53,54,56,61)         -3.4502         estimate D2E/DX2                !
 ! D179  D(55,54,56,57)          6.3692         estimate D2E/DX2                !
 ! D180  D(55,54,56,61)        178.6771         estimate D2E/DX2                !
 ! D181  D(54,56,57,58)        178.2817         estimate D2E/DX2                !
 ! D182  D(54,56,57,89)         -9.2628         estimate D2E/DX2                !
 ! D183  D(61,56,57,58)          4.8664         estimate D2E/DX2                !
 ! D184  D(61,56,57,89)        177.3219         estimate D2E/DX2                !
 ! D185  D(54,56,61,60)       -179.8798         estimate D2E/DX2                !
 ! D186  D(57,56,61,60)         -6.3905         estimate D2E/DX2                !
 ! D187  D(56,57,58,59)        177.7032         estimate D2E/DX2                !
 ! D188  D(56,57,58,60)         -0.1948         estimate D2E/DX2                !
 ! D189  D(89,57,58,59)          4.9978         estimate D2E/DX2                !
 ! D190  D(89,57,58,60)       -172.9002         estimate D2E/DX2                !
 ! D191  D(57,58,60,61)         -4.5217         estimate D2E/DX2                !
 ! D192  D(57,58,60,62)       -177.0054         estimate D2E/DX2                !
 ! D193  D(59,58,60,61)        177.4519         estimate D2E/DX2                !
 ! D194  D(59,58,60,62)          4.9682         estimate D2E/DX2                !
 ! D195  D(58,60,61,56)          6.2275         estimate D2E/DX2                !
 ! D196  D(62,60,61,56)        179.4835         estimate D2E/DX2                !
 ! D197  D(58,60,62,63)        178.9452         estimate D2E/DX2                !
 ! D198  D(58,60,62,66)         -2.7816         estimate D2E/DX2                !
 ! D199  D(61,60,62,63)          7.4367         estimate D2E/DX2                !
 ! D200  D(61,60,62,66)       -174.2902         estimate D2E/DX2                !
 ! D201  D(60,62,63,64)       -178.7776         estimate D2E/DX2                !
 ! D202  D(66,62,63,64)          2.7434         estimate D2E/DX2                !
 ! D203  D(60,62,66,65)       -179.2081         estimate D2E/DX2                !
 ! D204  D(63,62,66,65)         -0.82           estimate D2E/DX2                !
 ! D205  D(62,63,64,65)         -4.2715         estimate D2E/DX2                !
 ! D206  D(62,63,64,90)        178.8612         estimate D2E/DX2                !
 ! D207  D(63,64,65,66)          3.6694         estimate D2E/DX2                !
 ! D208  D(63,64,65,67)        177.1133         estimate D2E/DX2                !
 ! D209  D(90,64,65,66)       -179.8021         estimate D2E/DX2                !
 ! D210  D(90,64,65,67)         -6.3582         estimate D2E/DX2                !
 ! D211  D(64,65,66,62)         -1.4228         estimate D2E/DX2                !
 ! D212  D(67,65,66,62)       -175.1434         estimate D2E/DX2                !
 ! D213  D(64,65,67,68)          9.573          estimate D2E/DX2                !
 ! D214  D(64,65,67,72)       -176.9998         estimate D2E/DX2                !
 ! D215  D(66,65,67,68)       -178.1416         estimate D2E/DX2                !
 ! D216  D(66,65,67,72)         -4.7144         estimate D2E/DX2                !
 ! D217  D(65,67,68,69)        173.8194         estimate D2E/DX2                !
 ! D218  D(65,67,68,91)         -3.9038         estimate D2E/DX2                !
 ! D219  D(72,67,68,69)         -0.5121         estimate D2E/DX2                !
 ! D220  D(72,67,68,91)       -178.2354         estimate D2E/DX2                !
 ! D221  D(65,67,72,71)       -176.1305         estimate D2E/DX2                !
 ! D222  D(68,67,72,71)         -1.4685         estimate D2E/DX2                !
 ! D223  D(67,68,69,70)        178.7516         estimate D2E/DX2                !
 ! D224  D(67,68,69,71)          3.0277         estimate D2E/DX2                !
 ! D225  D(91,68,69,70)         -3.6774         estimate D2E/DX2                !
 ! D226  D(91,68,69,71)       -179.4013         estimate D2E/DX2                !
 ! D227  D(68,69,71,72)         -4.0256         estimate D2E/DX2                !
 ! D228  D(68,69,71,73)       -178.6302         estimate D2E/DX2                !
 ! D229  D(70,69,71,72)       -179.7531         estimate D2E/DX2                !
 ! D230  D(70,69,71,73)          5.6423         estimate D2E/DX2                !
 ! D231  D(69,71,72,67)          3.0439         estimate D2E/DX2                !
 ! D232  D(73,71,72,67)        178.7728         estimate D2E/DX2                !
 ! D233  D(69,71,73,74)        178.7315         estimate D2E/DX2                !
 ! D234  D(69,71,73,77)         -6.6892         estimate D2E/DX2                !
 ! D235  D(72,71,73,74)          4.3876         estimate D2E/DX2                !
 ! D236  D(72,71,73,77)        178.967          estimate D2E/DX2                !
 ! D237  D(71,73,74,75)        178.3138         estimate D2E/DX2                !
 ! D238  D(77,73,74,75)          3.3509         estimate D2E/DX2                !
 ! D239  D(71,73,77,76)       -177.9117         estimate D2E/DX2                !
 ! D240  D(74,73,77,76)         -2.5396         estimate D2E/DX2                !
 ! D241  D(73,74,75,76)         -2.671          estimate D2E/DX2                !
 ! D242  D(73,74,75,92)        172.8727         estimate D2E/DX2                !
 ! D243  D(74,75,76,77)          0.6444         estimate D2E/DX2                !
 ! D244  D(74,75,76,93)        177.0736         estimate D2E/DX2                !
 ! D245  D(92,75,76,77)       -174.957          estimate D2E/DX2                !
 ! D246  D(92,75,76,93)          1.4721         estimate D2E/DX2                !
 ! D247  D(75,76,77,73)          0.9887         estimate D2E/DX2                !
 ! D248  D(93,76,77,73)       -175.8941         estimate D2E/DX2                !
 --------------------------------------------------------------------------------
 Trust Radius=3.00D-01 FncErr=1.00D-07 GrdErr=1.00D-06 EigMax=2.50D+02 EigMin=1.00D-04
 Number of steps in this run=    532 maximum allowed number of steps=    558.
 GradGradGradGradGradGradGradGradGradGradGradGradGradGradGradGradGradGrad

 Leave Link  103 at Thu Jul 23 10:50:51 2020, MaxMem=  4026531840 cpu:               0.2 elap:               0.0
 (Enter /opt/ohpc/pub/libs/gaussian/g16-A.03/sandybridge/g16/l202.exe)
 Stoichiometry    C49H16F7N7S14
 Framework group  C1[X(C49H16F7N7S14)]
 Deg. of freedom   273
 Full point group                 C1      NOp   1
 Largest Abelian subgroup         C1      NOp   1
 Largest concise Abelian subgroup C1      NOp   1
                         Standard orientation:                         
 ---------------------------------------------------------------------
 Center     Atomic      Atomic             Coordinates (Angstroms)
 Number     Number       Type             X           Y           Z
 ---------------------------------------------------------------------
      1          6           0      -25.290358    2.696281    0.485776
      2          6           0      -24.298101    3.527571    1.082149
      3          6           0      -23.009242    3.069363    0.876493
      4          9           0      -21.914513    3.679113    1.373074
      5          6           0      -22.906380    1.856135    0.227667
      6         16           0      -24.482370    1.288640   -0.185481
      7          6           0      -21.799274    1.052735   -0.177812
      8          7           0      -21.863229   -0.154581   -0.745798
      9          6           0      -20.654385   -0.631309   -0.971808
     10          6           0      -19.574647    0.105332   -0.548407
     11         16           0      -20.154782    1.552795    0.216343
     12          6           0      -18.119319   -0.205153   -0.591015
     13          6           0      -17.652847   -1.451435   -1.045757
     14          6           0      -16.153309   -1.438628   -1.046563
     15          9           0      -15.524169   -2.528241   -1.384416
     16          6           0      -15.641809   -0.285920   -0.582278
     17         16           0      -16.898521    0.820737   -0.094035
     18          6           0      -14.281559    0.074525   -0.348873
     19          7           0      -13.834487    1.210077    0.020550
     20          6           0      -12.429276    1.326403    0.060425
     21          6           0      -11.767709    0.147782   -0.173838
     22         16           0      -12.947103   -1.125800   -0.595444
     23          6           0      -10.408810   -0.220943   -0.188783
     24          6           0       -9.719154   -1.402164   -0.408886
     25          6           0       -8.360610   -1.288270   -0.303643
     26          9           0       -7.634924   -2.396180   -0.549851
     27          6           0       -7.825995   -0.055361   -0.047911
     28         16           0       -9.179965    0.979797    0.137412
     29          6           0       -6.458591    0.374961    0.111932
     30          7           0       -6.153748    1.611885    0.418283
     31          6           0       -4.805113    1.699239    0.493554
     32          6           0       -4.035720    0.593666    0.246355
     33         16           0       -5.213911   -0.674753   -0.016380
     34          6           0       -2.649868    0.469483    0.333585
     35          6           0       -1.695150    1.426950    0.651844
     36          6           0       -0.325344    0.859553    0.612551
     37          9           0        0.635274    1.634889    0.936844
     38          6           0       -0.304245   -0.491402    0.244518
     39         16           0       -1.831113   -1.077930   -0.067591
     40          6           0        0.838161   -1.306957    0.203225
     41          7           0        0.751845   -2.619827   -0.229327
     42          6           0        2.017624   -3.226448   -0.242159
     43          6           0        3.070039   -2.430776    0.158517
     44         16           0        2.508368   -0.849790    0.545606
     45          6           0        4.402775   -2.866513    0.314723
     46          6           0        4.834385   -4.117971    0.580588
     47          6           0        6.272991   -4.140205    0.691302
     48          9           0        6.923544   -5.301388    0.916999
     49          6           0        6.920153   -2.946890    0.442929
     50         16           0        5.727508   -1.730049    0.134611
     51          6           0        8.307196   -2.790972    0.432514
     52          7           0        9.141510   -3.784675    0.518546
     53          6           0       10.524491   -3.365556    0.442336
     54          6           0       10.608724   -1.955128    0.294782
     55         16           0        9.114074   -1.218025    0.257994
     56          6           0       11.874671   -1.250730    0.148074
     57          6           0       12.050109    0.152642    0.080779
     58          6           0       13.348827    0.525151   -0.019615
     59          9           0       13.782041    1.820976   -0.144976
     60          6           0       14.286483   -0.500301   -0.036452
     61         16           0       13.426323   -1.973974    0.213199
     62          6           0       15.693095   -0.452281   -0.073796
     63          7           0       16.447713   -1.620062   -0.062763
     64          6           0       17.773940   -1.231652   -0.078621
     65          6           0       18.117355    0.080955   -0.187202
     66         16           0       16.643107    0.958933   -0.176524
     67          6           0       19.394569    0.650741   -0.163973
     68          6           0       20.654280    0.007976   -0.206214
     69          6           0       21.699302    0.818458   -0.297892
     70          9           0       23.020803    0.330887   -0.323969
     71          6           0       21.425628    2.150761   -0.274274
     72         16           0       19.709306    2.385326   -0.239263
     73          6           0       22.223252    3.350126   -0.369083
     74          7           0       21.812319    4.567642   -0.352309
     75          6           0       22.800137    5.478005   -0.423336
     76          6           0       24.130597    4.946565   -0.444578
     77         16           0       23.966578    3.252512   -0.385871
     78          1           0      -26.332287    2.776416    0.425412
     79          1           0      -24.619545    4.401731    1.535912
     80          1           0      -20.535425   -1.560304   -1.548845
     81          1           0      -18.163448   -2.311044   -1.366337
     82          1           0      -11.986942    2.256762    0.402932
     83          1           0      -10.306813   -2.363725   -0.667604
     84          1           0       -4.363864    2.706547    0.723466
     85          1           0       -1.907746    2.432597    0.962185
     86          1           0        2.035424   -4.272848   -0.549681
     87          1           0        4.238297   -5.004936    0.790080
     88          1           0       11.303916   -4.067997    0.547833
     89          1           0       11.246070    0.867827   -0.011669
     90          1           0       18.483582   -2.057725   -0.052442
     91          1           0       20.703719   -1.153944   -0.200290
     92          1           0       22.608170    6.560359   -0.535179
     93          1           0       25.079082    5.411440   -0.535721
 ---------------------------------------------------------------------
 Rotational constants (GHZ):           0.0835211           0.0017613           0.0017285
 Leave Link  202 at Thu Jul 23 10:50:51 2020, MaxMem=  4026531840 cpu:               0.1 elap:               0.0
 (Enter /opt/ohpc/pub/libs/gaussian/g16-A.03/sandybridge/g16/l301.exe)
 Standard basis: CC-pVDZ (5D, 7F)
 Ernie: Thresh=  0.10000D-02 Tol=  0.10000D-05 Strict=F.
 Ernie:  266 primitive shells out of 2166 were deleted.
 There are  1291 symmetry adapted cartesian basis functions of A   symmetry.
 There are  1214 symmetry adapted basis functions of A   symmetry.
  1214 basis functions,  3185 primitive gaussians,  1291 cartesian basis functions
   323 alpha electrons      323 beta electrons
       nuclear repulsion energy     12234.6246027877 Hartrees.
 IExCor=32609 DFT=T Ex+Corr=LC-wPBE ExCW=0 ScaHFX=  1.000000
 ScaDFX=  1.000000  0.000000  1.000000  1.000000 ScalE2=  1.000000  1.000000
 IRadAn=      5 IRanWt=     -1 IRanGd=            0 ICorTp=0 IEmpDi=  4
 HFx  wShort=  0.000000 wLong=  0.398900 cFull=  0.000000 cShort=  0.000000 cLong=  1.000000
 DFx  wShort=  0.000000 wLong=  0.398900 cFull=  0.000000 cShort=  0.000000 cLong=  1.000000
 NAtoms=   93 NActive=   93 NUniq=   93 SFac= 1.00D+00 NAtFMM=   60 NAOKFM=T Big=T
 Integral buffers will be    131072 words long.
 Raffenetti 2 integral format.
 Two-electron integral symmetry is turned on.
 Leave Link  301 at Thu Jul 23 10:50:51 2020, MaxMem=  4026531840 cpu:               1.1 elap:               0.2
 (Enter /opt/ohpc/pub/libs/gaussian/g16-A.03/sandybridge/g16/l302.exe)
 NPDir=0 NMtPBC=     1 NCelOv=     1 NCel=       1 NClECP=     1 NCelD=      1
         NCelK=      1 NCelE2=     1 NClLst=     1 CellRange=     0.0.
 One-electron integrals computed using PRISM.
 One-electron integral symmetry used in STVInt
 NBasis=  1214 RedAO= T EigKep=  2.51D-04  NBF=  1214
 NBsUse=  1214 1.00D-06 EigRej= -1.00D+00 NBFU=  1214
 Precomputing XC quadrature grid using
 IXCGrd= 4 IRadAn=           5 IRanWt=          -1 IRanGd=           0 AccXCQ= 0.00D+00.
 Generated NRdTot=       0 NPtTot=           0 NUsed=           0 NTot=          32
 NSgBfM=   585   585   585   585   585 MxSgAt=    93 MxSgA2=    65.
 Leave Link  302 at Thu Jul 23 10:50:55 2020, MaxMem=  4026531840 cpu:              32.3 elap:               4.1
 (Enter /opt/ohpc/pub/libs/gaussian/g16-A.03/sandybridge/g16/l303.exe)
 DipDrv:  MaxL=1.
 Leave Link  303 at Thu Jul 23 10:50:55 2020, MaxMem=  4026531840 cpu:               2.0 elap:               0.3
 (Enter /opt/ohpc/pub/libs/gaussian/g16-A.03/sandybridge/g16/l401.exe)
 ExpMin= 1.22D-01 ExpMax= 1.11D+05 ExpMxC= 1.07D+03 IAcc=3 IRadAn=         5 AccDes= 0.00D+00
 Harris functional with IExCor=32609 and IRadAn=       5 diagonalized for initial guess.
 HarFok:  IExCor=32609 AccDes= 0.00D+00 IRadAn=         5 IDoV= 1 UseB2=F ITyADJ=14
 ICtDFT=  3500011 ScaDFX=  1.000000  1.000000  1.000000  1.000000
 FoFCou: FMM=F IPFlag=           0 FMFlag=      100000 FMFlg1=        2001
         NFxFlg=           0 DoJE=T BraDBF=F KetDBF=T FulRan=T
         wScrn=  0.000000 ICntrl=       500 IOpCl=  0 I1Cent=   200000004 NGrid=           0
         NMat0=    1 NMatS0=      1 NMatT0=    0 NMatD0=    1 NMtDS0=    0 NMtDT0=    0
 Petite list used in FoFCou.
 Harris En= -8528.62370546061    
 JPrj=0 DoOrth=F DoCkMO=F.
 Initial guess <Sx>= 0.0000 <Sy>= 0.0000 <Sz>= 0.0000 <S**2>=-0.0000 S=-0.0000
 Leave Link  401 at Thu Jul 23 10:51:06 2020, MaxMem=  4026531840 cpu:              86.9 elap:              10.9
 (Enter /opt/ohpc/pub/libs/gaussian/g16-A.03/sandybridge/g16/l502.exe)
 Integral symmetry usage will be decided dynamically.
 UHF open shell SCF:
 Using DIIS extrapolation, IDIIS=  1040.
 NGot=  4026531840 LenX=  4023175783 LenY=  4021507811
 Requested convergence on RMS density matrix=1.00D-08 within 128 cycles.
 Requested convergence on MAX density matrix=1.00D-06.
 Requested convergence on             energy=1.00D-06.
 No special actions if energy rises.
 Fock matrices will be formed incrementally for  20 cycles.
 Integral accuracy reduced to 1.0D-05 until final iterations.

 Cycle   1  Pass 0  IDiag  1:
 FoFJK:  IHMeth= 1 ICntrl=       0 DoSepK=T KAlg= 0 I1Cent=           0 FoldK=F
 IRaf=         1 NMat=       1 IRICut=       1 DoRegI=T DoRafI=F ISym2E= 0 IDoP0=0 IntGTp=1.
 FoFCou: FMM=T IPFlag=           0 FMFlag=      100000 FMFlg1=        2001
         NFxFlg=           0 DoJE=T BraDBF=F KetDBF=F FulRan=T
         wScrn=  0.000000 ICntrl=       500 IOpCl=  0 I1Cent=           0 NGrid=           0
         NMat0=    1 NMatS0=      1 NMatT0=    0 NMatD0=    1 NMtDS0=    0 NMtDT0=    0
 Symmetry not used in FoFCou.
 FMM levels:  10  Number of levels for PrismC:   9
 E= -8528.18449285255    
 DIIS: error= 1.91D-02 at cycle   1 NSaved=   1.
 NSaved= 1 IEnMin= 1 EnMin= -8528.18449285255     IErMin= 1 ErrMin= 1.91D-02
 ErrMax= 1.91D-02  0.00D+00 EMaxC= 1.00D-01 BMatC= 6.01D+00 BMatP= 6.01D+00
 IDIUse=3 WtCom= 8.09D-01 WtEn= 1.91D-01
 Coeff-Com:  0.100D+01
 Coeff-En:   0.100D+01
 Coeff:      0.100D+01
 Gap=     0.177 Goal=   None    Shift=    0.000
 Gap=     0.177 Goal=   None    Shift=    0.000
 GapD=    0.177 DampG=1.000 DampE=0.500 DampFc=0.5000 IDamp=-1.
 Damping current iteration by 5.00D-01
 RMSDP=2.20D-03 MaxDP=1.30D-01              OVMax= 2.69D-01

 Cycle   2  Pass 0  IDiag  1:
 RMSU=  1.09D-03    CP:  9.93D-01
 E= -8529.03650461125     Delta-E=       -0.852011758703 Rises=F Damp=T
 DIIS: error= 4.14D-03 at cycle   2 NSaved=   2.
 NSaved= 2 IEnMin= 2 EnMin= -8529.03650461125     IErMin= 2 ErrMin= 4.14D-03
 ErrMax= 4.14D-03  0.00D+00 EMaxC= 1.00D-01 BMatC= 2.46D-01 BMatP= 6.01D+00
 IDIUse=3 WtCom= 9.59D-01 WtEn= 4.14D-02
 Coeff-Com: -0.310D-01 0.103D+01
 Coeff-En:   0.000D+00 0.100D+01
 Coeff:     -0.297D-01 0.103D+01
 Gap=     0.219 Goal=   None    Shift=    0.000
 Gap=     0.219 Goal=   None    Shift=    0.000
 RMSDP=6.11D-04 MaxDP=2.44D-02 DE=-8.52D-01 OVMax= 1.20D-01

 Cycle   3  Pass 0  IDiag  1:
 RMSU=  5.98D-04    CP:  9.89D-01  1.10D+00
 E= -8529.87476115836     Delta-E=       -0.838256547111 Rises=F Damp=F
 DIIS: error= 1.93D-03 at cycle   3 NSaved=   3.
 NSaved= 3 IEnMin= 3 EnMin= -8529.87476115836     IErMin= 3 ErrMin= 1.93D-03
 ErrMax= 1.93D-03  0.00D+00 EMaxC= 1.00D-01 BMatC= 9.58D-02 BMatP= 2.46D-01
 IDIUse=3 WtCom= 9.81D-01 WtEn= 1.93D-02
 Coeff-Com: -0.248D-01 0.357D+00 0.668D+00
 Coeff-En:   0.000D+00 0.000D+00 0.100D+01
 Coeff:     -0.243D-01 0.350D+00 0.674D+00
 Gap=     0.223 Goal=   None    Shift=    0.000
 Gap=     0.223 Goal=   None    Shift=    0.000
 RMSDP=1.69D-04 MaxDP=2.03D-02 DE=-8.38D-01 OVMax= 2.85D-02

 Cycle   4  Pass 0  IDiag  1:
 RMSU=  1.62D-04    CP:  9.89D-01  1.13D+00  9.44D-01
 E= -8529.89718457996     Delta-E=       -0.022423421597 Rises=F Damp=F
 DIIS: error= 1.49D-03 at cycle   4 NSaved=   4.
 NSaved= 4 IEnMin= 4 EnMin= -8529.89718457996     IErMin= 4 ErrMin= 1.49D-03
 ErrMax= 1.49D-03  0.00D+00 EMaxC= 1.00D-01 BMatC= 2.12D-02 BMatP= 9.58D-02
 IDIUse=3 WtCom= 9.85D-01 WtEn= 1.49D-02
 Coeff-Com:  0.388D-02-0.457D-01 0.287D+00 0.755D+00
 Coeff-En:   0.000D+00 0.000D+00 0.000D+00 0.100D+01
 Coeff:      0.383D-02-0.450D-01 0.282D+00 0.759D+00
 Gap=     0.228 Goal=   None    Shift=    0.000
 Gap=     0.228 Goal=   None    Shift=    0.000
 RMSDP=8.98D-05 MaxDP=7.53D-03 DE=-2.24D-02 OVMax= 1.49D-02

 Cycle   5  Pass 0  IDiag  1:
 RMSU=  6.90D-05    CP:  9.88D-01  1.13D+00  1.03D+00  9.06D-01
 E= -8529.90465998589     Delta-E=       -0.007475405924 Rises=F Damp=F
 DIIS: error= 4.49D-04 at cycle   5 NSaved=   5.
 NSaved= 5 IEnMin= 5 EnMin= -8529.90465998589     IErMin= 5 ErrMin= 4.49D-04
 ErrMax= 4.49D-04  0.00D+00 EMaxC= 1.00D-01 BMatC= 1.57D-03 BMatP= 2.12D-02
 IDIUse=3 WtCom= 9.96D-01 WtEn= 4.49D-03
 Coeff-Com:  0.646D-02-0.485D-01-0.127D-01 0.156D+00 0.899D+00
 Coeff-En:   0.000D+00 0.000D+00 0.000D+00 0.000D+00 0.100D+01
 Coeff:      0.643D-02-0.482D-01-0.127D-01 0.155D+00 0.900D+00
 Gap=     0.231 Goal=   None    Shift=    0.000
 Gap=     0.231 Goal=   None    Shift=    0.000
 RMSDP=3.89D-05 MaxDP=2.04D-03 DE=-7.48D-03 OVMax= 6.40D-03

 Cycle   6  Pass 0  IDiag  1:
 RMSU=  2.53D-05    CP:  9.88D-01  1.12D+00  1.07D+00  1.02D+00  1.19D+00
[...]
    35 C(13)  Bbb    -0.0000    -0.000    -0.000    -0.000  0.8790 -0.4274  0.2115
              Bcc     0.0000     0.000     0.000     0.000  0.3256  0.8619  0.3886
 
              Baa    -0.0000    -0.000    -0.000    -0.000 -0.1630  0.6442  0.7473
    36 C(13)  Bbb    -0.0000    -0.000    -0.000    -0.000 -0.0214  0.7549 -0.6555
              Bcc     0.0000     0.000     0.000     0.000  0.9864  0.1229  0.1093
 
              Baa    -0.0000    -0.000    -0.000    -0.000  0.9815  0.1844 -0.0525
    37 F(19)  Bbb    -0.0000    -0.000    -0.000    -0.000  0.1131 -0.3357  0.9352
              Bcc     0.0000     0.000     0.000     0.000 -0.1548  0.9238  0.3503
 
              Baa    -0.0000    -0.000    -0.000    -0.000  0.2119 -0.4935  0.8435
    38 C(13)  Bbb    -0.0000    -0.000    -0.000    -0.000 -0.2004  0.8229  0.5318
              Bcc     0.0000     0.000     0.000     0.000  0.9565  0.2817 -0.0755
 
              Baa    -0.0000    -0.000    -0.000    -0.000  0.7383  0.6365  0.2230
    39 S(33)  Bbb     0.0000     0.000     0.000     0.000 -0.4180  0.6913 -0.5895
              Bcc     0.0000     0.000     0.000     0.000 -0.5293  0.3420  0.7764
 
              Baa    -0.0000    -0.000    -0.000    -0.000 -0.5074  0.4941  0.7060
    40 C(13)  Bbb     0.0000     0.000     0.000     0.000  0.8264  0.0470  0.5611
              Bcc     0.0000     0.000     0.000     0.000  0.2441  0.8681 -0.4322
 
              Baa    -0.0000    -0.000    -0.000    -0.000  0.9433 -0.3318 -0.0078
    41 N(14)  Bbb    -0.0000    -0.000    -0.000    -0.000  0.1445  0.3894  0.9097
              Bcc     0.0000     0.000     0.000     0.000  0.2988  0.8592 -0.4153
 
              Baa    -0.0000    -0.000    -0.000    -0.000 -0.0024  0.7264 -0.6873
    42 C(13)  Bbb    -0.0000    -0.000    -0.000    -0.000  0.8851 -0.3183 -0.3395
              Bcc     0.0000     0.000     0.000     0.000  0.4653  0.6091  0.6422
 
              Baa    -0.0000    -0.000    -0.000    -0.000  0.9904 -0.1374  0.0120
    43 C(13)  Bbb     0.0000     0.000     0.000     0.000  0.1254  0.9335  0.3361
              Bcc     0.0000     0.000     0.000     0.000 -0.0574 -0.3314  0.9418
 
              Baa    -0.0000    -0.000    -0.000    -0.000  0.3068  0.7722  0.5564
    44 S(33)  Bbb     0.0000     0.000     0.000     0.000 -0.4041 -0.4237  0.8107
              Bcc     0.0000     0.000     0.000     0.000  0.8618 -0.4735  0.1820
 
              Baa    -0.0000    -0.000    -0.000    -0.000 -0.3269 -0.0673  0.9427
    45 C(13)  Bbb    -0.0000    -0.000    -0.000    -0.000  0.9379  0.0992  0.3323
              Bcc     0.0000     0.000     0.000     0.000 -0.1159  0.9928  0.0307
 
              Baa    -0.0000    -0.000    -0.000    -0.000  0.6476 -0.5421  0.5354
    46 C(13)  Bbb    -0.0000    -0.000    -0.000    -0.000 -0.4069  0.3481  0.8446
              Bcc     0.0000     0.000     0.000     0.000  0.6442  0.7648 -0.0048
 
              Baa    -0.0000    -0.000    -0.000    -0.000  0.8732  0.4745 -0.1115
    47 C(13)  Bbb     0.0000     0.000     0.000     0.000  0.0204  0.1930  0.9810
              Bcc     0.0000     0.000     0.000     0.000 -0.4870  0.8588 -0.1589
 
              Baa    -0.0000    -0.000    -0.000    -0.000 -0.4486  0.8931 -0.0325
    48 F(19)  Bbb    -0.0000    -0.000    -0.000    -0.000  0.1436  0.1079  0.9837
              Bcc     0.0000     0.000     0.000     0.000  0.8821  0.4366 -0.1766
 
              Baa    -0.0000    -0.000    -0.000    -0.000  0.0472  0.0005  0.9989
    49 C(13)  Bbb    -0.0000    -0.000    -0.000    -0.000  0.1961  0.9805 -0.0097
              Bcc     0.0000     0.000     0.000     0.000  0.9795 -0.1963 -0.0461
 
              Baa    -0.0000    -0.000    -0.000    -0.000  0.2795 -0.4261  0.8604
    50 S(33)  Bbb    -0.0000    -0.000    -0.000    -0.000 -0.3759  0.7760  0.5064
              Bcc     0.0000     0.000     0.000     0.000  0.8835  0.4650 -0.0567
 
              Baa    -0.0000    -0.000    -0.000    -0.000  0.5143  0.8428  0.1588
    51 C(13)  Bbb     0.0000     0.000     0.000     0.000  0.0261 -0.2005  0.9793
              Bcc     0.0000     0.000     0.000     0.000  0.8572 -0.4995 -0.1251
 
              Baa    -0.0000    -0.000    -0.000    -0.000  0.1096  0.9484  0.2976
    52 N(14)  Bbb     0.0000     0.000     0.000     0.000  0.9503 -0.1878  0.2485
              Bcc     0.0000     0.000     0.000     0.000 -0.2915 -0.2555  0.9218
 
              Baa    -0.0000    -0.000    -0.000    -0.000  0.9813 -0.1871 -0.0455
    53 C(13)  Bbb     0.0000     0.000     0.000     0.000  0.1865  0.9823 -0.0171
              Bcc     0.0000     0.000     0.000     0.000  0.0479  0.0083  0.9988
 
              Baa    -0.0000    -0.000    -0.000    -0.000  0.0429 -0.0610  0.9972
    54 C(13)  Bbb    -0.0000    -0.000    -0.000    -0.000 -0.1624  0.9844  0.0672
              Bcc     0.0000     0.000     0.000     0.000  0.9858  0.1648 -0.0323
 
              Baa    -0.0000    -0.000    -0.000    -0.000  0.9850 -0.0380 -0.1686
    55 S(33)  Bbb     0.0000     0.000     0.000     0.000  0.1530  0.6452  0.7485
              Bcc     0.0000     0.000     0.000     0.000 -0.0803  0.7631 -0.6413
 
              Baa    -0.0000    -0.000    -0.000    -0.000 -0.3244  0.8599  0.3940
    56 C(13)  Bbb     0.0000     0.000     0.000     0.000  0.9121  0.3947 -0.1105
              Bcc     0.0000     0.000     0.000     0.000  0.2506 -0.3236  0.9124
 
              Baa    -0.0000    -0.000    -0.000    -0.000  0.3109 -0.5494  0.7756
    57 C(13)  Bbb    -0.0000    -0.000    -0.000    -0.000  0.8028 -0.2850 -0.5237
              Bcc     0.0000     0.000     0.000     0.000  0.5087  0.7855  0.3525
 
              Baa    -0.0000    -0.000    -0.000    -0.000  0.1350  0.8507  0.5081
    58 C(13)  Bbb     0.0000     0.000     0.000     0.000  0.7622  0.2384 -0.6018
              Bcc     0.0000     0.000     0.000     0.000  0.6331 -0.4685  0.6162
 
              Baa    -0.0000    -0.000    -0.000    -0.000  0.3874 -0.3876  0.8365
    59 F(19)  Bbb    -0.0000    -0.000    -0.000    -0.000  0.8223  0.5554 -0.1235
              Bcc     0.0000     0.000     0.000     0.000 -0.4167  0.7357  0.5339
 
              Baa    -0.0000    -0.000    -0.000    -0.000 -0.3420 -0.3890  0.8554
    60 C(13)  Bbb    -0.0000    -0.000    -0.000    -0.000  0.8982 -0.4029  0.1759
              Bcc     0.0000     0.000     0.000     0.000  0.2762  0.8285  0.4872
 
              Baa    -0.0000    -0.000    -0.000    -0.000  0.8121  0.3795  0.4433
    61 S(33)  Bbb    -0.0000    -0.000    -0.000    -0.000 -0.0553  0.8062 -0.5890
              Bcc     0.0000     0.000     0.000     0.000 -0.5809  0.4538  0.6757
 
              Baa    -0.0000    -0.000    -0.000    -0.000  0.9532 -0.1075 -0.2827
    62 C(13)  Bbb     0.0000     0.000     0.000     0.000  0.1752  0.9581  0.2266
              Bcc     0.0000     0.000     0.000     0.000  0.2465 -0.2655  0.9321
 
              Baa    -0.0000    -0.000    -0.000    -0.000  0.3289 -0.5688  0.7538
    63 N(14)  Bbb     0.0000     0.000     0.000     0.000  0.9173  0.3821 -0.1119
              Bcc     0.0000     0.000     0.000     0.000 -0.2244  0.7283  0.6475
 
              Baa    -0.0000    -0.000    -0.000    -0.000  0.9828  0.0430 -0.1796
    64 C(13)  Bbb     0.0000     0.000     0.000     0.000 -0.0515  0.9978 -0.0428
              Bcc     0.0000     0.000     0.000     0.000  0.1774  0.0513  0.9828
 
              Baa    -0.0000    -0.000    -0.000    -0.000  0.3200  0.7274 -0.6070
    65 C(13)  Bbb     0.0000     0.000     0.000     0.000  0.5776  0.3581  0.7336
              Bcc     0.0000     0.000     0.000     0.000  0.7510 -0.5854 -0.3056
 
              Baa    -0.0000    -0.000    -0.000    -0.000 -0.1223  0.1825  0.9756
    66 S(33)  Bbb    -0.0000    -0.000    -0.000    -0.000  0.7538 -0.6223  0.2109
              Bcc     0.0000     0.000     0.000     0.000  0.6456  0.7612 -0.0615
 
              Baa    -0.0000    -0.000    -0.000    -0.000  0.7914  0.2914 -0.5374
    67 C(13)  Bbb     0.0000     0.000     0.000     0.000 -0.2755  0.9548  0.1121
              Bcc     0.0000     0.000     0.000     0.000  0.5458  0.0594  0.8358
 
              Baa    -0.0000    -0.000    -0.000    -0.000 -0.1244  0.4621  0.8781
    68 C(13)  Bbb     0.0000     0.000     0.000     0.000  0.6281  0.7217 -0.2908
              Bcc     0.0000     0.000     0.000     0.000  0.7681 -0.5153  0.3800
 
              Baa    -0.0000    -0.000    -0.000    -0.000  0.8742 -0.1302 -0.4678
    69 C(13)  Bbb    -0.0000    -0.000    -0.000    -0.000  0.0292  0.9757 -0.2169
              Bcc     0.0000     0.000     0.000     0.000  0.4847  0.1760  0.8568
 
              Baa    -0.0000    -0.000    -0.000    -0.000 -0.6424 -0.3701  0.6711
    70 F(19)  Bbb    -0.0000    -0.000    -0.000    -0.000  0.1576  0.7932  0.5882
              Bcc     0.0000     0.000     0.000     0.000  0.7500 -0.4837  0.4512
 
              Baa    -0.0000    -0.000    -0.000    -0.000  0.7683 -0.5645 -0.3017
    71 C(13)  Bbb    -0.0000    -0.000    -0.000    -0.000  0.2079 -0.2257  0.9518
              Bcc     0.0000     0.000     0.000     0.000  0.6054  0.7940  0.0560
 
              Baa    -0.0000    -0.000    -0.000    -0.000  0.0482  0.5392  0.8408
    72 S(33)  Bbb    -0.0000    -0.000    -0.000    -0.000  0.6826 -0.6323  0.3663
              Bcc     0.0000     0.000     0.000     0.000  0.7292  0.5563 -0.3985
 
              Baa    -0.0000    -0.000    -0.000    -0.000  0.1831  0.5666  0.8034
    73 C(13)  Bbb    -0.0000    -0.000    -0.000    -0.000  0.8213  0.3610 -0.4418
              Bcc     0.0000     0.000     0.000     0.000 -0.5404  0.7407 -0.3992
 
              Baa    -0.0000    -0.000    -0.000    -0.000 -0.3533  0.8992 -0.2582
    74 N(14)  Bbb     0.0000     0.000     0.000     0.000  0.9339  0.3552 -0.0407
              Bcc     0.0000     0.000     0.000     0.000 -0.0552  0.2555  0.9652
 
              Baa    -0.0000    -0.000    -0.000    -0.000 -0.1207  0.4088  0.9046
    75 C(13)  Bbb     0.0000     0.000     0.000     0.000  0.9893  0.1249  0.0756
              Bcc     0.0000     0.000     0.000     0.000 -0.0821  0.9040 -0.4195
 
              Baa    -0.0000    -0.000    -0.000    -0.000  0.2442  0.6683  0.7026
    76 C(13)  Bbb     0.0000     0.000     0.000     0.000 -0.1940  0.7436 -0.6399
              Bcc     0.0000     0.000     0.000     0.000  0.9501 -0.0199 -0.3113
 
              Baa    -0.0000    -0.000    -0.000    -0.000  0.9644  0.2632  0.0272
    77 S(33)  Bbb     0.0000     0.000     0.000     0.000 -0.2235  0.8652 -0.4488
              Bcc     0.0000     0.000     0.000     0.000 -0.1416  0.4268  0.8932
 
              Baa    -0.0000    -0.000    -0.000    -0.000  0.4800  0.8738  0.0782
    78 H(1)   Bbb    -0.0000    -0.000    -0.000    -0.000 -0.1239 -0.0207  0.9921
              Bcc     0.0000     0.000     0.000     0.000  0.8685 -0.4859  0.0983
 
              Baa    -0.0000    -0.000    -0.000    -0.000  0.0021  0.0388  0.9992
    79 H(1)   Bbb    -0.0000    -0.000    -0.000    -0.000  0.8573  0.5144 -0.0218
              Bcc     0.0000     0.000     0.000     0.000 -0.5148  0.8567 -0.0322
 
              Baa    -0.0000    -0.000    -0.000    -0.000  0.9389 -0.1689  0.2999
    80 H(1)   Bbb    -0.0000    -0.000    -0.000    -0.000  0.3300  0.6891 -0.6452
              Bcc     0.0000     0.000     0.000     0.000 -0.0977  0.7047  0.7027
 
              Baa    -0.0000    -0.000    -0.000    -0.000  0.7617 -0.6463 -0.0459
    81 H(1)   Bbb    -0.0000    -0.000    -0.000    -0.000 -0.1078 -0.1963  0.9746
              Bcc     0.0000     0.000     0.000     0.000  0.6389  0.7375  0.2191
 
              Baa    -0.0000    -0.000    -0.000    -0.000  0.6000  0.6709  0.4357
    82 H(1)   Bbb    -0.0000    -0.000    -0.000    -0.000 -0.2351 -0.3727  0.8977
              Bcc     0.0000     0.000     0.000     0.000  0.7647 -0.6411 -0.0658
 
              Baa    -0.0000    -0.000    -0.000    -0.000  0.7242  0.6735 -0.1478
    83 H(1)   Bbb     0.0000     0.000     0.000     0.000  0.0198  0.1939  0.9808
              Bcc     0.0000     0.000     0.000     0.000 -0.6893  0.7133 -0.1271
 
              Baa    -0.0000    -0.000    -0.000    -0.000  0.8134 -0.5320  0.2353
    84 H(1)   Bbb     0.0000     0.000     0.000     0.000 -0.1039  0.2651  0.9586
              Bcc     0.0000     0.000     0.000     0.000  0.5723  0.8042 -0.1604
 
              Baa    -0.0000    -0.000    -0.000    -0.000  0.1040 -0.4745  0.8741
    85 H(1)   Bbb    -0.0000    -0.000    -0.000    -0.000  0.9464  0.3174  0.0597
              Bcc     0.0000     0.000     0.000     0.000 -0.3058  0.8210  0.4821
 
              Baa    -0.0000    -0.000    -0.000    -0.000 -0.2358 -0.2449  0.9404
    86 H(1)   Bbb     0.0000     0.000     0.000     0.000  0.8417 -0.5352  0.0717
              Bcc     0.0000     0.000     0.000     0.000  0.4858  0.8085  0.3323
 
              Baa    -0.0000    -0.000    -0.000    -0.000 -0.4085  0.2997  0.8622
    87 H(1)   Bbb    -0.0000    -0.000    -0.000    -0.000  0.9051  0.0108  0.4250
              Bcc     0.0000     0.000     0.000     0.000  0.1180  0.9540 -0.2756
 
              Baa    -0.0000    -0.000    -0.000    -0.000  0.3033  0.9373  0.1720
    88 H(1)   Bbb     0.0000     0.000     0.000     0.000  0.1694 -0.2306  0.9582
              Bcc     0.0000     0.000     0.000     0.000  0.9377 -0.2615 -0.2287
 
              Baa    -0.0000    -0.000    -0.000    -0.000 -0.3940  0.5600  0.7288
    89 H(1)   Bbb     0.0000     0.000     0.000     0.000 -0.0577  0.7763 -0.6277
              Bcc     0.0000     0.000     0.000     0.000  0.9173  0.2894  0.2736
 
              Baa    -0.0000    -0.000    -0.000    -0.000  0.5159  0.8164  0.2597
    90 H(1)   Bbb     0.0000     0.000     0.000     0.000  0.1596 -0.3894  0.9071
              Bcc     0.0000     0.000     0.000     0.000  0.8417 -0.4265 -0.3312
 
              Baa    -0.0000    -0.000    -0.000    -0.000  0.0836  0.5235  0.8479
    91 H(1)   Bbb     0.0000     0.000     0.000     0.000  0.8096  0.4604 -0.3641
              Bcc     0.0000     0.000     0.000     0.000 -0.5810  0.7169 -0.3853
 
              Baa    -0.0000    -0.000    -0.000    -0.000  0.2289  0.1089  0.9673
    92 H(1)   Bbb     0.0000     0.000     0.000     0.000  0.9475  0.2031 -0.2470
              Bcc     0.0000     0.000     0.000     0.000 -0.2234  0.9731 -0.0567
 
              Baa    -0.0000    -0.000    -0.000    -0.000  0.6825  0.5640  0.4650
    93 H(1)   Bbb     0.0000     0.000     0.000     0.000  0.0667 -0.6815  0.7288
              Bcc     0.0000     0.000     0.000     0.000  0.7279 -0.4663 -0.5027
 

 ---------------------------------------------------------------------------------

 No NMR shielding tensors so no spin-rotation constants.
 Leave Link  601 at Thu Jul 23 20:19:42 2020, MaxMem=  4026531840 cpu:              30.9 elap:               4.4
 (Enter /opt/ohpc/pub/libs/gaussian/g16-A.03/sandybridge/g16/l9999.exe)

 Test job not archived.
 1\1\GINC-SKYLAKE038\FOpt\ULC-wPBE\CC-pVDZ\C49H16F7N7S14\RDU230\23-Jul-
 2020\0\\#P uLC-wPBE/cc-pVDZ iop(3/107=0398900000, 3/108=0398900000) op
 t\\H16 C49 S14 N7 F7\\0,1\C,-24.6297382471,3.9044816547,-0.5055394486\
 C,-23.7755562858,4.4481543682,0.4045044455\C,-22.5298556723,3.77621163
 48,0.3750588406\F,-21.5116883071,4.1130868506,1.1724074021\C,-22.44812
 12244,2.7572433974,-0.5299056066\S,-23.9400670099,2.606127379,-1.37998
 85857\C,-21.3352434674,1.8703897078,-0.8219826855\N,-21.4047743691,0.9
 331812995,-1.7230584921\C,-20.2262382036,0.25379238,-1.8009530043\C,-1
 9.2382612159,0.6591144604,-0.9509935038\S,-19.8193066479,1.9754001368,
 0.0036987943\C,-17.8952163163,0.1069179727,-0.8165087457\C,-17.5269516
 071,-1.1982801772,-0.9987490058\C,-16.1370707174,-1.3615638798,-0.8094
 672991\F,-15.5326588084,-2.5470241941,-0.9272539347\C,-15.4598647312,-
 0.2224268544,-0.4819296123\S,-16.5505019663,1.1112681558,-0.419755813\
 C,-14.0479163668,-0.0317367429,-0.2063292127\N,-13.5473122214,1.130409
 9726,0.1003554016\C,-12.2053144878,1.0334373526,0.3148432634\C,-11.658
 6656934,-0.2092918298,0.1703326944\S,-12.9016338921,-1.3255872785,-0.2
 641819013\C,-10.2708850082,-0.6204451169,0.3376866385\C,-9.7986845694,
 -1.8629899768,0.6629709454\C,-8.3889102147,-1.8624378384,0.7458869445\
 F,-7.6898806043,-2.9567123596,1.057245233\C,-7.7956469736,-0.659464709
 ,0.4935759656\S,-8.9963914598,0.5211815921,0.1218376941\C,-6.389292868
 6,-0.3015899743,0.4971048756\N,-5.9759826204,0.9054492731,0.2355775419
 \C,-4.6166384339,0.9708353777,0.2972424683\C,-3.9702766446,-0.18845606
 75,0.6160000173\S,-5.1366950521,-1.439923933,0.8507020696\C,-2.5343409
 604,-0.3988204777,0.7594349808\C,-1.6171043141,0.5104962465,1.21112010
 55\C,-0.3143652334,-0.0344139778,1.191009666\F,0.7569172904,0.65573752
 34,1.5908140591\C,-0.2331672758,-1.3231073344,0.748185991\S,-1.8010526
 568,-1.8960564011,0.3178699873\C,0.9275140551,-2.1839633473,0.61282938
 71\N,0.842268714,-3.4066663541,0.1733297624\C,2.0728028783,-3.99035457
 38,0.1355371689\C,3.118660503,-3.2202941556,0.5551724925\S,2.525844684
 4,-1.667891403,1.024754829\C,4.5261438421,-3.5929868804,0.630955465\C,
 5.0393709338,-4.8263419293,0.9142132413\C,6.4544431474,-4.8264014788,0
 .8717014826\F,7.1510929909,-5.922238414,1.1347466538\C,7.0176035422,-3
 .6160119348,0.5731133309\S,5.7727888106,-2.4471110661,0.3065525782\C,8
 .4346678127,-3.2949464428,0.4775362455\N,9.3752408323,-4.1895504342,0.
 4077872915\C,10.5999361367,-3.5950159663,0.3430132481\C,10.6172675171,
 -2.2299400614,0.3529889353\S,8.9947071103,-1.6533226241,0.4613595765\C
 ,11.7603550346,-1.3286312754,0.2907737638\C,11.8449347683,-0.048169302
 1,0.7656153152\C,13.1270199777,0.4952941424,0.5295057606\F,13.46028583
 66,1.7320410734,0.9071164479\C,14.0004221293,-0.3397241475,-0.10479393
 67\S,13.231155217,-1.8443993395,-0.4475223526\C,15.3805946884,-0.11529
 17416,-0.494683004\N,16.0896292094,-1.0235496096,-1.1011981402\C,17.34
 8173414,-0.5632890947,-1.3485806974\C,17.6162372451,0.7112624998,-0.94
 01441755\S,16.2059234435,1.374496293,-0.1968027383\C,18.863601509,1.45
 30080416,-1.0868934082\C,19.7572424505,1.3513740779,-2.1172803505\C,20
 .8651664985,2.2041986023,-1.911588227\F,21.8736910616,2.2880410855,-2.
 7841100909\C,20.8201548799,2.9444880574,-0.7665558821\S,19.3829780353,
 2.5794755888,0.1119310388\C,21.7668657869,3.9198788706,-0.2508056984\N
 ,21.5726674922,4.5494703407,0.8709322334\C,22.6086753349,5.4060310514,
 1.1245499172\C,23.5965593294,5.4297545253,0.1934137881\S,23.2316896336
 ,4.3331736411,-1.0723471761\H,-25.6536965103,4.2101952397,-0.709855325
 5\H,-24.0014920111,5.2802432421,1.0674627667\H,-20.1179286831,-0.54762
 09522,-2.5312221663\H,-18.2084745973,-2.0134264639,-1.2308490018\H,-11
 .6451013097,1.9243612362,0.5991460888\H,-10.4153095378,-2.7384235848,0
 .8565699391\H,-4.1155580029,1.912736759,0.0759936056\H,-1.8517638907,1
 .511047472,1.5670210861\H,2.171004847,-5.0099657669,-0.2358031181\H,4.
 4466026325,-5.7012724281,1.1719067428\H,11.4924556549,-4.2195558648,0.
 2973937049\H,11.0473206155,0.485734611,1.2783427604\H,18.0731371374,-1
 .2190168057,-1.8297610024\H,19.6294148461,0.7229765536,-2.9957964013\H
 ,22.5910817259,6.0079275158,2.0323045615\H,24.5055376552,6.0259133097,
 0.1862765092\\Version=EM64L-G16RevA.03\State=1-A\HF=-8530.0752196\S2=0
 .\S2-1=0.\S2A=0.\RMSD=8.960e-09\RMSF=4.656e-06\Dipole=-2.1649989,0.746
 8734,0.1612857\Quadrupole=70.7262227,-28.2477037,-42.478519,5.5689172,
 -9.3868082,4.5687436\PG=C01 [X(C49H16F7N7S14)]\\@


0EVERYBODY IS IGNORANT, ONLY ON DIFFERENT SUBJECTS.
0          WILL ROGERS
 Job cpu time:       3 days  2 hours 19 minutes 30.6 seconds.
 Elapsed time:       0 days  9 hours 28 minutes 45.2 seconds.
 File lengths (MBytes):  RWF=   1660 Int=      0 D2E=      0 Chk=    148 Scr=      8
 Normal termination of Gaussian 16 at Thu Jul 23 20:19:42 2020.
