 Entering Gaussian System, Link 0=g16
 Input=mols_55_3_00_C-C_opt_0.gjf
 Output=mols_55_3_00_C-C_opt_0.log
 Initial command:
 /opt/ohpc/pub/libs/gaussian/g16-A.03/sandybridge/g16/l1.exe "/mnt/gpfs2_4m/scratch/rdu230/ondemand/projects/dihedral_energies/7trial/wtuning/mols_55_3_00_C-C/Gau-222868.inp" -scrdir="/mnt/gpfs2_4m/scratch/rdu230/ondemand/projects/dihedral_energies/7trial/wtuning/mols_55_3_00_C-C/"
 Entering Link 1 = /opt/ohpc/pub/libs/gaussian/g16-A.03/sandybridge/g16/l1.exe PID=    222871.
  
 Copyright (c) 1988,1990,1992,1993,1995,1998,2003,2009,2016,
            Gaussian, Inc.  All Rights Reserved.
  
 This is part of the Gaussian(R) 16 program.  It is based on
 the Gaussian(R) 09 system (copyright 2009, Gaussian, Inc.),
 the Gaussian(R) 03 system (copyright 2003, Gaussian, Inc.),
 the Gaussian(R) 98 system (copyright 1998, Gaussian, Inc.),
 the Gaussian(R) 94 system (copyright 1995, Gaussian, Inc.),
 the Gaussian 92(TM) system (copyright 1992, Gaussian, Inc.),
 the Gaussian 90(TM) system (copyright 1990, Gaussian, Inc.),
 the Gaussian 88(TM) system (copyright 1988, Gaussian, Inc.),
 the Gaussian 86(TM) system (copyright 1986, Carnegie Mellon
 University), and the Gaussian 82(TM) system (copyright 1983,
 Carnegie Mellon University). Gaussian is a federally registered
 trademark of Gaussian, Inc.
  
 This software contains proprietary and confidential information,
 including trade secrets, belonging to Gaussian, Inc.
  
 This software is provided under written license and may be
 used, copied, transmitted, or stored only in accord with that
 written license.
  
 The following legend is applicable only to US Government
 contracts under FAR:
  
                    RESTRICTED RIGHTS LEGEND
  
 Use, reproduction and disclosure by the US Government is
 subject to restrictions as set forth in subparagraphs (a)
 and (c) of the Commercial Computer Software - Restricted
 Rights clause in FAR 52.227-19.
  
 Gaussian, Inc.
 340 Quinnipiac St., Bldg. 40, Wallingford CT 06492
  
  
 ---------------------------------------------------------------
 Warning -- This program may not be used in any manner that
 competes with the business of Gaussian, Inc. or will provide
 assistance to any competitor of Gaussian, Inc.  The licensee
 of this program is prohibited from giving any competitor of
 Gaussian, Inc. access to this program.  By using this program,
 the user acknowledges that Gaussian, Inc. is engaged in the
 business of creating and licensing software in the field of
 computational chemistry and represents and warrants to the
 licensee that it is not a competitor of Gaussian, Inc. and that
 it will not use this program in any manner prohibited above.
 ---------------------------------------------------------------
  

 Cite this work as:
 Gaussian 16, Revision A.03,
 M. J. Frisch, G. W. Trucks, H. B. Schlegel, G. E. Scuseria, 
 M. A. Robb, J. R. Cheeseman, G. Scalmani, V. Barone, 
 G. A. Petersson, H. Nakatsuji, X. Li, M. Caricato, A. V. Marenich, 
 J. Bloino, B. G. Janesko, R. Gomperts, B. Mennucci, H. P. Hratchian, 
 J. V. Ortiz, A. F. Izmaylov, J. L. Sonnenberg, D. Williams-Young, 
 F. Ding, F. Lipparini, F. Egidi, J. Goings, B. Peng, A. Petrone, 
 T. Henderson, D. Ranasinghe, V. G. Zakrzewski, J. Gao, N. Rega, 
 G. Zheng, W. Liang, M. Hada, M. Ehara, K. Toyota, R. Fukuda, 
 J. Hasegawa, M. Ishida, T. Nakajima, Y. Honda, O. Kitao, H. Nakai, 
 T. Vreven, K. Throssell, J. A. Montgomery, Jr., J. E. Peralta, 
 F. Ogliaro, M. J. Bearpark, J. J. Heyd, E. N. Brothers, K. N. Kudin, 
 V. N. Staroverov, T. A. Keith, R. Kobayashi, J. Normand, 
 K. Raghavachari, A. P. Rendell, J. C. Burant, S. S. Iyengar, 
 J. Tomasi, M. Cossi, J. M. Millam, M. Klene, C. Adamo, R. Cammi, 
 J. W. Ochterski, R. L. Martin, K. Morokuma, O. Farkas, 
 J. B. Foresman, and D. J. Fox, Gaussian, Inc., Wallingford CT, 2016.
 
 ******************************************
 Gaussian 16:  EM64L-G16RevA.03 25-Dec-2016
                24-Jul-2020 
 ******************************************
 %mem=30GB
 %nproc=8
 Will use up to    8 processors via shared memory.
 ---------------------------------------------------------------
 #P uLC-wPBE/cc-pVDZ iop(3/107=0124000000, 3/108=0124000000) opt
 ---------------------------------------------------------------
 1/18=20,19=15,26=3,38=1/1,3;
 2/9=110,12=2,17=6,18=5,40=1/2;
 3/5=16,11=2,25=1,30=1,71=1,74=-41,107=124000000,108=124000000,116=2/1,2,3;
 4//1;
 5/5=2,38=5/2;
 6/7=2,8=2,9=2,10=2,28=1/1;
 7//1,2,3,16;
 1/18=20,19=15,26=3/3(2);
 2/9=110/2;
 99//99;
 2/9=110/2;
 3/5=16,11=2,25=1,30=1,71=1,74=-41,107=124000000,108=124000000,116=2/1,2,3;
 4/5=5,16=3,69=1/1;
 5/5=2,38=5/2;
 7//1,2,3,16;
 1/18=20,19=15,26=3/3(-5);
 2/9=110/2;
 6/7=2,8=2,9=2,10=2,19=2,28=1/1;
 99/9=1/99;
 Leave Link    1 at Fri Jul 24 12:11:57 2020, MaxMem=  4026531840 cpu:               2.7 elap:               0.4
 (Enter /opt/ohpc/pub/libs/gaussian/g16-A.03/sandybridge/g16/l101.exe)
 ----------
 H14 C24 S6
 ----------
 Symbolic Z-matrix:
 Charge =  0 Multiplicity = 1
 C                    -10.98931  -0.14548   0.00035 
 C                    -10.51793  -1.35232   0.04021 
 C                    -9.11143  -1.36417   0.02548 
 C                    -8.53439  -0.06749   0.01196 
 S                    -9.81073   1.05988  -0.01571 
 C                    -7.07954   0.24853  -0.03397 
 C                    -6.53929   1.48072  -0.01657 
 C                    -5.11602   1.50433  -0.04546 
 C                    -4.62284   0.27764   0.00886 
 S                    -5.83279  -0.92861   0.03079 
 C                    -3.24521  -0.15562  -0.03552 
 C                    -2.7009   -1.47853   0.02264 
 C                    -1.21086  -1.43016  -0.01464 
 C                    -0.69014  -0.23211  -0.00211 
 S                    -1.9751    1.02915   0.02843 
 C                     0.65803   0.19744   0.01953 
 C                     1.21405   1.42871   0.02026 
 C                     2.71974   1.45111   0.02927 
 C                     3.20544   0.17616   0.0474 
 S                     1.92021  -1.03304   0.02809 
 C                     4.59266  -0.20478   0.03996 
 C                     5.13029  -1.46801   0.02892 
 C                     6.60306  -1.49857  -0.02209 
 C                     7.14924  -0.21747  -0.01096 
 S                     5.90726   0.94898   0.03064 
 C                     8.56528   0.12673  -0.01663 
 C                     9.05412   1.36898   0.04333 
 C                     10.49553   1.35043   0.04265 
 C                     11.03394   0.06257   0.01973 
 S                     9.76807  -1.08824  -0.04855 
 H                    -12.05412   0.18776  -0.0453 
 H                    -11.13181  -2.25893  -0.04831 
 H                    -8.53677  -2.30655   0.00829 
 H                    -7.11073   2.46714  -0.01008 
 H                    -4.57203   2.44177  -0.02139 
 H                    -3.22996  -2.34576   0.00167 
 H                    -0.69171  -2.37276  -0.04509 
 H                     0.64115   2.37386   0.0386 
 H                     3.24977   2.31347   0.02842 
 H                     4.53874  -2.36483  -0.01808 
 H                     7.18013  -2.39674  -0.00029 
 H                     8.48987   2.32932   0.03783 
 H                     11.1292   2.2593    0.04915 
 H                     11.99372  -0.21201   0.00825 
 
 ITRead=  0  0  0  0  0  0  0  0  0  0  0  0  0  0  0  0  0  0  0  0
 ITRead=  0  0  0  0  0  0  0  0  0  0  0  0  0  0  0  0  0  0  0  0
 ITRead=  0  0  0  0
 MicOpt= -1 -1 -1 -1 -1 -1 -1 -1 -1 -1 -1 -1 -1 -1 -1 -1 -1 -1 -1 -1
 MicOpt= -1 -1 -1 -1 -1 -1 -1 -1 -1 -1 -1 -1 -1 -1 -1 -1 -1 -1 -1 -1
 MicOpt= -1 -1 -1 -1
 NAtoms=     44 NQM=       44 NQMF=       0 NMMI=      0 NMMIF=      0
                NMic=       0 NMicF=      0.
                    Isotopes and Nuclear Properties:
 (Nuclear quadrupole moments (NQMom) in fm**2, nuclear magnetic moments (NMagM)
  in nuclear magnetons)

  Atom         1           2           3           4           5           6           7           8           9          10
 IAtWgt=          12          12          12          12          32          12          12          12          12          32
 AtmWgt=  12.0000000  12.0000000  12.0000000  12.0000000  31.9720718  12.0000000  12.0000000  12.0000000  12.0000000  31.9720718
 NucSpn=           0           0           0           0           0           0           0           0           0           0
 AtZEff=  -0.0000000  -0.0000000  -0.0000000  -0.0000000  -0.0000000  -0.0000000  -0.0000000  -0.0000000  -0.0000000  -0.0000000
 NQMom=    0.0000000   0.0000000   0.0000000   0.0000000   0.0000000   0.0000000   0.0000000   0.0000000   0.0000000   0.0000000
 NMagM=    0.0000000   0.0000000   0.0000000   0.0000000   0.0000000   0.0000000   0.0000000   0.0000000   0.0000000   0.0000000
 AtZNuc=   6.0000000   6.0000000   6.0000000   6.0000000  16.0000000   6.0000000   6.0000000   6.0000000   6.0000000  16.0000000

  Atom        11          12          13          14          15          16          17          18          19          20
 IAtWgt=          12          12          12          12          32          12          12          12          12          32
 AtmWgt=  12.0000000  12.0000000  12.0000000  12.0000000  31.9720718  12.0000000  12.0000000  12.0000000  12.0000000  31.9720718
 NucSpn=           0           0           0           0           0           0           0           0           0           0
 AtZEff=  -0.0000000  -0.0000000  -0.0000000  -0.0000000  -0.0000000  -0.0000000  -0.0000000  -0.0000000  -0.0000000  -0.0000000
 NQMom=    0.0000000   0.0000000   0.0000000   0.0000000   0.0000000   0.0000000   0.0000000   0.0000000   0.0000000   0.0000000
 NMagM=    0.0000000   0.0000000   0.0000000   0.0000000   0.0000000   0.0000000   0.0000000   0.0000000   0.0000000   0.0000000
 AtZNuc=   6.0000000   6.0000000   6.0000000   6.0000000  16.0000000   6.0000000   6.0000000   6.0000000   6.0000000  16.0000000

  Atom        21          22          23          24          25          26          27          28          29          30
 IAtWgt=          12          12          12          12          32          12          12          12          12          32
 AtmWgt=  12.0000000  12.0000000  12.0000000  12.0000000  31.9720718  12.0000000  12.0000000  12.0000000  12.0000000  31.9720718
 NucSpn=           0           0           0           0           0           0           0           0           0           0
 AtZEff=  -0.0000000  -0.0000000  -0.0000000  -0.0000000  -0.0000000  -0.0000000  -0.0000000  -0.0000000  -0.0000000  -0.0000000
 NQMom=    0.0000000   0.0000000   0.0000000   0.0000000   0.0000000   0.0000000   0.0000000   0.0000000   0.0000000   0.0000000
 NMagM=    0.0000000   0.0000000   0.0000000   0.0000000   0.0000000   0.0000000   0.0000000   0.0000000   0.0000000   0.0000000
 AtZNuc=   6.0000000   6.0000000   6.0000000   6.0000000  16.0000000   6.0000000   6.0000000   6.0000000   6.0000000  16.0000000

  Atom        31          32          33          34          35          36          37          38          39          40
 IAtWgt=           1           1           1           1           1           1           1           1           1           1
 AtmWgt=   1.0078250   1.0078250   1.0078250   1.0078250   1.0078250   1.0078250   1.0078250   1.0078250   1.0078250   1.0078250
 NucSpn=           1           1           1           1           1           1           1           1           1           1
 AtZEff=  -0.0000000  -0.0000000  -0.0000000  -0.0000000  -0.0000000  -0.0000000  -0.0000000  -0.0000000  -0.0000000  -0.0000000
 NQMom=    0.0000000   0.0000000   0.0000000   0.0000000   0.0000000   0.0000000   0.0000000   0.0000000   0.0000000   0.0000000
 NMagM=    2.7928460   2.7928460   2.7928460   2.7928460   2.7928460   2.7928460   2.7928460   2.7928460   2.7928460   2.7928460
 AtZNuc=   1.0000000   1.0000000   1.0000000   1.0000000   1.0000000   1.0000000   1.0000000   1.0000000   1.0000000   1.0000000

  Atom        41          42          43          44
 IAtWgt=           1           1           1           1
 AtmWgt=   1.0078250   1.0078250   1.0078250   1.0078250
 NucSpn=           1           1           1           1
 AtZEff=  -0.0000000  -0.0000000  -0.0000000  -0.0000000
 NQMom=    0.0000000   0.0000000   0.0000000   0.0000000
 NMagM=    2.7928460   2.7928460   2.7928460   2.7928460
 AtZNuc=   1.0000000   1.0000000   1.0000000   1.0000000
 Leave Link  101 at Fri Jul 24 12:11:57 2020, MaxMem=  4026531840 cpu:               2.8 elap:               0.4
 (Enter /opt/ohpc/pub/libs/gaussian/g16-A.03/sandybridge/g16/l103.exe)

 GradGradGradGradGradGradGradGradGradGradGradGradGradGradGradGradGradGrad
 Berny optimization.
 Initialization pass.
                           ----------------------------
                           !    Initial Parameters    !
                           ! (Angstroms and Degrees)  !
 --------------------------                            --------------------------
 ! Name  Definition              Value          Derivative Info.                !
 --------------------------------------------------------------------------------
 ! R1    R(1,2)                  1.2962         estimate D2E/DX2                !
 ! R2    R(1,5)                  1.6859         estimate D2E/DX2                !
 ! R3    R(1,31)                 1.1167         estimate D2E/DX2                !
 ! R4    R(2,3)                  1.4066         estimate D2E/DX2                !
 ! R5    R(2,32)                 1.0985         estimate D2E/DX2                !
 ! R6    R(3,4)                  1.4193         estimate D2E/DX2                !
 ! R7    R(3,33)                 1.1039         estimate D2E/DX2                !
 ! R8    R(4,5)                  1.7032         estimate D2E/DX2                !
 ! R9    R(4,6)                  1.4895         estimate D2E/DX2                !
 ! R10   R(6,7)                  1.3455         estimate D2E/DX2                !
 ! R11   R(6,10)                 1.7159         estimate D2E/DX2                !
 ! R12   R(7,8)                  1.4238         estimate D2E/DX2                !
 ! R13   R(7,34)                 1.14           estimate D2E/DX2                !
 ! R14   R(8,9)                  1.3232         estimate D2E/DX2                !
 ! R15   R(8,35)                 1.0841         estimate D2E/DX2                !
 ! R16   R(9,10)                 1.7086         estimate D2E/DX2                !
 ! R17   R(9,11)                 1.4448         estimate D2E/DX2                !
 ! R18   R(11,12)                1.4317         estimate D2E/DX2                !
 ! R19   R(11,15)                1.7381         estimate D2E/DX2                !
 ! R20   R(12,13)                1.4913         estimate D2E/DX2                !
 ! R21   R(12,36)                1.0161         estimate D2E/DX2                !
 ! R22   R(13,14)                1.3064         estimate D2E/DX2                !
 ! R23   R(13,37)                1.0765         estimate D2E/DX2                !
 ! R24   R(14,15)                1.8008         estimate D2E/DX2                !
 ! R25   R(14,16)                1.4151         estimate D2E/DX2                !
 ! R26   R(16,17)                1.351          estimate D2E/DX2                !
 ! R27   R(16,20)                1.7627         estimate D2E/DX2                !
 ! R28   R(17,18)                1.5059         estimate D2E/DX2                !
 ! R29   R(17,38)                1.1054         estimate D2E/DX2                !
 ! R30   R(18,19)                1.3644         estimate D2E/DX2                !
 ! R31   R(18,39)                1.0122         estimate D2E/DX2                !
 ! R32   R(19,20)                1.7647         estimate D2E/DX2                !
 ! R33   R(19,21)                1.4386         estimate D2E/DX2                !
 ! R34   R(21,22)                1.3729         estimate D2E/DX2                !
 ! R35   R(21,25)                1.7491         estimate D2E/DX2                !
 ! R36   R(22,23)                1.474          estimate D2E/DX2                !
 ! R37   R(22,40)                1.0754         estimate D2E/DX2                !
 ! R38   R(23,24)                1.3927         estimate D2E/DX2                !
 ! R39   R(23,41)                1.0678         estimate D2E/DX2                !
 ! R40   R(24,25)                1.7044         estimate D2E/DX2                !
 ! R41   R(24,26)                1.4573         estimate D2E/DX2                !
 ! R42   R(26,27)                1.3363         estimate D2E/DX2                !
 ! R43   R(26,30)                1.7099         estimate D2E/DX2                !
 ! R44   R(27,28)                1.4415         estimate D2E/DX2                !
 ! R45   R(27,42)                1.1139         estimate D2E/DX2                !
 ! R46   R(28,29)                1.3961         estimate D2E/DX2                !
 ! R47   R(28,43)                1.108          estimate D2E/DX2                !
 ! R48   R(29,30)                1.7121         estimate D2E/DX2                !
 ! R49   R(29,44)                0.9983         estimate D2E/DX2                !
 ! A1    A(2,1,5)              114.314          estimate D2E/DX2                !
 ! A2    A(2,1,31)             128.7446         estimate D2E/DX2                !
 ! A3    A(5,1,31)             116.9279         estimate D2E/DX2                !
 ! A4    A(1,2,3)              111.7852         estimate D2E/DX2                !
 ! A5    A(1,2,32)             124.244          estimate D2E/DX2                !
 ! A6    A(3,2,32)             123.4361         estimate D2E/DX2                !
 ! A7    A(2,3,4)              113.511          estimate D2E/DX2                !
 ! A8    A(2,3,33)             121.8619         estimate D2E/DX2                !
 ! A9    A(4,3,33)             124.6186         estimate D2E/DX2                !
 ! A10   A(3,4,5)              107.4701         estimate D2E/DX2                !
 ! A11   A(3,4,6)              126.2438         estimate D2E/DX2                !
 ! A12   A(5,4,6)              126.2299         estimate D2E/DX2                !
 ! A13   A(1,5,4)               92.8931         estimate D2E/DX2                !
 ! A14   A(4,6,7)              125.8788         estimate D2E/DX2                !
 ! A15   A(4,6,10)             124.2625         estimate D2E/DX2                !
 ! A16   A(7,6,10)             109.634          estimate D2E/DX2                !
 ! A17   A(6,7,8)              114.6013         estimate D2E/DX2                !
 ! A18   A(6,7,34)             126.242          estimate D2E/DX2                !
 ! A19   A(8,7,34)             119.1341         estimate D2E/DX2                !
 ! A20   A(7,8,9)              110.8775         estimate D2E/DX2                !
 ! A21   A(7,8,35)             121.0305         estimate D2E/DX2                !
 ! A22   A(9,8,35)             127.8573         estimate D2E/DX2                !
 ! A23   A(8,9,10)             113.0205         estimate D2E/DX2                !
 ! A24   A(8,9,11)             129.205          estimate D2E/DX2                !
 ! A25   A(10,9,11)            117.6386         estimate D2E/DX2                !
 ! A26   A(6,10,9)              91.7037         estimate D2E/DX2                !
 ! A27   A(9,11,12)            129.6679         estimate D2E/DX2                !
 ! A28   A(9,11,15)            119.4215         estimate D2E/DX2                !
 ! A29   A(12,11,15)           110.5203         estimate D2E/DX2                !
 ! A30   A(11,12,13)           110.4188         estimate D2E/DX2                !
 ! A31   A(11,12,36)           126.1468         estimate D2E/DX2                !
 ! A32   A(13,12,36)           123.1898         estimate D2E/DX2                !
 ! A33   A(12,13,14)           115.3261         estimate D2E/DX2                !
 ! A34   A(12,13,37)           117.0096         estimate D2E/DX2                !
 ! A35   A(14,13,37)           127.6639         estimate D2E/DX2                !
 ! A36   A(13,14,15)           110.9811         estimate D2E/DX2                !
 ! A37   A(13,14,16)           131.1673         estimate D2E/DX2                !
 ! A38   A(15,14,16)           117.8357         estimate D2E/DX2                !
 ! A39   A(11,15,14)            92.4864         estimate D2E/DX2                !
 ! A40   A(14,16,17)           131.9707         estimate D2E/DX2                !
 ! A41   A(14,16,20)           118.0568         estimate D2E/DX2                !
 ! A42   A(17,16,20)           109.9676         estimate D2E/DX2                !
 ! A43   A(16,17,18)           115.1553         estimate D2E/DX2                !
 ! A44   A(16,17,38)           124.4701         estimate D2E/DX2                !
 ! A45   A(18,17,38)           120.3577         estimate D2E/DX2                !
 ! A46   A(17,18,19)           110.0048         estimate D2E/DX2                !
 ! A47   A(17,18,39)           122.427          estimate D2E/DX2                !
 ! A48   A(19,18,39)           127.5668         estimate D2E/DX2                !
 ! A49   A(18,19,20)           112.387          estimate D2E/DX2                !
 ! A50   A(18,19,21)           126.2005         estimate D2E/DX2                !
 ! A51   A(20,19,21)           121.3845         estimate D2E/DX2                !
 ! A52   A(16,20,19)            92.4776         estimate D2E/DX2                !
 ! A53   A(19,21,22)           128.411          estimate D2E/DX2                !
 ! A54   A(19,21,25)           123.3741         estimate D2E/DX2                !
 ! A55   A(22,21,25)           108.2133         estimate D2E/DX2                !
 ! A56   A(21,22,23)           114.2449         estimate D2E/DX2                !
 ! A57   A(21,22,40)           123.5226         estimate D2E/DX2                !
 ! A58   A(23,22,40)           122.0619         estimate D2E/DX2                !
 ! A59   A(22,23,24)           111.8701         estimate D2E/DX2                !
 ! A60   A(22,23,41)           123.8301         estimate D2E/DX2                !
 ! A61   A(24,23,41)           124.1677         estimate D2E/DX2                !
 ! A62   A(23,24,25)           110.118          estimate D2E/DX2                !
 ! A63   A(23,24,26)           126.7487         estimate D2E/DX2                !
 ! A64   A(25,24,26)           123.1294         estimate D2E/DX2                !
 ! A65   A(21,25,24)            95.5305         estimate D2E/DX2                !
 ! A66   A(24,26,27)           125.089          estimate D2E/DX2                !
 ! A67   A(24,26,30)           121.048          estimate D2E/DX2                !
 ! A68   A(27,26,30)           113.8311         estimate D2E/DX2                !
 ! A69   A(26,27,28)           110.7195         estimate D2E/DX2                !
 ! A70   A(26,27,42)           128.0216         estimate D2E/DX2                !
 ! A71   A(28,27,42)           121.1733         estimate D2E/DX2                !
 ! A72   A(27,28,29)           113.4225         estimate D2E/DX2                !
 ! A73   A(27,28,43)           124.1458         estimate D2E/DX2                !
 ! A74   A(29,28,43)           122.4289         estimate D2E/DX2                !
 ! A75   A(28,29,30)           109.6067         estimate D2E/DX2                !
 ! A76   A(28,29,44)           128.6574         estimate D2E/DX2                !
 ! A77   A(30,29,44)           121.7            estimate D2E/DX2                !
 ! A78   A(26,30,29)            92.3925         estimate D2E/DX2                !
 ! D1    D(5,1,2,3)             -1.5489         estimate D2E/DX2                !
 ! D2    D(5,1,2,32)          -173.3936         estimate D2E/DX2                !
 ! D3    D(31,1,2,3)           177.0592         estimate D2E/DX2                !
 ! D4    D(31,1,2,32)            5.2145         estimate D2E/DX2                !
 ! D5    D(2,1,5,4)              0.7279         estimate D2E/DX2                !
 ! D6    D(31,1,5,4)          -178.0545         estimate D2E/DX2                !
 ! D7    D(1,2,3,4)              1.8041         estimate D2E/DX2                !
 ! D8    D(1,2,3,33)          -177.1842         estimate D2E/DX2                !
 ! D9    D(32,2,3,4)           173.726          estimate D2E/DX2                !
 ! D10   D(32,2,3,33)           -5.2623         estimate D2E/DX2                !
 ! D11   D(2,3,4,5)             -1.2211         estimate D2E/DX2                !
 ! D12   D(2,3,4,6)           -178.626          estimate D2E/DX2                !
 ! D13   D(33,3,4,5)           177.7347         estimate D2E/DX2                !
 ! D14   D(33,3,4,6)             0.3298         estimate D2E/DX2                !
 ! D15   D(3,4,5,1)              0.3142         estimate D2E/DX2                !
 ! D16   D(6,4,5,1)            177.7195         estimate D2E/DX2                !
 ! D17   D(3,4,6,7)           -178.4252         estimate D2E/DX2                !
 ! D18   D(3,4,6,10)            -4.4436         estimate D2E/DX2                !
 ! D19   D(5,4,6,7)              4.644          estimate D2E/DX2                !
 ! D20   D(5,4,6,10)           178.6256         estimate D2E/DX2                !
 ! D21   D(4,6,7,8)            178.9004         estimate D2E/DX2                !
 ! D22   D(4,6,7,34)            -2.8563         estimate D2E/DX2                !
 ! D23   D(10,6,7,8)             4.1792         estimate D2E/DX2                !
 ! D24   D(10,6,7,34)         -177.5775         estimate D2E/DX2                !
 ! D25   D(4,6,10,9)          -177.185          estimate D2E/DX2                !
 ! D26   D(7,6,10,9)            -2.36           estimate D2E/DX2                !
 ! D27   D(6,7,8,9)             -4.3096         estimate D2E/DX2                !
 ! D28   D(6,7,8,35)          -179.1626         estimate D2E/DX2                !
 ! D29   D(34,7,8,9)           177.3124         estimate D2E/DX2                !
 ! D30   D(34,7,8,35)            2.4594         estimate D2E/DX2                !
 ! D31   D(7,8,9,10)             2.3436         estimate D2E/DX2                !
 ! D32   D(7,8,9,11)           177.9467         estimate D2E/DX2                !
 ! D33   D(35,8,9,10)          176.7562         estimate D2E/DX2                !
 ! D34   D(35,8,9,11)           -7.6407         estimate D2E/DX2                !
 ! D35   D(8,9,10,6)            -0.0575         estimate D2E/DX2                !
 ! D36   D(11,9,10,6)         -176.2124         estimate D2E/DX2                !
 ! D37   D(8,9,11,12)          179.9876         estimate D2E/DX2                !
 ! D38   D(8,9,11,15)            7.8935         estimate D2E/DX2                !
 ! D39   D(10,9,11,12)          -4.5808         estimate D2E/DX2                !
 ! D40   D(10,9,11,15)        -176.6749         estimate D2E/DX2                !
 ! D41   D(9,11,12,13)        -178.1739         estimate D2E/DX2                !
 ! D42   D(9,11,12,36)           7.392          estimate D2E/DX2                !
 ! D43   D(15,11,12,13)         -5.5235         estimate D2E/DX2                !
 ! D44   D(15,11,12,36)       -179.9577         estimate D2E/DX2                !
 ! D45   D(9,11,15,14)         177.852          estimate D2E/DX2                !
 ! D46   D(12,11,15,14)          4.3432         estimate D2E/DX2                !
 ! D47   D(11,12,13,14)          4.3051         estimate D2E/DX2                !
 ! D48   D(11,12,13,37)       -175.8918         estimate D2E/DX2                !
 ! D49   D(36,12,13,14)        178.9351         estimate D2E/DX2                !
 ! D50   D(36,12,13,37)         -1.2618         estimate D2E/DX2                !
 ! D51   D(12,13,14,15)         -1.0147         estimate D2E/DX2                !
 ! D52   D(12,13,14,16)        177.4712         estimate D2E/DX2                !
 ! D53   D(37,13,14,15)        179.2069         estimate D2E/DX2                !
 ! D54   D(37,13,14,16)         -2.3072         estimate D2E/DX2                !
 ! D55   D(13,14,15,11)         -1.9373         estimate D2E/DX2                !
 ! D56   D(16,14,15,11)        179.3516         estimate D2E/DX2                !
 ! D57   D(13,14,16,17)        179.2897         estimate D2E/DX2                !
 ! D58   D(13,14,16,20)          0.1886         estimate D2E/DX2                !
 ! D59   D(15,14,16,17)         -2.309          estimate D2E/DX2                !
 ! D60   D(15,14,16,20)        178.5899         estimate D2E/DX2                !
 ! D61   D(14,16,17,18)       -179.2129         estimate D2E/DX2                !
 ! D62   D(14,16,17,38)          2.2825         estimate D2E/DX2                !
 ! D63   D(20,16,17,18)         -0.057          estimate D2E/DX2                !
 ! D64   D(20,16,17,38)       -178.5616         estimate D2E/DX2                !
 ! D65   D(14,16,20,19)        179.7707         estimate D2E/DX2                !
 ! D66   D(17,16,20,19)          0.4818         estimate D2E/DX2                !
 ! D67   D(16,17,18,19)         -0.559          estimate D2E/DX2                !
 ! D68   D(16,17,18,39)        179.8524         estimate D2E/DX2                !
 ! D69   D(38,17,18,19)        178.0122         estimate D2E/DX2                !
 ! D70   D(38,17,18,39)         -1.5763         estimate D2E/DX2                !
 ! D71   D(17,18,19,20)          0.9047         estimate D2E/DX2                !
 ! D72   D(17,18,19,21)        178.9879         estimate D2E/DX2                !
 ! D73   D(39,18,19,20)       -179.5334         estimate D2E/DX2                !
 ! D74   D(39,18,19,21)         -1.4502         estimate D2E/DX2                !
 ! D75   D(18,19,20,16)         -0.831          estimate D2E/DX2                !
 ! D76   D(21,19,20,16)       -179.0191         estimate D2E/DX2                !
 ! D77   D(18,19,21,22)       -178.4861         estimate D2E/DX2                !
 ! D78   D(18,19,21,25)          0.9903         estimate D2E/DX2                !
 ! D79   D(20,19,21,22)         -0.5623         estimate D2E/DX2                !
 ! D80   D(20,19,21,25)        178.9141         estimate D2E/DX2                !
 ! D81   D(19,21,22,23)        178.0453         estimate D2E/DX2                !
 ! D82   D(19,21,22,40)          2.7125         estimate D2E/DX2                !
 ! D83   D(25,21,22,23)         -1.4943         estimate D2E/DX2                !
 ! D84   D(25,21,22,40)       -176.8272         estimate D2E/DX2                !
 ! D85   D(19,21,25,24)       -178.7781         estimate D2E/DX2                !
 ! D86   D(22,21,25,24)          0.79           estimate D2E/DX2                !
 ! D87   D(21,22,23,24)          1.6778         estimate D2E/DX2                !
 ! D88   D(21,22,23,41)        177.6482         estimate D2E/DX2                !
 ! D89   D(40,22,23,24)        177.0868         estimate D2E/DX2                !
 ! D90   D(40,22,23,41)         -6.9428         estimate D2E/DX2                !
 ! D91   D(22,23,24,25)         -0.9991         estimate D2E/DX2                !
 ! D92   D(22,23,24,26)        178.2991         estimate D2E/DX2                !
 ! D93   D(41,23,24,25)       -176.9534         estimate D2E/DX2                !
 ! D94   D(41,23,24,26)          2.3448         estimate D2E/DX2                !
 ! D95   D(23,24,25,21)          0.1467         estimate D2E/DX2                !
 ! D96   D(26,24,25,21)       -179.1819         estimate D2E/DX2                !
 ! D97   D(23,24,26,27)       -177.4378         estimate D2E/DX2                !
 ! D98   D(23,24,26,30)          0.3766         estimate D2E/DX2                !
 ! D99   D(25,24,26,27)          1.7753         estimate D2E/DX2                !
 ! D100  D(25,24,26,30)        179.5898         estimate D2E/DX2                !
 ! D101  D(24,26,27,28)        178.9213         estimate D2E/DX2                !
 ! D102  D(24,26,27,42)         -4.453          estimate D2E/DX2                !
 ! D103  D(30,26,27,28)          0.9682         estimate D2E/DX2                !
 ! D104  D(30,26,27,42)        177.5939         estimate D2E/DX2                !
 ! D105  D(24,26,30,29)       -178.0512         estimate D2E/DX2                !
 ! D106  D(27,26,30,29)         -0.0062         estimate D2E/DX2                !
 ! D107  D(26,27,28,29)         -1.746          estimate D2E/DX2                !
 ! D108  D(26,27,28,43)        177.6649         estimate D2E/DX2                !
 ! D109  D(42,27,28,29)       -178.6394         estimate D2E/DX2                !
 ! D110  D(42,27,28,43)          0.7714         estimate D2E/DX2                !
 ! D111  D(27,28,29,30)          1.7129         estimate D2E/DX2                !
 ! D112  D(27,28,29,44)        179.5306         estimate D2E/DX2                !
 ! D113  D(43,28,29,30)       -177.7095         estimate D2E/DX2                !
 ! D114  D(43,28,29,44)          0.1082         estimate D2E/DX2                !
 ! D115  D(28,29,30,26)         -0.9822         estimate D2E/DX2                !
 ! D116  D(44,29,30,26)       -178.9793         estimate D2E/DX2                !
 --------------------------------------------------------------------------------
 Trust Radius=3.00D-01 FncErr=1.00D-07 GrdErr=1.00D-06 EigMax=2.50D+02 EigMin=1.00D-04
 Number of steps in this run=    253 maximum allowed number of steps=    264.
 GradGradGradGradGradGradGradGradGradGradGradGradGradGradGradGradGradGrad

 Leave Link  103 at Fri Jul 24 12:11:58 2020, MaxMem=  4026531840 cpu:               0.2 elap:               0.0
 (Enter /opt/ohpc/pub/libs/gaussian/g16-A.03/sandybridge/g16/l202.exe)
                          Input orientation:                          
 ---------------------------------------------------------------------
 Center     Atomic      Atomic             Coordinates (Angstroms)
 Number     Number       Type             X           Y           Z
 ---------------------------------------------------------------------
      1          6           0      -10.989306   -0.145476    0.000345
      2          6           0      -10.517932   -1.352322    0.040211
      3          6           0       -9.111432   -1.364165    0.025480
      4          6           0       -8.534395   -0.067490    0.011963
      5         16           0       -9.810734    1.059883   -0.015705
      6          6           0       -7.079539    0.248528   -0.033967
      7          6           0       -6.539286    1.480717   -0.016571
      8          6           0       -5.116019    1.504327   -0.045455
      9          6           0       -4.622845    0.277638    0.008859
     10         16           0       -5.832794   -0.928607    0.030794
     11          6           0       -3.245213   -0.155620   -0.035517
     12          6           0       -2.700903   -1.478530    0.022639
     13          6           0       -1.210857   -1.430156   -0.014639
     14          6           0       -0.690142   -0.232112   -0.002112
     15         16           0       -1.975096    1.029149    0.028433
     16          6           0        0.658028    0.197438    0.019534
     17          6           0        1.214052    1.428705    0.020263
     18          6           0        2.719742    1.451105    0.029268
     19          6           0        3.205437    0.176156    0.047404
     20         16           0        1.920205   -1.033036    0.028087
     21          6           0        4.592655   -0.204780    0.039964
     22          6           0        5.130292   -1.468009    0.028922
     23          6           0        6.603056   -1.498573   -0.022085
     24          6           0        7.149243   -0.217473   -0.010958
     25         16           0        5.907260    0.948975    0.030642
     26          6           0        8.565283    0.126726   -0.016628
     27          6           0        9.054120    1.368978    0.043326
     28          6           0       10.495533    1.350426    0.042648
     29          6           0       11.033940    0.062566    0.019726
     30         16           0        9.768067   -1.088235   -0.048551
     31          1           0      -12.054121    0.187760   -0.045297
     32          1           0      -11.131808   -2.258932   -0.048308
     33          1           0       -8.536766   -2.306552    0.008288
     34          1           0       -7.110728    2.467141   -0.010084
     35          1           0       -4.572034    2.441774   -0.021387
     36          1           0       -3.229958   -2.345758    0.001671
     37          1           0       -0.691707   -2.372755   -0.045088
     38          1           0        0.641152    2.373863    0.038595
     39          1           0        3.249770    2.313474    0.028423
     40          1           0        4.538739   -2.364832   -0.018080
     41          1           0        7.180132   -2.396735   -0.000286
     42          1           0        8.489866    2.329323    0.037826
     43          1           0       11.129198    2.259302    0.049149
     44          1           0       11.993720   -0.212007    0.008246
 ---------------------------------------------------------------------
                    Distance matrix (angstroms):
                    1          2          3          4          5
     1  C    0.000000
     2  C    1.296248   0.000000
     3  C    2.238804   1.406627   0.000000
     4  C    2.456177   2.363474   1.419338   0.000000
     5  S    1.685877   2.514356   2.523238   1.703167   0.000000
     6  C    3.929719   3.793517   2.594784   1.489491   2.849220
     7  C    4.737876   4.884563   3.835500   2.525514   3.298405
     8  C    6.100774   6.111338   4.919004   3.762871   4.715799
     9  C    6.380511   6.116355   4.779457   3.926748   5.246590
    10  S    5.215730   4.704268   3.307447   2.835582   4.447501
    11  C    7.744183   7.370907   5.989727   5.290129   6.677118
    12  C    8.394948   7.818068   6.411550   6.001731   7.549484
    13  C    9.862489   9.307562   7.900952   7.449280   8.953110
    14  C   10.299529   9.891517   8.497084   7.845993   9.211658
    15  S    9.090463   8.868573   7.526968   6.650360   7.835823
    16  C   11.652397  11.282919   9.893482   9.196243  10.504286
    17  C   12.304487  12.057112  10.696531   9.862600  11.031012
    18  C   13.801736  13.531273  12.161515  11.356145  12.536662
    19  C   14.198464  13.808228  12.412829  11.742414  13.046289
    20  S   12.940016  12.442240  11.036606  10.499105  11.916256
    21  C   15.582124  15.154098  13.753050  13.127798  14.458910
    22  C   16.173786  15.648656  14.242103  13.736281  15.153432
    23  C   17.644336  17.121726  15.715135  15.204985  16.611991
    24  C   18.138695  17.703660  16.301098  15.684372  17.008012
    25  S   16.932002  16.585626  15.195781  14.477394  15.718454
    26  C   19.556491  19.140531  17.739526  17.100805  18.399695
    27  C   20.100606  19.760332  18.370021  17.647104  18.867478
    28  C   21.536894  21.186566  19.793998  19.082704  20.308429
    29  C   22.024237  21.598276  20.195831  19.568769  20.868549
    30  S   20.778829  20.287912  18.881660  18.331004  19.696318
    31  H    1.116674   2.176934   3.327597   3.529434   2.407127
    32  H    2.118813   1.098463   2.210876   3.398912   3.572231
    33  H    3.268832   2.199225   1.103916   2.239066   3.599508
    34  H    4.676456   5.118580   4.322382   2.907175   3.044740
    35  H    6.919228   7.053557   5.923977   4.690184   5.417899
    36  H    8.065279   7.355472   5.962871   5.773012   7.409811
    37  H   10.535814   9.879436   8.480212   8.174672   9.743743
    38  H   11.900256  11.764761  10.444421   9.494818  10.534297
    39  H   14.449862  14.247379  12.896680  12.022304  13.120602
    40  H   15.685855  15.090789  13.686870  13.273489  14.752493
    41  H   18.308376  17.728900  16.324274  15.886217  17.338915
    42  H   19.635788  19.361067  17.984652  17.192174  18.344653
    43  H   22.248900  21.946347  20.562421  19.800814  20.974355
    44  H   22.983124  22.540537  21.136585  20.528624  21.841531
                    6          7          8          9         10
     6  C    0.000000
     7  C    1.345535   0.000000
     8  C    2.330788   1.423756   0.000000
     9  C    2.457240   2.262917   1.323230   0.000000
    10  S    1.715871   2.511218   2.537469   1.708650   0.000000
    11  C    3.855567   3.678162   2.501087   1.444836   2.701385
    12  C    4.707270   4.846841   3.838601   2.603493   3.179815
    13  C    6.104079   6.071684   4.884919   3.815596   4.649292
    14  C    6.407529   6.094791   4.754523   3.965617   5.189707
    15  S    5.164165   4.586695   3.177523   2.752404   4.326043
    16  C    7.737921   7.310912   5.920456   5.281493   6.587782
    17  C    8.377315   7.753600   6.330864   5.949324   7.430684
    18  C    9.872998   9.259189   7.836298   7.435794   8.877438
    19  C   10.285553   9.831866   8.427294   7.829035   9.105515
    20  S    9.090745   8.825188   7.480111   6.673061   7.753703
    21  C   11.681227  11.258961   9.858331   9.228171  10.450550
    22  C   12.330062  12.036449  10.668983   9.908147  10.976348
    23  C   13.793691  13.475806  12.097714  11.365594  12.449017
    24  C   14.236429  13.793466  12.385574  11.782512  13.001567
    25  S   13.005835  12.457989  11.037522  10.551506  11.889246
    26  C   15.645306  15.165134  13.750514  13.189016  14.436779
    27  C   16.172703  15.593921  14.171063  13.720480  15.063176
    28  C   17.609747  17.035420  15.612559  15.156430  16.486613
    29  C   18.114513  17.630393  16.214318  15.658266  16.895836
    30  S   16.900561  16.508492  15.108190  14.455700  15.601879
    31  H    4.974966   5.664448   7.061912   7.432017   6.321153
    32  H    4.765338   5.922604   7.095903   6.985990   5.464025
    33  H    2.941722   4.281816   5.121250   4.690076   3.034914
    34  H    2.218961   1.140009   2.215203   3.314188   3.628483
    35  H    3.331376   2.189460   1.084115   2.164944   3.598848
    36  H    4.642291   5.059041   4.287494   2.970251   2.963768
    37  H    6.904755   7.003159   5.882712   4.741449   5.340608
    38  H    8.008207   7.235983   5.823073   5.666102   7.267623
    39  H   10.533875   9.824517   8.405153   8.131610   9.643861
    40  H   11.908580  11.726504  10.401226   9.535093  10.470617
    41  H   14.502992  14.256834  12.900219  12.102174  13.095519
    42  H   15.707999  15.053189  13.631128  13.272281  14.688524
    43  H   18.319613  17.685752  16.263026  15.876255  17.258977
    44  H   19.078865  18.610165  17.195693  16.623778  17.840926
                   11         12         13         14         15
    11  C    0.000000
    12  C    1.431694   0.000000
    13  C    2.400725   1.491297   0.000000
    14  C    2.556434   2.365868   1.306373   0.000000
    15  S    1.738092   2.610610   2.575674   1.800783   0.000000
    16  C    3.919563   3.753837   2.478500   1.415113   2.761370
    17  C    4.732678   4.876361   3.748932   2.526810   3.214090
    18  C    6.177900   6.161672   4.873726   3.802830   4.713762
    19  C    6.459709   6.133796   4.699760   3.917227   5.250322
    20  S    5.239795   4.642535   3.156435   2.730623   4.407491
    21  C    7.838386   7.403967   5.931718   5.283035   6.682669
    22  C    8.477948   7.831205   6.341412   5.950282   7.531423
    23  C    9.939422   9.304088   7.814216   7.402369   8.942965
    24  C   10.394669   9.930598   8.447596   7.839404   9.209190
    25  S    9.219125   8.943898   7.505325   6.702369   7.882764
    26  C   11.813886  11.380041   9.899333   9.262390  10.579035
    27  C   12.393716  12.095011  10.639937   9.875029  11.034460
    28  C   13.823255  13.496270  12.032227  11.297157  12.474775
    29  C   14.280927  13.821031  12.335496  11.727805  13.044898
    30  S   13.046662  12.475280  10.984299  10.493295  11.932775
    31  H    8.815604   9.500728  10.963346  11.371815  10.114352
    32  H    8.162259   8.467244   9.955565  10.636659   9.729478
    33  H    5.712177   5.894330   7.378180   8.116213   7.360898
    34  H    4.671373   5.917427   7.070886   6.964909   5.333294
    35  H    2.916695   4.344175   5.127319   4.713717   2.956701
    36  H    2.190507   1.016082   2.217062   3.304267   3.600749
    37  H    3.381741   2.200249   1.076539   2.141075   3.636680
    38  H    4.637630   5.100051   4.231233   2.926620   2.941617
    39  H    6.948764   7.056191   5.823557   4.690826   5.380401
    40  H    8.091405   7.293806   5.825074   5.647118   7.345156
    41  H   10.663567   9.923632   8.446489   8.162525   9.775260
    42  H   11.995516  11.820883  10.403868   9.530745  10.545424
    43  H   14.576101  14.326332  12.879951  12.079179  13.161923
    44  H   15.239100  14.749110  13.260666  12.683882  14.023862
                   16         17         18         19         20
    16  C    0.000000
    17  C    1.350993   0.000000
    18  C    2.412973   1.505884   0.000000
    19  C    2.547650   2.352707   1.364450   0.000000
    20  S    1.762734   2.561031   2.609639   1.764749   0.000000
    21  C    3.955185   3.752815   2.499975   1.438590   2.797881
    22  C    4.772310   4.871136   3.785760   2.531538   3.239423
    23  C    6.182357   6.132872   4.876819   3.788583   4.706202
    24  C    6.504533   6.159332   4.733524   3.963831   5.292401
    25  S    5.302770   4.717674   3.226826   2.810227   4.452525
    26  C    7.907654   7.465729   5.993867   5.360456   6.745673
    27  C    8.477466   7.840329   6.334926   5.969081   7.527460
    28  C    9.904869   9.281838   7.776454   7.384066   8.900413
    29  C   10.376789   9.914461   8.429355   7.829376   9.179356
    30  S    9.200565   8.916888   7.492209   6.684011   7.848430
    31  H   12.712318  13.326239  14.827968  15.259844  14.027741
    32  H   12.043197  12.885016  14.340008  14.542882  13.109680
    33  H    9.529655  10.441779  11.867156  12.001862  10.534253
    34  H    8.093578   8.389352   9.882915  10.567648   9.685579
    35  H    5.691420   5.874252   7.358939   8.101038   7.363825
    36  H    4.645923   5.830621   7.058035   6.912051   5.314896
    37  H    2.903765   4.252915   5.124980   4.657600   2.936373
    38  H    2.176574   1.105384   2.274226   3.377211   3.639100
    39  H    3.345865   2.219692   1.012231   2.137862   3.600954
    40  H    4.650437   5.044397   4.227572   2.870297   2.938117
    41  H    7.019114   7.087208   5.890825   4.735002   5.433904
    42  H    8.116832   7.331363   5.836580   5.706261   7.380108
    43  H   10.672280   9.949917   8.448226   8.193015   9.779851
    44  H   11.343090  10.903821   9.421945   8.796938  10.106938
                   21         22         23         24         25
    21  C    0.000000
    22  C    1.372925   0.000000
    23  C    2.391540   1.473964   0.000000
    24  C    2.557127   2.375204   1.392717   0.000000
    25  S    1.749121   2.538798   2.545074   1.704363   0.000000
    26  C    3.986837   3.787402   2.547933   1.457283   2.782699
    27  C    4.730898   4.842017   3.772909   2.479583   3.174790
    28  C    6.104313   6.060493   4.824144   3.695786   4.605818
    29  C    6.446862   6.098836   4.698046   3.894898   5.202758
    30  S    5.251021   4.653943   3.191610   2.760051   4.366042
    31  H   16.651622  17.264157  18.733246  19.207670  17.977665
    32  H   15.858312  16.281505  17.751176  18.394721  17.338591
    33  H   13.296622  13.692774  15.161397  15.824522  14.806378
    34  H   12.004617  12.858052  14.275675  14.510476  13.106277
    35  H    9.539368  10.460596  11.849429  12.019153  10.585214
    36  H    8.110396   8.406246   9.869471  10.595167   9.713128
    37  H    5.712428   5.892344   7.346992   8.131845   7.388233
    38  H    4.718451   5.908676   7.109412   7.005193   5.455480
    39  H    2.853958   4.223266   5.077281   4.648993   2.987326
    40  H    2.161504   1.075377   2.238711   3.380227   3.585602
    41  H    3.391360   2.250606   1.067795   2.179507   3.579795
    42  H    4.648649   5.070162   4.268071   2.878510   2.928356
    43  H    6.985569   7.062587   5.883253   4.688077   5.383859
    44  H    7.401136   6.977436   5.542150   4.844518   6.196239
                   26         27         28         29         30
    26  C    0.000000
    27  C    1.336318   0.000000
    28  C    2.286224   1.441533   0.000000
    29  C    2.469758   2.372121   1.396063   0.000000
    30  S    1.709924   2.560480   2.546486   1.712145   0.000000
    31  H   20.619514  21.141451  22.579779  23.088492  21.859462
    32  H   19.841063  20.509554  21.926642  22.287090  20.932637
    33  H   17.274303  17.970810  19.380482  19.713584  18.345420
    34  H   15.849760  16.202195  17.641719  18.303329  17.249229
    35  H   13.339736  13.668473  15.107174  15.786347  14.768216
    36  H   12.051607  12.833533  14.214519  14.465792  13.058811
    37  H    9.588539  10.439805  11.790849  11.976051  10.538353
    38  H    8.236779   8.472771   9.907384  10.646713   9.761880
    39  H    5.747919   5.880712   7.309497   8.103084   7.352941
    40  H    4.735073   5.859503   7.020700   6.934070   5.382982
    41  H    2.878674   4.206463   5.003493   4.571695   2.900329
    42  H    2.204560   1.113856   2.231807   3.407466   3.649789
    43  H    3.335546   2.258021   1.107984   2.198997   3.615000
    44  H    3.445220   3.337962   2.164935   0.998349   2.392600
                   31         32         33         34         35
    31  H    0.000000
    32  H    2.614760   0.000000
    33  H    4.312337   2.596096   0.000000
    34  H    5.443708   6.205345   4.982175   0.000000
    35  H    7.814268   8.070192   6.185999   2.538846   0.000000
    36  H    9.180783   7.902485   5.306957   6.182597   4.972139
    37  H   11.647347  10.440722   7.845520   8.039257   6.183623
    38  H   12.882393  12.651993  10.302494   7.752594   5.213973
    39  H   15.450993  15.091142  12.659679  10.361709   7.823015
    40  H   16.788075  15.670934  13.075661  12.611824  10.300954
    41  H   19.407167  18.312521  15.717159  15.095896  12.709249
    42  H   20.655474  20.151169  17.646484  15.601276  13.062518
    43  H   23.275878  22.715112  20.189077  18.241206  15.702451
    44  H   24.051223  23.216011  20.637053  19.291400  16.776997
                   36         37         38         39         40
    36  H    0.000000
    37  H    2.538825   0.000000
    38  H    6.104234   4.930913   0.000000
    39  H    7.980979   6.123838   2.609337   0.000000
    40  H    7.768746   5.230522   6.135929   4.852850   0.000000
    41  H   10.410215   7.872003   8.094342   6.134708   2.641646
    42  H   12.617922  10.315895   7.848840   5.240128   6.135929
    43  H   15.079595  12.696402  10.488677   7.879641   8.051167
    44  H   15.372485  12.868245  11.643386   9.101380   7.759645
                   41         42         43         44
    41  H    0.000000
    42  H    4.904333   0.000000
    43  H    6.105428   2.640285   0.000000
    44  H    5.286184   4.328536   2.618480   0.000000
 Stoichiometry    C24H14S6
 Framework group  C1[X(C24H14S6)]
 Deg. of freedom   126
 Full point group                 C1      NOp   1
 Largest Abelian subgroup         C1      NOp   1
 Largest concise Abelian subgroup C1      NOp   1
                         Standard orientation:                         
 ---------------------------------------------------------------------
 Center     Atomic      Atomic             Coordinates (Angstroms)
 Number     Number       Type             X           Y           Z
 ---------------------------------------------------------------------
      1          6           0       10.988939   -0.146801    0.003585
      2          6           0       10.517527   -1.353501   -0.040054
      3          6           0        9.111032   -1.365365   -0.024888
      4          6           0        8.534026   -0.068730   -0.006953
      5         16           0        9.810397    1.058522    0.023959
      6          6           0        7.079192    0.247164    0.040496
      7          6           0        6.538958    1.479414    0.027297
      8          6           0        5.115701    1.502957    0.056736
      9          6           0        4.622484    0.276461   -0.001408
     10         16           0        5.832401   -0.929730   -0.027680
     11          6           0        3.244858   -0.156913    0.042019
     12          6           0        2.700502   -1.479616   -0.020264
     13          6           0        1.210470   -1.431335    0.017673
     14          6           0        0.689775   -0.233247    0.009225
     15         16           0        1.974744    1.028082   -0.017643
     16          6           0       -0.658394    0.196397   -0.010568
     17          6           0       -1.214393    1.427671   -0.007098
     18          6           0       -2.720086    1.450129   -0.015524
     19          6           0       -3.205812    0.175255   -0.037650
     20         16           0       -1.920598   -1.034018   -0.022705
     21          6           0       -4.593036   -0.205677   -0.030985
     22          6           0       -5.130694   -1.468925   -0.023878
     23          6           0       -6.603442   -1.499626    0.027525
     24          6           0       -7.149607   -0.218486    0.020756
     25         16           0       -5.907614    0.948067   -0.017461
     26          6           0       -8.565638    0.125719    0.028023
     27          6           0       -9.054470    1.368170   -0.027718
     28          6           0      -10.495883    1.349643   -0.026616
     29          6           0      -11.034308    0.061726   -0.007709
     30         16           0       -9.768435   -1.089316    0.056392
     31          1           0       12.053776    0.186264    0.049955
     32          1           0       11.131415   -2.260407    0.045304
     33          1           0        8.536353   -2.307792   -0.010574
     34          1           0        7.110418    2.465843    0.023831
     35          1           0        4.571727    2.440488    0.035906
     36          1           0        3.229546   -2.346918   -0.002299
     37          1           0        0.691311   -2.374019    0.045226
     38          1           0       -0.641480    2.372872   -0.022544
     39          1           0       -3.250096    2.312501   -0.011691
     40          1           0       -4.539144   -2.365907    0.020003
     41          1           0       -7.180543   -2.397702    0.002994
     42          1           0       -8.490194    2.328481   -0.019279
     43          1           0      -11.129531    2.258548   -0.029942
     44          1           0      -11.994090   -0.212865    0.003199
 ---------------------------------------------------------------------
 Rotational constants (GHZ):           0.8928688           0.0223766           0.0218303
 Leave Link  202 at Fri Jul 24 12:11:58 2020, MaxMem=  4026531840 cpu:               0.3 elap:               0.1
 (Enter /opt/ohpc/pub/libs/gaussian/g16-A.03/sandybridge/g16/l301.exe)
 Standard basis: CC-pVDZ (5D, 7F)
 Ernie: Thresh=  0.10000D-02 Tol=  0.10000D-05 Strict=F.
 Ernie:  108 primitive shells out of 898 were deleted.
 There are   544 symmetry adapted cartesian basis functions of A   symmetry.
 There are   514 symmetry adapted basis functions of A   symmetry.
   514 basis functions,  1316 primitive gaussians,   544 cartesian basis functions
   127 alpha electrons      127 beta electrons
       nuclear repulsion energy      3221.1900605520 Hartrees.
 IExCor=32609 DFT=T Ex+Corr=LC-wPBE ExCW=0 ScaHFX=  1.000000
 ScaDFX=  1.000000  0.000000  1.000000  1.000000 ScalE2=  1.000000  1.000000
 IRadAn=      5 IRanWt=     -1 IRanGd=            0 ICorTp=0 IEmpDi=  4
 HFx  wShort=  0.000000 wLong=  0.124000 cFull=  0.000000 cShort=  0.000000 cLong=  1.000000
 DFx  wShort=  0.000000 wLong=  0.124000 cFull=  0.000000 cShort=  0.000000 cLong=  1.000000
 NAtoms=   44 NActive=   44 NUniq=   44 SFac= 1.00D+00 NAtFMM=   60 NAOKFM=F Big=F
 Integral buffers will be    131072 words long.
 Raffenetti 2 integral format.
 Two-electron integral symmetry is turned on.
 Leave Link  301 at Fri Jul 24 12:11:58 2020, MaxMem=  4026531840 cpu:               0.4 elap:               0.1
 (Enter /opt/ohpc/pub/libs/gaussian/g16-A.03/sandybridge/g16/l302.exe)
 NPDir=0 NMtPBC=     1 NCelOv=     1 NCel=       1 NClECP=     1 NCelD=      1
         NCelK=      1 NCelE2=     1 NClLst=     1 CellRange=     0.0.
 One-electron integrals computed using PRISM.
 One-electron integral symmetry used in STVInt
 NBasis=   514 RedAO= T EigKep=  2.87D-04  NBF=   514
 NBsUse=   514 1.00D-06 EigRej= -1.00D+00 NBFU=   514
 Precomputing XC quadrature grid using
 IXCGrd= 4 IRadAn=           5 IRanWt=          -1 IRanGd=           0 AccXCQ= 0.00D+00.
 Generated NRdTot=       0 NPtTot=           0 NUsed=           0 NTot=          32
 NSgBfM=   466   466   466   466   466 MxSgAt=    44 MxSgA2=    44.
 Leave Link  302 at Fri Jul 24 12:11:59 2020, MaxMem=  4026531840 cpu:               6.8 elap:               0.9
 (Enter /opt/ohpc/pub/libs/gaussian/g16-A.03/sandybridge/g16/l303.exe)
 DipDrv:  MaxL=1.
 Leave Link  303 at Fri Jul 24 12:11:59 2020, MaxMem=  4026531840 cpu:               0.8 elap:               0.1
 (Enter /opt/ohpc/pub/libs/gaussian/g16-A.03/sandybridge/g16/l401.exe)
 ExpMin= 1.22D-01 ExpMax= 1.11D+05 ExpMxC= 1.07D+03 IAcc=3 IRadAn=         5 AccDes= 0.00D+00
 Harris functional with IExCor=32609 and IRadAn=       5 diagonalized for initial guess.
 HarFok:  IExCor=32609 AccDes= 0.00D+00 IRadAn=         5 IDoV= 1 UseB2=F ITyADJ=14
 ICtDFT=  3500011 ScaDFX=  1.000000  1.000000  1.000000  1.000000
 FoFCou: FMM=F IPFlag=           0 FMFlag=      100000 FMFlg1=           0
         NFxFlg=           0 DoJE=T BraDBF=F KetDBF=T FulRan=T
         wScrn=  0.000000 ICntrl=       500 IOpCl=  0 I1Cent=   200000004 NGrid=           0
         NMat0=    1 NMatS0=      1 NMatT0=    0 NMatD0=    1 NMtDS0=    0 NMtDT0=    0
 Petite list used in FoFCou.
 Harris En= -3310.37626310690    
 JPrj=0 DoOrth=F DoCkMO=F.
 Initial guess <Sx>= 0.0000 <Sy>= 0.0000 <Sz>= 0.0000 <S**2>=-0.0000 S=-0.0000
 Leave Link  401 at Fri Jul 24 12:12:03 2020, MaxMem=  4026531840 cpu:              30.4 elap:               3.8
 (Enter /opt/ohpc/pub/libs/gaussian/g16-A.03/sandybridge/g16/l502.exe)
 Integral symmetry usage will be decided dynamically.
 UHF open shell SCF:
 Using DIIS extrapolation, IDIIS=  1040.
 NGot=  4026531840 LenX=  4025930156 LenY=  4025633676
 Requested convergence on RMS density matrix=1.00D-08 within 128 cycles.
 Requested convergence on MAX density matrix=1.00D-06.
 Requested convergence on             energy=1.00D-06.
 No special actions if energy rises.
 Fock matrices will be formed incrementally for  20 cycles.
 Integral accuracy reduced to 1.0D-05 until final iterations.

 Cycle   1  Pass 0  IDiag  1:
 FoFJK:  IHMeth= 1 ICntrl=       0 DoSepK=T KAlg= 0 I1Cent=           0 FoldK=F
 IRaf=         1 NMat=       1 IRICut=       1 DoRegI=T DoRafI=F ISym2E= 0 IDoP0=0 IntGTp=1.
 FoFCou: FMM=F IPFlag=           0 FMFlag=      100000 FMFlg1=           0
         NFxFlg=           0 DoJE=T BraDBF=F KetDBF=F FulRan=T
         wScrn=  0.000000 ICntrl=       500 IOpCl=  0 I1Cent=           0 NGrid=           0
         NMat0=    1 NMatS0=      1 NMatT0=    0 NMatD0=    1 NMtDS0=    0 NMtDT0=    0
 Symmetry not used in FoFCou.
 E= -3309.37584418898    
 DIIS: error= 3.17D-02 at cycle   1 NSaved=   1.
 NSaved= 1 IEnMin= 1 EnMin= -3309.37584418898     IErMin= 1 ErrMin= 3.17D-02
 ErrMax= 3.17D-02  0.00D+00 EMaxC= 1.00D-01 BMatC= 3.18D+00 BMatP= 3.18D+00
 IDIUse=3 WtCom= 6.83D-01 WtEn= 3.17D-01
 Coeff-Com:  0.100D+01
 Coeff-En:   0.100D+01
 Coeff:      0.100D+01
 Gap=     0.131 Goal=   None    Shift=    0.000
 Gap=     0.131 Goal=   None    Shift=    0.000
 GapD=    0.131 DampG=1.000 DampE=0.500 DampFc=0.5000 IDamp=-1.
 Damping current iteration by 5.00D-01
 RMSDP=4.47D-03 MaxDP=1.77D-01              OVMax= 3.88D-01

 Cycle   2  Pass 0  IDiag  1:
 RMSU=  2.22D-03    CP:  9.85D-01
 E= -3309.75690280952     Delta-E=       -0.381058620546 Rises=F Damp=T
 DIIS: error= 6.40D-03 at cycle   2 NSaved=   2.
 NSaved= 2 IEnMin= 2 EnMin= -3309.75690280952     IErMin= 2 ErrMin= 6.40D-03
 ErrMax= 6.40D-03  0.00D+00 EMaxC= 1.00D-01 BMatC= 1.64D-01 BMatP= 3.18D+00
 IDIUse=3 WtCom= 9.36D-01 WtEn= 6.40D-02
 Coeff-Com:  0.144D+00 0.856D+00
 Coeff-En:   0.230D+00 0.770D+00
 Coeff:      0.149D+00 0.851D+00
 Gap=     0.173 Goal=   None    Shift=    0.000
 Gap=     0.173 Goal=   None    Shift=    0.000
 RMSDP=8.56D-04 MaxDP=3.05D-02 DE=-3.81D-01 OVMax= 2.10D-01

 Cycle   3  Pass 0  IDiag  1:
 RMSU=  7.88D-04    CP:  9.82D-01  8.52D-01
 E= -3310.32387901770     Delta-E=       -0.566976208175 Rises=F Damp=F
 DIIS: error= 2.72D-03 at cycle   3 NSaved=   3.
 NSaved= 3 IEnMin= 3 EnMin= -3310.32387901770     IErMin= 3 ErrMin= 2.72D-03
 ErrMax= 2.72D-03  0.00D+00 EMaxC= 1.00D-01 BMatC= 3.81D-02 BMatP= 1.64D-01
 IDIUse=3 WtCom= 9.73D-01 WtEn= 2.72D-02
 Coeff-Com:  0.606D-01 0.318D+00 0.621D+00
 Coeff-En:   0.000D+00 0.000D+00 0.100D+01
 Coeff:      0.590D-01 0.309D+00 0.632D+00
 Gap=     0.179 Goal=   None    Shift=    0.000
 Gap=     0.179 Goal=   None    Shift=    0.000
 RMSDP=2.96D-04 MaxDP=2.11D-02 DE=-5.67D-01 OVMax= 3.28D-02

 Cycle   4  Pass 0  IDiag  1:
 RMSU=  2.77D-04    CP:  9.83D-01  8.54D-01  8.69D-01
 E= -3310.33014205285     Delta-E=       -0.006263035153 Rises=F Damp=F
 DIIS: error= 1.76D-03 at cycle   4 NSaved=   4.
 NSaved= 4 IEnMin= 4 EnMin= -3310.33014205285     IErMin= 4 ErrMin= 1.76D-03
 ErrMax= 1.76D-03  0.00D+00 EMaxC= 1.00D-01 BMatC= 1.67D-02 BMatP= 3.81D-02
 IDIUse=3 WtCom= 9.82D-01 WtEn= 1.76D-02
 Coeff-Com:  0.177D-01 0.243D-01 0.386D+00 0.572D+00
 Coeff-En:   0.000D+00 0.000D+00 0.297D+00 0.703D+00
 Coeff:      0.174D-01 0.239D-01 0.385D+00 0.574D+00
 Gap=     0.182 Goal=   None    Shift=    0.000
 Gap=     0.182 Goal=   None    Shift=    0.000
 RMSDP=1.47D-04 MaxDP=1.04D-02 DE=-6.26D-03 OVMax= 1.44D-02

 Cycle   5  Pass 0  IDiag  1:
 RMSU=  1.00D-04    CP:  9.83D-01  8.48D-01  9.46D-01  6.82D-01
 E= -3310.33451875823     Delta-E=       -0.004376705380 Rises=F Damp=F
 DIIS: error= 3.72D-04 at cycle   5 NSaved=   5.
 NSaved= 5 IEnMin= 5 EnMin= -3310.33451875823     IErMin= 5 ErrMin= 3.72D-04
 ErrMax= 3.72D-04  0.00D+00 EMaxC= 1.00D-01 BMatC= 8.51D-04 BMatP= 1.67D-02
 IDIUse=3 WtCom= 9.96D-01 WtEn= 3.72D-03
 Coeff-Com:  0.467D-02-0.250D-01 0.989D-01 0.242D+00 0.680D+00
 Coeff-En:   0.000D+00 0.000D+00 0.000D+00 0.000D+00 0.100D+01
 Coeff:      0.465D-02-0.249D-01 0.985D-01 0.241D+00 0.681D+00
 Gap=     0.182 Goal=   None    Shift=    0.000
 Gap=     0.182 Goal=   None    Shift=    0.000
 RMSDP=4.78D-05 MaxDP=2.56D-03 DE=-4.38D-03 OVMax= 4.76D-03

 Cycle   6  Pass 0  IDiag  1:
 RMSU=  3.76D-05    CP:  9.83D-01  8.43D-01  9.64D-01  7.57D-01  9.12D-01
 E= -3310.33472365579     Delta-E=       -0.000204897555 Rises=F Damp=F
 DIIS: error= 2.31D-04 at cycle   6 NSaved=   6.
 NSaved= 6 IEnMin= 6 EnMin= -3310.33472365579     IErMin= 6 ErrMin= 2.31D-04
 ErrMax= 2.31D-04  0.00D+00 EMaxC= 1.00D-01 BMatC= 2.73D-04 BMatP= 8.51D-04
 IDIUse=3 WtCom= 9.98D-01 WtEn= 2.31D-03
 Coeff-Com:  0.123D-02-0.212D-01 0.126D-01 0.779D-01 0.424D+00 0.506D+00
 Coeff-En:   0.000D+00 0.000D+00 0.000D+00 0.000D+00 0.954D-01 0.905D+00
 Coeff:      0.123D-02-0.211D-01 0.125D-01 0.777D-01 0.423D+00 0.507D+00
 Gap=     0.182 Goal=   None    Shift=    0.000
 Gap=     0.182 Goal=   None    Shift=    0.000
 RMSDP=2.02D-05 MaxDP=1.16D-03 DE=-2.05D-04 OVMax= 1.82D-03

 Cycle   7  Pass 0  IDiag  1:
 RMSU=  1.52D-05    CP:  9.83D-01  8.41D-01  9.71D-01  7.61D-01  9.82D-01
                    CP:  7.51D-01
 E= -3310.33480569147     Delta-E=       -0.000082035682 Rises=F Damp=F
 DIIS: error= 4.05D-05 at cycle   7 NSaved=   7.
 NSaved= 7 IEnMin= 7 EnMin= -3310.33480569147     IErMin= 7 ErrMin= 4.05D-05
 ErrMax= 4.05D-05  0.00D+00 EMaxC= 1.00D-01 BMatC= 1.22D-05 BMatP= 2.73D-04
 IDIUse=1 WtCom= 1.00D+00 WtEn= 0.00D+00
 Coeff-Com:  0.347D-04-0.405D-02-0.862D-02-0.115D-01 0.184D-01 0.156D+00
 Coeff-Com:  0.849D+00
 Coeff:      0.347D-04-0.405D-02-0.862D-02-0.115D-01 0.184D-01 0.156D+00
 Coeff:      0.849D+00
 Gap=     0.182 Goal=   None    Shift=    0.000
 Gap=     0.182 Goal=   None    Shift=    0.000
 RMSDP=8.04D-06 MaxDP=3.28D-04 DE=-8.20D-05 OVMax= 1.41D-03

 Initial convergence to 1.0D-05 achieved.  Increase integral accuracy.
 Cycle   8  Pass 1  IDiag  1:
 E= -3310.33433087991     Delta-E=        0.000474811556 Rises=F Damp=F
 DIIS: error= 1.53D-04 at cycle   1 NSaved=   1.
 NSaved= 1 IEnMin= 1 EnMin= -3310.33433087991     IErMin= 1 ErrMin= 1.53D-04
 ErrMax= 1.53D-04  0.00D+00 EMaxC= 1.00D-01 BMatC= 2.14D-05 BMatP= 2.14D-05
 IDIUse=3 WtCom= 9.98D-01 WtEn= 1.53D-03
 Coeff-Com:  0.100D+01
 Coeff-En:   0.100D+01
 Coeff:      0.100D+01
 Gap=     0.182 Goal=   None    Shift=    0.000
 Gap=     0.182 Goal=   None    Shift=    0.000
 RMSDP=8.04D-06 MaxDP=3.28D-04 DE= 4.75D-04 OVMax= 6.32D-04

 Cycle   9  Pass 1  IDiag  1:
 RMSU=  5.78D-05    CP:  1.00D+00
 E= -3310.33433097641     Delta-E=       -0.000000096496 Rises=F Damp=F
 DIIS: error= 6.70D-05 at cycle   2 NSaved=   2.
 NSaved= 2 IEnMin= 2 EnMin= -3310.33433097641     IErMin= 2 ErrMin= 6.70D-05
 ErrMax= 6.70D-05  0.00D+00 EMaxC= 1.00D-01 BMatC= 1.74D-05 BMatP= 2.14D-05
 IDIUse=1 WtCom= 1.00D+00 WtEn= 0.00D+00
 Coeff-Com:  0.465D+00 0.535D+00
 Coeff:      0.465D+00 0.535D+00
 Gap=     0.182 Goal=   None    Shift=    0.000
 Gap=     0.182 Goal=   None    Shift=    0.000
 RMSDP=6.38D-06 MaxDP=3.97D-04 DE=-9.65D-08 OVMax= 6.34D-04

 Cycle  10  Pass 1  IDiag  1:
 RMSU=  6.34D-06    CP:  1.00D+00  1.01D+00
 E= -3310.33433426452     Delta-E=       -0.000003288107 Rises=F Damp=F
 DIIS: error= 4.47D-05 at cycle   3 NSaved=   3.
 NSaved= 3 IEnMin= 3 EnMin= -3310.33433426452     IErMin= 3 ErrMin= 4.47D-05
 ErrMax= 4.47D-05  0.00D+00 EMaxC= 1.00D-01 BMatC= 5.86D-06 BMatP= 1.74D-05
 IDIUse=1 WtCom= 1.00D+00 WtEn= 0.00D+00
 Coeff-Com:  0.506D-03 0.365D+00 0.635D+00
 Coeff:      0.506D-03 0.365D+00 0.635D+00
 Gap=     0.182 Goal=   None    Shift=    0.000
 Gap=     0.182 Goal=   None    Shift=    0.000
 RMSDP=2.88D-06 MaxDP=1.67D-04 DE=-3.29D-06 OVMax= 2.71D-04

 Cycle  11  Pass 1  IDiag  1:
 RMSU=  1.18D-06    CP:  1.00D+00  1.04D+00  6.53D-01
 E= -3310.33433575059     Delta-E=       -0.000001486076 Rises=F Damp=F
 DIIS: error= 8.70D-06 at cycle   4 NSaved=   4.
 NSaved= 4 IEnMin= 4 EnMin= -3310.33433575059     IErMin= 4 ErrMin= 8.70D-06
 ErrMax= 8.70D-06  0.00D+00 EMaxC= 1.00D-01 BMatC= 3.68D-07 BMatP= 5.86D-06
 IDIUse=1 WtCom= 1.00D+00 WtEn= 0.00D+00
 Coeff-Com: -0.149D-01 0.206D+00 0.390D+00 0.418D+00
 Coeff:     -0.149D-01 0.206D+00 0.390D+00 0.418D+00
 Gap=     0.182 Goal=   None    Shift=    0.000
 Gap=     0.182 Goal=   None    Shift=    0.000
 RMSDP=6.03D-07 MaxDP=3.64D-05 DE=-1.49D-06 OVMax= 5.98D-05

 Cycle  12  Pass 1  IDiag  1:
 RMSU=  4.42D-07    CP:  1.00D+00  1.04D+00  6.72D-01  6.74D-01
 E= -3310.33433583669     Delta-E=       -0.000000086095 Rises=F Damp=F
 DIIS: error= 1.56D-06 at cycle   5 NSaved=   5.
 NSaved= 5 IEnMin= 5 EnMin= -3310.33433583669     IErMin= 5 ErrMin= 1.56D-06
 ErrMax= 1.56D-06  0.00D+00 EMaxC= 1.00D-01 BMatC= 6.35D-09 BMatP= 3.68D-07
 IDIUse=1 WtCom= 1.00D+00 WtEn= 0.00D+00
 Coeff-Com: -0.524D-02 0.550D-01 0.107D+00 0.147D+00 0.696D+00
 Coeff:     -0.524D-02 0.550D-01 0.107D+00 0.147D+00 0.696D+00
 Gap=     0.182 Goal=   None    Shift=    0.000
 Gap=     0.182 Goal=   None    Shift=    0.000
 RMSDP=1.74D-07 MaxDP=6.86D-06 DE=-8.61D-08 OVMax= 3.01D-05

 Cycle  13  Pass 1  IDiag  1:
 RMSU=  1.49D-07    CP:  1.00D+00  1.04D+00  6.75D-01  7.41D-01  1.06D+00
 E= -3310.33433583946     Delta-E=       -0.000000002774 Rises=F Damp=F
 DIIS: error= 1.22D-06 at cycle   6 NSaved=   6.
 NSaved= 6 IEnMin= 6 EnMin= -3310.33433583946     IErMin= 6 ErrMin= 1.22D-06
 ErrMax= 1.22D-06  0.00D+00 EMaxC= 1.00D-01 BMatC= 3.83D-09 BMatP= 6.35D-09
 IDIUse=1 WtCom= 1.00D+00 WtEn= 0.00D+00
 Coeff-Com:  0.304D-02-0.543D-01-0.101D+00-0.851D-01 0.496D+00 0.741D+00
 Coeff:      0.304D-02-0.543D-01-0.101D+00-0.851D-01 0.496D+00 0.741D+00
 Gap=     0.182 Goal=   None    Shift=    0.000
 Gap=     0.182 Goal=   None    Shift=    0.000
 RMSDP=1.31D-07 MaxDP=4.66D-06 DE=-2.77D-09 OVMax= 2.85D-05

 Cycle  14  Pass 1  IDiag  1:
 RMSU=  7.76D-08    CP:  1.00D+00  1.04D+00  6.75D-01  7.83D-01  1.27D+00
                    CP:  9.49D-01
 E= -3310.33433584143     Delta-E=       -0.000000001974 Rises=F Damp=F
 DIIS: error= 2.74D-07 at cycle   7 NSaved=   7.
 NSaved= 7 IEnMin= 7 EnMin= -3310.33433584143     IErMin= 7 ErrMin= 2.74D-07
 ErrMax= 2.74D-07  0.00D+00 EMaxC= 1.00D-01 BMatC= 2.29D-10 BMatP= 3.83D-09
 IDIUse=1 WtCom= 1.00D+00 WtEn= 0.00D+00
 Coeff-Com:  0.190D-02-0.315D-01-0.588D-01-0.534D-01 0.201D+00 0.365D+00
 Coeff-Com:  0.576D+00
 Coeff:      0.190D-02-0.315D-01-0.588D-01-0.534D-01 0.201D+00 0.365D+00
 Coeff:      0.576D+00
 Gap=     0.182 Goal=   None    Shift=    0.000
 Gap=     0.182 Goal=   None    Shift=    0.000
 RMSDP=2.66D-08 MaxDP=1.53D-06 DE=-1.97D-09 OVMax= 4.04D-06

 Cycle  15  Pass 1  IDiag  1:
 RMSU=  2.11D-08    CP:  1.00D+00  1.04D+00  6.75D-01  7.89D-01  1.29D+00
                    CP:  1.01D+00  1.05D+00
 E= -3310.33433584144     Delta-E=       -0.000000000010 Rises=F Damp=F
 DIIS: error= 9.54D-08 at cycle   8 NSaved=   8.
 NSaved= 8 IEnMin= 8 EnMin= -3310.33433584144     IErMin= 8 ErrMin= 9.54D-08
 ErrMax= 9.54D-08  0.00D+00 EMaxC= 1.00D-01 BMatC= 3.50D-11 BMatP= 2.29D-10
 IDIUse=1 WtCom= 1.00D+00 WtEn= 0.00D+00
 Coeff-Com:  0.253D-03-0.330D-02-0.625D-02-0.685D-02-0.887D-02 0.173D-01
 Coeff-Com:  0.290D+00 0.717D+00
 Coeff:      0.253D-03-0.330D-02-0.625D-02-0.685D-02-0.887D-02 0.173D-01
 Coeff:      0.290D+00 0.717D+00
 Gap=     0.182 Goal=   None    Shift=    0.000
 Gap=     0.182 Goal=   None    Shift=    0.000
 RMSDP=1.11D-08 MaxDP=5.56D-07 DE=-1.00D-11 OVMax= 1.74D-06

 Cycle  16  Pass 1  IDiag  1:
 RMSU=  6.19D-09    CP:  1.00D+00  1.04D+00  6.75D-01  7.90D-01  1.29D+00
                    CP:  1.03D+00  1.14D+00  8.51D-01
 E= -3310.33433584142     Delta-E=        0.000000000025 Rises=F Damp=F
 DIIS: error= 3.54D-08 at cycle   9 NSaved=   9.
 NSaved= 9 IEnMin= 8 EnMin= -3310.33433584144     IErMin= 9 ErrMin= 3.54D-08
 ErrMax= 3.54D-08  0.00D+00 EMaxC= 1.00D-01 BMatC= 7.53D-12 BMatP= 3.50D-11
 IDIUse=1 WtCom= 1.00D+00 WtEn= 0.00D+00
 Coeff-Com: -0.538D-04 0.141D-02 0.259D-02 0.173D-02-0.261D-01-0.274D-01
 Coeff-Com:  0.114D+00 0.424D+00 0.510D+00
 Coeff:     -0.538D-04 0.141D-02 0.259D-02 0.173D-02-0.261D-01-0.274D-01
 Coeff:      0.114D+00 0.424D+00 0.510D+00
 Gap=     0.182 Goal=   None    Shift=    0.000
 Gap=     0.182 Goal=   None    Shift=    0.000
 RMSDP=3.56D-09 MaxDP=2.51D-07 DE= 2.46D-11 OVMax= 4.51D-07

 SCF Done:  E(ULC-wPBE) =  -3310.33433584     A.U. after   16 cycles
            NFock= 16  Conv=0.36D-08     -V/T= 2.0030
 <Sx>= 0.0000 <Sy>= 0.0000 <Sz>= 0.0000 <S**2>=-0.0000 S=-0.0000
 <L.S>= 0.000000000000E+00
 KE= 3.300363704500D+03 PE=-1.425962865274D+04 EE= 4.427740551850D+03
 Annihilation of the first spin contaminant:
 S**2 before annihilation    -0.0000,   after     0.0000
 Leave Link  502 at Fri Jul 24 12:16:58 2020, MaxMem=  4026531840 cpu:            2358.3 elap:             295.8
 (Enter /opt/ohpc/pub/libs/gaussian/g16-A.03/sandybridge/g16/l601.exe)
 Copying SCF densities to generalized density rwf, IOpCl= 1 IROHF=0.

 **********************************************************************

            Population analysis using the SCF density.

 **********************************************************************

 Orbital symmetries:
 Alpha Orbitals:
       Occupied  (A) (A) (A) (A) (A) (A) (A) (A) (A) (A) (A) (A)
                 (A) (A) (A) (A) (A) (A) (A) (A) (A) (A) (A) (A)
                 (A) (A) (A) (A) (A) (A) (A) (A) (A) (A) (A) (A)
                 (A) (A) (A) (A) (A) (A) (A) (A) (A) (A) (A) (A)
                 (A) (A) (A) (A) (A) (A) (A) (A) (A) (A) (A) (A)
                 (A) (A) (A) (A) (A) (A) (A) (A) (A) (A) (A) (A)
                 (A) (A) (A) (A) (A) (A) (A) (A) (A) (A) (A) (A)
                 (A) (A) (A) (A) (A) (A) (A) (A) (A) (A) (A) (A)
                 (A) (A) (A) (A) (A) (A) (A) (A) (A) (A) (A) (A)
                 (A) (A) (A) (A) (A) (A) (A) (A) (A) (A) (A) (A)
                 (A) (A) (A) (A) (A) (A) (A)
       Virtual   (A) (A) (A) (A) (A) (A) (A) (A) (A) (A) (A) (A)
                 (A) (A) (A) (A) (A) (A) (A) (A) (A) (A) (A) (A)
                 (A) (A) (A) (A) (A) (A) (A) (A) (A) (A) (A) (A)
                 (A) (A) (A) (A) (A) (A) (A) (A) (A) (A) (A) (A)
                 (A) (A) (A) (A) (A) (A) (A) (A) (A) (A) (A) (A)
                 (A) (A) (A) (A) (A) (A) (A) (A) (A) (A) (A) (A)
                 (A) (A) (A) (A) (A) (A) (A) (A) (A) (A) (A) (A)
                 (A) (A) (A) (A) (A) (A) (A) (A) (A) (A) (A) (A)
                 (A) (A) (A) (A) (A) (A) (A) (A) (A) (A) (A) (A)
                 (A) (A) (A) (A) (A) (A) (A) (A) (A) (A) (A) (A)
                 (A) (A) (A) (A) (A) (A) (A) (A) (A) (A) (A) (A)
                 (A) (A) (A) (A) (A) (A) (A) (A) (A) (A) (A) (A)
                 (A) (A) (A) (A) (A) (A) (A) (A) (A) (A) (A) (A)
                 (A) (A) (A) (A) (A) (A) (A) (A) (A) (A) (A) (A)
                 (A) (A) (A) (A) (A) (A) (A) (A) (A) (A) (A) (A)
                 (A) (A) (A) (A) (A) (A) (A) (A) (A) (A) (A) (A)
                 (A) (A) (A) (A) (A) (A) (A) (A) (A) (A) (A) (A)
                 (A) (A) (A) (A) (A) (A) (A) (A) (A) (A) (A) (A)
                 (A) (A) (A) (A) (A) (A) (A) (A) (A) (A) (A) (A)
                 (A) (A) (A) (A) (A) (A) (A) (A) (A) (A) (A) (A)
                 (A) (A) (A) (A) (A) (A) (A) (A) (A) (A) (A) (A)
                 (A) (A) (A) (A) (A) (A) (A) (A) (A) (A) (A) (A)
                 (A) (A) (A) (A) (A) (A) (A) (A) (A) (A) (A) (A)
                 (A) (A) (A) (A) (A) (A) (A) (A) (A) (A) (A) (A)
                 (A) (A) (A) (A) (A) (A) (A) (A) (A) (A) (A) (A)
                 (A) (A) (A) (A) (A) (A) (A) (A) (A) (A) (A) (A)
                 (A) (A) (A) (A) (A) (A) (A) (A) (A) (A) (A) (A)
                 (A) (A) (A) (A) (A) (A) (A) (A) (A) (A) (A) (A)
                 (A) (A) (A) (A) (A) (A) (A) (A) (A) (A) (A) (A)
                 (A) (A) (A) (A) (A) (A) (A) (A) (A) (A) (A) (A)
                 (A) (A) (A) (A) (A) (A) (A) (A) (A) (A) (A) (A)
                 (A) (A) (A) (A) (A) (A) (A) (A) (A) (A) (A) (A)
                 (A) (A) (A)
 Beta  Orbitals:
       Occupied  (A) (A) (A) (A) (A) (A) (A) (A) (A) (A) (A) (A)
                 (A) (A) (A) (A) (A) (A) (A) (A) (A) (A) (A) (A)
                 (A) (A) (A) (A) (A) (A) (A) (A) (A) (A) (A) (A)
                 (A) (A) (A) (A) (A) (A) (A) (A) (A) (A) (A) (A)
                 (A) (A) (A) (A) (A) (A) (A) (A) (A) (A) (A) (A)
                 (A) (A) (A) (A) (A) (A) (A) (A) (A) (A) (A) (A)
                 (A) (A) (A) (A) (A) (A) (A) (A) (A) (A) (A) (A)
                 (A) (A) (A) (A) (A) (A) (A) (A) (A) (A) (A) (A)
                 (A) (A) (A) (A) (A) (A) (A) (A) (A) (A) (A) (A)
                 (A) (A) (A) (A) (A) (A) (A) (A) (A) (A) (A) (A)
                 (A) (A) (A) (A) (A) (A) (A)
       Virtual   (A) (A) (A) (A) (A) (A) (A) (A) (A) (A) (A) (A)
                 (A) (A) (A) (A) (A) (A) (A) (A) (A) (A) (A) (A)
                 (A) (A) (A) (A) (A) (A) (A) (A) (A) (A) (A) (A)
                 (A) (A) (A) (A) (A) (A) (A) (A) (A) (A) (A) (A)
                 (A) (A) (A) (A) (A) (A) (A) (A) (A) (A) (A) (A)
                 (A) (A) (A) (A) (A) (A) (A) (A) (A) (A) (A) (A)
                 (A) (A) (A) (A) (A) (A) (A) (A) (A) (A) (A) (A)
                 (A) (A) (A) (A) (A) (A) (A) (A) (A) (A) (A) (A)
                 (A) (A) (A) (A) (A) (A) (A) (A) (A) (A) (A) (A)
                 (A) (A) (A) (A) (A) (A) (A) (A) (A) (A) (A) (A)
                 (A) (A) (A) (A) (A) (A) (A) (A) (A) (A) (A) (A)
                 (A) (A) (A) (A) (A) (A) (A) (A) (A) (A) (A) (A)
                 (A) (A) (A) (A) (A) (A) (A) (A) (A) (A) (A) (A)
                 (A) (A) (A) (A) (A) (A) (A) (A) (A) (A) (A) (A)
                 (A) (A) (A) (A) (A) (A) (A) (A) (A) (A) (A) (A)
                 (A) (A) (A) (A) (A) (A) (A) (A) (A) (A) (A) (A)
                 (A) (A) (A) (A) (A) (A) (A) (A) (A) (A) (A) (A)
                 (A) (A) (A) (A) (A) (A) (A) (A) (A) (A) (A) (A)
                 (A) (A) (A) (A) (A) (A) (A) (A) (A) (A) (A) (A)
                 (A) (A) (A) (A) (A) (A) (A) (A) (A) (A) (A) (A)
                 (A) (A) (A) (A) (A) (A) (A) (A) (A) (A) (A) (A)
                 (A) (A) (A) (A) (A) (A) (A) (A) (A) (A) (A) (A)
                 (A) (A) (A) (A) (A) (A) (A) (A) (A) (A) (A) (A)
                 (A) (A) (A) (A) (A) (A) (A) (A) (A) (A) (A) (A)
                 (A) (A) (A) (A) (A) (A) (A) (A) (A) (A) (A) (A)
                 (A) (A) (A) (A) (A) (A) (A) (A) (A) (A) (A) (A)
                 (A) (A) (A) (A) (A) (A) (A) (A) (A) (A) (A) (A)
                 (A) (A) (A) (A) (A) (A) (A) (A) (A) (A) (A) (A)
                 (A) (A) (A) (A) (A) (A) (A) (A) (A) (A) (A) (A)
                 (A) (A) (A) (A) (A) (A) (A) (A) (A) (A) (A) (A)
                 (A) (A) (A) (A) (A) (A) (A) (A) (A) (A) (A) (A)
                 (A) (A) (A) (A) (A) (A) (A) (A) (A) (A) (A) (A)
                 (A) (A) (A)
 The electronic state is 1-A.
 Alpha  occ. eigenvalues --  -88.17547 -88.17400 -88.17368 -88.17319 -88.17172
 Alpha  occ. eigenvalues --  -88.17129 -10.01905 -10.01529 -10.01384 -10.01303
 Alpha  occ. eigenvalues --  -10.01246 -10.01151 -10.01120 -10.00926 -10.00777
 Alpha  occ. eigenvalues --  -10.00721  -9.99305  -9.99089  -9.98399  -9.98234
 Alpha  occ. eigenvalues --   -9.98186  -9.98039  -9.97981  -9.97881  -9.97852
 Alpha  occ. eigenvalues --   -9.97790  -9.97781  -9.97757  -9.97445  -9.96926
 Alpha  occ. eigenvalues --   -7.77980  -7.77903  -7.77859  -7.77737  -7.77499
 Alpha  occ. eigenvalues --   -7.77448  -5.80046  -5.79990  -5.79917  -5.79832
 Alpha  occ. eigenvalues --   -5.79625  -5.79576  -5.79562  -5.79518  -5.79435
 Alpha  occ. eigenvalues --   -5.79345  -5.79209  -5.79152  -5.79101  -5.79099
 Alpha  occ. eigenvalues --   -5.79074  -5.78924  -5.78644  -5.78611  -0.91249
 Alpha  occ. eigenvalues --   -0.90396  -0.89746  -0.89279  -0.88097  -0.86534
 Alpha  occ. eigenvalues --   -0.80414  -0.78559  -0.76605  -0.75750  -0.75332
 Alpha  occ. eigenvalues --   -0.74835  -0.74582  -0.74056  -0.73081  -0.72749
 Alpha  occ. eigenvalues --   -0.71145  -0.69526  -0.63780  -0.63071  -0.61615
 Alpha  occ. eigenvalues --   -0.60423  -0.59080  -0.57726  -0.57134  -0.55998
 Alpha  occ. eigenvalues --   -0.55604  -0.54972  -0.54839  -0.54581  -0.54295
 Alpha  occ. eigenvalues --   -0.54127  -0.52495  -0.49930  -0.47545  -0.46696
 Alpha  occ. eigenvalues --   -0.45028  -0.44888  -0.44574  -0.44408  -0.44347
 Alpha  occ. eigenvalues --   -0.43933  -0.43653  -0.43497  -0.43285  -0.42473
 Alpha  occ. eigenvalues --   -0.42280  -0.42213  -0.41268  -0.40952  -0.40446
 Alpha  occ. eigenvalues --   -0.40037  -0.39715  -0.39613  -0.39239  -0.38695
 Alpha  occ. eigenvalues --   -0.37915  -0.37546  -0.36876  -0.36420  -0.35759
 Alpha  occ. eigenvalues --   -0.35356  -0.32912  -0.30451  -0.30040  -0.29657
 Alpha  occ. eigenvalues --   -0.29417  -0.29166  -0.28835  -0.28365  -0.27139
 Alpha  occ. eigenvalues --   -0.24610  -0.22400
 Alpha virt. eigenvalues --   -0.04171  -0.02272   0.00208   0.02095   0.03957
 Alpha virt. eigenvalues --    0.04398   0.04480   0.05694   0.05877   0.06286
 Alpha virt. eigenvalues --    0.06575   0.06872   0.07656   0.08251   0.09801
 Alpha virt. eigenvalues --    0.10031   0.10476   0.10665   0.10827   0.11052
 Alpha virt. eigenvalues --    0.11431   0.11582   0.11741   0.12220   0.12432
 Alpha virt. eigenvalues --    0.13177   0.13986   0.14522   0.15243   0.16282
[...]
 --------------------------------------------------------
     1   Atom        0.000000     -0.000000      0.000000
     2   Atom        0.000000     -0.000000     -0.000000
     3   Atom        0.000000      0.000000     -0.000000
     4   Atom       -0.000000      0.000000     -0.000000
     5   Atom       -0.000000     -0.000000      0.000000
     6   Atom       -0.000000      0.000000     -0.000000
     7   Atom        0.000000      0.000000     -0.000000
     8   Atom        0.000000     -0.000000      0.000000
     9   Atom       -0.000000     -0.000000      0.000000
    10   Atom       -0.000000      0.000000     -0.000000
    11   Atom       -0.000000      0.000000      0.000000
    12   Atom       -0.000000     -0.000000      0.000000
    13   Atom        0.000000     -0.000000      0.000000
    14   Atom        0.000000     -0.000000     -0.000000
    15   Atom        0.000000     -0.000000      0.000000
    16   Atom        0.000000     -0.000000     -0.000000
    17   Atom        0.000000     -0.000000      0.000000
    18   Atom       -0.000000     -0.000000      0.000000
    19   Atom        0.000000     -0.000000      0.000000
    20   Atom        0.000000     -0.000000      0.000000
    21   Atom        0.000000     -0.000000     -0.000000
    22   Atom       -0.000000      0.000000      0.000000
    23   Atom       -0.000000     -0.000000      0.000000
    24   Atom        0.000000     -0.000000     -0.000000
    25   Atom        0.000000     -0.000000     -0.000000
    26   Atom       -0.000000      0.000000     -0.000000
    27   Atom       -0.000000      0.000000     -0.000000
    28   Atom        0.000000      0.000000     -0.000000
    29   Atom        0.000000     -0.000000      0.000000
    30   Atom       -0.000000      0.000000     -0.000000
    31   Atom       -0.000000     -0.000000      0.000000
    32   Atom       -0.000000      0.000000     -0.000000
    33   Atom       -0.000000     -0.000000      0.000000
    34   Atom        0.000000      0.000000     -0.000000
    35   Atom       -0.000000      0.000000      0.000000
    36   Atom       -0.000000     -0.000000      0.000000
    37   Atom        0.000000     -0.000000      0.000000
    38   Atom        0.000000     -0.000000      0.000000
    39   Atom       -0.000000     -0.000000      0.000000
    40   Atom        0.000000     -0.000000      0.000000
    41   Atom        0.000000     -0.000000      0.000000
    42   Atom        0.000000      0.000000     -0.000000
    43   Atom       -0.000000      0.000000     -0.000000
    44   Atom        0.000000     -0.000000     -0.000000
 --------------------------------------------------------
                        XY            XZ            YZ
 --------------------------------------------------------
     1   Atom       -0.000000      0.000000      0.000000
     2   Atom       -0.000000      0.000000     -0.000000
     3   Atom       -0.000000      0.000000     -0.000000
     4   Atom       -0.000000      0.000000     -0.000000
     5   Atom        0.000000      0.000000      0.000000
     6   Atom       -0.000000     -0.000000      0.000000
     7   Atom        0.000000     -0.000000      0.000000
     8   Atom        0.000000      0.000000     -0.000000
     9   Atom       -0.000000      0.000000     -0.000000
    10   Atom       -0.000000     -0.000000      0.000000
    11   Atom       -0.000000      0.000000     -0.000000
    12   Atom       -0.000000      0.000000      0.000000
    13   Atom       -0.000000     -0.000000     -0.000000
    14   Atom       -0.000000     -0.000000      0.000000
    15   Atom        0.000000     -0.000000      0.000000
    16   Atom       -0.000000      0.000000      0.000000
    17   Atom        0.000000      0.000000     -0.000000
    18   Atom        0.000000     -0.000000     -0.000000
    19   Atom        0.000000     -0.000000      0.000000
    20   Atom       -0.000000     -0.000000      0.000000
    21   Atom        0.000000      0.000000     -0.000000
    22   Atom       -0.000000     -0.000000     -0.000000
    23   Atom       -0.000000     -0.000000     -0.000000
    24   Atom       -0.000000     -0.000000     -0.000000
    25   Atom       -0.000000      0.000000     -0.000000
    26   Atom        0.000000     -0.000000     -0.000000
    27   Atom       -0.000000      0.000000     -0.000000
    28   Atom       -0.000000      0.000000     -0.000000
    29   Atom       -0.000000     -0.000000      0.000000
    30   Atom        0.000000      0.000000     -0.000000
    31   Atom        0.000000     -0.000000     -0.000000
    32   Atom       -0.000000      0.000000     -0.000000
    33   Atom        0.000000     -0.000000     -0.000000
    34   Atom        0.000000      0.000000      0.000000
    35   Atom       -0.000000     -0.000000      0.000000
    36   Atom        0.000000     -0.000000      0.000000
    37   Atom       -0.000000      0.000000      0.000000
    38   Atom       -0.000000     -0.000000     -0.000000
    39   Atom        0.000000      0.000000     -0.000000
    40   Atom        0.000000     -0.000000      0.000000
    41   Atom       -0.000000     -0.000000     -0.000000
    42   Atom        0.000000     -0.000000     -0.000000
    43   Atom       -0.000000      0.000000     -0.000000
    44   Atom        0.000000     -0.000000     -0.000000
 --------------------------------------------------------


 ---------------------------------------------------------------------------------
              Anisotropic Spin Dipole Couplings in Principal Axis System
 ---------------------------------------------------------------------------------

       Atom             a.u.   MegaHertz   Gauss  10(-4) cm-1        Axes

              Baa    -0.0000    -0.000    -0.000    -0.000  0.4065  0.8468 -0.3430
     1 C(13)  Bbb     0.0000     0.000     0.000     0.000  0.7616 -0.1066  0.6393
              Bcc     0.0000     0.000     0.000     0.000 -0.5048  0.5210  0.6883
 
              Baa    -0.0000    -0.000    -0.000    -0.000  0.2781  0.9575 -0.0770
     2 C(13)  Bbb    -0.0000    -0.000    -0.000    -0.000 -0.1645  0.1264  0.9782
              Bcc     0.0000     0.000     0.000     0.000  0.9464 -0.2594  0.1926
 
              Baa    -0.0000    -0.000    -0.000    -0.000 -0.0476 -0.0150  0.9988
     3 C(13)  Bbb    -0.0000    -0.000    -0.000    -0.000  0.8092  0.5856  0.0474
              Bcc     0.0000     0.000     0.000     0.000 -0.5856  0.8105 -0.0157
 
              Baa    -0.0000    -0.000    -0.000    -0.000 -0.1572 -0.0657  0.9854
     4 C(13)  Bbb    -0.0000    -0.000    -0.000    -0.000  0.8805  0.4425  0.1699
              Bcc     0.0000     0.000     0.000     0.000 -0.4472  0.8943 -0.0117
 
              Baa    -0.0000    -0.000    -0.000    -0.000 -0.6908  0.7161  0.0997
     5 S(33)  Bbb     0.0000     0.000     0.000     0.000 -0.1237 -0.2529  0.9596
              Bcc     0.0000     0.000     0.000     0.000  0.7123  0.6506  0.2633
 
              Baa    -0.0000    -0.000    -0.000    -0.000  0.8359  0.5347 -0.1240
     6 C(13)  Bbb    -0.0000    -0.000    -0.000    -0.000  0.1495 -0.0044  0.9888
              Bcc     0.0000     0.000     0.000     0.000 -0.5281  0.8450  0.0836
 
              Baa    -0.0000    -0.000    -0.000    -0.000  0.1128 -0.1168  0.9867
     7 C(13)  Bbb     0.0000     0.000     0.000     0.000  0.9900 -0.0711 -0.1216
              Bcc     0.0000     0.000     0.000     0.000  0.0844  0.9906  0.1076
 
              Baa    -0.0000    -0.000    -0.000    -0.000 -0.3124  0.9169  0.2482
     8 C(13)  Bbb     0.0000     0.000     0.000     0.000  0.8634  0.1651  0.4767
              Bcc     0.0000     0.000     0.000     0.000 -0.3962 -0.3633  0.8433
 
              Baa    -0.0000    -0.000    -0.000    -0.000  0.9179  0.3841  0.1001
     9 C(13)  Bbb    -0.0000    -0.000    -0.000    -0.000 -0.3923  0.8397  0.3755
              Bcc     0.0000     0.000     0.000     0.000  0.0601 -0.3839  0.9214
 
              Baa    -0.0000    -0.000    -0.000    -0.000  0.2026 -0.0301  0.9788
    10 S(33)  Bbb    -0.0000    -0.000    -0.000    -0.000  0.9778  0.0605 -0.2005
              Bcc     0.0000     0.000     0.000     0.000 -0.0532  0.9977  0.0417
 
              Baa    -0.0000    -0.000    -0.000    -0.000  0.9981  0.0565 -0.0247
    11 C(13)  Bbb     0.0000     0.000     0.000     0.000  0.0164  0.1439  0.9895
              Bcc     0.0000     0.000     0.000     0.000 -0.0595  0.9880 -0.1427
 
              Baa    -0.0000    -0.000    -0.000    -0.000  0.9740  0.2196 -0.0548
    12 C(13)  Bbb    -0.0000    -0.000    -0.000    -0.000 -0.2248  0.9671 -0.1190
              Bcc     0.0000     0.000     0.000     0.000  0.0269  0.1282  0.9914
 
              Baa    -0.0000    -0.000    -0.000    -0.000  0.5913  0.8018  0.0859
    13 C(13)  Bbb     0.0000     0.000     0.000     0.000 -0.0461 -0.0727  0.9963
              Bcc     0.0000     0.000     0.000     0.000  0.8051 -0.5931 -0.0061
 
              Baa    -0.0000    -0.000    -0.000    -0.000  0.0884 -0.0123  0.9960
    14 C(13)  Bbb    -0.0000    -0.000    -0.000    -0.000  0.0399  0.9992  0.0088
              Bcc     0.0000     0.000     0.000     0.000  0.9953 -0.0390 -0.0888
 
              Baa    -0.0000    -0.000    -0.000    -0.000 -0.5997  0.7960 -0.0818
    15 S(33)  Bbb     0.0000     0.000     0.000     0.000 -0.0261  0.0827  0.9962
              Bcc     0.0000     0.000     0.000     0.000  0.7998  0.5996 -0.0288
 
              Baa    -0.0000    -0.000    -0.000    -0.000  0.2114  0.9185 -0.3342
    16 C(13)  Bbb    -0.0000    -0.000    -0.000    -0.000 -0.0390  0.3496  0.9361
              Bcc     0.0000     0.000     0.000     0.000  0.9766 -0.1849  0.1098
 
              Baa    -0.0000    -0.000    -0.000    -0.000 -0.4265  0.8855  0.1847
    17 C(13)  Bbb     0.0000     0.000     0.000     0.000  0.9045  0.4157  0.0955
              Bcc     0.0000     0.000     0.000     0.000 -0.0078 -0.2077  0.9782
 
              Baa    -0.0000    -0.000    -0.000    -0.000 -0.0427  0.9786  0.2014
    18 C(13)  Bbb     0.0000     0.000     0.000     0.000  0.9988  0.0371  0.0314
              Bcc     0.0000     0.000     0.000     0.000 -0.0233 -0.2025  0.9790
 
              Baa    -0.0000    -0.000    -0.000    -0.000 -0.4384  0.7989 -0.4118
    19 C(13)  Bbb     0.0000     0.000     0.000     0.000 -0.4456  0.2047  0.8715
              Bcc     0.0000     0.000     0.000     0.000  0.7805  0.5656  0.2662
 
              Baa    -0.0000    -0.000    -0.000    -0.000  0.4663  0.8774 -0.1127
    20 S(33)  Bbb    -0.0000    -0.000    -0.000    -0.000  0.5096 -0.1623  0.8450
              Bcc     0.0000     0.000     0.000     0.000  0.7231 -0.4514 -0.5228
 
              Baa    -0.0000    -0.000    -0.000    -0.000 -0.1496  0.7442  0.6510
    21 C(13)  Bbb    -0.0000    -0.000    -0.000    -0.000  0.0386 -0.6535  0.7559
              Bcc     0.0000     0.000     0.000     0.000  0.9880  0.1382  0.0690
 
              Baa    -0.0000    -0.000    -0.000    -0.000  0.9930  0.0817  0.0848
    22 C(13)  Bbb     0.0000     0.000     0.000     0.000 -0.0816  0.9967 -0.0044
              Bcc     0.0000     0.000     0.000     0.000 -0.0849 -0.0026  0.9964
 
              Baa    -0.0000    -0.000    -0.000    -0.000  0.7297  0.6822  0.0457
    23 C(13)  Bbb     0.0000     0.000     0.000     0.000 -0.6787  0.7309 -0.0717
              Bcc     0.0000     0.000     0.000     0.000 -0.0823  0.0213  0.9964
 
              Baa    -0.0000    -0.000    -0.000    -0.000  0.0107  0.0190  0.9998
    24 C(13)  Bbb    -0.0000    -0.000    -0.000    -0.000  0.1206  0.9925 -0.0201
              Bcc     0.0000     0.000     0.000     0.000  0.9926 -0.1208 -0.0084
 
              Baa    -0.0000    -0.000    -0.000    -0.000  0.3059  0.8238  0.4772
    25 S(33)  Bbb    -0.0000    -0.000    -0.000    -0.000 -0.3246 -0.3810  0.8657
              Bcc     0.0000     0.000     0.000     0.000  0.8950 -0.4197  0.1509
 
              Baa    -0.0000    -0.000    -0.000    -0.000  0.9949 -0.0191  0.0991
    26 C(13)  Bbb    -0.0000    -0.000    -0.000    -0.000 -0.0971  0.0846  0.9917
              Bcc     0.0000     0.000     0.000     0.000  0.0273  0.9962 -0.0823
 
              Baa    -0.0000    -0.000    -0.000    -0.000  0.1522  0.3620  0.9197
    27 C(13)  Bbb    -0.0000    -0.000    -0.000    -0.000  0.9495  0.2047 -0.2377
              Bcc     0.0000     0.000     0.000     0.000 -0.2743  0.9094 -0.3126
 
              Baa    -0.0000    -0.000    -0.000    -0.000  0.6447  0.7639 -0.0291
    28 C(13)  Bbb    -0.0000    -0.000    -0.000    -0.000 -0.1454  0.1600  0.9764
              Bcc     0.0000     0.000     0.000     0.000  0.7505 -0.6252  0.2142
 
              Baa    -0.0000    -0.000    -0.000    -0.000  0.2887  0.8007 -0.5249
    29 C(13)  Bbb     0.0000     0.000     0.000     0.000  0.9214 -0.0834  0.3795
              Bcc     0.0000     0.000     0.000     0.000 -0.2601  0.5932  0.7618
 
              Baa    -0.0000    -0.000    -0.000    -0.000  0.8930 -0.2984 -0.3369
    30 S(33)  Bbb    -0.0000    -0.000    -0.000    -0.000  0.4197  0.2818  0.8628
              Bcc     0.0000     0.000     0.000     0.000  0.1626  0.9119 -0.3769
 
              Baa    -0.0000    -0.000    -0.000    -0.000  0.8888 -0.3571  0.2873
    31 H(1)   Bbb    -0.0000    -0.000    -0.000    -0.000  0.2915  0.9242  0.2468
              Bcc     0.0000     0.000     0.000     0.000 -0.3537 -0.1356  0.9255
 
              Baa    -0.0000    -0.000    -0.000    -0.000 -0.4454  0.0078  0.8953
    32 H(1)   Bbb    -0.0000    -0.000    -0.000    -0.000  0.8607  0.2790  0.4258
              Bcc     0.0000     0.000     0.000     0.000 -0.2465  0.9603 -0.1309
 
              Baa    -0.0000    -0.000    -0.000    -0.000 -0.6567  0.7485  0.0921
    33 H(1)   Bbb     0.0000     0.000     0.000     0.000  0.5378  0.3792  0.7529
              Bcc     0.0000     0.000     0.000     0.000 -0.5286 -0.5440  0.6516
 
              Baa    -0.0000    -0.000    -0.000    -0.000  0.1548 -0.5387  0.8282
    34 H(1)   Bbb    -0.0000    -0.000    -0.000    -0.000  0.7327 -0.4997 -0.4620
              Bcc     0.0000     0.000     0.000     0.000  0.6627  0.6783  0.3174
 
              Baa    -0.0000    -0.000    -0.000    -0.000  0.9371  0.3464  0.0438
    35 H(1)   Bbb    -0.0000    -0.000    -0.000    -0.000  0.1240 -0.4473  0.8857
              Bcc     0.0000     0.000     0.000     0.000 -0.3264  0.8246  0.4621
 
              Baa    -0.0000    -0.000    -0.000    -0.000 -0.6703  0.7413 -0.0348
    36 H(1)   Bbb     0.0000     0.000     0.000     0.000  0.7420  0.6701 -0.0189
              Bcc     0.0000     0.000     0.000     0.000 -0.0093  0.0384  0.9992
 
              Baa    -0.0000    -0.000    -0.000    -0.000  0.4480  0.8458 -0.2898
    37 H(1)   Bbb     0.0000     0.000     0.000     0.000 -0.0300  0.3382  0.9406
              Bcc     0.0000     0.000     0.000     0.000  0.8936 -0.4127  0.1768
 
              Baa    -0.0000    -0.000    -0.000    -0.000  0.5130  0.8186  0.2584
    38 H(1)   Bbb     0.0000     0.000     0.000     0.000 -0.5459  0.0788  0.8341
              Bcc     0.0000     0.000     0.000     0.000  0.6624 -0.5690  0.4873
 
              Baa    -0.0000    -0.000    -0.000    -0.000 -0.6349  0.7397  0.2231
    39 H(1)   Bbb     0.0000     0.000     0.000     0.000  0.7715  0.5911  0.2354
              Bcc     0.0000     0.000     0.000     0.000 -0.0422 -0.3215  0.9460
 
              Baa    -0.0000    -0.000    -0.000    -0.000 -0.3113  0.9447 -0.1032
    40 H(1)   Bbb     0.0000     0.000     0.000     0.000  0.9424  0.3209  0.0944
              Bcc     0.0000     0.000     0.000     0.000 -0.1223  0.0678  0.9902
 
              Baa    -0.0000    -0.000    -0.000    -0.000  0.3089  0.9431  0.1234
    41 H(1)   Bbb     0.0000     0.000     0.000     0.000  0.8788 -0.3326  0.3422
              Bcc     0.0000     0.000     0.000     0.000 -0.3637 -0.0027  0.9315
 
              Baa    -0.0000    -0.000    -0.000    -0.000  0.5940 -0.4657  0.6560
    42 H(1)   Bbb    -0.0000    -0.000    -0.000    -0.000 -0.3604  0.5749  0.7345
              Bcc     0.0000     0.000     0.000     0.000  0.7192  0.6727 -0.1736
 
              Baa    -0.0000    -0.000    -0.000    -0.000  0.1506  0.3937  0.9068
    43 H(1)   Bbb    -0.0000    -0.000    -0.000    -0.000  0.9389  0.2302 -0.2559
              Bcc     0.0000     0.000     0.000     0.000 -0.3095  0.8899 -0.3350
 
              Baa    -0.0000    -0.000    -0.000    -0.000 -0.4680  0.8559  0.2201
    44 H(1)   Bbb    -0.0000    -0.000    -0.000    -0.000  0.3732 -0.0343  0.9271
              Bcc     0.0000     0.000     0.000     0.000  0.8011  0.5160 -0.3034
 

 ---------------------------------------------------------------------------------

 No NMR shielding tensors so no spin-rotation constants.
 Leave Link  601 at Fri Jul 24 15:37:02 2020, MaxMem=  4026531840 cpu:               4.3 elap:               0.6
 (Enter /opt/ohpc/pub/libs/gaussian/g16-A.03/sandybridge/g16/l9999.exe)

 Test job not archived.
 1\1\GINC-SKYLAKE014\FOpt\ULC-wPBE\CC-pVDZ\C24H14S6\RDU230\24-Jul-2020\
 0\\#P uLC-wPBE/cc-pVDZ iop(3/107=0124000000, 3/108=0124000000) opt\\H1
 4 C24 S6\\0,1\C,-11.0048453614,-0.0646209632,0.6877314319\C,-10.525569
 4679,-1.3360816671,0.455106332\C,-9.1207999206,-1.3605748762,0.2152383
 809\C,-8.531353359,-0.1042650195,0.2671806658\S,-9.7370382082,1.118628
 5884,0.6311574839\C,-7.139277799,0.2666764757,0.0741182704\C,-6.592923
 1089,1.5037796586,-0.2415573454\C,-5.1790232218,1.4845372628,-0.366844
 7217\C,-4.6194484623,0.2313856345,-0.1498489058\S,-5.8712029649,-0.934
 1034986,0.246122657\C,-3.2282641727,-0.1762105152,-0.2053646\C,-2.6877
 802922,-1.4522463079,-0.3089128547\C,-1.2695301213,-1.4660415552,-0.35
 13942663\C,-0.6991065841,-0.2007404632,-0.2812220222\S,-1.9486765081,1
 .0235991556,-0.1310805024\C,0.7001895902,0.1796103411,-0.3099007083\C,
 1.2698532994,1.4239864895,-0.5512617862\C,2.6881911104,1.4157435447,-0
 .5128028602\C,3.2299166882,0.1651780256,-0.2411087947\S,1.9508039486,-
 1.0138600681,-0.0028657426\C,4.6214914425,-0.2316529471,-0.1384057553\
 C,5.1758421444,-1.5057104681,-0.1435913169\C,6.589321209,-1.5103234525
 ,-0.0133625449\C,7.1420229011,-0.2404677057,0.0887310311\S,5.882142004
 7,0.9797288697,0.024091148\C,8.5352583563,0.1496374946,0.2281996393\C,
 9.0707289991,1.3534322998,0.6670621366\C,10.495901347,1.3688792053,0.6
 750320963\C,11.0445271438,0.1795948434,0.2448706074\S,9.820579359,-0.9
 705745101,-0.1903429793\H,-12.0326765797,0.2525884307,0.8918470343\H,-
 11.164110689,-2.227834146,0.4479650064\H,-8.5523241257,-2.2714752492,-
 0.0115030157\H,-7.2085038794,2.3971280532,-0.4057483959\H,-4.578364080
 2,2.3616152238,-0.6389374498\H,-3.3093130666,-2.3536770358,-0.38026320
 21\H,-0.6711392208,-2.3794630072,-0.4591783082\H,0.6707789808,2.315023
 6002,-0.7774445391\H,3.3083244007,2.3004213136,-0.7047607434\H,4.56987
 08833,-2.4146898664,-0.2468734084\H,7.1966720005,-2.4236762544,0.01612
 96113\H,8.4462508739,2.1949689695,0.9929963665\H,11.097629374,2.227898
 8832,0.9959379151\H,12.1008501369,-0.0939537868,0.1550469554\\Version=
 EM64L-G16RevA.03\State=1-A\HF=-3310.410261\S2=0.\S2-1=0.\S2A=0.\RMSD=5
 .339e-09\RMSF=1.669e-06\Dipole=-0.0122676,-0.01724,-0.0691359\Quadrupo
 le=21.2526659,0.2587145,-21.5113804,3.6084345,0.9071824,0.5117919\PG=C
 01 [X(C24H14S6)]\\@


 IT WAS AN ACT OF DESPARATION. FOR SIX YEARS I HAD STRUGGLED WITH THE
 BLACKBODY THEORY. I KNEW THE PROBLEM WAS FUNDAMENTAL, AND I KNEW
 THE ANSWER. I HAD TO FIND A THEORETICAL EXPLANATION AT ANY COST,
 EXCEPT FOR THE INVIOLABLITY OF THE TWO LAWS OF THERMODYNAMICS.
   -- MAX PLANCK, 1931
 Job cpu time:       1 days  3 hours  6 minutes 57.5 seconds.
 Elapsed time:       0 days  3 hours 25 minutes  2.6 seconds.
 File lengths (MBytes):  RWF=    352 Int=      0 D2E=      0 Chk=     32 Scr=      8
 Normal termination of Gaussian 16 at Fri Jul 24 15:37:02 2020.
