 Entering Gaussian System, Link 0=g16
 Input=mols_66_3_12_c-c-cF-cOC_opt_0.gjf
 Output=mols_66_3_12_c-c-cF-cOC_opt_0.log
 Initial command:
 /opt/ohpc/pub/libs/gaussian/g16-A.03/sandybridge/g16/l1.exe "/mnt/gpfs2_4m/scratch/rdu230/ondemand/projects/dihedral_energies/7trial/wtuning/redos_512cycles/mols_66_3_12_c-c-cF-cOC/Gau-280721.inp" -scrdir="/mnt/gpfs2_4m/scratch/rdu230/ondemand/projects/dihedral_energies/7trial/wtuning/redos_512cycles/mols_66_3_12_c-c-cF-cOC/"
 Entering Link 1 = /opt/ohpc/pub/libs/gaussian/g16-A.03/sandybridge/g16/l1.exe PID=    280722.
  
 Copyright (c) 1988,1990,1992,1993,1995,1998,2003,2009,2016,
            Gaussian, Inc.  All Rights Reserved.
  
 This is part of the Gaussian(R) 16 program.  It is based on
 the Gaussian(R) 09 system (copyright 2009, Gaussian, Inc.),
 the Gaussian(R) 03 system (copyright 2003, Gaussian, Inc.),
 the Gaussian(R) 98 system (copyright 1998, Gaussian, Inc.),
 the Gaussian(R) 94 system (copyright 1995, Gaussian, Inc.),
 the Gaussian 92(TM) system (copyright 1992, Gaussian, Inc.),
 the Gaussian 90(TM) system (copyright 1990, Gaussian, Inc.),
 the Gaussian 88(TM) system (copyright 1988, Gaussian, Inc.),
 the Gaussian 86(TM) system (copyright 1986, Carnegie Mellon
 University), and the Gaussian 82(TM) system (copyright 1983,
 Carnegie Mellon University). Gaussian is a federally registered
 trademark of Gaussian, Inc.
  
 This software contains proprietary and confidential information,
 including trade secrets, belonging to Gaussian, Inc.
  
 This software is provided under written license and may be
 used, copied, transmitted, or stored only in accord with that
 written license.
  
 The following legend is applicable only to US Government
 contracts under FAR:
  
                    RESTRICTED RIGHTS LEGEND
  
 Use, reproduction and disclosure by the US Government is
 subject to restrictions as set forth in subparagraphs (a)
 and (c) of the Commercial Computer Software - Restricted
 Rights clause in FAR 52.227-19.
  
 Gaussian, Inc.
 340 Quinnipiac St., Bldg. 40, Wallingford CT 06492
  
  
 ---------------------------------------------------------------
 Warning -- This program may not be used in any manner that
 competes with the business of Gaussian, Inc. or will provide
 assistance to any competitor of Gaussian, Inc.  The licensee
 of this program is prohibited from giving any competitor of
 Gaussian, Inc. access to this program.  By using this program,
 the user acknowledges that Gaussian, Inc. is engaged in the
 business of creating and licensing software in the field of
 computational chemistry and represents and warrants to the
 licensee that it is not a competitor of Gaussian, Inc. and that
 it will not use this program in any manner prohibited above.
 ---------------------------------------------------------------
  

 Cite this work as:
 Gaussian 16, Revision A.03,
 M. J. Frisch, G. W. Trucks, H. B. Schlegel, G. E. Scuseria, 
 M. A. Robb, J. R. Cheeseman, G. Scalmani, V. Barone, 
 G. A. Petersson, H. Nakatsuji, X. Li, M. Caricato, A. V. Marenich, 
 J. Bloino, B. G. Janesko, R. Gomperts, B. Mennucci, H. P. Hratchian, 
 J. V. Ortiz, A. F. Izmaylov, J. L. Sonnenberg, D. Williams-Young, 
 F. Ding, F. Lipparini, F. Egidi, J. Goings, B. Peng, A. Petrone, 
 T. Henderson, D. Ranasinghe, V. G. Zakrzewski, J. Gao, N. Rega, 
 G. Zheng, W. Liang, M. Hada, M. Ehara, K. Toyota, R. Fukuda, 
 J. Hasegawa, M. Ishida, T. Nakajima, Y. Honda, O. Kitao, H. Nakai, 
 T. Vreven, K. Throssell, J. A. Montgomery, Jr., J. E. Peralta, 
 F. Ogliaro, M. J. Bearpark, J. J. Heyd, E. N. Brothers, K. N. Kudin, 
 V. N. Staroverov, T. A. Keith, R. Kobayashi, J. Normand, 
 K. Raghavachari, A. P. Rendell, J. C. Burant, S. S. Iyengar, 
 J. Tomasi, M. Cossi, J. M. Millam, M. Klene, C. Adamo, R. Cammi, 
 J. W. Ochterski, R. L. Martin, K. Morokuma, O. Farkas, 
 J. B. Foresman, and D. J. Fox, Gaussian, Inc., Wallingford CT, 2016.
 
 ******************************************
 Gaussian 16:  EM64L-G16RevA.03 25-Dec-2016
                26-Jul-2020 
 ******************************************
 %mem=30GB
 %nproc=8
 Will use up to    8 processors via shared memory.
 ---------------------------------------------------------------
 #P uLC-wPBE/cc-pVDZ iop(3/107=0399400000, 3/108=0399400000) opt
 ---------------------------------------------------------------
 1/18=20,19=15,26=3,38=1/1,3;
 2/9=110,12=2,17=6,18=5,40=1/2;
 3/5=16,11=2,25=1,30=1,71=1,74=-41,107=399400000,108=399400000,116=2/1,2,3;
 4//1;
 5/5=2,38=5/2;
 6/7=2,8=2,9=2,10=2,28=1/1;
 7//1,2,3,16;
 1/18=20,19=15,26=3/3(2);
 2/9=110/2;
 99//99;
 2/9=110/2;
 3/5=16,11=2,25=1,30=1,71=1,74=-41,107=399400000,108=399400000,116=2/1,2,3;
 4/5=5,16=3,69=1/1;
 5/5=2,38=5/2;
 7//1,2,3,16;
 1/18=20,19=15,26=3/3(-5);
 2/9=110/2;
 6/7=2,8=2,9=2,10=2,19=2,28=1/1;
 99/9=1/99;
 Leave Link    1 at Sun Jul 26 12:21:39 2020, MaxMem=  4026531840 cpu:               2.3 elap:               0.3
 (Enter /opt/ohpc/pub/libs/gaussian/g16-A.03/sandybridge/g16/l101.exe)
 -------------
 H29 C39 O3 F3
 -------------
 Symbolic Z-matrix:
 Charge =  0 Multiplicity = 1
 C                     12.27473  -0.38232  -0.46214 
 C                     11.58188  -1.08234   0.5333 
 C                     10.2286  -1.04242   0.52346 
 F                     9.55587  -1.8193    1.48183 
 C                     9.51012  -0.23887  -0.26954 
 C                     10.1938   0.52601  -1.27566 
 C                     11.56643   0.4662   -1.30102 
 C                     8.00517  -0.11185  -0.2877 
 C                     7.24466  -1.32633  -0.47259 
 C                     5.89976  -1.27895  -0.46641 
 C                     5.15899  -0.01659  -0.19356 
 C                     5.94895   1.11978   0.1095 
 C                     7.32396   1.03578   0.05892 
 O                     8.14591   2.19639   0.23857 
 C                     7.52625   3.3702    0.72274 
 C                     3.70755  -0.0729   -0.16568 
 C                     2.9591   -0.51171  -1.23789 
 C                     1.55331  -0.37854  -1.19576 
 F                     0.93584  -0.87236  -2.3079 
 C                     0.82314   0.00972  -0.11031 
 C                     1.57614   0.50032   1.03059 
 C                     3.03315   0.46628   1.01656 
 C                    -0.57507   0.09349  -0.04808 
 C                    -1.33915   0.89029  -0.9931 
 C                    -2.68218   0.93178  -1.06959 
 C                    -3.46169   0.25499  -0.05048 
 C                    -2.74123  -0.52001   0.83756 
 C                    -1.41534  -0.66985   0.84826 
 O                    -0.67442  -1.40637   1.8071 
 C                    -1.38699  -2.25609   2.56763 
 C                    -4.95019   0.35185  -0.15365 
 C                    -5.67602   0.73507   1.04619 
 C                    -7.03398   0.81782   1.02196 
 F                    -7.71524   1.1366    2.14319 
 C                    -7.8075    0.4423   -0.1607 
 C                    -7.06298   0.0824   -1.33064 
 C                    -5.67459   0.04289  -1.2293 
 C                    -9.28302   0.54981  -0.12552 
 C                    -9.85103   1.75135   0.08868 
 C                    -11.3057   1.90833   0.07439 
 C                    -12.05747   0.84557  -0.15942 
 C                    -11.43562  -0.4433   -0.43205 
 C                    -10.05239  -0.60814  -0.43572 
 O                    -9.41416  -1.72214  -0.73257 
 C                    -10.24155  -2.89754  -0.78702 
 H                     13.34632  -0.42103  -0.48928 
 H                     12.12369  -1.82212   1.2188 
 H                     9.67859   1.24928  -1.92186 
 H                     12.17402   1.06939  -1.99373 
 H                     7.79487  -2.24266  -0.66548 
 H                     5.32224  -2.21319  -0.60238 
 H                     5.39372   1.98456   0.22958 
 H                     6.89147   3.21432   1.68986 
 H                     6.84292   3.75082  -0.00743 
 H                     8.24945   4.09479   1.0069 
 H                     3.47904  -0.83136  -2.17631 
 H                     1.11298   0.89119   1.86543 
 H                     3.51084   0.78226   1.86122 
 H                    -0.72448   1.40789  -1.73468 
 H                    -3.17407   1.64261  -1.78757 
 H                    -3.33677  -1.09233   1.55981 
 H                    -2.03283  -2.99281   2.06207 
 H                    -2.01073  -1.67835   3.28708 
 H                    -0.71525  -2.87684   3.1376 
 H                    -5.11599   0.98849   1.92935 
 H                    -7.58998  -0.17569  -2.19148 
 H                    -5.13597  -0.24344  -2.13955 
 H                    -9.25921   2.63343   0.30116 
 H                    -11.67615   2.90405   0.28525 
 H                    -13.16281   0.93494  -0.25584 
 H                    -12.15754  -1.26987  -0.71444 
 H                    -10.79002  -2.86936  -1.6788 
 H                    -10.77397  -3.12684   0.09753 
 H                    -9.52317  -3.71979  -0.92092 
 
 ITRead=  0  0  0  0  0  0  0  0  0  0  0  0  0  0  0  0  0  0  0  0
 ITRead=  0  0  0  0  0  0  0  0  0  0  0  0  0  0  0  0  0  0  0  0
 ITRead=  0  0  0  0  0  0  0  0  0  0  0  0  0  0  0  0  0  0  0  0
 ITRead=  0  0  0  0  0  0  0  0  0  0  0  0  0  0
 MicOpt= -1 -1 -1 -1 -1 -1 -1 -1 -1 -1 -1 -1 -1 -1 -1 -1 -1 -1 -1 -1
 MicOpt= -1 -1 -1 -1 -1 -1 -1 -1 -1 -1 -1 -1 -1 -1 -1 -1 -1 -1 -1 -1
 MicOpt= -1 -1 -1 -1 -1 -1 -1 -1 -1 -1 -1 -1 -1 -1 -1 -1 -1 -1 -1 -1
 MicOpt= -1 -1 -1 -1 -1 -1 -1 -1 -1 -1 -1 -1 -1 -1
 NAtoms=     74 NQM=       74 NQMF=       0 NMMI=      0 NMMIF=      0
                NMic=       0 NMicF=      0.
                    Isotopes and Nuclear Properties:
 (Nuclear quadrupole moments (NQMom) in fm**2, nuclear magnetic moments (NMagM)
  in nuclear magnetons)

  Atom         1           2           3           4           5           6           7           8           9          10
 IAtWgt=          12          12          12          19          12          12          12          12          12          12
 AtmWgt=  12.0000000  12.0000000  12.0000000  18.9984033  12.0000000  12.0000000  12.0000000  12.0000000  12.0000000  12.0000000
 NucSpn=           0           0           0           1           0           0           0           0           0           0
 AtZEff=  -0.0000000  -0.0000000  -0.0000000  -0.0000000  -0.0000000  -0.0000000  -0.0000000  -0.0000000  -0.0000000  -0.0000000
 NQMom=    0.0000000   0.0000000   0.0000000   0.0000000   0.0000000   0.0000000   0.0000000   0.0000000   0.0000000   0.0000000
 NMagM=    0.0000000   0.0000000   0.0000000   2.6288670   0.0000000   0.0000000   0.0000000   0.0000000   0.0000000   0.0000000
 AtZNuc=   6.0000000   6.0000000   6.0000000   9.0000000   6.0000000   6.0000000   6.0000000   6.0000000   6.0000000   6.0000000

  Atom        11          12          13          14          15          16          17          18          19          20
 IAtWgt=          12          12          12          16          12          12          12          12          19          12
 AtmWgt=  12.0000000  12.0000000  12.0000000  15.9949146  12.0000000  12.0000000  12.0000000  12.0000000  18.9984033  12.0000000
 NucSpn=           0           0           0           0           0           0           0           0           1           0
 AtZEff=  -0.0000000  -0.0000000  -0.0000000  -0.0000000  -0.0000000  -0.0000000  -0.0000000  -0.0000000  -0.0000000  -0.0000000
 NQMom=    0.0000000   0.0000000   0.0000000   0.0000000   0.0000000   0.0000000   0.0000000   0.0000000   0.0000000   0.0000000
 NMagM=    0.0000000   0.0000000   0.0000000   0.0000000   0.0000000   0.0000000   0.0000000   0.0000000   2.6288670   0.0000000
 AtZNuc=   6.0000000   6.0000000   6.0000000   8.0000000   6.0000000   6.0000000   6.0000000   6.0000000   9.0000000   6.0000000

  Atom        21          22          23          24          25          26          27          28          29          30
 IAtWgt=          12          12          12          12          12          12          12          12          16          12
 AtmWgt=  12.0000000  12.0000000  12.0000000  12.0000000  12.0000000  12.0000000  12.0000000  12.0000000  15.9949146  12.0000000
 NucSpn=           0           0           0           0           0           0           0           0           0           0
 AtZEff=  -0.0000000  -0.0000000  -0.0000000  -0.0000000  -0.0000000  -0.0000000  -0.0000000  -0.0000000  -0.0000000  -0.0000000
 NQMom=    0.0000000   0.0000000   0.0000000   0.0000000   0.0000000   0.0000000   0.0000000   0.0000000   0.0000000   0.0000000
 NMagM=    0.0000000   0.0000000   0.0000000   0.0000000   0.0000000   0.0000000   0.0000000   0.0000000   0.0000000   0.0000000
 AtZNuc=   6.0000000   6.0000000   6.0000000   6.0000000   6.0000000   6.0000000   6.0000000   6.0000000   8.0000000   6.0000000

  Atom        31          32          33          34          35          36          37          38          39          40
 IAtWgt=          12          12          12          19          12          12          12          12          12          12
 AtmWgt=  12.0000000  12.0000000  12.0000000  18.9984033  12.0000000  12.0000000  12.0000000  12.0000000  12.0000000  12.0000000
 NucSpn=           0           0           0           1           0           0           0           0           0           0
 AtZEff=  -0.0000000  -0.0000000  -0.0000000  -0.0000000  -0.0000000  -0.0000000  -0.0000000  -0.0000000  -0.0000000  -0.0000000
 NQMom=    0.0000000   0.0000000   0.0000000   0.0000000   0.0000000   0.0000000   0.0000000   0.0000000   0.0000000   0.0000000
 NMagM=    0.0000000   0.0000000   0.0000000   2.6288670   0.0000000   0.0000000   0.0000000   0.0000000   0.0000000   0.0000000
 AtZNuc=   6.0000000   6.0000000   6.0000000   9.0000000   6.0000000   6.0000000   6.0000000   6.0000000   6.0000000   6.0000000

  Atom        41          42          43          44          45          46          47          48          49          50
 IAtWgt=          12          12          12          16          12           1           1           1           1           1
 AtmWgt=  12.0000000  12.0000000  12.0000000  15.9949146  12.0000000   1.0078250   1.0078250   1.0078250   1.0078250   1.0078250
 NucSpn=           0           0           0           0           0           1           1           1           1           1
 AtZEff=  -0.0000000  -0.0000000  -0.0000000  -0.0000000  -0.0000000  -0.0000000  -0.0000000  -0.0000000  -0.0000000  -0.0000000
 NQMom=    0.0000000   0.0000000   0.0000000   0.0000000   0.0000000   0.0000000   0.0000000   0.0000000   0.0000000   0.0000000
 NMagM=    0.0000000   0.0000000   0.0000000   0.0000000   0.0000000   2.7928460   2.7928460   2.7928460   2.7928460   2.7928460
 AtZNuc=   6.0000000   6.0000000   6.0000000   8.0000000   6.0000000   1.0000000   1.0000000   1.0000000   1.0000000   1.0000000

  Atom        51          52          53          54          55          56          57          58          59          60
 IAtWgt=           1           1           1           1           1           1           1           1           1           1
 AtmWgt=   1.0078250   1.0078250   1.0078250   1.0078250   1.0078250   1.0078250   1.0078250   1.0078250   1.0078250   1.0078250
 NucSpn=           1           1           1           1           1           1           1           1           1           1
 AtZEff=  -0.0000000  -0.0000000  -0.0000000  -0.0000000  -0.0000000  -0.0000000  -0.0000000  -0.0000000  -0.0000000  -0.0000000
 NQMom=    0.0000000   0.0000000   0.0000000   0.0000000   0.0000000   0.0000000   0.0000000   0.0000000   0.0000000   0.0000000
 NMagM=    2.7928460   2.7928460   2.7928460   2.7928460   2.7928460   2.7928460   2.7928460   2.7928460   2.7928460   2.7928460
 AtZNuc=   1.0000000   1.0000000   1.0000000   1.0000000   1.0000000   1.0000000   1.0000000   1.0000000   1.0000000   1.0000000

  Atom        61          62          63          64          65          66          67          68          69          70
 IAtWgt=           1           1           1           1           1           1           1           1           1           1
 AtmWgt=   1.0078250   1.0078250   1.0078250   1.0078250   1.0078250   1.0078250   1.0078250   1.0078250   1.0078250   1.0078250
 NucSpn=           1           1           1           1           1           1           1           1           1           1
 AtZEff=  -0.0000000  -0.0000000  -0.0000000  -0.0000000  -0.0000000  -0.0000000  -0.0000000  -0.0000000  -0.0000000  -0.0000000
 NQMom=    0.0000000   0.0000000   0.0000000   0.0000000   0.0000000   0.0000000   0.0000000   0.0000000   0.0000000   0.0000000
 NMagM=    2.7928460   2.7928460   2.7928460   2.7928460   2.7928460   2.7928460   2.7928460   2.7928460   2.7928460   2.7928460
 AtZNuc=   1.0000000   1.0000000   1.0000000   1.0000000   1.0000000   1.0000000   1.0000000   1.0000000   1.0000000   1.0000000

  Atom        71          72          73          74
 IAtWgt=           1           1           1           1
 AtmWgt=   1.0078250   1.0078250   1.0078250   1.0078250
 NucSpn=           1           1           1           1
 AtZEff=  -0.0000000  -0.0000000  -0.0000000  -0.0000000
 NQMom=    0.0000000   0.0000000   0.0000000   0.0000000
 NMagM=    2.7928460   2.7928460   2.7928460   2.7928460
 AtZNuc=   1.0000000   1.0000000   1.0000000   1.0000000
 Leave Link  101 at Sun Jul 26 12:21:39 2020, MaxMem=  4026531840 cpu:               3.0 elap:               0.4
 (Enter /opt/ohpc/pub/libs/gaussian/g16-A.03/sandybridge/g16/l103.exe)

 GradGradGradGradGradGradGradGradGradGradGradGradGradGradGradGradGradGrad
 Berny optimization.
 Initialization pass.
                           ----------------------------
                           !    Initial Parameters    !
                           ! (Angstroms and Degrees)  !
 --------------------------                            --------------------------
 ! Name  Definition              Value          Derivative Info.                !
 --------------------------------------------------------------------------------
 ! R1    R(1,2)                  1.4003         estimate D2E/DX2                !
 ! R2    R(1,7)                  1.3876         estimate D2E/DX2                !
 ! R3    R(1,46)                 1.0726         estimate D2E/DX2                !
 ! R4    R(2,3)                  1.3539         estimate D2E/DX2                !
 ! R5    R(2,47)                 1.1449         estimate D2E/DX2                !
 ! R6    R(3,4)                  1.4052         estimate D2E/DX2                !
 ! R7    R(3,5)                  1.3382         estimate D2E/DX2                !
 ! R8    R(5,6)                  1.4369         estimate D2E/DX2                !
 ! R9    R(5,8)                  1.5104         estimate D2E/DX2                !
 ! R10   R(6,7)                  1.3742         estimate D2E/DX2                !
 ! R11   R(6,48)                 1.0982         estimate D2E/DX2                !
 ! R12   R(7,49)                 1.1013         estimate D2E/DX2                !
 ! R13   R(8,9)                  1.4448         estimate D2E/DX2                !
 ! R14   R(8,13)                 1.3789         estimate D2E/DX2                !
 ! R15   R(9,10)                 1.3458         estimate D2E/DX2                !
 ! R16   R(9,50)                 1.0861         estimate D2E/DX2                !
 ! R17   R(10,11)                1.4889         estimate D2E/DX2                !
 ! R18   R(10,51)                1.1067         estimate D2E/DX2                !
 ! R19   R(11,12)                1.4168         estimate D2E/DX2                !
 ! R20   R(11,16)                1.4528         estimate D2E/DX2                !
 ! R21   R(12,13)                1.3785         estimate D2E/DX2                !
 ! R22   R(12,52)                1.0347         estimate D2E/DX2                !
 ! R23   R(13,14)                1.4335         estimate D2E/DX2                !
 ! R24   R(14,15)                1.4129         estimate D2E/DX2                !
 ! R25   R(15,53)                1.1673         estimate D2E/DX2                !
 ! R26   R(15,54)                1.07           estimate D2E/DX2                !
 ! R27   R(15,55)                1.0624         estimate D2E/DX2                !
 ! R28   R(16,17)                1.3793         estimate D2E/DX2                !
 ! R29   R(16,22)                1.464          estimate D2E/DX2                !
 ! R30   R(17,18)                1.4127         estimate D2E/DX2                !
 ! R31   R(17,56)                1.1194         estimate D2E/DX2                !
 ! R32   R(18,19)                1.3645         estimate D2E/DX2                !
 ! R33   R(18,20)                1.3646         estimate D2E/DX2                !
 ! R34   R(20,21)                1.4524         estimate D2E/DX2                !
 ! R35   R(20,23)                1.4021         estimate D2E/DX2                !
 ! R36   R(21,22)                1.4575         estimate D2E/DX2                !
 ! R37   R(21,57)                1.0316         estimate D2E/DX2                !
 ! R38   R(22,58)                1.0205         estimate D2E/DX2                !
 ! R39   R(23,24)                1.4532         estimate D2E/DX2                !
 ! R40   R(23,28)                1.4464         estimate D2E/DX2                !
 ! R41   R(24,25)                1.3458         estimate D2E/DX2                !
 ! R42   R(24,59)                1.0935         estimate D2E/DX2                !
 ! R43   R(25,26)                1.4506         estimate D2E/DX2                !
 ! R44   R(25,60)                1.1237         estimate D2E/DX2                !
 ! R45   R(26,27)                1.3814         estimate D2E/DX2                !
 ! R46   R(26,31)                1.4952         estimate D2E/DX2                !
 ! R47   R(27,28)                1.3344         estimate D2E/DX2                !
 ! R48   R(27,61)                1.0972         estimate D2E/DX2                !
 ! R49   R(28,29)                1.418          estimate D2E/DX2                !
 ! R50   R(29,30)                1.3447         estimate D2E/DX2                !
 ! R51   R(30,62)                1.1025         estimate D2E/DX2                !
 ! R52   R(30,63)                1.1137         estimate D2E/DX2                !
 ! R53   R(30,64)                1.0777         estimate D2E/DX2                !
 ! R54   R(31,32)                1.4537         estimate D2E/DX2                !
 ! R55   R(31,37)                1.3331         estimate D2E/DX2                !
 ! R56   R(32,33)                1.3607         estimate D2E/DX2                !
 ! R57   R(32,65)                1.076          estimate D2E/DX2                !
 ! R58   R(33,34)                1.3501         estimate D2E/DX2                !
 ! R59   R(33,35)                1.4622         estimate D2E/DX2                !
 ! R60   R(35,36)                1.4327         estimate D2E/DX2                !
 ! R61   R(35,38)                1.4798         estimate D2E/DX2                !
 ! R62   R(36,37)                1.3926         estimate D2E/DX2                !
 ! R63   R(36,66)                1.0418         estimate D2E/DX2                !
 ! R64   R(37,67)                1.0957         estimate D2E/DX2                !
 ! R65   R(38,39)                1.3462         estimate D2E/DX2                !
 ! R66   R(38,43)                1.4244         estimate D2E/DX2                !
 ! R67   R(39,40)                1.4632         estimate D2E/DX2                !
 ! R68   R(39,68)                1.0833         estimate D2E/DX2                !
 ! R69   R(40,41)                1.3226         estimate D2E/DX2                !
 ! R70   R(40,69)                1.0831         estimate D2E/DX2                !
 ! R71   R(41,42)                1.4568         estimate D2E/DX2                !
 ! R72   R(41,70)                1.1131         estimate D2E/DX2                !
 ! R73   R(42,43)                1.393          estimate D2E/DX2                !
 ! R74   R(42,71)                1.1332         estimate D2E/DX2                !
 ! R75   R(43,44)                1.3177         estimate D2E/DX2                !
 ! R76   R(44,45)                1.4384         estimate D2E/DX2                !
 ! R77   R(45,72)                1.0473         estimate D2E/DX2                !
 ! R78   R(45,73)                1.0576         estimate D2E/DX2                !
 ! R79   R(45,74)                1.1            estimate D2E/DX2                !
 ! A1    A(2,1,7)              118.8735         estimate D2E/DX2                !
 ! A2    A(2,1,46)             119.6196         estimate D2E/DX2                !
 ! A3    A(7,1,46)             121.1133         estimate D2E/DX2                !
 ! A4    A(1,2,3)              118.336          estimate D2E/DX2                !
 ! A5    A(1,2,47)             120.9629         estimate D2E/DX2                !
 ! A6    A(3,2,47)             119.7643         estimate D2E/DX2                !
 ! A7    A(2,3,4)              117.2109         estimate D2E/DX2                !
 ! A8    A(2,3,5)              123.9638         estimate D2E/DX2                !
 ! A9    A(4,3,5)              118.6263         estimate D2E/DX2                !
 ! A10   A(3,5,6)              118.6268         estimate D2E/DX2                !
 ! A11   A(3,5,8)              126.3407         estimate D2E/DX2                !
 ! A12   A(6,5,8)              114.8912         estimate D2E/DX2                !
 ! A13   A(5,6,7)              117.7116         estimate D2E/DX2                !
 ! A14   A(5,6,48)             122.639          estimate D2E/DX2                !
 ! A15   A(7,6,48)             119.1042         estimate D2E/DX2                !
 ! A16   A(1,7,6)              121.6913         estimate D2E/DX2                !
 ! A17   A(1,7,49)             115.6948         estimate D2E/DX2                !
 ! A18   A(6,7,49)             122.6057         estimate D2E/DX2                !
 ! A19   A(5,8,9)              117.0852         estimate D2E/DX2                !
 ! A20   A(5,8,13)             124.0022         estimate D2E/DX2                !
 ! A21   A(9,8,13)             118.147          estimate D2E/DX2                !
 ! A22   A(8,9,10)             119.726          estimate D2E/DX2                !
 ! A23   A(8,9,50)             117.7271         estimate D2E/DX2                !
 ! A24   A(10,9,50)            122.4656         estimate D2E/DX2                !
 ! A25   A(9,10,11)            121.8646         estimate D2E/DX2                !
 ! A26   A(9,10,51)            119.4205         estimate D2E/DX2                !
 ! A27   A(11,10,51)           118.5952         estimate D2E/DX2                !
 ! A28   A(10,11,12)           116.2218         estimate D2E/DX2                !
 ! A29   A(10,11,16)           117.8864         estimate D2E/DX2                !
 ! A30   A(12,11,16)           125.7356         estimate D2E/DX2                !
 ! A31   A(11,12,13)           119.9633         estimate D2E/DX2                !
 ! A32   A(11,12,52)           113.3285         estimate D2E/DX2                !
 ! A33   A(13,12,52)           126.1891         estimate D2E/DX2                !
 ! A34   A(8,13,12)            123.5545         estimate D2E/DX2                !
 ! A35   A(8,13,14)            114.967          estimate D2E/DX2                !
 ! A36   A(12,13,14)           121.1982         estimate D2E/DX2                !
 ! A37   A(13,14,15)           117.6532         estimate D2E/DX2                !
 ! A38   A(14,15,53)           114.2971         estimate D2E/DX2                !
 ! A39   A(14,15,54)           109.9839         estimate D2E/DX2                !
 ! A40   A(14,15,55)           111.0832         estimate D2E/DX2                !
 ! A41   A(53,15,54)           105.402          estimate D2E/DX2                !
 ! A42   A(53,15,55)           103.8656         estimate D2E/DX2                !
 ! A43   A(54,15,55)           112.0006         estimate D2E/DX2                !
 ! A44   A(11,16,17)           122.6533         estimate D2E/DX2                !
 ! A45   A(11,16,22)           117.4808         estimate D2E/DX2                !
 ! A46   A(17,16,22)           119.6679         estimate D2E/DX2                !
 ! A47   A(16,17,18)           119.1313         estimate D2E/DX2                !
 ! A48   A(16,17,56)           119.3718         estimate D2E/DX2                !
 ! A49   A(18,17,56)           120.9378         estimate D2E/DX2                !
 ! A50   A(17,18,19)           113.0711         estimate D2E/DX2                !
 ! A51   A(17,18,20)           125.6621         estimate D2E/DX2                !
 ! A52   A(19,18,20)           120.6069         estimate D2E/DX2                !
 ! A53   A(18,20,21)           116.3305         estimate D2E/DX2                !
 ! A54   A(18,20,23)           125.8668         estimate D2E/DX2                !
 ! A55   A(21,20,23)           117.5151         estimate D2E/DX2                !
 ! A56   A(20,21,22)           120.1887         estimate D2E/DX2                !
 ! A57   A(20,21,57)           122.0674         estimate D2E/DX2                !
 ! A58   A(22,21,57)           117.7398         estimate D2E/DX2                !
 ! A59   A(16,22,21)           118.4827         estimate D2E/DX2                !
 ! A60   A(16,22,58)           124.5267         estimate D2E/DX2                !
 ! A61   A(21,22,58)           116.9192         estimate D2E/DX2                !
 ! A62   A(20,23,24)           121.8857         estimate D2E/DX2                !
 ! A63   A(20,23,28)           125.1199         estimate D2E/DX2                !
 ! A64   A(24,23,28)           112.7624         estimate D2E/DX2                !
 ! A65   A(23,24,25)           125.3484         estimate D2E/DX2                !
 ! A66   A(23,24,59)           113.8924         estimate D2E/DX2                !
 ! A67   A(25,24,59)           120.5187         estimate D2E/DX2                !
 ! A68   A(24,25,26)           118.8122         estimate D2E/DX2                !
 ! A69   A(24,25,60)           119.5136         estimate D2E/DX2                !
 ! A70   A(26,25,60)           120.5825         estimate D2E/DX2                !
 ! A71   A(25,26,27)           115.6652         estimate D2E/DX2                !
 ! A72   A(25,26,31)           117.146          estimate D2E/DX2                !
 ! A73   A(27,26,31)           126.8626         estimate D2E/DX2                !
 ! A74   A(26,27,28)           125.9004         estimate D2E/DX2                !
 ! A75   A(26,27,61)           115.6405         estimate D2E/DX2                !
 ! A76   A(28,27,61)           118.39           estimate D2E/DX2                !
 ! A77   A(23,28,27)           120.8641         estimate D2E/DX2                !
 ! A78   A(23,28,29)           112.929          estimate D2E/DX2                !
 ! A79   A(27,28,29)           125.6569         estimate D2E/DX2                !
 ! A80   A(28,29,30)           115.7064         estimate D2E/DX2                !
 ! A81   A(29,30,62)           118.2514         estimate D2E/DX2                !
 ! A82   A(29,30,63)           109.5315         estimate D2E/DX2                !
 ! A83   A(29,30,64)           109.438          estimate D2E/DX2                !
 ! A84   A(62,30,63)           108.3479         estimate D2E/DX2                !
 ! A85   A(62,30,64)           102.8718         estimate D2E/DX2                !
 ! A86   A(63,30,64)           107.8322         estimate D2E/DX2                !
 ! A87   A(26,31,32)           117.2047         estimate D2E/DX2                !
 ! A88   A(26,31,37)           125.5636         estimate D2E/DX2                !
 ! A89   A(32,31,37)           117.1127         estimate D2E/DX2                !
 ! A90   A(31,32,33)           119.9747         estimate D2E/DX2                !
 ! A91   A(31,32,65)           118.6623         estimate D2E/DX2                !
 ! A92   A(33,32,65)           121.3131         estimate D2E/DX2                !
 ! A93   A(32,33,34)           120.2076         estimate D2E/DX2                !
 ! A94   A(32,33,35)           121.7851         estimate D2E/DX2                !
 ! A95   A(34,33,35)           117.7359         estimate D2E/DX2                !
 ! A96   A(33,35,36)           116.7494         estimate D2E/DX2                !
 ! A97   A(33,35,38)           119.3128         estimate D2E/DX2                !
 ! A98   A(36,35,38)           123.7666         estimate D2E/DX2                !
 ! A99   A(35,36,37)           117.761          estimate D2E/DX2                !
 ! A100  A(35,36,66)           118.3009         estimate D2E/DX2                !
 ! A101  A(37,36,66)           123.8765         estimate D2E/DX2                !
 ! A102  A(31,37,36)           126.4315         estimate D2E/DX2                !
 ! A103  A(31,37,67)           117.6282         estimate D2E/DX2                !
 ! A104  A(36,37,67)           115.9136         estimate D2E/DX2                !
 ! A105  A(35,38,39)           119.2969         estimate D2E/DX2                !
 ! A106  A(35,38,43)           118.3143         estimate D2E/DX2                !
 ! A107  A(39,38,43)           122.1625         estimate D2E/DX2                !
 ! A108  A(38,39,40)           120.9098         estimate D2E/DX2                !
 ! A109  A(38,39,68)           121.8354         estimate D2E/DX2                !
 ! A110  A(40,39,68)           117.239          estimate D2E/DX2                !
 ! A111  A(39,40,41)           118.7255         estimate D2E/DX2                !
 ! A112  A(39,40,69)           115.8975         estimate D2E/DX2                !
 ! A113  A(41,40,69)           125.3591         estimate D2E/DX2                !
 ! A114  A(40,41,42)           120.0908         estimate D2E/DX2                !
 ! A115  A(40,41,70)           121.0123         estimate D2E/DX2                !
 ! A116  A(42,41,70)           118.6005         estimate D2E/DX2                !
 ! A117  A(41,42,43)           121.9412         estimate D2E/DX2                !
 ! A118  A(41,42,71)           114.8369         estimate D2E/DX2                !
 ! A119  A(43,42,71)           123.0671         estimate D2E/DX2                !
 ! A120  A(38,43,42)           116.076          estimate D2E/DX2                !
 ! A121  A(38,43,44)           118.3388         estimate D2E/DX2                !
 ! A122  A(42,43,44)           125.5602         estimate D2E/DX2                !
 ! A123  A(43,44,45)           114.881          estimate D2E/DX2                !
 ! A124  A(44,45,72)           108.1478         estimate D2E/DX2                !
 ! A125  A(44,45,73)           115.7906         estimate D2E/DX2                !
 ! A126  A(44,45,74)           103.8729         estimate D2E/DX2                !
 ! A127  A(72,45,73)           117.0242         estimate D2E/DX2                !
 ! A128  A(72,45,74)           104.9785         estimate D2E/DX2                !
 ! A129  A(73,45,74)           105.5753         estimate D2E/DX2                !
 ! D1    D(7,1,2,3)              8.7277         estimate D2E/DX2                !
 ! D2    D(7,1,2,47)           177.6254         estimate D2E/DX2                !
 ! D3    D(46,1,2,3)          -178.3912         estimate D2E/DX2                !
 ! D4    D(46,1,2,47)           -9.4935         estimate D2E/DX2                !
 ! D5    D(2,1,7,6)             -7.1874         estimate D2E/DX2                !
 ! D6    D(2,1,7,49)           173.8271         estimate D2E/DX2                !
 ! D7    D(46,1,7,6)          -179.9583         estimate D2E/DX2                !
 ! D8    D(46,1,7,49)            1.0562         estimate D2E/DX2                !
 ! D9    D(1,2,3,4)            176.1635         estimate D2E/DX2                !
 ! D10   D(1,2,3,5)             -9.0457         estimate D2E/DX2                !
 ! D11   D(47,2,3,4)             7.1289         estimate D2E/DX2                !
 ! D12   D(47,2,3,5)          -178.0803         estimate D2E/DX2                !
 ! D13   D(2,3,5,6)              7.0792         estimate D2E/DX2                !
 ! D14   D(2,3,5,8)           -177.4778         estimate D2E/DX2                !
 ! D15   D(4,3,5,6)           -178.1989         estimate D2E/DX2                !
 ! D16   D(4,3,5,8)             -2.7558         estimate D2E/DX2                !
 ! D17   D(3,5,6,7)             -4.8509         estimate D2E/DX2                !
 ! D18   D(3,5,6,48)          -176.2969         estimate D2E/DX2                !
 ! D19   D(8,5,6,7)            179.1948         estimate D2E/DX2                !
 ! D20   D(8,5,6,48)             7.7488         estimate D2E/DX2                !
 ! D21   D(3,5,8,9)            -54.5343         estimate D2E/DX2                !
 ! D22   D(3,5,8,13)           115.2332         estimate D2E/DX2                !
 ! D23   D(6,5,8,9)            121.0565         estimate D2E/DX2                !
 ! D24   D(6,5,8,13)           -69.176          estimate D2E/DX2                !
 ! D25   D(5,6,7,1)              5.1626         estimate D2E/DX2                !
 ! D26   D(5,6,7,49)          -175.9226         estimate D2E/DX2                !
 ! D27   D(48,6,7,1)           176.9207         estimate D2E/DX2                !
 ! D28   D(48,6,7,49)           -4.1645         estimate D2E/DX2                !
 ! D29   D(5,8,9,10)           178.4707         estimate D2E/DX2                !
 ! D30   D(5,8,9,50)            -4.7267         estimate D2E/DX2                !
 ! D31   D(13,8,9,10)            8.0853         estimate D2E/DX2                !
 ! D32   D(13,8,9,50)         -175.1121         estimate D2E/DX2                !
 ! D33   D(5,8,13,12)         -176.3198         estimate D2E/DX2                !
 ! D34   D(5,8,13,14)            9.7086         estimate D2E/DX2                !
 ! D35   D(9,8,13,12)           -6.6531         estimate D2E/DX2                !
 ! D36   D(9,8,13,14)          179.3753         estimate D2E/DX2                !
 ! D37   D(8,9,10,11)           -3.6681         estimate D2E/DX2                !
 ! D38   D(8,9,10,51)         -179.6323         estimate D2E/DX2                !
 ! D39   D(50,9,10,11)         179.6866         estimate D2E/DX2                !
 ! D40   D(50,9,10,51)           3.7224         estimate D2E/DX2                !
 ! D41   D(9,10,11,12)          -2.3326         estimate D2E/DX2                !
 ! D42   D(9,10,11,16)        -178.0542         estimate D2E/DX2                !
 ! D43   D(51,10,11,12)        173.6638         estimate D2E/DX2                !
 ! D44   D(51,10,11,16)         -2.0579         estimate D2E/DX2                !
 ! D45   D(10,11,12,13)          3.9518         estimate D2E/DX2                !
 ! D46   D(10,11,12,52)        176.1902         estimate D2E/DX2                !
 ! D47   D(16,11,12,13)        179.2923         estimate D2E/DX2                !
 ! D48   D(16,11,12,52)         -8.4693         estimate D2E/DX2                !
 ! D49   D(10,11,16,17)        -57.9785         estimate D2E/DX2                !
 ! D50   D(10,11,16,22)        127.1572         estimate D2E/DX2                !
 ! D51   D(12,11,16,17)        126.7508         estimate D2E/DX2                !
 ! D52   D(12,11,16,22)        -48.1135         estimate D2E/DX2                !
 ! D53   D(11,12,13,8)           0.5513         estimate D2E/DX2                !
 ! D54   D(11,12,13,14)        174.1608         estimate D2E/DX2                !
 ! D55   D(52,12,13,8)        -170.6099         estimate D2E/DX2                !
 ! D56   D(52,12,13,14)          2.9996         estimate D2E/DX2                !
 ! D57   D(8,13,14,15)        -173.8587         estimate D2E/DX2                !
 ! D58   D(12,13,14,15)         12.0139         estimate D2E/DX2                !
 ! D59   D(13,14,15,53)         51.0899         estimate D2E/DX2                !
 ! D60   D(13,14,15,54)        -67.2203         estimate D2E/DX2                !
 ! D61   D(13,14,15,55)        168.2096         estimate D2E/DX2                !
 ! D62   D(11,16,17,18)       -172.0751         estimate D2E/DX2                !
 ! D63   D(11,16,17,56)         -0.5669         estimate D2E/DX2                !
 ! D64   D(22,16,17,18)          2.681          estimate D2E/DX2                !
 ! D65   D(22,16,17,56)        174.1892         estimate D2E/DX2                !
 ! D66   D(11,16,22,21)        176.0825         estimate D2E/DX2                !
 ! D67   D(11,16,22,58)         -7.09           estimate D2E/DX2                !
 ! D68   D(17,16,22,21)          1.0585         estimate D2E/DX2                !
 ! D69   D(17,16,22,58)        177.886          estimate D2E/DX2                !
 ! D70   D(16,17,18,19)       -178.9343         estimate D2E/DX2                !
 ! D71   D(16,17,18,20)         -8.2599         estimate D2E/DX2                !
 ! D72   D(56,17,18,19)          9.6945         estimate D2E/DX2                !
 ! D73   D(56,17,18,20)       -179.6311         estimate D2E/DX2                !
 ! D74   D(17,18,20,21)          8.9818         estimate D2E/DX2                !
 ! D75   D(17,18,20,23)       -177.3619         estimate D2E/DX2                !
 ! D76   D(19,18,20,21)        179.0069         estimate D2E/DX2                !
 ! D77   D(19,18,20,23)         -7.3368         estimate D2E/DX2                !
 ! D78   D(18,20,21,22)         -4.5506         estimate D2E/DX2                !
 ! D79   D(18,20,21,57)        174.6998         estimate D2E/DX2                !
 ! D80   D(23,20,21,22)       -178.7562         estimate D2E/DX2                !
 ! D81   D(23,20,21,57)          0.4943         estimate D2E/DX2                !
 ! D82   D(18,20,23,24)        -55.532          estimate D2E/DX2                !
 ! D83   D(18,20,23,28)        118.5269         estimate D2E/DX2                !
 ! D84   D(21,20,23,24)        118.057          estimate D2E/DX2                !
 ! D85   D(21,20,23,28)        -67.8841         estimate D2E/DX2                !
 ! D86   D(20,21,22,16)         -0.1228         estimate D2E/DX2                !
 ! D87   D(20,21,22,58)       -177.1917         estimate D2E/DX2                !
 ! D88   D(57,21,22,16)       -179.4052         estimate D2E/DX2                !
 ! D89   D(57,21,22,58)          3.5259         estimate D2E/DX2                !
 ! D90   D(20,23,24,25)        174.0629         estimate D2E/DX2                !
 ! D91   D(20,23,24,59)         -0.2961         estimate D2E/DX2                !
 ! D92   D(28,23,24,25)         -0.6692         estimate D2E/DX2                !
 ! D93   D(28,23,24,59)       -175.0281         estimate D2E/DX2                !
 ! D94   D(20,23,28,27)        179.8424         estimate D2E/DX2                !
 ! D95   D(20,23,28,29)          7.8835         estimate D2E/DX2                !
 ! D96   D(24,23,28,27)         -5.6268         estimate D2E/DX2                !
 ! D97   D(24,23,28,29)       -177.5857         estimate D2E/DX2                !
 ! D98   D(23,24,25,26)          7.2479         estimate D2E/DX2                !
 ! D99   D(23,24,25,60)        175.3762         estimate D2E/DX2                !
 ! D100  D(59,24,25,26)       -178.7405         estimate D2E/DX2                !
 ! D101  D(59,24,25,60)        -10.6121         estimate D2E/DX2                !
 ! D102  D(24,25,26,27)         -7.4968         estimate D2E/DX2                !
 ! D103  D(24,25,26,31)        178.6066         estimate D2E/DX2                !
 ! D104  D(60,25,26,27)       -175.4944         estimate D2E/DX2                !
 ! D105  D(60,25,26,31)         10.609          estimate D2E/DX2                !
 ! D106  D(25,26,27,28)          1.4173         estimate D2E/DX2                !
 ! D107  D(25,26,27,61)       -175.4951         estimate D2E/DX2                !
 ! D108  D(31,26,27,28)        174.626          estimate D2E/DX2                !
 ! D109  D(31,26,27,61)         -2.2864         estimate D2E/DX2                !
 ! D110  D(25,26,31,32)       -130.747          estimate D2E/DX2                !
 ! D111  D(25,26,31,37)         53.35           estimate D2E/DX2                !
 ! D112  D(27,26,31,32)         56.1324         estimate D2E/DX2                !
 ! D113  D(27,26,31,37)       -119.7706         estimate D2E/DX2                !
 ! D114  D(26,27,28,23)          5.3677         estimate D2E/DX2                !
 ! D115  D(26,27,28,29)        176.2446         estimate D2E/DX2                !
 ! D116  D(61,27,28,23)       -177.7964         estimate D2E/DX2                !
 ! D117  D(61,27,28,29)         -6.9195         estimate D2E/DX2                !
 ! D118  D(23,28,29,30)       -172.544          estimate D2E/DX2                !
 ! D119  D(27,28,29,30)         15.9542         estimate D2E/DX2                !
 ! D120  D(28,29,30,62)         53.2946         estimate D2E/DX2                !
 ! D121  D(28,29,30,63)        -71.441          estimate D2E/DX2                !
 ! D122  D(28,29,30,64)        170.5407         estimate D2E/DX2                !
 ! D123  D(26,31,32,33)       -178.8581         estimate D2E/DX2                !
 ! D124  D(26,31,32,65)          3.6788         estimate D2E/DX2                !
 ! D125  D(37,31,32,33)         -2.6018         estimate D2E/DX2                !
 ! D126  D(37,31,32,65)        179.9352         estimate D2E/DX2                !
 ! D127  D(26,31,37,36)        177.6378         estimate D2E/DX2                !
 ! D128  D(26,31,37,67)         -4.3248         estimate D2E/DX2                !
 ! D129  D(32,31,37,36)          1.7313         estimate D2E/DX2                !
 ! D130  D(32,31,37,67)        179.7688         estimate D2E/DX2                !
 ! D131  D(31,32,33,34)        178.1338         estimate D2E/DX2                !
 ! D132  D(31,32,33,35)          4.2545         estimate D2E/DX2                !
 ! D133  D(65,32,33,34)         -4.4719         estimate D2E/DX2                !
 ! D134  D(65,32,33,35)       -178.3512         estimate D2E/DX2                !
 ! D135  D(32,33,35,36)         -4.7684         estimate D2E/DX2                !
 ! D136  D(32,33,35,38)        179.8069         estimate D2E/DX2                !
 ! D137  D(34,33,35,36)       -178.7927         estimate D2E/DX2                !
 ! D138  D(34,33,35,38)          5.7826         estimate D2E/DX2                !
 ! D139  D(33,35,36,37)          3.6337         estimate D2E/DX2                !
 ! D140  D(33,35,36,66)       -179.1077         estimate D2E/DX2                !
 ! D141  D(38,35,36,37)        178.8341         estimate D2E/DX2                !
 ! D142  D(38,35,36,66)         -3.9072         estimate D2E/DX2                !
 ! D143  D(33,35,38,39)         60.5153         estimate D2E/DX2                !
 ! D144  D(33,35,38,43)       -124.83           estimate D2E/DX2                !
 ! D145  D(36,35,38,39)       -114.5691         estimate D2E/DX2                !
 ! D146  D(36,35,38,43)         60.0855         estimate D2E/DX2                !
 ! D147  D(35,36,37,31)         -2.3976         estimate D2E/DX2                !
 ! D148  D(35,36,37,67)        179.5356         estimate D2E/DX2                !
 ! D149  D(66,36,37,31)       -179.4903         estimate D2E/DX2                !
 ! D150  D(66,36,37,67)          2.4429         estimate D2E/DX2                !
 ! D151  D(35,38,39,40)        177.4005         estimate D2E/DX2                !
 ! D152  D(35,38,39,68)         -4.0868         estimate D2E/DX2                !
 ! D153  D(43,38,39,40)          2.96           estimate D2E/DX2                !
 ! D154  D(43,38,39,68)       -178.5272         estimate D2E/DX2                !
 ! D155  D(35,38,43,42)       -177.938          estimate D2E/DX2                !
 ! D156  D(35,38,43,44)          0.3462         estimate D2E/DX2                !
 ! D157  D(39,38,43,42)         -3.4452         estimate D2E/DX2                !
 ! D158  D(39,38,43,44)        174.839          estimate D2E/DX2                !
 ! D159  D(38,39,40,41)         -0.2881         estimate D2E/DX2                !
 ! D160  D(38,39,40,69)        178.2525         estimate D2E/DX2                !
 ! D161  D(68,39,40,41)       -178.867          estimate D2E/DX2                !
 ! D162  D(68,39,40,69)         -0.3264         estimate D2E/DX2                !
 ! D163  D(39,40,41,42)         -1.6448         estimate D2E/DX2                !
 ! D164  D(39,40,41,70)       -175.3049         estimate D2E/DX2                !
 ! D165  D(69,40,41,42)        179.965          estimate D2E/DX2                !
 ! D166  D(69,40,41,70)          6.3048         estimate D2E/DX2                !
 ! D167  D(40,41,42,43)          1.0384         estimate D2E/DX2                !
 ! D168  D(40,41,42,71)       -174.5691         estimate D2E/DX2                !
 ! D169  D(70,41,42,43)        174.8502         estimate D2E/DX2                !
 ! D170  D(70,41,42,71)         -0.7573         estimate D2E/DX2                !
 ! D171  D(41,42,43,38)          1.463          estimate D2E/DX2                !
 ! D172  D(41,42,43,44)       -176.6806         estimate D2E/DX2                !
 ! D173  D(71,42,43,38)        176.7056         estimate D2E/DX2                !
 ! D174  D(71,42,43,44)         -1.438          estimate D2E/DX2                !
 ! D175  D(38,43,44,45)        168.881          estimate D2E/DX2                !
 ! D176  D(42,43,44,45)        -13.0135         estimate D2E/DX2                !
 ! D177  D(43,44,45,72)         75.5151         estimate D2E/DX2                !
 ! D178  D(43,44,45,73)        -58.0703         estimate D2E/DX2                !
 ! D179  D(43,44,45,74)       -173.3166         estimate D2E/DX2                !
 --------------------------------------------------------------------------------
 Trust Radius=3.00D-01 FncErr=1.00D-07 GrdErr=1.00D-06 EigMax=2.50D+02 EigMin=1.00D-04
 Number of steps in this run=    397 maximum allowed number of steps=    444.
 GradGradGradGradGradGradGradGradGradGradGradGradGradGradGradGradGradGrad

 Leave Link  103 at Sun Jul 26 12:21:39 2020, MaxMem=  4026531840 cpu:               0.2 elap:               0.0
 (Enter /opt/ohpc/pub/libs/gaussian/g16-A.03/sandybridge/g16/l202.exe)
 Stoichiometry    C39H29F3O3
 Framework group  C1[X(C39H29F3O3)]
 Deg. of freedom   216
 Full point group                 C1      NOp   1
 Largest Abelian subgroup         C1      NOp   1
 Largest concise Abelian subgroup C1      NOp   1
                         Standard orientation:                         
 ---------------------------------------------------------------------
 Center     Atomic      Atomic             Coordinates (Angstroms)
 Number     Number       Type             X           Y           Z
 ---------------------------------------------------------------------
      1          6           0       12.279383   -0.376622   -0.451349
      2          6           0       11.586301   -1.066789    0.550790
      3          6           0       10.233009   -1.027646    0.539777
      4          9           0        9.560111   -1.795035    1.505652
      5          6           0        9.514585   -0.232586   -0.261786
      6          6           0       10.198466    0.522323   -1.275270
      7          6           0       11.571146    0.462940   -1.299243
      8          6           0        8.009590   -0.106505   -0.282087
      9          6           0        7.249782   -1.323184   -0.455007
     10          6           0        5.904848   -1.276408   -0.450072
     11          6           0        5.163310   -0.011692   -0.190530
     12          6           0        5.952540    1.128096    0.101361
     13          6           0        7.327622    1.044264    0.052418
     14          8           0        8.148895    2.207054    0.220675
     15          6           0        7.528389    3.385444    0.692490
     16          6           0        3.711877   -0.068434   -0.162904
     17          6           0        2.964252   -0.518540   -1.231000
     18          6           0        1.558377   -0.385641   -1.191026
     19          9           0        0.941781   -0.891089   -2.298418
     20          6           0        0.827402    0.013308   -0.110003
     21          6           0        1.579513    0.515900    1.026255
     22          6           0        3.036538    0.482445    1.013392
     23          6           0       -0.570888    0.097016   -0.049420
     24          6           0       -1.334814    0.883759   -1.002956
     25          6           0       -2.677824    0.923796   -1.080619
     26          6           0       -3.457586    0.257058   -0.055099
     27          6           0       -2.737252   -0.508486    0.841204
     28          6           0       -1.411293   -0.657546    0.854187
     29          8           0       -0.670556   -1.383876    1.820907
     30          6           0       -1.383150   -2.226149    2.589668
     31          6           0       -4.946074    0.352119   -0.160097
     32          6           0       -5.672772    0.747208    1.035363
     33          6           0       -7.030760    0.829029    1.009521
     34          9           0       -7.712811    1.158897    2.127056
     35          6           0       -7.803423    0.441078   -0.169683
     36          6           0       -7.058055    0.069631   -1.335467
     37          6           0       -5.669703    0.031847   -1.232943
     38          6           0       -9.279010    0.548216   -0.136438
     39          6           0       -9.847729    1.751595    0.065172
     40          6           0      -11.302471    1.907697    0.048461
     41          6           0      -12.053588    0.842234   -0.174917
     42          6           0      -11.430955   -0.449039   -0.434032
     43          6           0      -10.047641   -0.613220   -0.435239
     44          8           0       -9.408699   -1.729873   -0.720340
     45          6           0      -10.235477   -2.906178   -0.763260
     46          1           0       13.351001   -0.415081   -0.477490
     47          1           0       12.128085   -1.799271    1.244110
     48          1           0        9.683277    1.238707   -1.929104
     49          1           0       12.178830    1.059329   -1.997729
     50          1           0        7.800543   -2.241157   -0.638228
     51          1           0        5.327867   -2.212272   -0.576824
     52          1           0        5.396818    1.993787    0.212295
     53          1           0        6.893132    3.239120    1.660797
     54          1           0        6.845290    3.758246   -0.041910
     55          1           0        8.251069    4.113254    0.969650
     56          1           0        3.484885   -0.847484   -2.165815
     57          1           0        1.115686    0.915038    1.856803
     58          1           0        3.513594    0.807261    1.855052
     59          1           0       -0.719978    1.394064   -1.749433
     60          1           0       -3.169657    1.627021   -1.806099
     61          1           0       -3.332916   -1.073699    1.568923
     62          1           0       -2.028340   -2.968308    2.091289
     63          1           0       -2.007581   -1.641407    3.302829
     64          1           0       -0.711422   -2.840710    3.166318
     65          1           0       -5.113365    1.009908    1.916205
     66          1           0       -7.584440   -0.197490   -2.193921
     67          1           0       -5.130424   -0.263493   -2.139925
     68          1           0       -9.256466    2.636091    0.268975
     69          1           0      -11.673534    2.905331    0.248934
     70          1           0      -13.158913    0.930068   -0.272866
     71          1           0      -12.152309   -1.278806   -0.708372
     72          1           0      -10.783453   -2.887370   -1.655590
     73          1           0      -10.768288   -3.126709    0.123285
     74          1           0       -9.516622   -3.729400   -0.888361
 ---------------------------------------------------------------------
 Rotational constants (GHZ):           0.3058293           0.0149516           0.0148350
 Leave Link  202 at Sun Jul 26 12:21:39 2020, MaxMem=  4026531840 cpu:               0.3 elap:               0.1
 (Enter /opt/ohpc/pub/libs/gaussian/g16-A.03/sandybridge/g16/l301.exe)
 Standard basis: CC-pVDZ (5D, 7F)
 Ernie: Thresh=  0.10000D-02 Tol=  0.10000D-05 Strict=F.
 Ernie:  90 primitive shells out of 1135 were deleted.
 There are   820 symmetry adapted cartesian basis functions of A   symmetry.
 There are   775 symmetry adapted basis functions of A   symmetry.
   775 basis functions,  1688 primitive gaussians,   820 cartesian basis functions
   157 alpha electrons      157 beta electrons
       nuclear repulsion energy      4569.7555256084 Hartrees.
 IExCor=32609 DFT=T Ex+Corr=LC-wPBE ExCW=0 ScaHFX=  1.000000
 ScaDFX=  1.000000  0.000000  1.000000  1.000000 ScalE2=  1.000000  1.000000
 IRadAn=      5 IRanWt=     -1 IRanGd=            0 ICorTp=0 IEmpDi=  4
 HFx  wShort=  0.000000 wLong=  0.399400 cFull=  0.000000 cShort=  0.000000 cLong=  1.000000
 DFx  wShort=  0.000000 wLong=  0.399400 cFull=  0.000000 cShort=  0.000000 cLong=  1.000000
 NAtoms=   74 NActive=   74 NUniq=   74 SFac= 1.00D+00 NAtFMM=   60 NAOKFM=T Big=T
 Integral buffers will be    131072 words long.
 Raffenetti 2 integral format.
 Two-electron integral symmetry is turned on.
 Leave Link  301 at Sun Jul 26 12:21:39 2020, MaxMem=  4026531840 cpu:               0.4 elap:               0.1
 (Enter /opt/ohpc/pub/libs/gaussian/g16-A.03/sandybridge/g16/l302.exe)
 NPDir=0 NMtPBC=     1 NCelOv=     1 NCel=       1 NClECP=     1 NCelD=      1
         NCelK=      1 NCelE2=     1 NClLst=     1 CellRange=     0.0.
 One-electron integrals computed using PRISM.
 One-electron integral symmetry used in STVInt
 NBasis=   775 RedAO= T EigKep=  2.73D-04  NBF=   775
 NBsUse=   775 1.00D-06 EigRej= -1.00D+00 NBFU=   775
 Precomputing XC quadrature grid using
 IXCGrd= 4 IRadAn=           5 IRanWt=          -1 IRanGd=           0 AccXCQ= 0.00D+00.
 Generated NRdTot=       0 NPtTot=           0 NUsed=           0 NTot=          32
 NSgBfM=   689   673   673   679   689 MxSgAt=    74 MxSgA2=    74.
 Leave Link  302 at Sun Jul 26 12:21:42 2020, MaxMem=  4026531840 cpu:              17.5 elap:               2.2
 (Enter /opt/ohpc/pub/libs/gaussian/g16-A.03/sandybridge/g16/l303.exe)
 DipDrv:  MaxL=1.
 Leave Link  303 at Sun Jul 26 12:21:42 2020, MaxMem=  4026531840 cpu:               1.3 elap:               0.2
 (Enter /opt/ohpc/pub/libs/gaussian/g16-A.03/sandybridge/g16/l401.exe)
 ExpMin= 1.22D-01 ExpMax= 1.47D+04 ExpMxC= 5.03D+02 IAcc=3 IRadAn=         5 AccDes= 0.00D+00
 Harris functional with IExCor=32609 and IRadAn=       5 diagonalized for initial guess.
 HarFok:  IExCor=32609 AccDes= 0.00D+00 IRadAn=         5 IDoV= 1 UseB2=F ITyADJ=14
 ICtDFT=  3500011 ScaDFX=  1.000000  1.000000  1.000000  1.000000
 FoFCou: FMM=F IPFlag=           0 FMFlag=      100000 FMFlg1=        2001
         NFxFlg=           0 DoJE=T BraDBF=F KetDBF=T FulRan=T
         wScrn=  0.000000 ICntrl=       500 IOpCl=  0 I1Cent=   200000004 NGrid=           0
         NMat0=    1 NMatS0=      1 NMatT0=    0 NMatD0=    1 NMtDS0=    0 NMtDT0=    0
 Petite list used in FoFCou.
 Harris En= -2027.14001804662    
 JPrj=0 DoOrth=F DoCkMO=F.
 Initial guess <Sx>= 0.0000 <Sy>= 0.0000 <Sz>= 0.0000 <S**2>=-0.0000 S=-0.0000
 Leave Link  401 at Sun Jul 26 12:21:51 2020, MaxMem=  4026531840 cpu:              73.1 elap:               9.2
 (Enter /opt/ohpc/pub/libs/gaussian/g16-A.03/sandybridge/g16/l502.exe)
 Integral symmetry usage will be decided dynamically.
 UHF open shell SCF:
 Using DIIS extrapolation, IDIIS=  1040.
 NGot=  4026531840 LenX=  4025171962 LenY=  4024498742
 Requested convergence on RMS density matrix=1.00D-08 within 128 cycles.
 Requested convergence on MAX density matrix=1.00D-06.
 Requested convergence on             energy=1.00D-06.
 No special actions if energy rises.
 Fock matrices will be formed incrementally for  20 cycles.
 Integral accuracy reduced to 1.0D-05 until final iterations.

 Cycle   1  Pass 0  IDiag  1:
 FoFJK:  IHMeth= 1 ICntrl=       0 DoSepK=T KAlg= 0 I1Cent=           0 FoldK=F
 IRaf=         1 NMat=       1 IRICut=       1 DoRegI=T DoRafI=F ISym2E= 0 IDoP0=0 IntGTp=1.
 FoFCou: FMM=T IPFlag=           0 FMFlag=      100000 FMFlg1=        2001
         NFxFlg=           0 DoJE=T BraDBF=F KetDBF=F FulRan=T
         wScrn=  0.000000 ICntrl=       500 IOpCl=  0 I1Cent=           0 NGrid=           0
         NMat0=    1 NMatS0=      1 NMatT0=    0 NMatD0=    1 NMtDS0=    0 NMtDT0=    0
 Symmetry not used in FoFCou.
 FMM levels:  10  Number of levels for PrismC:   9
 E= -2026.67661625739    
 DIIS: error= 1.55D-02 at cycle   1 NSaved=   1.
 NSaved= 1 IEnMin= 1 EnMin= -2026.67661625739     IErMin= 1 ErrMin= 1.55D-02
 ErrMax= 1.55D-02  0.00D+00 EMaxC= 1.00D-01 BMatC= 2.40D+00 BMatP= 2.40D+00
 IDIUse=3 WtCom= 8.45D-01 WtEn= 1.55D-01
 Coeff-Com:  0.100D+01
 Coeff-En:   0.100D+01
 Coeff:      0.100D+01
 Gap=     0.328 Goal=   None    Shift=    0.000
 Gap=     0.328 Goal=   None    Shift=    0.000
 GapD=    0.328 DampG=1.000 DampE=0.500 DampFc=0.5000 IDamp=-1.
 Damping current iteration by 5.00D-01
 RMSDP=2.01D-03 MaxDP=7.99D-02              OVMax= 1.28D-01

 Cycle   2  Pass 0  IDiag  1:
 RMSU=  9.76D-04    CP:  9.81D-01
 E= -2027.04529941905     Delta-E=       -0.368683161651 Rises=F Damp=T
 DIIS: error= 5.89D-03 at cycle   2 NSaved=   2.
 NSaved= 2 IEnMin= 2 EnMin= -2027.04529941905     IErMin= 2 ErrMin= 5.89D-03
 ErrMax= 5.89D-03  0.00D+00 EMaxC= 1.00D-01 BMatC= 2.18D-01 BMatP= 2.40D+00
 IDIUse=3 WtCom= 9.41D-01 WtEn= 5.89D-02
 Coeff-Com: -0.269D+00 0.127D+01
 Coeff-En:   0.000D+00 0.100D+01
 Coeff:     -0.253D+00 0.125D+01
 Gap=     0.324 Goal=   None    Shift=    0.000
 Gap=     0.324 Goal=   None    Shift=    0.000
 RMSDP=8.23D-04 MaxDP=2.77D-02 DE=-3.69D-01 OVMax= 6.42D-02

 Cycle   3  Pass 0  IDiag  1:
 RMSU=  5.30D-04    CP:  9.66D-01  1.62D+00
 E= -2027.35866696917     Delta-E=       -0.313367550123 Rises=F Damp=F
 DIIS: error= 2.31D-03 at cycle   3 NSaved=   3.
 NSaved= 3 IEnMin= 3 EnMin= -2027.35866696917     IErMin= 3 ErrMin= 2.31D-03
 ErrMax= 2.31D-03  0.00D+00 EMaxC= 1.00D-01 BMatC= 3.04D-02 BMatP= 2.18D-01
 IDIUse=3 WtCom= 9.77D-01 WtEn= 2.31D-02
 Coeff-Com: -0.112D+00 0.394D+00 0.717D+00
 Coeff-En:   0.000D+00 0.000D+00 0.100D+01
 Coeff:     -0.109D+00 0.385D+00 0.724D+00
 Gap=     0.321 Goal=   None    Shift=    0.000
 Gap=     0.321 Goal=   None    Shift=    0.000
 RMSDP=1.58D-04 MaxDP=1.15D-02 DE=-3.13D-01 OVMax= 2.14D-02

 Cycle   4  Pass 0  IDiag  1:
 RMSU=  1.48D-04    CP:  9.66D-01  1.65D+00  9.10D-01
 E= -2027.36539903588     Delta-E=       -0.006732066711 Rises=F Damp=F
 DIIS: error= 9.14D-04 at cycle   4 NSaved=   4.
 NSaved= 4 IEnMin= 4 EnMin= -2027.36539903588     IErMin= 4 ErrMin= 9.14D-04
 ErrMax= 9.14D-04  0.00D+00 EMaxC= 1.00D-01 BMatC= 5.46D-03 BMatP= 3.04D-02
 IDIUse=3 WtCom= 9.91D-01 WtEn= 9.14D-03
 Coeff-Com: -0.146D-01 0.340D-01 0.301D+00 0.680D+00
 Coeff-En:   0.000D+00 0.000D+00 0.307D-01 0.969D+00
 Coeff:     -0.144D-01 0.336D-01 0.298D+00 0.683D+00
 Gap=     0.321 Goal=   None    Shift=    0.000
 Gap=     0.321 Goal=   None    Shift=    0.000
 RMSDP=6.36D-05 MaxDP=4.95D-03 DE=-6.73D-03 OVMax= 7.46D-03

 Cycle   5  Pass 0  IDiag  1:
 RMSU=  4.19D-05    CP:  9.66D-01  1.66D+00  9.75D-01  7.88D-01
 E= -2027.36678094377     Delta-E=       -0.001381907889 Rises=F Damp=F
 DIIS: error= 2.32D-04 at cycle   5 NSaved=   5.
 NSaved= 5 IEnMin= 5 EnMin= -2027.36678094377     IErMin= 5 ErrMin= 2.32D-04
 ErrMax= 2.32D-04  0.00D+00 EMaxC= 1.00D-01 BMatC= 4.38D-04 BMatP= 5.46D-03
 IDIUse=3 WtCom= 9.98D-01 WtEn= 2.32D-03
 Coeff-Com:  0.529D-02-0.227D-01 0.554D-01 0.258D+00 0.704D+00
 Coeff-En:   0.000D+00 0.000D+00 0.000D+00 0.000D+00 0.100D+01
 Coeff:      0.528D-02-0.226D-01 0.553D-01 0.257D+00 0.705D+00
 Gap=     0.322 Goal=   None    Shift=    0.000
 Gap=     0.322 Goal=   None    Shift=    0.000
 RMSDP=2.17D-05 MaxDP=1.10D-03 DE=-1.38D-03 OVMax= 2.88D-03

 Cycle   6  Pass 0  IDiag  1:
 RMSU=  1.72D-05    CP:  9.66D-01  1.66D+00  9.90D-01  8.51D-01  9.37D-01
 E= -2027.36690710864     Delta-E=       -0.000126164866 Rises=F Damp=F
 DIIS: error= 7.52D-05 at cycle   6 NSaved=   6.
 NSaved= 6 IEnMin= 6 EnMin= -2027.36690710864     IErMin= 6 ErrMin= 7.52D-05
 ErrMax= 7.52D-05  0.00D+00 EMaxC= 1.00D-01 BMatC= 5.06D-05 BMatP= 4.38D-04
 IDIUse=1 WtCom= 1.00D+00 WtEn= 0.00D+00
 Coeff-Com:  0.415D-02-0.129D-01-0.162D-01-0.136D-02 0.228D+00 0.798D+00
 Coeff:      0.415D-02-0.129D-01-0.162D-01-0.136D-02 0.228D+00 0.798D+00
 Gap=     0.322 Goal=   None    Shift=    0.000
 Gap=     0.322 Goal=   None    Shift=    0.000
 RMSDP=1.34D-05 MaxDP=3.69D-04 DE=-1.26D-04 OVMax= 1.41D-03

 Cycle   7  Pass 0  IDiag  1:
 RMSU=  1.07D-05    CP:  9.66D-01  1.67D+00  9.97D-01  8.70D-01  1.09D+00
                    CP:  1.08D+00
 E= -2027.36692728349     Delta-E=       -0.000020174853 Rises=F Damp=F
 DIIS: error= 4.55D-05 at cycle   7 NSaved=   7.
 NSaved= 7 IEnMin= 7 EnMin= -2027.36692728349     IErMin= 7 ErrMin= 4.55D-05
 ErrMax= 4.55D-05  0.00D+00 EMaxC= 1.00D-01 BMatC= 8.84D-06 BMatP= 5.06D-05
 IDIUse=1 WtCom= 1.00D+00 WtEn= 0.00D+00
 Coeff-Com:  0.748D-03-0.132D-02-0.990D-02-0.347D-01-0.396D-01 0.238D+00
 Coeff-Com:  0.847D+00
 Coeff:      0.748D-03-0.132D-02-0.990D-02-0.347D-01-0.396D-01 0.238D+00
 Coeff:      0.847D+00
 Gap=     0.322 Goal=   None    Shift=    0.000
 Gap=     0.322 Goal=   None    Shift=    0.000
 RMSDP=1.25D-05 MaxDP=2.59D-04 DE=-2.02D-05 OVMax= 7.19D-04

 Cycle   8  Pass 0  IDiag  1:
 RMSU=  9.72D-06    CP:  9.66D-01  1.67D+00  1.00D+00  8.79D-01  1.14D+00
                    CP:  1.36D+00  1.48D+00
 E= -2027.36692848446     Delta-E=       -0.000001200971 Rises=F Damp=F
 DIIS: error= 3.14D-05 at cycle   8 NSaved=   8.
 NSaved= 8 IEnMin= 8 EnMin= -2027.36692848446     IErMin= 8 ErrMin= 3.14D-05
 ErrMax= 3.14D-05  0.00D+00 EMaxC= 1.00D-01 BMatC= 3.31D-06 BMatP= 8.84D-06
 IDIUse=1 WtCom= 1.00D+00 WtEn= 0.00D+00
 Coeff-Com: -0.175D-03 0.104D-02-0.196D-02-0.170D-01-0.569D-01 0.538D-02
 Coeff-Com:  0.397D+00 0.673D+00
 Coeff:     -0.175D-03 0.104D-02-0.196D-02-0.170D-01-0.569D-01 0.538D-02
 Coeff:      0.397D+00 0.673D+00
 Gap=     0.323 Goal=   None    Shift=    0.000
 Gap=     0.323 Goal=   None    Shift=    0.000
 RMSDP=1.20D-05 MaxDP=2.96D-04 DE=-1.20D-06 OVMax= 3.21D-04

 Cycle   9  Pass 0  IDiag  1:
 RMSU=  7.33D-06    CP:  9.66D-01  1.67D+00  1.00D+00  8.83D-01  1.17D+00
                    CP:  1.51D+00  2.12D+00  1.61D+00
 E= -2027.36692661103     Delta-E=        0.000001873434 Rises=F Damp=F
 DIIS: error= 4.10D-05 at cycle   9 NSaved=   9.
 NSaved= 9 IEnMin= 8 EnMin= -2027.36692848446     IErMin= 8 ErrMin= 3.14D-05
 ErrMax= 4.10D-05  0.00D+00 EMaxC= 1.00D-01 BMatC= 2.98D-06 BMatP= 3.31D-06
 IDIUse=1 WtCom= 1.00D+00 WtEn= 0.00D+00
 Coeff-Com: -0.148D-03 0.922D-03-0.182D-02-0.157D-01-0.519D-01 0.752D-02
 Coeff-Com:  0.365D+00 0.607D+00 0.898D-01
 Coeff:     -0.148D-03 0.922D-03-0.182D-02-0.157D-01-0.519D-01 0.752D-02
 Coeff:      0.365D+00 0.607D+00 0.898D-01
 Gap=     0.323 Goal=   None    Shift=    0.000
 Gap=     0.323 Goal=   None    Shift=    0.000
 RMSDP=1.78D-06 MaxDP=4.14D-05 DE= 1.87D-06 OVMax= 1.51D-05

 Initial convergence to 1.0D-05 achieved.  Increase integral accuracy.
 Cycle  10  Pass 1  IDiag  1:
 E= -2027.36624431697     Delta-E=        0.000682294050 Rises=F Damp=F
 DIIS: error= 5.17D-04 at cycle   1 NSaved=   1.
 NSaved= 1 IEnMin= 1 EnMin= -2027.36624431697     IErMin= 1 ErrMin= 5.17D-04
 ErrMax= 5.17D-04  0.00D+00 EMaxC= 1.00D-01 BMatC= 2.59D-04 BMatP= 2.59D-04
 IDIUse=3 WtCom= 9.95D-01 WtEn= 5.17D-03
 Coeff-Com:  0.100D+01
 Coeff-En:   0.100D+01
 Coeff:      0.100D+01
 Gap=     0.323 Goal=   None    Shift=    0.000
 Gap=     0.323 Goal=   None    Shift=    0.000
 RMSDP=1.78D-06 MaxDP=4.14D-05 DE= 6.82D-04 OVMax= 8.01D-04

 Cycle  11  Pass 1  IDiag  1:
 RMSU=  2.81D-04    CP:  9.99D-01
 E= -2027.36629790489     Delta-E=       -0.000053587914 Rises=F Damp=F
 DIIS: error= 1.72D-05 at cycle   2 NSaved=   2.
 NSaved= 2 IEnMin= 2 EnMin= -2027.36629790489     IErMin= 2 ErrMin= 1.72D-05
 ErrMax= 1.72D-05  0.00D+00 EMaxC= 1.00D-01 BMatC= 5.45D-07 BMatP= 2.59D-04
 IDIUse=1 WtCom= 1.00D+00 WtEn= 0.00D+00
 Coeff-Com: -0.357D-01 0.104D+01
 Coeff:     -0.357D-01 0.104D+01
 Gap=     0.323 Goal=   None    Shift=    0.000
 Gap=     0.323 Goal=   None    Shift=    0.000
 RMSDP=1.33D-05 MaxDP=6.50D-04 DE=-5.36D-05 OVMax= 1.09D-04

 Cycle  12  Pass 1  IDiag  1:
 RMSU=  3.43D-06    CP:  9.99D-01  1.05D+00
 E= -2027.36629810940     Delta-E=       -0.000000204509 Rises=F Damp=F
 DIIS: error= 4.17D-06 at cycle   3 NSaved=   3.
 NSaved= 3 IEnMin= 3 EnMin= -2027.36629810940     IErMin= 3 ErrMin= 4.17D-06
 ErrMax= 4.17D-06  0.00D+00 EMaxC= 1.00D-01 BMatC= 7.32D-08 BMatP= 5.45D-07
 IDIUse=1 WtCom= 1.00D+00 WtEn= 0.00D+00
 Coeff-Com: -0.940D-02 0.252D+00 0.757D+00
 Coeff:     -0.940D-02 0.252D+00 0.757D+00
 Gap=     0.323 Goal=   None    Shift=    0.000
 Gap=     0.323 Goal=   None    Shift=    0.000
 RMSDP=4.62D-07 MaxDP=1.92D-05 DE=-2.05D-07 OVMax= 6.01D-05

 Cycle  13  Pass 1  IDiag  1:
 RMSU=  3.16D-07    CP:  9.99D-01  1.05D+00  1.07D+00
 E= -2027.36629817129     Delta-E=       -0.000000061892 Rises=F Damp=F
 DIIS: error= 2.07D-06 at cycle   4 NSaved=   4.
 NSaved= 4 IEnMin= 4 EnMin= -2027.36629817129     IErMin= 4 ErrMin= 2.07D-06
 ErrMax= 2.07D-06  0.00D+00 EMaxC= 1.00D-01 BMatC= 3.33D-08 BMatP= 7.32D-08
 IDIUse=1 WtCom= 1.00D+00 WtEn= 0.00D+00
 Coeff-Com:  0.370D-02-0.118D+00 0.373D+00 0.741D+00
 Coeff:      0.370D-02-0.118D+00 0.373D+00 0.741D+00
 Gap=     0.323 Goal=   None    Shift=    0.000
 Gap=     0.323 Goal=   None    Shift=    0.000
 RMSDP=2.62D-07 MaxDP=1.07D-05 DE=-6.19D-08 OVMax= 4.08D-05

 Cycle  14  Pass 1  IDiag  1:
 RMSU=  1.85D-07    CP:  9.99D-01  1.05D+00  1.11D+00  1.03D+00
 E= -2027.36629818997     Delta-E=       -0.000000018680 Rises=F Damp=F
 DIIS: error= 1.37D-06 at cycle   5 NSaved=   5.
 NSaved= 5 IEnMin= 5 EnMin= -2027.36629818997     IErMin= 5 ErrMin= 1.37D-06
 ErrMax= 1.37D-06  0.00D+00 EMaxC= 1.00D-01 BMatC= 3.52D-09 BMatP= 3.33D-08
 IDIUse=1 WtCom= 1.00D+00 WtEn= 0.00D+00
 Coeff-Com:  0.962D-03-0.235D-01-0.171D+00-0.822D-01 0.128D+01
 Coeff:      0.962D-03-0.235D-01-0.171D+00-0.822D-01 0.128D+01
 Gap=     0.323 Goal=   None    Shift=    0.000
 Gap=     0.323 Goal=   None    Shift=    0.000
 RMSDP=1.49D-07 MaxDP=9.78D-06 DE=-1.87D-08 OVMax= 3.79D-05

 Cycle  15  Pass 1  IDiag  1:
 RMSU=  7.51D-08    CP:  9.99D-01  1.05D+00  1.12D+00  1.28D+00  1.53D+00
 E= -2027.36629819436     Delta-E=       -0.000000004395 Rises=F Damp=F
 DIIS: error= 4.59D-07 at cycle   6 NSaved=   6.
 NSaved= 6 IEnMin= 6 EnMin= -2027.36629819436     IErMin= 6 ErrMin= 4.59D-07
 ErrMax= 4.59D-07  0.00D+00 EMaxC= 1.00D-01 BMatC= 1.45D-09 BMatP= 3.52D-09
 IDIUse=1 WtCom= 1.00D+00 WtEn= 0.00D+00
 Coeff-Com: -0.708D-03 0.261D-01-0.209D+00-0.284D+00 0.638D+00 0.830D+00
 Coeff:     -0.708D-03 0.261D-01-0.209D+00-0.284D+00 0.638D+00 0.830D+00
 Gap=     0.323 Goal=   None    Shift=    0.000
 Gap=     0.323 Goal=   None    Shift=    0.000
 RMSDP=8.16D-08 MaxDP=5.08D-06 DE=-4.39D-09 OVMax= 2.07D-05

 Cycle  16  Pass 1  IDiag  1:
 RMSU=  3.44D-08    CP:  9.99D-01  1.05D+00  1.12D+00  1.38D+00  1.87D+00
                    CP:  1.30D+00
 E= -2027.36629819588     Delta-E=       -0.000000001514 Rises=F Damp=F
 DIIS: error= 1.14D-07 at cycle   7 NSaved=   7.
 NSaved= 7 IEnMin= 7 EnMin= -2027.36629819588     IErMin= 7 ErrMin= 1.14D-07
 ErrMax= 1.14D-07  0.00D+00 EMaxC= 1.00D-01 BMatC= 8.62D-11 BMatP= 1.45D-09
 IDIUse=1 WtCom= 1.00D+00 WtEn= 0.00D+00
 Coeff-Com: -0.312D-03 0.107D-01-0.631D-01-0.992D-01 0.141D+00 0.302D+00
 Coeff-Com:  0.709D+00
 Coeff:     -0.312D-03 0.107D-01-0.631D-01-0.992D-01 0.141D+00 0.302D+00
 Coeff:      0.709D+00
 Gap=     0.323 Goal=   None    Shift=    0.000
 Gap=     0.323 Goal=   None    Shift=    0.000
 RMSDP=1.44D-08 MaxDP=6.31D-07 DE=-1.51D-09 OVMax= 2.73D-06

 Cycle  17  Pass 1  IDiag  1:
 RMSU=  8.15D-09    CP:  9.99D-01  1.05D+00  1.12D+00  1.38D+00  1.90D+00
                    CP:  1.43D+00  1.07D+00
 E= -2027.36629819573     Delta-E=        0.000000000146 Rises=F Damp=F
 DIIS: error= 6.15D-08 at cycle   8 NSaved=   8.
 NSaved= 8 IEnMin= 7 EnMin= -2027.36629819588     IErMin= 8 ErrMin= 6.15D-08
 ErrMax= 6.15D-08  0.00D+00 EMaxC= 1.00D-01 BMatC= 1.74D-11 BMatP= 8.62D-11
 IDIUse=1 WtCom= 1.00D+00 WtEn= 0.00D+00
 Coeff-Com:  0.882D-04-0.349D-02 0.361D-01 0.418D-01-0.122D+00-0.109D+00
 Coeff-Com:  0.247D+00 0.909D+00
 Coeff:      0.882D-04-0.349D-02 0.361D-01 0.418D-01-0.122D+00-0.109D+00
 Coeff:      0.247D+00 0.909D+00
 Gap=     0.323 Goal=   None    Shift=    0.000
 Gap=     0.323 Goal=   None    Shift=    0.000
 RMSDP=8.07D-09 MaxDP=3.84D-07 DE= 1.46D-10 OVMax= 1.37D-06

 SCF Done:  E(ULC-wPBE) =  -2027.36629820     A.U. after   17 cycles
            NFock= 17  Conv=0.81D-08     -V/T= 2.0067
 <Sx>= 0.0000 <Sy>= 0.0000 <Sz>= 0.0000 <S**2>=-0.0000 S=-0.0000
 <L.S>= 0.000000000000E+00
 KE= 2.013852302361D+03 PE=-1.386992816257D+04 EE= 5.258954036406D+03
 Annihilation of the first spin contaminant:
 S**2 before annihilation    -0.0000,   after     0.0000
 Leave Link  502 at Sun Jul 26 12:30:36 2020, MaxMem=  4026531840 cpu:            4125.5 elap:             525.3
 (Enter /opt/ohpc/pub/libs/gaussian/g16-A.03/sandybridge/g16/l601.exe)
 Copying SCF densities to generalized density rwf, IOpCl= 1 IROHF=0.

 **********************************************************************

            Population analysis using the SCF density.

 **********************************************************************

 Orbital symmetries:
 Alpha Orbitals:
       Occupied  (A) (A) (A) (A) (A) (A) (A) (A) (A) (A) (A) (A)
                 (A) (A) (A) (A) (A) (A) (A) (A) (A) (A) (A) (A)
                 (A) (A) (A) (A) (A) (A) (A) (A) (A) (A) (A) (A)
                 (A) (A) (A) (A) (A) (A) (A) (A) (A) (A) (A) (A)
                 (A) (A) (A) (A) (A) (A) (A) (A) (A) (A) (A) (A)
                 (A) (A) (A) (A) (A) (A) (A) (A) (A) (A) (A) (A)
                 (A) (A) (A) (A) (A) (A) (A) (A) (A) (A) (A) (A)
                 (A) (A) (A) (A) (A) (A) (A) (A) (A) (A) (A) (A)
                 (A) (A) (A) (A) (A) (A) (A) (A) (A) (A) (A) (A)
                 (A) (A) (A) (A) (A) (A) (A) (A) (A) (A) (A) (A)
                 (A) (A) (A) (A) (A) (A) (A) (A) (A) (A) (A) (A)
                 (A) (A) (A) (A) (A) (A) (A) (A) (A) (A) (A) (A)
                 (A) (A) (A) (A) (A) (A) (A) (A) (A) (A) (A) (A)
                 (A)
       Virtual   (A) (A) (A) (A) (A) (A) (A) (A) (A) (A) (A) (A)
                 (A) (A) (A) (A) (A) (A) (A) (A) (A) (A) (A) (A)
                 (A) (A) (A) (A) (A) (A) (A) (A) (A) (A) (A) (A)
                 (A) (A) (A) (A) (A) (A) (A) (A) (A) (A) (A) (A)
                 (A) (A) (A) (A) (A) (A) (A) (A) (A) (A) (A) (A)
                 (A) (A) (A) (A) (A) (A) (A) (A) (A) (A) (A) (A)
                 (A) (A) (A) (A) (A) (A) (A) (A) (A) (A) (A) (A)
                 (A) (A) (A) (A) (A) (A) (A) (A) (A) (A) (A) (A)
                 (A) (A) (A) (A) (A) (A) (A) (A) (A) (A) (A) (A)
                 (A) (A) (A) (A) (A) (A) (A) (A) (A) (A) (A) (A)
                 (A) (A) (A) (A) (A) (A) (A) (A) (A) (A) (A) (A)
                 (A) (A) (A) (A) (A) (A) (A) (A) (A) (A) (A) (A)
                 (A) (A) (A) (A) (A) (A) (A) (A) (A) (A) (A) (A)
                 (A) (A) (A) (A) (A) (A) (A) (A) (A) (A) (A) (A)
                 (A) (A) (A) (A) (A) (A) (A) (A) (A) (A) (A) (A)
                 (A) (A) (A) (A) (A) (A) (A) (A) (A) (A) (A) (A)
                 (A) (A) (A) (A) (A) (A) (A) (A) (A) (A) (A) (A)
                 (A) (A) (A) (A) (A) (A) (A) (A) (A) (A) (A) (A)
                 (A) (A) (A) (A) (A) (A) (A) (A) (A) (A) (A) (A)
                 (A) (A) (A) (A) (A) (A) (A) (A) (A) (A) (A) (A)
                 (A) (A) (A) (A) (A) (A) (A) (A) (A) (A) (A) (A)
                 (A) (A) (A) (A) (A) (A) (A) (A) (A) (A) (A) (A)
                 (A) (A) (A) (A) (A) (A) (A) (A) (A) (A) (A) (A)
                 (A) (A) (A) (A) (A) (A) (A) (A) (A) (A) (A) (A)
                 (A) (A) (A) (A) (A) (A) (A) (A) (A) (A) (A) (A)
                 (A) (A) (A) (A) (A) (A) (A) (A) (A) (A) (A) (A)
                 (A) (A) (A) (A) (A) (A) (A) (A) (A) (A) (A) (A)
                 (A) (A) (A) (A) (A) (A) (A) (A) (A) (A) (A) (A)
                 (A) (A) (A) (A) (A) (A) (A) (A) (A) (A) (A) (A)
                 (A) (A) (A) (A) (A) (A) (A) (A) (A) (A) (A) (A)
                 (A) (A) (A) (A) (A) (A) (A) (A) (A) (A) (A) (A)
                 (A) (A) (A) (A) (A) (A) (A) (A) (A) (A) (A) (A)
                 (A) (A) (A) (A) (A) (A) (A) (A) (A) (A) (A) (A)
                 (A) (A) (A) (A) (A) (A) (A) (A) (A) (A) (A) (A)
                 (A) (A) (A) (A) (A) (A) (A) (A) (A) (A) (A) (A)
                 (A) (A) (A) (A) (A) (A) (A) (A) (A) (A) (A) (A)
                 (A) (A) (A) (A) (A) (A) (A) (A) (A) (A) (A) (A)
                 (A) (A) (A) (A) (A) (A) (A) (A) (A) (A) (A) (A)
                 (A) (A) (A) (A) (A) (A) (A) (A) (A) (A) (A) (A)
                 (A) (A) (A) (A) (A) (A) (A) (A) (A) (A) (A) (A)
                 (A) (A) (A) (A) (A) (A) (A) (A) (A) (A) (A) (A)
                 (A) (A) (A) (A) (A) (A) (A) (A) (A) (A) (A) (A)
                 (A) (A) (A) (A) (A) (A) (A) (A) (A) (A) (A) (A)
                 (A) (A) (A) (A) (A) (A) (A) (A) (A) (A) (A) (A)
                 (A) (A) (A) (A) (A) (A) (A) (A) (A) (A) (A) (A)
                 (A) (A) (A) (A) (A) (A) (A) (A) (A) (A) (A) (A)
                 (A) (A) (A) (A) (A) (A) (A) (A) (A) (A) (A) (A)
                 (A) (A) (A) (A) (A) (A) (A) (A) (A) (A) (A) (A)
                 (A) (A) (A) (A) (A) (A) (A) (A) (A) (A) (A) (A)
                 (A) (A) (A) (A) (A) (A) (A) (A) (A) (A) (A) (A)
                 (A) (A) (A) (A) (A) (A) (A) (A) (A) (A) (A) (A)
                 (A) (A) (A) (A) (A) (A)
 Beta  Orbitals:
       Occupied  (A) (A) (A) (A) (A) (A) (A) (A) (A) (A) (A) (A)
                 (A) (A) (A) (A) (A) (A) (A) (A) (A) (A) (A) (A)
                 (A) (A) (A) (A) (A) (A) (A) (A) (A) (A) (A) (A)
                 (A) (A) (A) (A) (A) (A) (A) (A) (A) (A) (A) (A)
                 (A) (A) (A) (A) (A) (A) (A) (A) (A) (A) (A) (A)
                 (A) (A) (A) (A) (A) (A) (A) (A) (A) (A) (A) (A)
                 (A) (A) (A) (A) (A) (A) (A) (A) (A) (A) (A) (A)
                 (A) (A) (A) (A) (A) (A) (A) (A) (A) (A) (A) (A)
                 (A) (A) (A) (A) (A) (A) (A) (A) (A) (A) (A) (A)
                 (A) (A) (A) (A) (A) (A) (A) (A) (A) (A) (A) (A)
                 (A) (A) (A) (A) (A) (A) (A) (A) (A) (A) (A) (A)
                 (A) (A) (A) (A) (A) (A) (A) (A) (A) (A) (A) (A)
                 (A) (A) (A) (A) (A) (A) (A) (A) (A) (A) (A) (A)
                 (A)
       Virtual   (A) (A) (A) (A) (A) (A) (A) (A) (A) (A) (A) (A)
                 (A) (A) (A) (A) (A) (A) (A) (A) (A) (A) (A) (A)
                 (A) (A) (A) (A) (A) (A) (A) (A) (A) (A) (A) (A)
                 (A) (A) (A) (A) (A) (A) (A) (A) (A) (A) (A) (A)
                 (A) (A) (A) (A) (A) (A) (A) (A) (A) (A) (A) (A)
                 (A) (A) (A) (A) (A) (A) (A) (A) (A) (A) (A) (A)
                 (A) (A) (A) (A) (A) (A) (A) (A) (A) (A) (A) (A)
                 (A) (A) (A) (A) (A) (A) (A) (A) (A) (A) (A) (A)
                 (A) (A) (A) (A) (A) (A) (A) (A) (A) (A) (A) (A)
                 (A) (A) (A) (A) (A) (A) (A) (A) (A) (A) (A) (A)
                 (A) (A) (A) (A) (A) (A) (A) (A) (A) (A) (A) (A)
                 (A) (A) (A) (A) (A) (A) (A) (A) (A) (A) (A) (A)
                 (A) (A) (A) (A) (A) (A) (A) (A) (A) (A) (A) (A)
[...]
              Bcc     0.0000     0.000     0.000     0.000  0.2279  0.9625 -0.1472
 
              Baa    -0.0000    -0.000    -0.000    -0.000 -0.6144  0.7651 -0.1927
    13 C(13)  Bbb     0.0000     0.000     0.000     0.000 -0.5835 -0.2762  0.7637
              Bcc     0.0000     0.000     0.000     0.000  0.5310  0.5817  0.6161
 
              Baa    -0.0000     0.000     0.000     0.000  0.7630 -0.2521  0.5952
    14 O(17)  Bbb    -0.0000     0.000     0.000     0.000 -0.5551  0.2162  0.8032
              Bcc     0.0000    -0.000    -0.000    -0.000  0.3312  0.9432 -0.0251
 
              Baa    -0.0000    -0.000    -0.000    -0.000  0.1455 -0.3904  0.9091
    15 C(13)  Bbb     0.0000     0.000     0.000     0.000  0.2623  0.9012  0.3450
              Bcc     0.0000     0.000     0.000     0.000  0.9540 -0.1883 -0.2335
 
              Baa    -0.0000    -0.000    -0.000    -0.000  0.9706  0.0669  0.2313
    16 C(13)  Bbb    -0.0000    -0.000    -0.000    -0.000 -0.2407  0.2383  0.9409
              Bcc     0.0000     0.000     0.000     0.000 -0.0079  0.9689 -0.2474
 
              Baa    -0.0000    -0.000    -0.000    -0.000  0.1762  0.2230  0.9588
    17 C(13)  Bbb     0.0000     0.000     0.000     0.000  0.4766  0.8329 -0.2813
              Bcc     0.0000     0.000     0.000     0.000  0.8613 -0.5065 -0.0405
 
              Baa    -0.0000    -0.000    -0.000    -0.000  0.0320 -0.4713  0.8814
    18 C(13)  Bbb     0.0000     0.000     0.000     0.000  0.3236  0.8393  0.4370
              Bcc     0.0000     0.000     0.000     0.000  0.9457 -0.2712 -0.1794
 
              Baa    -0.0000    -0.000    -0.000    -0.000 -0.5295  0.7706  0.3546
    19 F(19)  Bbb     0.0000     0.000     0.000     0.000 -0.0954 -0.4695  0.8778
              Bcc     0.0000     0.000     0.000     0.000  0.8429  0.4310  0.3222
 
              Baa    -0.0000    -0.000    -0.000    -0.000 -0.0066 -0.5879  0.8089
    20 C(13)  Bbb     0.0000     0.000     0.000     0.000 -0.2378  0.7866  0.5698
              Bcc     0.0000     0.000     0.000     0.000  0.9713  0.1886  0.1450
 
              Baa    -0.0000    -0.000    -0.000    -0.000  0.9893  0.0086 -0.1454
    21 C(13)  Bbb     0.0000     0.000     0.000     0.000 -0.1064  0.7243 -0.6812
              Bcc     0.0000     0.000     0.000     0.000  0.0994  0.6894  0.7175
 
              Baa    -0.0000    -0.000    -0.000    -0.000  0.0004  0.9896 -0.1440
    22 C(13)  Bbb     0.0000     0.000     0.000     0.000 -0.4992  0.1250  0.8574
              Bcc     0.0000     0.000     0.000     0.000  0.8665  0.0715  0.4940
 
              Baa    -0.0000    -0.000    -0.000    -0.000 -0.3608  0.3348  0.8705
    23 C(13)  Bbb    -0.0000    -0.000    -0.000    -0.000  0.1819  0.9407 -0.2864
              Bcc     0.0000     0.000     0.000     0.000  0.9147 -0.0550  0.4003
 
              Baa    -0.0000    -0.000    -0.000    -0.000  0.9659 -0.0124  0.2587
    24 C(13)  Bbb     0.0000     0.000     0.000     0.000 -0.2564  0.0966  0.9617
              Bcc     0.0000     0.000     0.000     0.000  0.0369  0.9952 -0.0901
 
              Baa    -0.0000    -0.000    -0.000    -0.000  0.0813  0.9915 -0.1020
    25 C(13)  Bbb    -0.0000    -0.000    -0.000    -0.000  0.5803  0.0361  0.8136
              Bcc     0.0000     0.000     0.000     0.000  0.8103 -0.1254 -0.5724
 
              Baa    -0.0000    -0.000    -0.000    -0.000  0.8578  0.5009 -0.1149
    26 C(13)  Bbb    -0.0000    -0.000    -0.000    -0.000 -0.5056  0.7826 -0.3631
              Bcc     0.0000     0.000     0.000     0.000 -0.0919  0.3695  0.9247
 
              Baa    -0.0000    -0.000    -0.000    -0.000  0.0562  0.9948 -0.0850
    27 C(13)  Bbb     0.0000     0.000     0.000     0.000  0.7465  0.0147  0.6652
              Bcc     0.0000     0.000     0.000     0.000 -0.6630  0.1009  0.7418
 
              Baa    -0.0000    -0.000    -0.000    -0.000  0.0351  0.9991  0.0238
    28 C(13)  Bbb    -0.0000    -0.000    -0.000    -0.000 -0.0679 -0.0214  0.9975
              Bcc     0.0000     0.000     0.000     0.000  0.9971 -0.0367  0.0671
 
              Baa    -0.0000     0.000     0.000     0.000  0.7317 -0.0608 -0.6789
    29 O(17)  Bbb     0.0000    -0.000    -0.000    -0.000 -0.0096  0.9950 -0.0994
              Bcc     0.0000    -0.000    -0.000    -0.000  0.6816  0.0792  0.7275
 
              Baa    -0.0000    -0.000    -0.000    -0.000  0.8383  0.1192  0.5320
    30 C(13)  Bbb     0.0000     0.000     0.000     0.000 -0.1726  0.9836  0.0516
              Bcc     0.0000     0.000     0.000     0.000 -0.5171 -0.1350  0.8452
 
              Baa    -0.0000    -0.000    -0.000    -0.000  0.1534  0.9511  0.2679
    31 C(13)  Bbb     0.0000     0.000     0.000     0.000  0.9882 -0.1473 -0.0427
              Bcc     0.0000     0.000     0.000     0.000  0.0012 -0.2713  0.9625
 
              Baa    -0.0000    -0.000    -0.000    -0.000  0.6570  0.5355  0.5307
    32 C(13)  Bbb     0.0000     0.000     0.000     0.000 -0.6726  0.7343  0.0916
              Bcc     0.0000     0.000     0.000     0.000 -0.3406 -0.4171  0.8426
 
              Baa    -0.0000    -0.000    -0.000    -0.000  0.9942  0.0186 -0.1062
    33 C(13)  Bbb    -0.0000    -0.000    -0.000    -0.000  0.0543  0.7647  0.6421
              Bcc     0.0000     0.000     0.000     0.000  0.0932 -0.6441  0.7593
 
              Baa    -0.0000    -0.000    -0.000    -0.000 -0.3410  0.6362  0.6921
    34 F(19)  Bbb    -0.0000    -0.000    -0.000    -0.000  0.3061 -0.6209  0.7216
              Bcc     0.0000     0.000     0.000     0.000  0.8889  0.4579  0.0170
 
              Baa    -0.0000    -0.000    -0.000    -0.000 -0.4986  0.7138 -0.4919
    35 C(13)  Bbb    -0.0000    -0.000    -0.000    -0.000 -0.2891  0.3981  0.8706
              Bcc     0.0000     0.000     0.000     0.000  0.8172  0.5763  0.0079
 
              Baa    -0.0000    -0.000    -0.000    -0.000 -0.4059  0.6072  0.6831
    36 C(13)  Bbb    -0.0000    -0.000    -0.000    -0.000 -0.1040  0.7119 -0.6946
              Bcc     0.0000     0.000     0.000     0.000  0.9080  0.3530  0.2258
 
              Baa    -0.0000    -0.000    -0.000    -0.000  0.9871 -0.1578 -0.0255
    37 C(13)  Bbb    -0.0000    -0.000    -0.000    -0.000 -0.0563 -0.4925  0.8685
              Bcc     0.0000     0.000     0.000     0.000  0.1496  0.8559  0.4951
 
              Baa    -0.0000    -0.000    -0.000    -0.000  0.8461  0.5283 -0.0712
    38 C(13)  Bbb     0.0000     0.000     0.000     0.000 -0.5206  0.7899 -0.3240
              Bcc     0.0000     0.000     0.000     0.000 -0.1149  0.3112  0.9434
 
              Baa    -0.0000    -0.000    -0.000    -0.000 -0.2991  0.9390 -0.1697
    39 C(13)  Bbb     0.0000     0.000     0.000     0.000  0.0400  0.1901  0.9810
              Bcc     0.0000     0.000     0.000     0.000  0.9534  0.2866 -0.0944
 
              Baa    -0.0000    -0.000    -0.000    -0.000  0.7026 -0.6724  0.2330
    40 C(13)  Bbb     0.0000     0.000     0.000     0.000 -0.2800  0.0399  0.9592
              Bcc     0.0000     0.000     0.000     0.000  0.6542  0.7392  0.1602
 
              Baa    -0.0000    -0.000    -0.000    -0.000 -0.1801  0.9597 -0.2158
    41 C(13)  Bbb    -0.0000    -0.000    -0.000    -0.000 -0.0895  0.2025  0.9752
              Bcc     0.0000     0.000     0.000     0.000  0.9796  0.1950  0.0494
 
              Baa    -0.0000    -0.000    -0.000    -0.000  0.9520 -0.2196  0.2134
    42 C(13)  Bbb     0.0000     0.000     0.000     0.000  0.2335  0.9714 -0.0424
              Bcc     0.0000     0.000     0.000     0.000 -0.1980  0.0902  0.9760
 
              Baa    -0.0000    -0.000    -0.000    -0.000 -0.5193  0.8094 -0.2744
    43 C(13)  Bbb     0.0000     0.000     0.000     0.000  0.8541  0.4799 -0.2007
              Bcc     0.0000     0.000     0.000     0.000  0.0308  0.3386  0.9404
 
              Baa    -0.0000     0.000     0.000     0.000  0.7811 -0.6237  0.0311
    44 O(17)  Bbb    -0.0000     0.000     0.000     0.000  0.0159  0.0697  0.9974
              Bcc     0.0000    -0.000    -0.000    -0.000  0.6242  0.7786 -0.0644
 
              Baa    -0.0000    -0.000    -0.000    -0.000  0.7509 -0.6488  0.1236
    45 C(13)  Bbb    -0.0000    -0.000    -0.000    -0.000 -0.0856  0.0899  0.9923
              Bcc     0.0000     0.000     0.000     0.000  0.6549  0.7556 -0.0120
 
              Baa    -0.0000    -0.000    -0.000    -0.000  0.9361 -0.1684  0.3088
    46 H(1)   Bbb     0.0000     0.000     0.000     0.000 -0.3499 -0.5352  0.7689
              Bcc     0.0000     0.000     0.000     0.000 -0.0357  0.8278  0.5599
 
              Baa    -0.0000    -0.000    -0.000    -0.000  0.9349  0.3430 -0.0918
    47 H(1)   Bbb    -0.0000    -0.000    -0.000    -0.000 -0.2074  0.7373  0.6429
              Bcc     0.0000     0.000     0.000     0.000  0.2882 -0.5820  0.7604
 
              Baa    -0.0000    -0.000    -0.000    -0.000  0.8429 -0.2959  0.4494
    48 H(1)   Bbb     0.0000     0.000     0.000     0.000 -0.4916 -0.0841  0.8667
              Bcc     0.0000     0.000     0.000     0.000  0.2187  0.9515  0.2164
 
              Baa    -0.0000    -0.000    -0.000    -0.000 -0.5817 -0.2446  0.7758
    49 H(1)   Bbb     0.0000     0.000     0.000     0.000  0.7897 -0.3986  0.4664
              Bcc     0.0000     0.000     0.000     0.000  0.1952  0.8839  0.4251
 
              Baa    -0.0000    -0.000    -0.000    -0.000  0.7621 -0.6452 -0.0541
    50 H(1)   Bbb     0.0000     0.000     0.000     0.000 -0.0897 -0.1880  0.9781
              Bcc     0.0000     0.000     0.000     0.000  0.6412  0.7405  0.2011
 
              Baa    -0.0000    -0.000    -0.000    -0.000  0.2313  0.1218  0.9652
    51 H(1)   Bbb    -0.0000    -0.000    -0.000    -0.000  0.7225 -0.6859 -0.0866
              Bcc     0.0000     0.000     0.000     0.000  0.6515  0.7174 -0.2466
 
              Baa    -0.0000    -0.000    -0.000    -0.000 -0.1817 -0.1777  0.9672
    52 H(1)   Bbb     0.0000     0.000     0.000     0.000  0.3049  0.9249  0.2272
              Bcc     0.0000     0.000     0.000     0.000  0.9349 -0.3362  0.1139
 
              Baa    -0.0000    -0.000    -0.000    -0.000  0.4174 -0.6122  0.6716
    53 H(1)   Bbb    -0.0000    -0.000    -0.000    -0.000  0.4808  0.7759  0.4084
              Bcc     0.0000     0.000     0.000     0.000  0.7711 -0.1524 -0.6182
 
              Baa    -0.0000    -0.000    -0.000    -0.000  0.9451  0.0349  0.3250
    54 H(1)   Bbb     0.0000     0.000     0.000     0.000 -0.0172  0.9982 -0.0574
              Bcc     0.0000     0.000     0.000     0.000 -0.3264  0.0486  0.9440
 
              Baa    -0.0000    -0.000    -0.000    -0.000  0.7101  0.5342  0.4587
    55 H(1)   Bbb     0.0000     0.000     0.000     0.000 -0.6749  0.7021  0.2272
              Bcc     0.0000     0.000     0.000     0.000 -0.2007 -0.4709  0.8591
 
              Baa    -0.0000    -0.000    -0.000    -0.000 -0.1862 -0.5867  0.7881
    56 H(1)   Bbb    -0.0000    -0.000    -0.000    -0.000  0.9277  0.1593  0.3377
              Bcc     0.0000     0.000     0.000     0.000 -0.3237  0.7940  0.5146
 
              Baa    -0.0000    -0.000    -0.000    -0.000 -0.0326 -0.6406  0.7672
    57 H(1)   Bbb     0.0000     0.000     0.000     0.000  0.6453  0.5727  0.5056
              Bcc     0.0000     0.000     0.000     0.000  0.7632 -0.5116 -0.3947
 
              Baa    -0.0000    -0.000    -0.000    -0.000 -0.1182 -0.3735  0.9201
    58 H(1)   Bbb    -0.0000    -0.000    -0.000    -0.000 -0.6209  0.7509  0.2250
              Bcc     0.0000     0.000     0.000     0.000  0.7750  0.5446  0.3207
 
              Baa    -0.0000    -0.000    -0.000    -0.000 -0.4358  0.2342  0.8690
    59 H(1)   Bbb     0.0000     0.000     0.000     0.000 -0.2625  0.8905 -0.3716
              Bcc     0.0000     0.000     0.000     0.000  0.8609  0.3901  0.3266
 
              Baa    -0.0000    -0.000    -0.000    -0.000  0.9936  0.0760 -0.0841
    60 H(1)   Bbb     0.0000     0.000     0.000     0.000  0.0156  0.6430  0.7657
              Bcc     0.0000     0.000     0.000     0.000 -0.1122  0.7621 -0.6377
 
              Baa    -0.0000    -0.000    -0.000    -0.000 -0.2804  0.9165 -0.2852
    61 H(1)   Bbb    -0.0000    -0.000    -0.000    -0.000  0.7974  0.3878  0.4624
              Bcc     0.0000     0.000     0.000     0.000 -0.5344  0.0977  0.8396
 
              Baa    -0.0000    -0.000    -0.000    -0.000 -0.0249  0.7142 -0.6995
    62 H(1)   Bbb     0.0000     0.000     0.000     0.000  0.7979  0.4357  0.4165
              Bcc     0.0000     0.000     0.000     0.000  0.6023 -0.5478 -0.5807
 
              Baa    -0.0000    -0.000    -0.000    -0.000  0.3896  0.7642  0.5139
    63 H(1)   Bbb     0.0000     0.000     0.000     0.000  0.3703 -0.6409  0.6724
              Bcc     0.0000     0.000     0.000     0.000  0.8433 -0.0717 -0.5327
 
              Baa    -0.0000    -0.000    -0.000    -0.000  0.6559  0.3641  0.6612
    64 H(1)   Bbb     0.0000     0.000     0.000     0.000 -0.4788 -0.4766  0.7373
              Bcc     0.0000     0.000     0.000     0.000 -0.5836  0.8002  0.1382
 
              Baa    -0.0000    -0.000    -0.000    -0.000  0.2887  0.7984  0.5284
    65 H(1)   Bbb    -0.0000    -0.000    -0.000    -0.000  0.8723 -0.4469  0.1987
              Bcc     0.0000     0.000     0.000     0.000 -0.3948 -0.4035  0.8254
 
              Baa    -0.0000    -0.000    -0.000    -0.000  0.8521 -0.5104 -0.1163
    66 H(1)   Bbb     0.0000     0.000     0.000     0.000  0.3192  0.6827 -0.6572
              Bcc     0.0000     0.000     0.000     0.000  0.4148  0.5229  0.7447
 
              Baa    -0.0000    -0.000    -0.000    -0.000  0.2681  0.8116 -0.5191
    67 H(1)   Bbb    -0.0000    -0.000    -0.000    -0.000  0.5785  0.2952  0.7604
              Bcc     0.0000     0.000     0.000     0.000  0.7704 -0.5041 -0.3903
 
              Baa    -0.0000    -0.000    -0.000    -0.000  0.7437  0.6603 -0.1045
    68 H(1)   Bbb    -0.0000    -0.000    -0.000    -0.000 -0.6675  0.7247 -0.1713
              Bcc     0.0000     0.000     0.000     0.000 -0.0374  0.1971  0.9797
 
              Baa    -0.0000    -0.000    -0.000    -0.000  0.7440  0.6659 -0.0553
    69 H(1)   Bbb     0.0000     0.000     0.000     0.000 -0.1786  0.2780  0.9438
              Bcc     0.0000     0.000     0.000     0.000 -0.6439  0.6923 -0.3257
 
              Baa    -0.0000    -0.000    -0.000    -0.000  0.9658 -0.2489  0.0729
    70 H(1)   Bbb     0.0000     0.000     0.000     0.000  0.2586  0.9447 -0.2015
              Bcc     0.0000     0.000     0.000     0.000 -0.0188  0.2134  0.9768
 
              Baa    -0.0000    -0.000    -0.000    -0.000  0.4267  0.8609 -0.2769
    71 H(1)   Bbb     0.0000     0.000     0.000     0.000 -0.6079  0.4998  0.6170
              Bcc     0.0000     0.000     0.000     0.000  0.6696 -0.0949  0.7366
 
              Baa    -0.0000    -0.000    -0.000    -0.000 -0.4864  0.0306  0.8732
    72 H(1)   Bbb    -0.0000    -0.000    -0.000    -0.000 -0.1880  0.9723 -0.1387
              Bcc     0.0000     0.000     0.000     0.000  0.8533  0.2316  0.4672
 
              Baa    -0.0000    -0.000    -0.000    -0.000 -0.5743 -0.0040  0.8186
    73 H(1)   Bbb     0.0000     0.000     0.000     0.000  0.8137 -0.1121  0.5703
              Bcc     0.0000     0.000     0.000     0.000  0.0895  0.9937  0.0677
 
              Baa    -0.0000    -0.000    -0.000    -0.000  0.6892 -0.5880 -0.4234
    74 H(1)   Bbb     0.0000     0.000     0.000     0.000  0.7239  0.5843  0.3668
              Bcc     0.0000     0.000     0.000     0.000  0.0317 -0.5593  0.8283
 

 ---------------------------------------------------------------------------------

 No NMR shielding tensors so no spin-rotation constants.
 Leave Link  601 at Sun Jul 26 14:37:14 2020, MaxMem=  4026531840 cpu:               9.2 elap:               1.2
 (Enter /opt/ohpc/pub/libs/gaussian/g16-A.03/sandybridge/g16/l9999.exe)

 Test job not archived.
 1\1\GINC-SKYLAKE041\FOpt\ULC-wPBE\CC-pVDZ\C39H29F3O3\RDU230\26-Jul-202
 0\0\\#P uLC-wPBE/cc-pVDZ iop(3/107=0399400000, 3/108=0399400000) opt\\
 H29 C39 O3 F3\\0,1\C,12.2767498682,-0.3568442756,-0.5022331539\C,11.56
 47534579,-1.3350000682,0.1752985786\C,10.1847403992,-1.2451225127,0.22
 85197954\F,9.5157574616,-2.2066165719,0.8902626263\C,9.4713164602,-0.2
 108059352,-0.3688609574\C,10.2163677754,0.7610885472,-1.0398174244\C,1
 1.5998034932,0.6929255487,-1.1123102422\C,7.9874042543,-0.1707196104,-
 0.3113732468\C,7.2327023199,-1.2726788023,-0.6949320122\C,5.8445642445
 ,-1.2577433152,-0.6667033815\C,5.1718268839,-0.1196217668,-0.236353161
 \C,5.9132556696,0.995589564,0.1604955991\C,7.3033669026,0.9776664834,0
 .1243381209\O,8.0728344742,2.0318937446,0.4906553747\C,7.4365206733,3.
 1851218617,0.9852896585\C,3.6879636085,-0.0795308627,-0.1931270267\C,2
 .935986759,-0.6111112303,-1.2373728814\C,1.5552462484,-0.5652488245,-1
 .1831337622\F,0.8724121363,-1.0819646025,-2.2205858774\C,0.8542659077,
 -0.0084259103,-0.1185733193\C,1.6250830129,0.5130261766,0.9220578777\C
 ,3.0097543185,0.4853427289,0.8890929266\C,-0.6294033086,0.0461827966,-
 0.1149584086\C,-1.3237639625,0.5590676237,-1.2041993528\C,-2.710119443
 ,0.6320567165,-1.2230842681\C,-3.443834364,0.1807280929,-0.1316251474\
 C,-2.7639605267,-0.3434191035,0.97029063\C,-1.3752440116,-0.413836132,
 0.9848638567\O,-0.6650237217,-0.9243759077,2.0203438655\C,-1.367905925
 3,-1.4523211012,3.1192663575\C,-4.9272029197,0.2495469149,-0.129235461
 4\C,-5.6191101196,0.6508416608,1.0105426144\C,-7.0003818413,0.71090519
 44,0.9917743974\F,-7.6226901298,1.1139029209,2.1144992249\C,-7.7596984
 77,0.3835094282,-0.126144918\C,-7.0490043667,-0.0213189454,-1.25746321
 89\C,-5.6651409609,-0.0846639781,-1.2666975361\C,-9.2413122385,0.49110
 72709,-0.1127395596\C,-9.8595685141,1.667224556,0.2969184829\C,-11.243
 222842,1.8000057983,0.3061602285\C,-12.0263057733,0.731765913,-0.09693
 33707\C,-11.4374778989,-0.4599724153,-0.5062352592\C,-10.0510579823,-0
 .585644473,-0.5161484024\O,-9.4027606178,-1.7142582667,-0.8972392825\C
 ,-10.1715637606,-2.8352646872,-1.259275549\H,13.3650823286,-0.41677002
 47,-0.5533771397\H,12.0562838347,-2.1728349499,0.6701010113\H,9.685729
 385,1.5870111825,-1.513384134\H,12.1532594063,1.464677128,-1.648992177
 9\H,7.7529880809,-2.173349995,-1.0227174215\H,5.2847920937,-2.14693601
 14,-0.9590343849\H,5.3828733809,1.8921178852,0.4776174359\H,6.84293964
 75,2.9658258731,1.8873398358\H,6.7848431509,3.6494397265,0.227492556\H
 ,8.2368946192,3.8864481293,1.2461187074\H,3.4090758116,-1.0505767649,-
 2.115821161\H,1.1138297281,0.9445717808,1.7822851646\H,3.5761597649,0.
 8876073303,1.730322075\H,-0.7560440818,0.9208465695,-2.0621394867\H,-3
 .2202067097,1.0653281842,-2.0840887976\H,-3.3421984501,-0.7237463646,1
 .8109563995\H,-2.0225372225,-2.2862812415,2.8195869326\H,-1.9718508891
 ,-0.6822951766,3.6261161634\H,-0.6086199264,-1.8261392498,3.8150792908
 \H,-5.0985512782,0.9442196418,1.9225691486\H,-7.6080779656,-0.29978472
 16,-2.1505484468\H,-5.1467063483,-0.4206350719,-2.1657464027\H,-9.2331
 205525,2.5016244536,0.6147974915\H,-11.7017442701,2.7356007832,0.62795
 66171\H,-13.1146367791,0.8150631182,-0.0964761256\H,-12.0709641847,-1.
 2898522738,-0.8153992861\H,-10.7982632118,-2.6330293679,-2.1430997927\
 H,-10.8141708585,-3.172050905,-0.4298748747\H,-9.4569891271,-3.6294809
 11,-1.5026812319\\Version=EM64L-G16RevA.03\State=1-A\HF=-2027.5030798\
 S2=0.\S2-1=0.\S2A=0.\RMSD=9.646e-09\RMSF=3.789e-06\Dipole=-0.5106318,0
 .1991437,0.1782208\Quadrupole=15.0624295,-4.7458141,-10.3166154,23.433
 5452,5.6867227,2.4674524\PG=C01 [X(C39H29F3O3)]\\@


 LIFE IS A CONTINUAL STRUGGLE AGAINST THE TENDENCY TO PRODUCE ENTROPY.
 Job cpu time:       0 days 17 hours 45 minutes 20.9 seconds.
 Elapsed time:       0 days  2 hours 15 minutes 34.4 seconds.
 File lengths (MBytes):  RWF=    716 Int=      0 D2E=      0 Chk=     64 Scr=      8
 Normal termination of Gaussian 16 at Sun Jul 26 14:37:15 2020.
