 Entering Gaussian System, Link 0=g16
 Input=mols_65_5_39_cOC-cOC-COC_opt_0.gjf
 Output=mols_65_5_39_cOC-cOC-COC_opt_0.log
 Initial command:
 /opt/ohpc/pub/libs/gaussian/g16-A.03/sandybridge/g16/l1.exe "/mnt/gpfs2_4m/scratch/rdu230/ondemand/projects/dihedral_energies/7trial/wtuning/redos_512cycles/mols_65_5_39_cOC-cOC-COC/Gau-444315.inp" -scrdir="/mnt/gpfs2_4m/scratch/rdu230/ondemand/projects/dihedral_energies/7trial/wtuning/redos_512cycles/mols_65_5_39_cOC-cOC-COC/"
 Entering Link 1 = /opt/ohpc/pub/libs/gaussian/g16-A.03/sandybridge/g16/l1.exe PID=    444318.
  
 Copyright (c) 1988,1990,1992,1993,1995,1998,2003,2009,2016,
            Gaussian, Inc.  All Rights Reserved.
  
 This is part of the Gaussian(R) 16 program.  It is based on
 the Gaussian(R) 09 system (copyright 2009, Gaussian, Inc.),
 the Gaussian(R) 03 system (copyright 2003, Gaussian, Inc.),
 the Gaussian(R) 98 system (copyright 1998, Gaussian, Inc.),
 the Gaussian(R) 94 system (copyright 1995, Gaussian, Inc.),
 the Gaussian 92(TM) system (copyright 1992, Gaussian, Inc.),
 the Gaussian 90(TM) system (copyright 1990, Gaussian, Inc.),
 the Gaussian 88(TM) system (copyright 1988, Gaussian, Inc.),
 the Gaussian 86(TM) system (copyright 1986, Carnegie Mellon
 University), and the Gaussian 82(TM) system (copyright 1983,
 Carnegie Mellon University). Gaussian is a federally registered
 trademark of Gaussian, Inc.
  
 This software contains proprietary and confidential information,
 including trade secrets, belonging to Gaussian, Inc.
  
 This software is provided under written license and may be
 used, copied, transmitted, or stored only in accord with that
 written license.
  
 The following legend is applicable only to US Government
 contracts under FAR:
  
                    RESTRICTED RIGHTS LEGEND
  
 Use, reproduction and disclosure by the US Government is
 subject to restrictions as set forth in subparagraphs (a)
 and (c) of the Commercial Computer Software - Restricted
 Rights clause in FAR 52.227-19.
  
 Gaussian, Inc.
 340 Quinnipiac St., Bldg. 40, Wallingford CT 06492
  
  
 ---------------------------------------------------------------
 Warning -- This program may not be used in any manner that
 competes with the business of Gaussian, Inc. or will provide
 assistance to any competitor of Gaussian, Inc.  The licensee
 of this program is prohibited from giving any competitor of
 Gaussian, Inc. access to this program.  By using this program,
 the user acknowledges that Gaussian, Inc. is engaged in the
 business of creating and licensing software in the field of
 computational chemistry and represents and warrants to the
 licensee that it is not a competitor of Gaussian, Inc. and that
 it will not use this program in any manner prohibited above.
 ---------------------------------------------------------------
  

 Cite this work as:
 Gaussian 16, Revision A.03,
 M. J. Frisch, G. W. Trucks, H. B. Schlegel, G. E. Scuseria, 
 M. A. Robb, J. R. Cheeseman, G. Scalmani, V. Barone, 
 G. A. Petersson, H. Nakatsuji, X. Li, M. Caricato, A. V. Marenich, 
 J. Bloino, B. G. Janesko, R. Gomperts, B. Mennucci, H. P. Hratchian, 
 J. V. Ortiz, A. F. Izmaylov, J. L. Sonnenberg, D. Williams-Young, 
 F. Ding, F. Lipparini, F. Egidi, J. Goings, B. Peng, A. Petrone, 
 T. Henderson, D. Ranasinghe, V. G. Zakrzewski, J. Gao, N. Rega, 
 G. Zheng, W. Liang, M. Hada, M. Ehara, K. Toyota, R. Fukuda, 
 J. Hasegawa, M. Ishida, T. Nakajima, Y. Honda, O. Kitao, H. Nakai, 
 T. Vreven, K. Throssell, J. A. Montgomery, Jr., J. E. Peralta, 
 F. Ogliaro, M. J. Bearpark, J. J. Heyd, E. N. Brothers, K. N. Kudin, 
 V. N. Staroverov, T. A. Keith, R. Kobayashi, J. Normand, 
 K. Raghavachari, A. P. Rendell, J. C. Burant, S. S. Iyengar, 
 J. Tomasi, M. Cossi, J. M. Millam, M. Klene, C. Adamo, R. Cammi, 
 J. W. Ochterski, R. L. Martin, K. Morokuma, O. Farkas, 
 J. B. Foresman, and D. J. Fox, Gaussian, Inc., Wallingford CT, 2016.
 
 ******************************************
 Gaussian 16:  EM64L-G16RevA.03 25-Dec-2016
                26-Jul-2020 
 ******************************************
 %mem=30GB
 %nproc=8
 Will use up to    8 processors via shared memory.
 ---------------------------------------------------------------
 #P uLC-wPBE/cc-pVDZ iop(3/107=0195900000, 3/108=0195900000) opt
 ---------------------------------------------------------------
 1/18=20,19=15,26=3,38=1/1,3;
 2/9=110,12=2,17=6,18=5,40=1/2;
 3/5=16,11=2,25=1,30=1,71=1,74=-41,107=195900000,108=195900000,116=2/1,2,3;
 4//1;
 5/5=2,38=5/2;
 6/7=2,8=2,9=2,10=2,28=1/1;
 7//1,2,3,16;
 1/18=20,19=15,26=3/3(2);
 2/9=110/2;
 99//99;
 2/9=110/2;
 3/5=16,11=2,25=1,30=1,71=1,74=-41,107=195900000,108=195900000,116=2/1,2,3;
 4/5=5,16=3,69=1/1;
 5/5=2,38=5/2;
 7//1,2,3,16;
 1/18=20,19=15,26=3/3(-5);
 2/9=110/2;
 6/7=2,8=2,9=2,10=2,19=2,28=1/1;
 99/9=1/99;
 Leave Link    1 at Sun Jul 26 12:21:38 2020, MaxMem=  4026531840 cpu:               3.1 elap:               0.4
 (Enter /opt/ohpc/pub/libs/gaussian/g16-A.03/sandybridge/g16/l101.exe)
 --------------
 H62 C65 S5 O15
 --------------
 Symbolic Z-matrix:
 Charge =  0 Multiplicity = 1
 C                     18.47179  -2.20392   0.71022 
 C                     18.10773  -2.00431  -0.53524 
 C                     16.92918  -1.18287  -0.82198 
 O                     16.52957  -1.01341  -2.06156 
 C                     17.49148  -0.30481  -2.85194 
 C                     16.2045  -0.69687   0.24473 
 C                     16.67129  -0.93488   1.59346 
 O                     15.90959  -0.40776   2.5979 
 C                     15.82633  -1.10809   3.82043 
 C                     17.82316  -1.71031   1.8538 
 C                     15.03653   0.11572   0.05112 
 C                     14.869    1.44123  -0.42031 
 O                     16.04939   2.14373  -0.72576 
 C                     15.84127   3.35453  -1.28529 
 C                     13.51517   1.84481  -0.54814 
 C                     12.60998   0.92477  -0.15208 
 S                     13.47194  -0.51685   0.30034 
 C                     11.17452   1.00906  -0.00975 
 C                     10.49255   0.61622   1.12723 
 C                     9.06634   0.71961   1.13226 
 O                     8.43806   0.4706    2.28443 
 C                     8.53398  -0.94741   2.57857 
 C                     8.32211   1.29828   0.08777 
 C                     9.05389   1.72613  -1.05815 
 O                     8.4349    2.15806  -2.15561 
 C                     8.8264    3.47831  -2.50008 
 C                     10.45526   1.57269  -1.16909 
 C                     6.92407   1.48867   0.17229 
 C                     6.16788   2.61679   0.42707 
 O                     6.86399   3.825     0.64684 
 C                     6.01681   4.89787   1.04325 
 C                     4.72466   2.37635   0.34875 
 C                     4.49066   1.02951   0.04976 
 S                     5.89199   0.12305  -0.19613 
 C                     3.12115   0.41274  -0.09088 
 C                     2.75344  -0.63677   0.78973 
 C                     1.47374  -1.25909   0.58072 
 O                     1.15636  -2.22859   1.42313 
 C                     2.00314  -3.35827   1.20538 
 C                     0.5823   -0.73     -0.41126 
 C                     0.9778    0.35979  -1.20495 
 O                     0.12924   0.84285  -2.09704 
 C                    -0.21759   2.1418   -1.92283 
 C                     2.22471   0.90306  -0.99001 
 C                    -0.73275  -1.32604  -0.51894 
 C                    -1.00449  -2.53091  -1.13362 
 O                    -0.01122  -3.24987  -1.74477 
 C                    -0.45194  -4.48074  -2.29222 
 C                    -2.45321  -2.81581  -1.09091 
 C                    -3.19639  -1.87919  -0.45478 
 S                    -2.11955  -0.61959   0.06387 
 C                    -4.60903  -1.73732  -0.24952 
 C                    -5.17088  -1.39739   0.91682 
 C                    -6.53016  -1.29592   1.08776 
 O                    -7.10743  -0.98878   2.364 
 C                    -6.68617   0.37144   2.67193 
 C                    -7.38474  -1.65156   0.11067 
 C                    -6.88704  -2.06094  -1.14807 
 O                    -7.70771  -2.3861   -2.20831 
 C                    -7.60762  -3.86385  -2.45557 
 C                    -5.4558   -2.15772  -1.34459 
 C                    -8.87575  -1.65158   0.29296 
 C                    -9.76416  -2.59877   0.55817 
 O                    -9.30152  -3.91151   0.81391 
 C                    -10.30179  -4.86944   1.043 
 C                    -11.08031  -2.19276   0.53668 
 C                    -11.23767  -0.89419   0.2718 
 S                    -9.67083  -0.10722  -0.00158 
 C                    -12.44699  -0.09124   0.15501 
 C                    -12.68826   1.01831   1.09818 
 C                    -13.92384   1.73878   0.92317 
 O                    -14.20103   2.80546   1.79377 
 C                    -13.08678   3.72621   1.89069 
 C                    -14.91076   1.42395  -0.02143 
 C                    -14.65212   0.33639  -0.87935 
 O                    -15.5972  -0.04181  -1.78927 
 C                    -16.0933  -1.32324  -1.61549 
 C                    -13.42612  -0.35151  -0.74352 
 C                    -16.14497   2.19735  -0.0669 
 C                    -17.39417   1.86622   0.45165 
 O                    -17.48107   0.81374   1.23382 
 C                    -18.84894   0.53096   1.71345 
 C                    -18.32905   2.9157    0.07588 
 C                    -17.84374   3.88813  -0.7087 
 S                    -16.10012   3.6219   -1.0318 
 H                     19.38792  -2.86726   0.91384 
 H                     18.64119  -2.43149  -1.34866 
 H                     18.23037  -1.00975  -3.22891 
 H                     17.91755   0.52109  -2.26344 
 H                     16.88759   0.16908  -3.72505 
 H                     15.06307  -0.69709   4.43356 
 H                     16.80786  -0.98732   4.46185 
 H                     15.65766  -2.15614   3.63383 
 H                     18.1257  -1.87953   2.79451 
 H                     16.84943   3.8732   -1.51785 
 H                     15.31395   3.38661  -2.21956 
 H                     15.35591   4.10127  -0.52077 
 H                     13.27014   2.88949  -0.84764 
 H                     10.97182   0.31351   1.947 
 H                     9.48863  -1.11268   3.16363 
 H                     7.78948  -1.1888    3.29267 
 H                     8.46795  -1.62154   1.71734 
 H                     9.68092   3.54863  -3.10446 
 H                     8.92092   4.16237  -1.6228 
 H                     7.98129   4.00969  -3.11165 
 H                     10.98425   1.82544  -2.03729 
 H                     5.28111   5.11004   0.22468 
 H                     6.67528   5.78024   1.20319 
 H                     5.47513   4.62178   1.95403 
 H                     4.03888   3.11866   0.55245 
 H                     3.46694  -1.01795   1.54591 
 H                     1.44225  -4.24205   1.64046 
 H                     2.19899  -3.6269    0.13929 
 H                     2.89036  -3.30592   1.75604 
 H                    -1.11689   2.34859  -2.61244 
 H                     0.58776   2.83169  -2.19156 
 H                    -0.53918   2.32618  -0.88509 
 H                     2.55748   1.71543  -1.7194 
 H                     0.38983  -5.00983  -2.73428 
 H                    -0.882    -5.16214  -1.62463 
 H                    -1.10641  -4.32     -3.19298 
 H                    -2.88118  -3.664    -1.55103 
 H                    -4.52419  -1.20196   1.84142 
 H                    -5.73177   0.42549   3.04479 
 H                    -6.82436   1.05678   1.86761 
 H                    -7.32816   0.71296   3.51452 
 H                    -6.64441  -4.04786  -3.02024 
 H                    -7.64511  -4.45705  -1.56938 
 H                    -8.43705  -4.0505   -3.0749 
 H                    -5.05252  -2.44822  -2.25 
 H                    -10.88769  -5.01024   0.13314 
 H                    -9.73686  -5.80387   1.15498 
 H                    -10.8134  -4.67925   1.94732 
 H                    -12.02011  -2.79481   0.76521 
 H                    -11.93925   1.23564   1.79507 
 H                    -13.5556   4.74546   2.25042 
 H                    -12.30737   3.43169   2.6148 
 H                    -12.69198   4.01009   0.90906 
 H                    -15.39949  -2.06218  -1.95111 
 H                    -16.34476  -1.48868  -0.55676 
 H                    -17.01292  -1.43917  -2.11569 
 H                    -13.24043  -1.24432  -1.42078 
 H                    -19.16286   1.40191   2.34108 
 H                    -18.87898  -0.35342   2.26767 
 H                    -19.53653   0.46706   0.88063 
 H                    -19.39385   2.93553   0.43417 
 H                    -18.27127   4.71868  -1.07743 
 
 ITRead=  0  0  0  0  0  0  0  0  0  0  0  0  0  0  0  0  0  0  0  0
 ITRead=  0  0  0  0  0  0  0  0  0  0  0  0  0  0  0  0  0  0  0  0
 ITRead=  0  0  0  0  0  0  0  0  0  0  0  0  0  0  0  0  0  0  0  0
 ITRead=  0  0  0  0  0  0  0  0  0  0  0  0  0  0  0  0  0  0  0  0
 ITRead=  0  0  0  0  0  0  0  0  0  0  0  0  0  0  0  0  0  0  0  0
 ITRead=  0  0  0  0  0  0  0  0  0  0  0  0  0  0  0  0  0  0  0  0
 ITRead=  0  0  0  0  0  0  0  0  0  0  0  0  0  0  0  0  0  0  0  0
 ITRead=  0  0  0  0  0  0  0
 MicOpt= -1 -1 -1 -1 -1 -1 -1 -1 -1 -1 -1 -1 -1 -1 -1 -1 -1 -1 -1 -1
 MicOpt= -1 -1 -1 -1 -1 -1 -1 -1 -1 -1 -1 -1 -1 -1 -1 -1 -1 -1 -1 -1
 MicOpt= -1 -1 -1 -1 -1 -1 -1 -1 -1 -1 -1 -1 -1 -1 -1 -1 -1 -1 -1 -1
 MicOpt= -1 -1 -1 -1 -1 -1 -1 -1 -1 -1 -1 -1 -1 -1 -1 -1 -1 -1 -1 -1
 MicOpt= -1 -1 -1 -1 -1 -1 -1 -1 -1 -1 -1 -1 -1 -1 -1 -1 -1 -1 -1 -1
 MicOpt= -1 -1 -1 -1 -1 -1 -1 -1 -1 -1 -1 -1 -1 -1 -1 -1 -1 -1 -1 -1
 MicOpt= -1 -1 -1 -1 -1 -1 -1 -1 -1 -1 -1 -1 -1 -1 -1 -1 -1 -1 -1 -1
 MicOpt= -1 -1 -1 -1 -1 -1 -1
 NAtoms=    147 NQM=      147 NQMF=       0 NMMI=      0 NMMIF=      0
                NMic=       0 NMicF=      0.
                    Isotopes and Nuclear Properties:
 (Nuclear quadrupole moments (NQMom) in fm**2, nuclear magnetic moments (NMagM)
  in nuclear magnetons)

  Atom         1           2           3           4           5           6           7           8           9          10
 IAtWgt=          12          12          12          16          12          12          12          16          12          12
 AtmWgt=  12.0000000  12.0000000  12.0000000  15.9949146  12.0000000  12.0000000  12.0000000  15.9949146  12.0000000  12.0000000
 NucSpn=           0           0           0           0           0           0           0           0           0           0
 AtZEff=  -0.0000000  -0.0000000  -0.0000000  -0.0000000  -0.0000000  -0.0000000  -0.0000000  -0.0000000  -0.0000000  -0.0000000
 NQMom=    0.0000000   0.0000000   0.0000000   0.0000000   0.0000000   0.0000000   0.0000000   0.0000000   0.0000000   0.0000000
 NMagM=    0.0000000   0.0000000   0.0000000   0.0000000   0.0000000   0.0000000   0.0000000   0.0000000   0.0000000   0.0000000
 AtZNuc=   6.0000000   6.0000000   6.0000000   8.0000000   6.0000000   6.0000000   6.0000000   8.0000000   6.0000000   6.0000000

  Atom        11          12          13          14          15          16          17          18          19          20
 IAtWgt=          12          12          16          12          12          12          32          12          12          12
 AtmWgt=  12.0000000  12.0000000  15.9949146  12.0000000  12.0000000  12.0000000  31.9720718  12.0000000  12.0000000  12.0000000
 NucSpn=           0           0           0           0           0           0           0           0           0           0
 AtZEff=  -0.0000000  -0.0000000  -0.0000000  -0.0000000  -0.0000000  -0.0000000  -0.0000000  -0.0000000  -0.0000000  -0.0000000
 NQMom=    0.0000000   0.0000000   0.0000000   0.0000000   0.0000000   0.0000000   0.0000000   0.0000000   0.0000000   0.0000000
 NMagM=    0.0000000   0.0000000   0.0000000   0.0000000   0.0000000   0.0000000   0.0000000   0.0000000   0.0000000   0.0000000
 AtZNuc=   6.0000000   6.0000000   8.0000000   6.0000000   6.0000000   6.0000000  16.0000000   6.0000000   6.0000000   6.0000000

  Atom        21          22          23          24          25          26          27          28          29          30
 IAtWgt=          16          12          12          12          16          12          12          12          12          16
 AtmWgt=  15.9949146  12.0000000  12.0000000  12.0000000  15.9949146  12.0000000  12.0000000  12.0000000  12.0000000  15.9949146
 NucSpn=           0           0           0           0           0           0           0           0           0           0
 AtZEff=  -0.0000000  -0.0000000  -0.0000000  -0.0000000  -0.0000000  -0.0000000  -0.0000000  -0.0000000  -0.0000000  -0.0000000
 NQMom=    0.0000000   0.0000000   0.0000000   0.0000000   0.0000000   0.0000000   0.0000000   0.0000000   0.0000000   0.0000000
 NMagM=    0.0000000   0.0000000   0.0000000   0.0000000   0.0000000   0.0000000   0.0000000   0.0000000   0.0000000   0.0000000
 AtZNuc=   8.0000000   6.0000000   6.0000000   6.0000000   8.0000000   6.0000000   6.0000000   6.0000000   6.0000000   8.0000000

  Atom        31          32          33          34          35          36          37          38          39          40
 IAtWgt=          12          12          12          32          12          12          12          16          12          12
 AtmWgt=  12.0000000  12.0000000  12.0000000  31.9720718  12.0000000  12.0000000  12.0000000  15.9949146  12.0000000  12.0000000
 NucSpn=           0           0           0           0           0           0           0           0           0           0
 AtZEff=  -0.0000000  -0.0000000  -0.0000000  -0.0000000  -0.0000000  -0.0000000  -0.0000000  -0.0000000  -0.0000000  -0.0000000
 NQMom=    0.0000000   0.0000000   0.0000000   0.0000000   0.0000000   0.0000000   0.0000000   0.0000000   0.0000000   0.0000000
 NMagM=    0.0000000   0.0000000   0.0000000   0.0000000   0.0000000   0.0000000   0.0000000   0.0000000   0.0000000   0.0000000
 AtZNuc=   6.0000000   6.0000000   6.0000000  16.0000000   6.0000000   6.0000000   6.0000000   8.0000000   6.0000000   6.0000000

  Atom        41          42          43          44          45          46          47          48          49          50
 IAtWgt=          12          16          12          12          12          12          16          12          12          12
 AtmWgt=  12.0000000  15.9949146  12.0000000  12.0000000  12.0000000  12.0000000  15.9949146  12.0000000  12.0000000  12.0000000
 NucSpn=           0           0           0           0           0           0           0           0           0           0
 AtZEff=  -0.0000000  -0.0000000  -0.0000000  -0.0000000  -0.0000000  -0.0000000  -0.0000000  -0.0000000  -0.0000000  -0.0000000
 NQMom=    0.0000000   0.0000000   0.0000000   0.0000000   0.0000000   0.0000000   0.0000000   0.0000000   0.0000000   0.0000000
 NMagM=    0.0000000   0.0000000   0.0000000   0.0000000   0.0000000   0.0000000   0.0000000   0.0000000   0.0000000   0.0000000
 AtZNuc=   6.0000000   8.0000000   6.0000000   6.0000000   6.0000000   6.0000000   8.0000000   6.0000000   6.0000000   6.0000000

  Atom        51          52          53          54          55          56          57          58          59          60
 IAtWgt=          32          12          12          12          16          12          12          12          16          12
 AtmWgt=  31.9720718  12.0000000  12.0000000  12.0000000  15.9949146  12.0000000  12.0000000  12.0000000  15.9949146  12.0000000
 NucSpn=           0           0           0           0           0           0           0           0           0           0
 AtZEff=  -0.0000000  -0.0000000  -0.0000000  -0.0000000  -0.0000000  -0.0000000  -0.0000000  -0.0000000  -0.0000000  -0.0000000
 NQMom=    0.0000000   0.0000000   0.0000000   0.0000000   0.0000000   0.0000000   0.0000000   0.0000000   0.0000000   0.0000000
 NMagM=    0.0000000   0.0000000   0.0000000   0.0000000   0.0000000   0.0000000   0.0000000   0.0000000   0.0000000   0.0000000
 AtZNuc=  16.0000000   6.0000000   6.0000000   6.0000000   8.0000000   6.0000000   6.0000000   6.0000000   8.0000000   6.0000000

  Atom        61          62          63          64          65          66          67          68          69          70
 IAtWgt=          12          12          12          16          12          12          12          32          12          12
 AtmWgt=  12.0000000  12.0000000  12.0000000  15.9949146  12.0000000  12.0000000  12.0000000  31.9720718  12.0000000  12.0000000
 NucSpn=           0           0           0           0           0           0           0           0           0           0
 AtZEff=  -0.0000000  -0.0000000  -0.0000000  -0.0000000  -0.0000000  -0.0000000  -0.0000000  -0.0000000  -0.0000000  -0.0000000
 NQMom=    0.0000000   0.0000000   0.0000000   0.0000000   0.0000000   0.0000000   0.0000000   0.0000000   0.0000000   0.0000000
 NMagM=    0.0000000   0.0000000   0.0000000   0.0000000   0.0000000   0.0000000   0.0000000   0.0000000   0.0000000   0.0000000
 AtZNuc=   6.0000000   6.0000000   6.0000000   8.0000000   6.0000000   6.0000000   6.0000000  16.0000000   6.0000000   6.0000000

  Atom        71          72          73          74          75          76          77          78          79          80
 IAtWgt=          12          16          12          12          12          16          12          12          12          12
 AtmWgt=  12.0000000  15.9949146  12.0000000  12.0000000  12.0000000  15.9949146  12.0000000  12.0000000  12.0000000  12.0000000
 NucSpn=           0           0           0           0           0           0           0           0           0           0
 AtZEff=  -0.0000000  -0.0000000  -0.0000000  -0.0000000  -0.0000000  -0.0000000  -0.0000000  -0.0000000  -0.0000000  -0.0000000
 NQMom=    0.0000000   0.0000000   0.0000000   0.0000000   0.0000000   0.0000000   0.0000000   0.0000000   0.0000000   0.0000000
 NMagM=    0.0000000   0.0000000   0.0000000   0.0000000   0.0000000   0.0000000   0.0000000   0.0000000   0.0000000   0.0000000
 AtZNuc=   6.0000000   8.0000000   6.0000000   6.0000000   6.0000000   8.0000000   6.0000000   6.0000000   6.0000000   6.0000000

  Atom        81          82          83          84          85          86          87          88          89          90
 IAtWgt=          16          12          12          12          32           1           1           1           1           1
 AtmWgt=  15.9949146  12.0000000  12.0000000  12.0000000  31.9720718   1.0078250   1.0078250   1.0078250   1.0078250   1.0078250
 NucSpn=           0           0           0           0           0           1           1           1           1           1
 AtZEff=  -0.0000000  -0.0000000  -0.0000000  -0.0000000  -0.0000000  -0.0000000  -0.0000000  -0.0000000  -0.0000000  -0.0000000
 NQMom=    0.0000000   0.0000000   0.0000000   0.0000000   0.0000000   0.0000000   0.0000000   0.0000000   0.0000000   0.0000000
 NMagM=    0.0000000   0.0000000   0.0000000   0.0000000   0.0000000   2.7928460   2.7928460   2.7928460   2.7928460   2.7928460
 AtZNuc=   8.0000000   6.0000000   6.0000000   6.0000000  16.0000000   1.0000000   1.0000000   1.0000000   1.0000000   1.0000000

  Atom        91          92          93          94          95          96          97          98          99         100
 IAtWgt=           1           1           1           1           1           1           1           1           1           1
 AtmWgt=   1.0078250   1.0078250   1.0078250   1.0078250   1.0078250   1.0078250   1.0078250   1.0078250   1.0078250   1.0078250
 NucSpn=           1           1           1           1           1           1           1           1           1           1
 AtZEff=  -0.0000000  -0.0000000  -0.0000000  -0.0000000  -0.0000000  -0.0000000  -0.0000000  -0.0000000  -0.0000000  -0.0000000
 NQMom=    0.0000000   0.0000000   0.0000000   0.0000000   0.0000000   0.0000000   0.0000000   0.0000000   0.0000000   0.0000000
 NMagM=    2.7928460   2.7928460   2.7928460   2.7928460   2.7928460   2.7928460   2.7928460   2.7928460   2.7928460   2.7928460
 AtZNuc=   1.0000000   1.0000000   1.0000000   1.0000000   1.0000000   1.0000000   1.0000000   1.0000000   1.0000000   1.0000000

  Atom       101         102         103         104         105         106         107         108         109         110
 IAtWgt=           1           1           1           1           1           1           1           1           1           1
 AtmWgt=   1.0078250   1.0078250   1.0078250   1.0078250   1.0078250   1.0078250   1.0078250   1.0078250   1.0078250   1.0078250
 NucSpn=           1           1           1           1           1           1           1           1           1           1
 AtZEff=  -0.0000000  -0.0000000  -0.0000000  -0.0000000  -0.0000000  -0.0000000  -0.0000000  -0.0000000  -0.0000000  -0.0000000
 NQMom=    0.0000000   0.0000000   0.0000000   0.0000000   0.0000000   0.0000000   0.0000000   0.0000000   0.0000000   0.0000000
 NMagM=    2.7928460   2.7928460   2.7928460   2.7928460   2.7928460   2.7928460   2.7928460   2.7928460   2.7928460   2.7928460
 AtZNuc=   1.0000000   1.0000000   1.0000000   1.0000000   1.0000000   1.0000000   1.0000000   1.0000000   1.0000000   1.0000000

  Atom       111         112         113         114         115         116         117         118         119         120
 IAtWgt=           1           1           1           1           1           1           1           1           1           1
 AtmWgt=   1.0078250   1.0078250   1.0078250   1.0078250   1.0078250   1.0078250   1.0078250   1.0078250   1.0078250   1.0078250
 NucSpn=           1           1           1           1           1           1           1           1           1           1
 AtZEff=  -0.0000000  -0.0000000  -0.0000000  -0.0000000  -0.0000000  -0.0000000  -0.0000000  -0.0000000  -0.0000000  -0.0000000
 NQMom=    0.0000000   0.0000000   0.0000000   0.0000000   0.0000000   0.0000000   0.0000000   0.0000000   0.0000000   0.0000000
 NMagM=    2.7928460   2.7928460   2.7928460   2.7928460   2.7928460   2.7928460   2.7928460   2.7928460   2.7928460   2.7928460
 AtZNuc=   1.0000000   1.0000000   1.0000000   1.0000000   1.0000000   1.0000000   1.0000000   1.0000000   1.0000000   1.0000000

  Atom       121         122         123         124         125         126         127         128         129         130
 IAtWgt=           1           1           1           1           1           1           1           1           1           1
 AtmWgt=   1.0078250   1.0078250   1.0078250   1.0078250   1.0078250   1.0078250   1.0078250   1.0078250   1.0078250   1.0078250
 NucSpn=           1           1           1           1           1           1           1           1           1           1
 AtZEff=  -0.0000000  -0.0000000  -0.0000000  -0.0000000  -0.0000000  -0.0000000  -0.0000000  -0.0000000  -0.0000000  -0.0000000
 NQMom=    0.0000000   0.0000000   0.0000000   0.0000000   0.0000000   0.0000000   0.0000000   0.0000000   0.0000000   0.0000000
 NMagM=    2.7928460   2.7928460   2.7928460   2.7928460   2.7928460   2.7928460   2.7928460   2.7928460   2.7928460   2.7928460
 AtZNuc=   1.0000000   1.0000000   1.0000000   1.0000000   1.0000000   1.0000000   1.0000000   1.0000000   1.0000000   1.0000000

  Atom       131         132         133         134         135         136         137         138         139         140
 IAtWgt=           1           1           1           1           1           1           1           1           1           1
 AtmWgt=   1.0078250   1.0078250   1.0078250   1.0078250   1.0078250   1.0078250   1.0078250   1.0078250   1.0078250   1.0078250
 NucSpn=           1           1           1           1           1           1           1           1           1           1
 AtZEff=  -0.0000000  -0.0000000  -0.0000000  -0.0000000  -0.0000000  -0.0000000  -0.0000000  -0.0000000  -0.0000000  -0.0000000
 NQMom=    0.0000000   0.0000000   0.0000000   0.0000000   0.0000000   0.0000000   0.0000000   0.0000000   0.0000000   0.0000000
 NMagM=    2.7928460   2.7928460   2.7928460   2.7928460   2.7928460   2.7928460   2.7928460   2.7928460   2.7928460   2.7928460
 AtZNuc=   1.0000000   1.0000000   1.0000000   1.0000000   1.0000000   1.0000000   1.0000000   1.0000000   1.0000000   1.0000000

  Atom       141         142         143         144         145         146         147
 IAtWgt=           1           1           1           1           1           1           1
 AtmWgt=   1.0078250   1.0078250   1.0078250   1.0078250   1.0078250   1.0078250   1.0078250
 NucSpn=           1           1           1           1           1           1           1
 AtZEff=  -0.0000000  -0.0000000  -0.0000000  -0.0000000  -0.0000000  -0.0000000  -0.0000000
 NQMom=    0.0000000   0.0000000   0.0000000   0.0000000   0.0000000   0.0000000   0.0000000
 NMagM=    2.7928460   2.7928460   2.7928460   2.7928460   2.7928460   2.7928460   2.7928460
 AtZNuc=   1.0000000   1.0000000   1.0000000   1.0000000   1.0000000   1.0000000   1.0000000
 Leave Link  101 at Sun Jul 26 12:21:38 2020, MaxMem=  4026531840 cpu:               3.1 elap:               0.4
 (Enter /opt/ohpc/pub/libs/gaussian/g16-A.03/sandybridge/g16/l103.exe)

 GradGradGradGradGradGradGradGradGradGradGradGradGradGradGradGradGradGrad
 Berny optimization.
 Initialization pass.
                           ----------------------------
                           !    Initial Parameters    !
                           ! (Angstroms and Degrees)  !
 --------------------------                            --------------------------
 ! Name  Definition              Value          Derivative Info.                !
 --------------------------------------------------------------------------------
 ! R1    R(1,2)                  1.3128         estimate D2E/DX2                !
 ! R2    R(1,10)                 1.4043         estimate D2E/DX2                !
 ! R3    R(1,86)                 1.1493         estimate D2E/DX2                !
 ! R4    R(2,3)                  1.4649         estimate D2E/DX2                !
 ! R5    R(2,87)                 1.0624         estimate D2E/DX2                !
 ! R6    R(3,4)                  1.3134         estimate D2E/DX2                !
 ! R7    R(3,6)                  1.3781         estimate D2E/DX2                !
 ! R8    R(4,5)                  1.4325         estimate D2E/DX2                !
 ! R9    R(5,88)                 1.0886         estimate D2E/DX2                !
 ! R10   R(5,89)                 1.1            estimate D2E/DX2                !
 ! R11   R(5,90)                 1.1626         estimate D2E/DX2                !
 ! R12   R(6,7)                  1.4469         estimate D2E/DX2                !
 ! R13   R(6,11)                 1.4359         estimate D2E/DX2                !
 ! R14   R(7,8)                  1.3664         estimate D2E/DX2                !
 ! R15   R(7,10)                 1.4128         estimate D2E/DX2                !
 ! R16   R(8,9)                  1.4114         estimate D2E/DX2                !
 ! R17   R(9,91)                 1.0618         estimate D2E/DX2                !
 ! R18   R(9,92)                 1.1787         estimate D2E/DX2                !
 ! R19   R(9,93)                 1.0778         estimate D2E/DX2                !
 ! R20   R(10,94)                1.0025         estimate D2E/DX2                !
 ! R21   R(11,12)                1.4168         estimate D2E/DX2                !
 ! R22   R(11,17)                1.7059         estimate D2E/DX2                !
 ! R23   R(12,13)                1.4072         estimate D2E/DX2                !
 ! R24   R(12,15)                1.4185         estimate D2E/DX2                !
 ! R25   R(13,14)                1.35           estimate D2E/DX2                !
 ! R26   R(14,95)                1.1574         estimate D2E/DX2                !
 ! R27   R(14,96)                1.0733         estimate D2E/DX2                !
 ! R28   R(14,97)                1.1738         estimate D2E/DX2                !
 ! R29   R(15,16)                1.3501         estimate D2E/DX2                !
 ! R30   R(15,98)                1.114          estimate D2E/DX2                !
 ! R31   R(16,17)                1.7395         estimate D2E/DX2                !
 ! R32   R(16,18)                1.445          estimate D2E/DX2                !
 ! R33   R(18,19)                1.3828         estimate D2E/DX2                !
 ! R34   R(18,27)                1.4762         estimate D2E/DX2                !
 ! R35   R(19,20)                1.43           estimate D2E/DX2                !
 ! R36   R(19,99)                0.9967         estimate D2E/DX2                !
 ! R37   R(20,21)                1.3358         estimate D2E/DX2                !
 ! R38   R(20,23)                1.407          estimate D2E/DX2                !
 ! R39   R(21,22)                1.4514         estimate D2E/DX2                !
 ! R40   R(22,100)               1.1318         estimate D2E/DX2                !
 ! R41   R(22,101)               1.0595         estimate D2E/DX2                !
 ! R42   R(22,102)               1.0957         estimate D2E/DX2                !
 ! R43   R(23,24)                1.4254         estimate D2E/DX2                !
 ! R44   R(23,28)                1.4135         estimate D2E/DX2                !
 ! R45   R(24,25)                1.332          estimate D2E/DX2                !
 ! R46   R(24,27)                1.4141         estimate D2E/DX2                !
 ! R47   R(25,26)                1.4195         estimate D2E/DX2                !
 ! R48   R(26,103)               1.049          estimate D2E/DX2                !
 ! R49   R(26,104)               1.1165         estimate D2E/DX2                !
 ! R50   R(26,105)               1.1707         estimate D2E/DX2                !
 ! R51   R(27,106)               1.0476         estimate D2E/DX2                !
 ! R52   R(28,29)                1.3818         estimate D2E/DX2                !
 ! R53   R(28,34)                1.751          estimate D2E/DX2                !
 ! R54   R(29,30)                1.4116         estimate D2E/DX2                !
 ! R55   R(29,32)                1.4652         estimate D2E/DX2                !
 ! R56   R(30,31)                1.4233         estimate D2E/DX2                !
 ! R57   R(31,107)               1.1209         estimate D2E/DX2                !
 ! R58   R(31,108)               1.1125         estimate D2E/DX2                !
 ! R59   R(31,109)               1.0951         estimate D2E/DX2                !
 ! R60   R(32,33)                1.3993         estimate D2E/DX2                !
 ! R61   R(32,110)               1.0309         estimate D2E/DX2                !
 ! R62   R(33,34)                1.687          estimate D2E/DX2                !
 ! R63   R(33,35)                1.5086         estimate D2E/DX2                !
 ! R64   R(35,36)                1.4185         estimate D2E/DX2                !
 ! R65   R(35,44)                1.361          estimate D2E/DX2                !
 ! R66   R(36,37)                1.4383         estimate D2E/DX2                !
 ! R67   R(36,111)               1.1073         estimate D2E/DX2                !
 ! R68   R(37,38)                1.323          estimate D2E/DX2                !
 ! R69   R(37,40)                1.4348         estimate D2E/DX2                !
 ! R70   R(38,39)                1.4285         estimate D2E/DX2                !
 ! R71   R(39,112)               1.1336         estimate D2E/DX2                !
 ! R72   R(39,113)               1.1167         estimate D2E/DX2                !
 ! R73   R(39,114)               1.0455         estimate D2E/DX2                !
 ! R74   R(40,41)                1.405          estimate D2E/DX2                !
 ! R75   R(40,45)                1.4478         estimate D2E/DX2                !
 ! R76   R(41,42)                1.3226         estimate D2E/DX2                !
 ! R77   R(41,44)                1.377          estimate D2E/DX2                !
 ! R78   R(42,43)                1.3557         estimate D2E/DX2                !
 ! R79   R(43,115)               1.152          estimate D2E/DX2                !
 ! R80   R(43,116)               1.094          estimate D2E/DX2                !
 ! R81   R(43,117)               1.102          estimate D2E/DX2                !
 ! R82   R(44,118)               1.1414         estimate D2E/DX2                !
 ! R83   R(45,46)                1.3796         estimate D2E/DX2                !
 ! R84   R(45,51)                1.6619         estimate D2E/DX2                !
 ! R85   R(46,47)                1.37           estimate D2E/DX2                !
 ! R86   R(46,49)                1.4771         estimate D2E/DX2                !
 ! R87   R(47,48)                1.4174         estimate D2E/DX2                !
 ! R88   R(48,119)               1.0881         estimate D2E/DX2                !
 ! R89   R(48,120)               1.0464         estimate D2E/DX2                !
 ! R90   R(48,121)               1.125          estimate D2E/DX2                !
 ! R91   R(49,50)                1.3543         estimate D2E/DX2                !
 ! R92   R(49,122)               1.0556         estimate D2E/DX2                !
 ! R93   R(50,51)                1.7364         estimate D2E/DX2                !
 ! R94   R(50,52)                1.4345         estimate D2E/DX2                !
 ! R95   R(52,53)                1.3385         estimate D2E/DX2                !
 ! R96   R(52,61)                1.4467         estimate D2E/DX2                !
 ! R97   R(53,54)                1.3737         estimate D2E/DX2                !
 ! R98   R(53,123)               1.1451         estimate D2E/DX2                !
 ! R99   R(54,55)                1.434          estimate D2E/DX2                !
 ! R100  R(54,57)                1.3459         estimate D2E/DX2                !
 ! R101  R(55,56)                1.4569         estimate D2E/DX2                !
 ! R102  R(56,124)               1.0261         estimate D2E/DX2                !
 ! R103  R(56,125)               1.0657         estimate D2E/DX2                !
 ! R104  R(56,126)               1.113          estimate D2E/DX2                !
 ! R105  R(57,58)                1.4141         estimate D2E/DX2                !
 ! R106  R(57,62)                1.5021         estimate D2E/DX2                !
 ! R107  R(58,59)                1.3796         estimate D2E/DX2                !
 ! R108  R(58,61)                1.4479         estimate D2E/DX2                !
 ! R109  R(59,60)                1.5016         estimate D2E/DX2                !
 ! R110  R(60,127)               1.1316         estimate D2E/DX2                !
 ! R111  R(60,128)               1.0671         estimate D2E/DX2                !
 ! R112  R(60,129)               1.0518         estimate D2E/DX2                !
 ! R113  R(61,130)               1.0329         estimate D2E/DX2                !
 ! R114  R(62,63)                1.3254         estimate D2E/DX2                !
 ! R115  R(62,68)                1.7618         estimate D2E/DX2                !
 ! R116  R(63,64)                1.4152         estimate D2E/DX2                !
 ! R117  R(63,66)                1.3775         estimate D2E/DX2                !
 ! R118  R(64,65)                1.4038         estimate D2E/DX2                !
 ! R119  R(65,131)               1.0913         estimate D2E/DX2                !
 ! R120  R(65,132)               1.0977         estimate D2E/DX2                !
 ! R121  R(65,133)               1.0563         estimate D2E/DX2                !
 ! R122  R(66,67)                1.3346         estimate D2E/DX2                !
 ! R123  R(66,134)               1.1393         estimate D2E/DX2                !
 ! R124  R(67,68)                1.7746         estimate D2E/DX2                !
 ! R125  R(67,69)                1.4563         estimate D2E/DX2                !
 ! R126  R(69,70)                1.4761         estimate D2E/DX2                !
 ! R127  R(69,78)                1.3542         estimate D2E/DX2                !
 ! R128  R(70,71)                1.441          estimate D2E/DX2                !
 ! R129  R(70,135)               1.0459         estimate D2E/DX2                !
 ! R130  R(71,72)                1.4045         estimate D2E/DX2                !
 ! R131  R(71,74)                1.4019         estimate D2E/DX2                !
 ! R132  R(72,73)                1.4487         estimate D2E/DX2                !
 ! R133  R(73,136)               1.1782         estimate D2E/DX2                !
 ! R134  R(73,137)               1.1039         estimate D2E/DX2                !
 ! R135  R(73,138)               1.0955         estimate D2E/DX2                !
 ! R136  R(74,75)                1.4092         estimate D2E/DX2                !
 ! R137  R(74,79)                1.4572         estimate D2E/DX2                !
 ! R138  R(75,76)                1.3653         estimate D2E/DX2                !
 ! R139  R(75,78)                1.4124         estimate D2E/DX2                !
 ! R140  R(76,77)                1.385          estimate D2E/DX2                !
 ! R141  R(77,139)               1.0677         estimate D2E/DX2                !
 ! R142  R(77,140)               1.1007         estimate D2E/DX2                !
 ! R143  R(77,141)               1.0533         estimate D2E/DX2                !
 ! R144  R(78,142)               1.1359         estimate D2E/DX2                !
 ! R145  R(79,80)                1.3925         estimate D2E/DX2                !
 ! R146  R(79,85)                1.7212         estimate D2E/DX2                !
 ! R147  R(80,81)                1.3142         estimate D2E/DX2                !
 ! R148  R(80,83)                1.4549         estimate D2E/DX2                !
 ! R149  R(81,82)                1.4769         estimate D2E/DX2                !
 ! R150  R(82,143)               1.1185         estimate D2E/DX2                !
 ! R151  R(82,144)               1.0441         estimate D2E/DX2                !
 ! R152  R(82,145)               1.0819         estimate D2E/DX2                !
 ! R153  R(83,84)                1.3404         estimate D2E/DX2                !
 ! R154  R(83,146)               1.1236         estimate D2E/DX2                !
 ! R155  R(84,85)                1.7932         estimate D2E/DX2                !
 ! R156  R(84,147)               1.0043         estimate D2E/DX2                !
 ! A1    A(2,1,10)             126.2283         estimate D2E/DX2                !
 ! A2    A(2,1,86)             118.4829         estimate D2E/DX2                !
 ! A3    A(10,1,86)            115.2639         estimate D2E/DX2                !
 ! A4    A(1,2,3)              119.607          estimate D2E/DX2                !
 ! A5    A(1,2,87)             121.7331         estimate D2E/DX2                !
 ! A6    A(3,2,87)             118.6574         estimate D2E/DX2                !
 ! A7    A(2,3,4)              120.1241         estimate D2E/DX2                !
 ! A8    A(2,3,6)              117.9882         estimate D2E/DX2                !
 ! A9    A(4,3,6)              121.6714         estimate D2E/DX2                !
 ! A10   A(3,4,5)              112.3499         estimate D2E/DX2                !
 ! A11   A(4,5,88)             109.0573         estimate D2E/DX2                !
 ! A12   A(4,5,89)             109.6524         estimate D2E/DX2                !
 ! A13   A(4,5,90)             105.4982         estimate D2E/DX2                !
 ! A14   A(88,5,89)            114.1151         estimate D2E/DX2                !
 ! A15   A(88,5,90)            110.8836         estimate D2E/DX2                !
 ! A16   A(89,5,90)            107.2744         estimate D2E/DX2                !
 ! A17   A(3,6,7)              119.594          estimate D2E/DX2                !
 ! A18   A(3,6,11)             121.5275         estimate D2E/DX2                !
 ! A19   A(7,6,11)             118.7617         estimate D2E/DX2                !
 ! A20   A(6,7,8)              116.2269         estimate D2E/DX2                !
 ! A21   A(6,7,10)             121.6742         estimate D2E/DX2                !
 ! A22   A(8,7,10)             122.06           estimate D2E/DX2                !
 ! A23   A(7,8,9)              118.569          estimate D2E/DX2                !
 ! A24   A(8,9,91)             110.5189         estimate D2E/DX2                !
 ! A25   A(8,9,92)             111.8012         estimate D2E/DX2                !
 ! A26   A(8,9,93)             109.9846         estimate D2E/DX2                !
 ! A27   A(91,9,92)            104.1636         estimate D2E/DX2                !
 ! A28   A(91,9,93)            111.338          estimate D2E/DX2                !
 ! A29   A(92,9,93)            108.9148         estimate D2E/DX2                !
 ! A30   A(1,10,7)             114.8            estimate D2E/DX2                !
 ! A31   A(1,10,94)            124.4291         estimate D2E/DX2                !
 ! A32   A(7,10,94)            120.7705         estimate D2E/DX2                !
 ! A33   A(6,11,12)            132.1036         estimate D2E/DX2                !
 ! A34   A(6,11,17)            121.0951         estimate D2E/DX2                !
 ! A35   A(12,11,17)           106.6831         estimate D2E/DX2                !
 ! A36   A(11,12,13)           116.1106         estimate D2E/DX2                !
 ! A37   A(11,12,15)           114.1437         estimate D2E/DX2                !
 ! A38   A(13,12,15)           129.7182         estimate D2E/DX2                !
 ! A39   A(12,13,14)           114.1049         estimate D2E/DX2                !
 ! A40   A(13,14,95)           110.5447         estimate D2E/DX2                !
 ! A41   A(13,14,96)           117.6034         estimate D2E/DX2                !
 ! A42   A(13,14,97)           111.3701         estimate D2E/DX2                !
 ! A43   A(95,14,96)           103.867          estimate D2E/DX2                !
 ! A44   A(95,14,97)           101.8866         estimate D2E/DX2                !
 ! A45   A(96,14,97)           110.1693         estimate D2E/DX2                !
 ! A46   A(12,15,16)           114.8087         estimate D2E/DX2                !
 ! A47   A(12,15,98)           120.0628         estimate D2E/DX2                !
 ! A48   A(16,15,98)           124.7811         estimate D2E/DX2                !
 ! A49   A(15,16,17)           107.9891         estimate D2E/DX2                !
 ! A50   A(15,16,18)           130.9354         estimate D2E/DX2                !
 ! A51   A(17,16,18)           120.9964         estimate D2E/DX2                !
 ! A52   A(11,17,16)            96.2672         estimate D2E/DX2                !
 ! A53   A(16,18,19)           123.6667         estimate D2E/DX2                !
 ! A54   A(16,18,27)           115.4011         estimate D2E/DX2                !
 ! A55   A(19,18,27)           120.9258         estimate D2E/DX2                !
 ! A56   A(18,19,20)           118.3096         estimate D2E/DX2                !
 ! A57   A(18,19,99)           121.6967         estimate D2E/DX2                !
 ! A58   A(20,19,99)           119.9124         estimate D2E/DX2                !
 ! A59   A(19,20,21)           117.3015         estimate D2E/DX2                !
 ! A60   A(19,20,23)           123.6888         estimate D2E/DX2                !
 ! A61   A(21,20,23)           117.9173         estimate D2E/DX2                !
 ! A62   A(20,21,22)           109.0175         estimate D2E/DX2                !
 ! A63   A(21,22,100)          107.6487         estimate D2E/DX2                !
 ! A64   A(21,22,101)          108.2254         estimate D2E/DX2                !
 ! A65   A(21,22,102)          115.966          estimate D2E/DX2                !
 ! A66   A(100,22,101)         102.1827         estimate D2E/DX2                !
 ! A67   A(100,22,102)         111.5496         estimate D2E/DX2                !
 ! A68   A(101,22,102)         110.3197         estimate D2E/DX2                !
 ! A69   A(20,23,24)           116.6603         estimate D2E/DX2                !
 ! A70   A(20,23,28)           122.288          estimate D2E/DX2                !
 ! A71   A(24,23,28)           121.026          estimate D2E/DX2                !
 ! A72   A(23,24,25)           121.4101         estimate D2E/DX2                !
 ! A73   A(23,24,27)           122.6342         estimate D2E/DX2                !
 ! A74   A(25,24,27)           115.5359         estimate D2E/DX2                !
 ! A75   A(24,25,26)           111.9242         estimate D2E/DX2                !
 ! A76   A(25,26,103)          115.2664         estimate D2E/DX2                !
 ! A77   A(25,26,104)          113.7363         estimate D2E/DX2                !
 ! A78   A(25,26,105)          110.4765         estimate D2E/DX2                !
 ! A79   A(103,26,104)         110.0404         estimate D2E/DX2                !
 ! A80   A(103,26,105)         104.8703         estimate D2E/DX2                !
 ! A81   A(104,26,105)         101.1566         estimate D2E/DX2                !
 ! A82   A(18,27,24)           117.5596         estimate D2E/DX2                !
 ! A83   A(18,27,106)          119.799          estimate D2E/DX2                !
 ! A84   A(24,27,106)          122.632          estimate D2E/DX2                !
 ! A85   A(23,28,29)           131.4728         estimate D2E/DX2                !
 ! A86   A(23,28,34)           117.7339         estimate D2E/DX2                !
 ! A87   A(29,28,34)           110.6691         estimate D2E/DX2                !
 ! A88   A(28,29,30)           117.233          estimate D2E/DX2                !
 ! A89   A(28,29,32)           113.2786         estimate D2E/DX2                !
 ! A90   A(30,29,32)           129.3841         estimate D2E/DX2                !
 ! A91   A(29,30,31)           113.266          estimate D2E/DX2                !
 ! A92   A(30,31,107)          109.2663         estimate D2E/DX2                !
 ! A93   A(30,31,108)          106.594          estimate D2E/DX2                !
 ! A94   A(30,31,109)          109.634          estimate D2E/DX2                !
 ! A95   A(107,31,108)         110.0812         estimate D2E/DX2                !
 ! A96   A(107,31,109)         109.2962         estimate D2E/DX2                !
 ! A97   A(108,31,109)         111.9106         estimate D2E/DX2                !
 ! A98   A(29,32,33)           109.517          estimate D2E/DX2                !
 ! A99   A(29,32,110)          121.7692         estimate D2E/DX2                !
 ! A100  A(33,32,110)          128.6096         estimate D2E/DX2                !
 ! A101  A(32,33,34)           114.1674         estimate D2E/DX2                !
 ! A102  A(32,33,35)           124.4189         estimate D2E/DX2                !
 ! A103  A(34,33,35)           121.389          estimate D2E/DX2                !
 ! A104  A(28,34,33)            92.286          estimate D2E/DX2                !
 ! A105  A(33,35,36)           118.6821         estimate D2E/DX2                !
 ! A106  A(33,35,44)           120.8128         estimate D2E/DX2                !
 ! A107  A(36,35,44)           120.392          estimate D2E/DX2                !
 ! A108  A(35,36,37)           117.423          estimate D2E/DX2                !
 ! A109  A(35,36,111)          120.77           estimate D2E/DX2                !
 ! A110  A(37,36,111)          121.5744         estimate D2E/DX2                !
 ! A111  A(36,37,38)           115.9754         estimate D2E/DX2                !
 ! A112  A(36,37,40)           119.5861         estimate D2E/DX2                !
 ! A113  A(38,37,40)           124.1533         estimate D2E/DX2                !
 ! A114  A(37,38,39)           109.8919         estimate D2E/DX2                !
 ! A115  A(38,39,112)          105.3519         estimate D2E/DX2                !
 ! A116  A(38,39,113)          116.0862         estimate D2E/DX2                !
 ! A117  A(38,39,114)          112.5285         estimate D2E/DX2                !
 ! A118  A(112,39,113)         105.4054         estimate D2E/DX2                !
 ! A119  A(112,39,114)         104.8779         estimate D2E/DX2                !
 ! A120  A(113,39,114)         111.4701         estimate D2E/DX2                !
 ! A121  A(37,40,41)           120.1121         estimate D2E/DX2                !
 ! A122  A(37,40,45)           117.6416         estimate D2E/DX2                !
 ! A123  A(41,40,45)           122.2074         estimate D2E/DX2                !
 ! A124  A(40,41,42)           118.929          estimate D2E/DX2                !
 ! A125  A(40,41,44)           118.2126         estimate D2E/DX2                !
 ! A126  A(42,41,44)           122.8315         estimate D2E/DX2                !
 ! A127  A(41,42,43)           115.3034         estimate D2E/DX2                !
 ! A128  A(42,43,115)          107.1445         estimate D2E/DX2                !
 ! A129  A(42,43,116)          112.6018         estimate D2E/DX2                !
 ! A130  A(42,43,117)          110.8544         estimate D2E/DX2                !
 ! A131  A(115,43,116)         108.3272         estimate D2E/DX2                !
 ! A132  A(115,43,117)         107.8114         estimate D2E/DX2                !
 ! A133  A(116,43,117)         109.9173         estimate D2E/DX2                !
 ! A134  A(35,44,41)           123.8768         estimate D2E/DX2                !
 ! A135  A(35,44,118)          119.1137         estimate D2E/DX2                !
 ! A136  A(41,44,118)          116.4281         estimate D2E/DX2                !
 ! A137  A(40,45,46)           124.8598         estimate D2E/DX2                !
 ! A138  A(40,45,51)           123.8383         estimate D2E/DX2                !
 ! A139  A(46,45,51)           111.2918         estimate D2E/DX2                !
 ! A140  A(45,46,47)           120.9475         estimate D2E/DX2                !
 ! A141  A(45,46,49)           110.411          estimate D2E/DX2                !
 ! A142  A(47,46,49)           128.517          estimate D2E/DX2                !
 ! A143  A(46,47,48)           113.74           estimate D2E/DX2                !
 ! A144  A(47,48,119)          109.7938         estimate D2E/DX2                !
 ! A145  A(47,48,120)          116.5436         estimate D2E/DX2                !
 ! A146  A(47,48,121)          111.4739         estimate D2E/DX2                !
 ! A147  A(119,48,120)         105.1005         estimate D2E/DX2                !
 ! A148  A(119,48,121)         101.2002         estimate D2E/DX2                !
 ! A149  A(120,48,121)         111.3944         estimate D2E/DX2                !
 ! A150  A(46,49,50)           114.733          estimate D2E/DX2                !
 ! A151  A(46,49,122)          122.6851         estimate D2E/DX2                !
 ! A152  A(50,49,122)          122.544          estimate D2E/DX2                !
 ! A153  A(49,50,51)           107.5569         estimate D2E/DX2                !
 ! A154  A(49,50,52)           132.5302         estimate D2E/DX2                !
 ! A155  A(51,50,52)           119.75           estimate D2E/DX2                !
 ! A156  A(45,51,50)            95.9921         estimate D2E/DX2                !
 ! A157  A(50,52,53)           124.2748         estimate D2E/DX2                !
 ! A158  A(50,52,61)           116.0618         estimate D2E/DX2                !
 ! A159  A(53,52,61)           119.1893         estimate D2E/DX2                !
 ! A160  A(52,53,54)           122.8558         estimate D2E/DX2                !
 ! A161  A(52,53,123)          120.6545         estimate D2E/DX2                !
 ! A162  A(54,53,123)          116.4699         estimate D2E/DX2                !
 ! A163  A(53,54,55)           121.6602         estimate D2E/DX2                !
 ! A164  A(53,54,57)           121.2259         estimate D2E/DX2                !
 ! A165  A(55,54,57)           116.5573         estimate D2E/DX2                !
 ! A166  A(54,55,56)           105.7646         estimate D2E/DX2                !
 ! A167  A(55,56,124)          113.2626         estimate D2E/DX2                !
 ! A168  A(55,56,125)          113.7914         estimate D2E/DX2                !
 ! A169  A(55,56,126)          106.2437         estimate D2E/DX2                !
 ! A170  A(124,56,125)         111.1612         estimate D2E/DX2                !
 ! A171  A(124,56,126)         104.197          estimate D2E/DX2                !
 ! A172  A(125,56,126)         107.412          estimate D2E/DX2                !
 ! A173  A(54,57,58)           119.949          estimate D2E/DX2                !
 ! A174  A(54,57,62)           122.8303         estimate D2E/DX2                !
 ! A175  A(58,57,62)           117.2173         estimate D2E/DX2                !
 ! A176  A(57,58,59)           122.8841         estimate D2E/DX2                !
 ! A177  A(57,58,61)           119.2133         estimate D2E/DX2                !
 ! A178  A(59,58,61)           117.9008         estimate D2E/DX2                !
 ! A179  A(58,59,60)           108.5923         estimate D2E/DX2                !
 ! A180  A(59,60,127)          107.3934         estimate D2E/DX2                !
 ! A181  A(59,60,128)          114.0783         estimate D2E/DX2                !
 ! A182  A(59,60,129)          102.6517         estimate D2E/DX2                !
 ! A183  A(127,60,128)         110.7281         estimate D2E/DX2                !
 ! A184  A(127,60,129)         110.3985         estimate D2E/DX2                !
 ! A185  A(128,60,129)         111.2623         estimate D2E/DX2                !
 ! A186  A(52,61,58)           117.1557         estimate D2E/DX2                !
 ! A187  A(52,61,130)          121.1137         estimate D2E/DX2                !
 ! A188  A(58,61,130)          121.5834         estimate D2E/DX2                !
 ! A189  A(57,62,63)           133.6002         estimate D2E/DX2                !
 ! A190  A(57,62,68)           115.3185         estimate D2E/DX2                !
 ! A191  A(63,62,68)           110.9396         estimate D2E/DX2                !
 ! A192  A(62,63,64)           118.6807         estimate D2E/DX2                !
 ! A193  A(62,63,66)           115.2567         estimate D2E/DX2                !
 ! A194  A(64,63,66)           126.0558         estimate D2E/DX2                !
 ! A195  A(63,64,65)           115.4381         estimate D2E/DX2                !
 ! A196  A(64,65,131)          109.5437         estimate D2E/DX2                !
 ! A197  A(64,65,132)          103.3458         estimate D2E/DX2                !
 ! A198  A(64,65,133)          111.2219         estimate D2E/DX2                !
 ! A199  A(131,65,132)         104.568          estimate D2E/DX2                !
 ! A200  A(131,65,133)         118.4891         estimate D2E/DX2                !
 ! A201  A(132,65,133)         108.3746         estimate D2E/DX2                !
 ! A202  A(63,66,67)           113.7362         estimate D2E/DX2                !
 ! A203  A(63,66,134)          128.9976         estimate D2E/DX2                !
 ! A204  A(67,66,134)          117.1763         estimate D2E/DX2                !
 ! A205  A(66,67,68)           110.9753         estimate D2E/DX2                !
 ! A206  A(66,67,69)           130.5639         estimate D2E/DX2                !
 ! A207  A(68,67,69)           118.4462         estimate D2E/DX2                !
 ! A208  A(62,68,67)            89.0815         estimate D2E/DX2                !
 ! A209  A(67,69,70)           119.9293         estimate D2E/DX2                !
 ! A210  A(67,69,78)           123.2065         estimate D2E/DX2                !
 ! A211  A(70,69,78)           116.7602         estimate D2E/DX2                !
 ! A212  A(69,70,71)           116.0008         estimate D2E/DX2                !
 ! A213  A(69,70,135)          117.7027         estimate D2E/DX2                !
 ! A214  A(71,70,135)          126.2349         estimate D2E/DX2                !
 ! A215  A(70,71,72)           118.2738         estimate D2E/DX2                !
 ! A216  A(70,71,74)           124.9729         estimate D2E/DX2                !
 ! A217  A(72,71,74)           116.6971         estimate D2E/DX2                !
 ! A218  A(71,72,73)           111.8616         estimate D2E/DX2                !
 ! A219  A(72,73,136)          105.3202         estimate D2E/DX2                !
 ! A220  A(72,73,137)          114.6687         estimate D2E/DX2                !
 ! A221  A(72,73,138)          112.4551         estimate D2E/DX2                !
 ! A222  A(136,73,137)         108.1484         estimate D2E/DX2                !
 ! A223  A(136,73,138)         101.1174         estimate D2E/DX2                !
 ! A224  A(137,73,138)         113.7331         estimate D2E/DX2                !
 ! A225  A(71,74,75)           117.0214         estimate D2E/DX2                !
 ! A226  A(71,74,79)           119.873          estimate D2E/DX2                !
 ! A227  A(75,74,79)           123.0979         estimate D2E/DX2                !
 ! A228  A(74,75,76)           119.5038         estimate D2E/DX2                !
 ! A229  A(74,75,78)           118.4686         estimate D2E/DX2                !
 ! A230  A(76,75,78)           122.0081         estimate D2E/DX2                !
 ! A231  A(75,76,77)           114.872          estimate D2E/DX2                !
 ! A232  A(76,77,139)          111.5988         estimate D2E/DX2                !
 ! A233  A(76,77,140)          109.9734         estimate D2E/DX2                !
 ! A234  A(76,77,141)          110.7925         estimate D2E/DX2                !
 ! A235  A(139,77,140)         110.2903         estimate D2E/DX2                !
 ! A236  A(139,77,141)         109.9924         estimate D2E/DX2                !
 ! A237  A(140,77,141)         103.933          estimate D2E/DX2                !
 ! A238  A(69,78,75)           126.7157         estimate D2E/DX2                !
 ! A239  A(69,78,142)          115.3716         estimate D2E/DX2                !
 ! A240  A(75,78,142)          117.8647         estimate D2E/DX2                !
 ! A241  A(74,79,80)           128.4603         estimate D2E/DX2                !
 ! A242  A(74,79,85)           115.7659         estimate D2E/DX2                !
 ! A243  A(80,79,85)           115.402          estimate D2E/DX2                !
 ! A244  A(79,80,81)           118.1258         estimate D2E/DX2                !
 ! A245  A(79,80,83)           107.9833         estimate D2E/DX2                !
 ! A246  A(81,80,83)           133.547          estimate D2E/DX2                !
 ! A247  A(80,81,82)           114.0721         estimate D2E/DX2                !
 ! A248  A(81,82,143)          107.043          estimate D2E/DX2                !
 ! A249  A(81,82,144)          111.1743         estimate D2E/DX2                !
 ! A250  A(81,82,145)          110.4852         estimate D2E/DX2                !
 ! A251  A(143,82,144)         110.7091         estimate D2E/DX2                !
 ! A252  A(143,82,145)         107.4324         estimate D2E/DX2                !
 ! A253  A(144,82,145)         109.8952         estimate D2E/DX2                !
 ! A254  A(80,83,84)           116.2222         estimate D2E/DX2                !
 ! A255  A(80,83,146)          122.6374         estimate D2E/DX2                !
 ! A256  A(84,83,146)          121.1266         estimate D2E/DX2                !
 ! A257  A(83,84,85)           110.4759         estimate D2E/DX2                !
 ! A258  A(83,84,147)          131.3579         estimate D2E/DX2                !
 ! A259  A(85,84,147)          118.0711         estimate D2E/DX2                !
 ! A260  A(79,85,84)            89.8008         estimate D2E/DX2                !
 ! D1    D(10,1,2,3)             0.7994         estimate D2E/DX2                !
 ! D2    D(10,1,2,87)         -178.6196         estimate D2E/DX2                !
 ! D3    D(86,1,2,3)           178.894          estimate D2E/DX2                !
 ! D4    D(86,1,2,87)           -0.5251         estimate D2E/DX2                !
 ! D5    D(2,1,10,7)             0.2619         estimate D2E/DX2                !
 ! D6    D(2,1,10,94)         -179.9698         estimate D2E/DX2                !
 ! D7    D(86,1,10,7)         -177.8862         estimate D2E/DX2                !
 ! D8    D(86,1,10,94)           1.8822         estimate D2E/DX2                !
 ! D9    D(1,2,3,4)           -177.7126         estimate D2E/DX2                !
 ! D10   D(1,2,3,6)             -2.967          estimate D2E/DX2                !
 ! D11   D(87,2,3,4)             1.7243         estimate D2E/DX2                !
 ! D12   D(87,2,3,6)           176.4699         estimate D2E/DX2                !
 ! D13   D(2,3,4,5)            -64.3969         estimate D2E/DX2                !
 ! D14   D(6,3,4,5)            121.0556         estimate D2E/DX2                !
 ! D15   D(2,3,6,7)              3.9809         estimate D2E/DX2                !
 ! D16   D(2,3,6,11)          -179.9968         estimate D2E/DX2                !
 ! D17   D(4,3,6,7)            178.6405         estimate D2E/DX2                !
 ! D18   D(4,3,6,11)            -5.3371         estimate D2E/DX2                !
 ! D19   D(3,4,5,88)            84.262          estimate D2E/DX2                !
 ! D20   D(3,4,5,89)           -41.3549         estimate D2E/DX2                !
 ! D21   D(3,4,5,90)          -156.5839         estimate D2E/DX2                !
 ! D22   D(3,6,7,8)            179.1811         estimate D2E/DX2                !
 ! D23   D(3,6,7,10)            -3.0432         estimate D2E/DX2                !
 ! D24   D(11,6,7,8)             3.0486         estimate D2E/DX2                !
 ! D25   D(11,6,7,10)         -179.1757         estimate D2E/DX2                !
 ! D26   D(3,6,11,12)          -70.0252         estimate D2E/DX2                !
 ! D27   D(3,6,11,17)          105.4566         estimate D2E/DX2                !
 ! D28   D(7,6,11,12)          106.0293         estimate D2E/DX2                !
 ! D29   D(7,6,11,17)          -78.4889         estimate D2E/DX2                !
 ! D30   D(6,7,8,9)            146.7256         estimate D2E/DX2                !
 ! D31   D(10,7,8,9)           -31.0407         estimate D2E/DX2                !
 ! D32   D(6,7,10,1)             0.8197         estimate D2E/DX2                !
 ! D33   D(6,7,10,94)         -178.9579         estimate D2E/DX2                !
 ! D34   D(8,7,10,1)           178.4653         estimate D2E/DX2                !
 ! D35   D(8,7,10,94)           -1.3123         estimate D2E/DX2                !
 ! D36   D(7,8,9,91)          -168.8242         estimate D2E/DX2                !
 ! D37   D(7,8,9,92)            75.6388         estimate D2E/DX2                !
 ! D38   D(7,8,9,93)           -45.4903         estimate D2E/DX2                !
 ! D39   D(6,11,12,13)          -2.4632         estimate D2E/DX2                !
 ! D40   D(6,11,12,15)         175.8157         estimate D2E/DX2                !
 ! D41   D(17,11,12,13)       -178.4251         estimate D2E/DX2                !
 ! D42   D(17,11,12,15)         -0.1461         estimate D2E/DX2                !
 ! D43   D(6,11,17,16)        -178.0705         estimate D2E/DX2                !
 ! D44   D(12,11,17,16)         -1.5686         estimate D2E/DX2                !
 ! D45   D(11,12,13,14)        174.2525         estimate D2E/DX2                !
 ! D46   D(15,12,13,14)         -3.7056         estimate D2E/DX2                !
 ! D47   D(11,12,15,16)          2.4894         estimate D2E/DX2                !
 ! D48   D(11,12,15,98)        176.0409         estimate D2E/DX2                !
 ! D49   D(13,12,15,16)       -179.5198         estimate D2E/DX2                !
 ! D50   D(13,12,15,98)         -5.9683         estimate D2E/DX2                !
 ! D51   D(12,13,14,95)       -179.5651         estimate D2E/DX2                !
 ! D52   D(12,13,14,96)        -60.5672         estimate D2E/DX2                !
 ! D53   D(12,13,14,97)         67.9245         estimate D2E/DX2                !
 ! D54   D(12,15,16,17)         -3.4802         estimate D2E/DX2                !
 ! D55   D(12,15,16,18)        173.2322         estimate D2E/DX2                !
 ! D56   D(98,15,16,17)       -176.6835         estimate D2E/DX2                !
 ! D57   D(98,15,16,18)          0.0288         estimate D2E/DX2                !
 ! D58   D(15,16,17,11)          2.9388         estimate D2E/DX2                !
 ! D59   D(18,16,17,11)       -174.1641         estimate D2E/DX2                !
 ! D60   D(15,16,18,19)       -129.7749         estimate D2E/DX2                !
 ! D61   D(15,16,18,27)         49.3044         estimate D2E/DX2                !
 ! D62   D(17,16,18,19)         46.5768         estimate D2E/DX2                !
 ! D63   D(17,16,18,27)       -134.3439         estimate D2E/DX2                !
 ! D64   D(16,18,19,20)       -178.5054         estimate D2E/DX2                !
 ! D65   D(16,18,19,99)          4.7775         estimate D2E/DX2                !
 ! D66   D(27,18,19,20)          2.4641         estimate D2E/DX2                !
 ! D67   D(27,18,19,99)       -174.253          estimate D2E/DX2                !
 ! D68   D(16,18,27,24)       -177.5151         estimate D2E/DX2                !
 ! D69   D(16,18,27,106)         3.5732         estimate D2E/DX2                !
 ! D70   D(19,18,27,24)          1.5917         estimate D2E/DX2                !
 ! D71   D(19,18,27,106)      -177.32           estimate D2E/DX2                !
 ! D72   D(18,19,20,21)       -173.0863         estimate D2E/DX2                !
 ! D73   D(18,19,20,23)         -5.3092         estimate D2E/DX2                !
 ! D74   D(99,19,20,21)          3.6913         estimate D2E/DX2                !
 ! D75   D(99,19,20,23)        171.4684         estimate D2E/DX2                !
 ! D76   D(19,20,21,22)        -70.1466         estimate D2E/DX2                !
 ! D77   D(23,20,21,22)        121.353          estimate D2E/DX2                !
 ! D78   D(19,20,23,24)          3.6957         estimate D2E/DX2                !
 ! D79   D(19,20,23,28)       -174.4765         estimate D2E/DX2                !
 ! D80   D(21,20,23,24)        171.4029         estimate D2E/DX2                !
 ! D81   D(21,20,23,28)         -6.7693         estimate D2E/DX2                !
 ! D82   D(20,21,22,100)        88.5739         estimate D2E/DX2                !
 ! D83   D(20,21,22,101)      -161.6766         estimate D2E/DX2                !
 ! D84   D(20,21,22,102)       -37.135          estimate D2E/DX2                !
 ! D85   D(20,23,24,25)        172.9654         estimate D2E/DX2                !
 ! D86   D(20,23,24,27)          0.7366         estimate D2E/DX2                !
 ! D87   D(28,23,24,25)         -8.8377         estimate D2E/DX2                !
 ! D88   D(28,23,24,27)        178.9335         estimate D2E/DX2                !
 ! D89   D(20,23,28,29)        102.268          estimate D2E/DX2                !
 ! D90   D(20,23,28,34)        -82.2132         estimate D2E/DX2                !
 ! D91   D(24,23,28,29)        -75.8258         estimate D2E/DX2                !
 ! D92   D(24,23,28,34)         99.693          estimate D2E/DX2                !
 ! D93   D(23,24,25,26)        122.1469         estimate D2E/DX2                !
 ! D94   D(27,24,25,26)        -65.103          estimate D2E/DX2                !
 ! D95   D(23,24,27,18)         -3.2661         estimate D2E/DX2                !
 ! D96   D(23,24,27,106)       175.6125         estimate D2E/DX2                !
 ! D97   D(25,24,27,18)       -175.9181         estimate D2E/DX2                !
 ! D98   D(25,24,27,106)         2.9605         estimate D2E/DX2                !
 ! D99   D(24,25,26,103)        87.1662         estimate D2E/DX2                !
 ! D100  D(24,25,26,104)       -41.2589         estimate D2E/DX2                !
 ! D101  D(24,25,26,105)      -154.2028         estimate D2E/DX2                !
 ! D102  D(23,28,29,30)          0.1732         estimate D2E/DX2                !
 ! D103  D(23,28,29,32)        176.8112         estimate D2E/DX2                !
 ! D104  D(34,28,29,30)       -175.588          estimate D2E/DX2                !
 ! D105  D(34,28,29,32)          1.05           estimate D2E/DX2                !
 ! D106  D(23,28,34,33)       -178.5778         estimate D2E/DX2                !
 ! D107  D(29,28,34,33)         -2.1651         estimate D2E/DX2                !
 ! D108  D(28,29,30,31)       -173.5656         estimate D2E/DX2                !
 ! D109  D(32,29,30,31)         10.4311         estimate D2E/DX2                !
 ! D110  D(28,29,32,33)          0.9385         estimate D2E/DX2                !
 ! D111  D(28,29,32,110)       177.5263         estimate D2E/DX2                !
 ! D112  D(30,29,32,33)        177.07           estimate D2E/DX2                !
 ! D113  D(30,29,32,110)        -6.3421         estimate D2E/DX2                !
 ! D114  D(29,30,31,107)       -62.1072         estimate D2E/DX2                !
 ! D115  D(29,30,31,108)       178.9662         estimate D2E/DX2                !
 ! D116  D(29,30,31,109)        57.6525         estimate D2E/DX2                !
 ! D117  D(29,32,33,34)         -2.6331         estimate D2E/DX2                !
 ! D118  D(29,32,33,35)        179.1567         estimate D2E/DX2                !
 ! D119  D(110,32,33,34)      -178.9203         estimate D2E/DX2                !
 ! D120  D(110,32,33,35)         2.8695         estimate D2E/DX2                !
 ! D121  D(32,33,34,28)          2.811          estimate D2E/DX2                !
 ! D122  D(35,33,34,28)       -178.9185         estimate D2E/DX2                !
 ! D123  D(32,33,35,36)       -119.0611         estimate D2E/DX2                !
 ! D124  D(32,33,35,44)         57.0863         estimate D2E/DX2                !
 ! D125  D(34,33,35,36)         62.8517         estimate D2E/DX2                !
 ! D126  D(34,33,35,44)       -121.0008         estimate D2E/DX2                !
 ! D127  D(33,35,36,37)       -176.3688         estimate D2E/DX2                !
 ! D128  D(33,35,36,111)        -1.8243         estimate D2E/DX2                !
 ! D129  D(44,35,36,37)          7.467          estimate D2E/DX2                !
 ! D130  D(44,35,36,111)      -177.9885         estimate D2E/DX2                !
 ! D131  D(33,35,44,41)        177.5495         estimate D2E/DX2                !
 ! D132  D(33,35,44,118)         6.6171         estimate D2E/DX2                !
 ! D133  D(36,35,44,41)         -6.3689         estimate D2E/DX2                !
 ! D134  D(36,35,44,118)      -177.3013         estimate D2E/DX2                !
 ! D135  D(35,36,37,38)       -179.5974         estimate D2E/DX2                !
 ! D136  D(35,36,37,40)         -5.4774         estimate D2E/DX2                !
 ! D137  D(111,36,37,38)         5.9047         estimate D2E/DX2                !
 ! D138  D(111,36,37,40)      -179.9753         estimate D2E/DX2                !
 ! D139  D(36,37,38,39)        -68.3321         estimate D2E/DX2                !
 ! D140  D(40,37,38,39)        117.848          estimate D2E/DX2                !
 ! D141  D(36,37,40,41)          2.2395         estimate D2E/DX2                !
 ! D142  D(36,37,40,45)       -175.5395         estimate D2E/DX2                !
 ! D143  D(38,37,40,41)        175.8499         estimate D2E/DX2                !
 ! D144  D(38,37,40,45)         -1.9292         estimate D2E/DX2                !
 ! D145  D(37,38,39,112)      -158.6145         estimate D2E/DX2                !
 ! D146  D(37,38,39,113)       -42.4381         estimate D2E/DX2                !
 ! D147  D(37,38,39,114)        87.6736         estimate D2E/DX2                !
 ! D148  D(37,40,41,42)       -178.8941         estimate D2E/DX2                !
 ! D149  D(37,40,41,44)         -0.7305         estimate D2E/DX2                !
 ! D150  D(45,40,41,42)         -1.2195         estimate D2E/DX2                !
 ! D151  D(45,40,41,44)        176.9442         estimate D2E/DX2                !
 ! D152  D(37,40,45,46)        -77.5421         estimate D2E/DX2                !
 ! D153  D(37,40,45,51)        103.7111         estimate D2E/DX2                !
 ! D154  D(41,40,45,46)        104.7286         estimate D2E/DX2                !
 ! D155  D(41,40,45,51)        -74.0183         estimate D2E/DX2                !
 ! D156  D(40,41,42,43)        119.6827         estimate D2E/DX2                !
 ! D157  D(44,41,42,43)        -58.3915         estimate D2E/DX2                !
 ! D158  D(40,41,44,35)          2.8221         estimate D2E/DX2                !
 ! D159  D(40,41,44,118)       173.9774         estimate D2E/DX2                !
 ! D160  D(42,41,44,35)       -179.0906         estimate D2E/DX2                !
 ! D161  D(42,41,44,118)        -7.9353         estimate D2E/DX2                !
 ! D162  D(41,42,43,115)      -167.7487         estimate D2E/DX2                !
 ! D163  D(41,42,43,116)        73.2477         estimate D2E/DX2                !
 ! D164  D(41,42,43,117)       -50.3571         estimate D2E/DX2                !
 ! D165  D(40,45,46,47)         -2.2082         estimate D2E/DX2                !
 ! D166  D(40,45,46,49)       -178.4821         estimate D2E/DX2                !
 ! D167  D(51,45,46,47)        176.6747         estimate D2E/DX2                !
 ! D168  D(51,45,46,49)          0.4008         estimate D2E/DX2                !
 ! D169  D(40,45,51,50)        179.1832         estimate D2E/DX2                !
 ! D170  D(46,45,51,50)          0.2868         estimate D2E/DX2                !
 ! D171  D(45,46,47,48)        178.2554         estimate D2E/DX2                !
 ! D172  D(49,46,47,48)         -6.2092         estimate D2E/DX2                !
 ! D173  D(45,46,49,50)         -1.1665         estimate D2E/DX2                !
 ! D174  D(45,46,49,122)       176.6443         estimate D2E/DX2                !
 ! D175  D(47,46,49,50)       -177.0817         estimate D2E/DX2                !
 ! D176  D(47,46,49,122)         0.7292         estimate D2E/DX2                !
 ! D177  D(46,47,48,119)      -178.3761         estimate D2E/DX2                !
 ! D178  D(46,47,48,120)       -59.0832         estimate D2E/DX2                !
 ! D179  D(46,47,48,121)        70.314          estimate D2E/DX2                !
 ! D180  D(46,49,50,51)          1.3154         estimate D2E/DX2                !
 ! D181  D(46,49,50,52)        176.514          estimate D2E/DX2                !
 ! D182  D(122,49,50,51)      -176.499          estimate D2E/DX2                !
 ! D183  D(122,49,50,52)        -1.3003         estimate D2E/DX2                !
 ! D184  D(49,50,51,45)         -0.9335         estimate D2E/DX2                !
 ! D185  D(52,50,51,45)       -176.8595         estimate D2E/DX2                !
 ! D186  D(49,50,52,53)        135.5321         estimate D2E/DX2                !
 ! D187  D(49,50,52,61)        -36.4769         estimate D2E/DX2                !
 ! D188  D(51,50,52,53)        -49.7418         estimate D2E/DX2                !
 ! D189  D(51,50,52,61)        138.2493         estimate D2E/DX2                !
 ! D190  D(50,52,53,54)       -178.6524         estimate D2E/DX2                !
 ! D191  D(50,52,53,123)        -0.3278         estimate D2E/DX2                !
 ! D192  D(61,52,53,54)         -6.8767         estimate D2E/DX2                !
 ! D193  D(61,52,53,123)       171.4479         estimate D2E/DX2                !
 ! D194  D(50,52,61,58)        178.2668         estimate D2E/DX2                !
[...]
  Beta virt. eigenvalues --    2.32329   2.32724   2.33017   2.34050   2.34482
  Beta virt. eigenvalues --    2.34668   2.35016   2.35327   2.35924   2.36236
  Beta virt. eigenvalues --    2.36357   2.36885   2.38365   2.38433   2.39341
  Beta virt. eigenvalues --    2.39676   2.40286   2.40651   2.40751   2.41061
  Beta virt. eigenvalues --    2.41121   2.41176   2.41281   2.41420   2.41572
  Beta virt. eigenvalues --    2.41655   2.41727   2.41828   2.41976   2.42000
  Beta virt. eigenvalues --    2.42168   2.42392   2.42582   2.44004   2.44182
  Beta virt. eigenvalues --    2.44554   2.44783   2.44853   2.45085   2.45275
  Beta virt. eigenvalues --    2.45547   2.45975   2.46259   2.46393   2.47501
  Beta virt. eigenvalues --    2.47563   2.47858   2.48172   2.48273   2.48419
  Beta virt. eigenvalues --    2.48464   2.48693   2.48884   2.49001   2.49150
  Beta virt. eigenvalues --    2.49276   2.49461   2.49587   2.49669   2.49769
  Beta virt. eigenvalues --    2.50540   2.50834   2.51044   2.51224   2.51815
  Beta virt. eigenvalues --    2.52003   2.52682   2.52969   2.53663   2.55114
  Beta virt. eigenvalues --    2.55392   2.55510   2.55578   2.55624   2.56910
  Beta virt. eigenvalues --    2.57034   2.57274   2.57506   2.57552   2.57583
  Beta virt. eigenvalues --    2.57972   2.58290   2.58612   2.59864   2.65657
  Beta virt. eigenvalues --    2.66448   2.67103   2.67674   2.68062   2.69117
  Beta virt. eigenvalues --    2.71013   2.71130   2.71416   2.71511   2.72534
  Beta virt. eigenvalues --    2.72866   2.73270   2.74044   2.74229   2.78572
  Beta virt. eigenvalues --    2.81166   2.81545   2.81846   2.82189   2.88505
  Beta virt. eigenvalues --    2.88690   2.88820   2.88857   2.88878   2.90716
  Beta virt. eigenvalues --    2.90895   2.91025   2.91198   2.91366   2.91790
  Beta virt. eigenvalues --    2.91921   2.91979   2.92016   2.92132   2.95971
  Beta virt. eigenvalues --    2.96227   2.96421   2.96930   3.00146   3.03432
  Beta virt. eigenvalues --    3.03624   3.03723   3.03772   3.03951   3.03969
  Beta virt. eigenvalues --    3.04137   3.04215   3.04279   3.04346   3.04553
  Beta virt. eigenvalues --    3.04701   3.04775   3.04901   3.04963   3.05589
  Beta virt. eigenvalues --    3.05967   3.06029   3.06367   3.06410   3.07287
  Beta virt. eigenvalues --    3.07925   3.07960   3.07995   3.08136   3.08351
  Beta virt. eigenvalues --    3.08677   3.08719   3.08794   3.08923   3.17909
  Beta virt. eigenvalues --    3.18032   3.18186   3.18297   3.22337   3.35230
  Beta virt. eigenvalues --    3.35325   3.35367   3.35449   3.35535   3.38823
  Beta virt. eigenvalues --    3.39031   3.39072   3.39168   3.39272   3.40766
  Beta virt. eigenvalues --    3.41350   3.41459   3.41665   3.41820   3.42823
  Beta virt. eigenvalues --    3.43493   3.43633   3.43780   3.43808   3.47385
  Beta virt. eigenvalues --    3.47525   3.47707   3.47887   3.48052   3.62227
  Beta virt. eigenvalues --    3.62584   3.63063   3.63426   3.66076
          Condensed to atoms (all electrons):
          Atomic-Atomic Spin Densities.
 Mulliken charges and spin densities:
               1          2
     1  C    0.028669   0.000000
     2  C   -0.038083   0.000000
     3  C    0.116030   0.000000
     4  O   -0.225781  -0.000000
     5  C    0.064304  -0.000000
     6  C   -0.023980  -0.000000
     7  C    0.110518  -0.000000
     8  O   -0.230287   0.000000
     9  C    0.063937   0.000000
    10  C   -0.037413   0.000000
    11  C   -0.176000   0.000000
    12  C    0.183774  -0.000000
    13  O   -0.234158   0.000000
    14  C    0.062286   0.000000
    15  C   -0.013264   0.000000
    16  C   -0.155400  -0.000000
    17  S    0.166327  -0.000000
    18  C    0.070736   0.000000
    19  C   -0.054599  -0.000000
    20  C    0.116927   0.000000
    21  O   -0.232798  -0.000000
    22  C    0.065885  -0.000000
    23  C   -0.010194  -0.000000
    24  C    0.125011   0.000000
    25  O   -0.227762  -0.000000
    26  C    0.068171   0.000000
    27  C   -0.056120   0.000000
    28  C   -0.179215   0.000000
    29  C    0.181518  -0.000000
    30  O   -0.234006   0.000000
    31  C    0.062431  -0.000000
    32  C   -0.013172   0.000000
    33  C   -0.155167  -0.000000
    34  S    0.167586  -0.000000
    35  C    0.070717   0.000000
    36  C   -0.055134  -0.000000
    37  C    0.121398  -0.000000
    38  O   -0.228163  -0.000000
    39  C    0.066019   0.000000
    40  C   -0.011197  -0.000000
    41  C    0.120223   0.000000
    42  O   -0.232384  -0.000000
    43  C    0.067574   0.000000
    44  C   -0.055227  -0.000000
    45  C   -0.179520   0.000000
    46  C    0.183766   0.000000
    47  O   -0.233087   0.000000
    48  C    0.062470   0.000000
    49  C   -0.012925  -0.000000
    50  C   -0.154889   0.000000
    51  S    0.162643  -0.000000
    52  C    0.069571  -0.000000
    53  C   -0.053580   0.000000
    54  C    0.116861   0.000000
    55  O   -0.233044  -0.000000
    56  C    0.065755  -0.000000
    57  C   -0.010108  -0.000000
    58  C    0.124674   0.000000
    59  O   -0.227981  -0.000000
    60  C    0.068239   0.000000
    61  C   -0.056701  -0.000000
    62  C   -0.178992  -0.000000
    63  C    0.181245   0.000000
    64  O   -0.233945  -0.000000
    65  C    0.062528  -0.000000
    66  C   -0.012577   0.000000
    67  C   -0.155054   0.000000
    68  S    0.167040   0.000000
    69  C    0.069447  -0.000000
    70  C   -0.054990   0.000000
    71  C    0.117691  -0.000000
    72  O   -0.232432   0.000000
    73  C    0.065885  -0.000000
    74  C   -0.002883   0.000000
    75  C    0.125745  -0.000000
    76  O   -0.227552  -0.000000
    77  C    0.068381  -0.000000
    78  C   -0.056580   0.000000
    79  C   -0.192143   0.000000
    80  C    0.168579   0.000000
    81  O   -0.232833  -0.000000
    82  C    0.060220   0.000000
    83  C    0.009198  -0.000000
    84  C   -0.127834  -0.000000
    85  S    0.167414  -0.000000
    86  H   -0.020859  -0.000000
    87  H   -0.023649  -0.000000
    88  H    0.041356   0.000000
    89  H    0.041188  -0.000000
    90  H    0.046121   0.000000
    91  H    0.048323  -0.000000
    92  H    0.042810   0.000000
    93  H    0.041624   0.000000
    94  H   -0.024015  -0.000000
    95  H    0.043683  -0.000000
    96  H    0.035248  -0.000000
    97  H    0.039743  -0.000000
    98  H   -0.019305  -0.000000
    99  H   -0.023406  -0.000000
   100  H    0.045087   0.000000
   101  H    0.046540   0.000000
   102  H    0.044084   0.000000
   103  H    0.043609  -0.000000
   104  H    0.038335  -0.000000
   105  H    0.044980   0.000000
   106  H   -0.032813  -0.000000
   107  H    0.035196  -0.000000
   108  H    0.043386   0.000000
   109  H    0.039813  -0.000000
   110  H   -0.019724  -0.000000
   111  H   -0.023167  -0.000000
   112  H    0.044475  -0.000000
   113  H    0.043820   0.000000
   114  H    0.043212  -0.000000
   115  H    0.049478  -0.000000
   116  H    0.044549  -0.000000
   117  H    0.038584   0.000000
   118  H   -0.032927  -0.000000
   119  H    0.044414  -0.000000
   120  H    0.038489  -0.000000
   121  H    0.035773  -0.000000
   122  H   -0.019627   0.000000
   123  H   -0.022248   0.000000
   124  H    0.046200   0.000000
   125  H    0.043921   0.000000
   126  H    0.046441  -0.000000
   127  H    0.043822  -0.000000
   128  H    0.038279  -0.000000
   129  H    0.044678  -0.000000
   130  H   -0.032490   0.000000
   131  H    0.034943   0.000000
   132  H    0.043148   0.000000
   133  H    0.039668  -0.000000
   134  H   -0.019730   0.000000
   135  H   -0.023315   0.000000
   136  H    0.047200  -0.000000
   137  H    0.044598   0.000000
   138  H    0.044244  -0.000000
   139  H    0.043109   0.000000
   140  H    0.038068   0.000000
   141  H    0.044586   0.000000
   142  H   -0.033262  -0.000000
   143  H    0.037676  -0.000000
   144  H    0.043078  -0.000000
   145  H    0.036495  -0.000000
   146  H   -0.015264   0.000000
   147  H    0.013494  -0.000000
 Sum of Mulliken charges =  -0.00000  -0.00000
 Mulliken charges and spin densities with hydrogens summed into heavy atoms:
               1          2
     1  C    0.007809   0.000000
     2  C   -0.061732  -0.000000
     3  C    0.116030   0.000000
     4  O   -0.225781  -0.000000
     5  C    0.192969  -0.000000
     6  C   -0.023980  -0.000000
     7  C    0.110518  -0.000000
     8  O   -0.230287   0.000000
     9  C    0.196695   0.000000
    10  C   -0.061428   0.000000
    11  C   -0.176000   0.000000
    12  C    0.183774  -0.000000
    13  O   -0.234158   0.000000
    14  C    0.180959  -0.000000
    15  C   -0.032569   0.000000
    16  C   -0.155400  -0.000000
    17  S    0.166327  -0.000000
    18  C    0.070736   0.000000
    19  C   -0.078005  -0.000000
    20  C    0.116927   0.000000
    21  O   -0.232798  -0.000000
    22  C    0.201596  -0.000000
    23  C   -0.010194  -0.000000
    24  C    0.125011   0.000000
    25  O   -0.227762  -0.000000
    26  C    0.195095  -0.000000
    27  C   -0.088933   0.000000
    28  C   -0.179215   0.000000
    29  C    0.181518  -0.000000
    30  O   -0.234006   0.000000
    31  C    0.180825  -0.000000
    32  C   -0.032896  -0.000000
    33  C   -0.155167  -0.000000
    34  S    0.167586  -0.000000
    35  C    0.070717   0.000000
    36  C   -0.078301  -0.000000
    37  C    0.121398  -0.000000
    38  O   -0.228163  -0.000000
    39  C    0.197526   0.000000
    40  C   -0.011197  -0.000000
    41  C    0.120223   0.000000
    42  O   -0.232384  -0.000000
    43  C    0.200184  -0.000000
    44  C   -0.088154  -0.000000
    45  C   -0.179520   0.000000
    46  C    0.183766   0.000000
    47  O   -0.233087   0.000000
    48  C    0.181146   0.000000
    49  C   -0.032551  -0.000000
    50  C   -0.154889   0.000000
    51  S    0.162643  -0.000000
    52  C    0.069571  -0.000000
    53  C   -0.075828   0.000000
    54  C    0.116861   0.000000
    55  O   -0.233044  -0.000000
    56  C    0.202317  -0.000000
    57  C   -0.010108  -0.000000
    58  C    0.124674   0.000000
    59  O   -0.227981  -0.000000
    60  C    0.195017   0.000000
    61  C   -0.089192  -0.000000
    62  C   -0.178992  -0.000000
    63  C    0.181245   0.000000
    64  O   -0.233945  -0.000000
    65  C    0.180287   0.000000
    66  C   -0.032307   0.000000
    67  C   -0.155054   0.000000
    68  S    0.167040   0.000000
    69  C    0.069447  -0.000000
    70  C   -0.078306   0.000000
    71  C    0.117691  -0.000000
    72  O   -0.232432   0.000000
    73  C    0.201926  -0.000000
    74  C   -0.002883   0.000000
    75  C    0.125745  -0.000000
    76  O   -0.227552  -0.000000
    77  C    0.194144  -0.000000
    78  C   -0.089842   0.000000
    79  C   -0.192143   0.000000
    80  C    0.168579   0.000000
    81  O   -0.232833  -0.000000
    82  C    0.177469  -0.000000
    83  C   -0.006065   0.000000
    84  C   -0.114340  -0.000000
    85  S    0.167414  -0.000000
 Electronic spatial extent (au):  <R**2>=         322453.3575
 Charge=              0.0000 electrons
 Dipole moment (field-independent basis, Debye):
    X=              3.5868    Y=             -1.4745    Z=             -0.0925  Tot=              3.8791
 Quadrupole moment (field-independent basis, Debye-Ang):
   XX=           -425.3044   YY=           -456.6886   ZZ=           -480.2120
   XY=             49.2405   XZ=            -20.5847   YZ=             -6.7852
 Traceless Quadrupole moment (field-independent basis, Debye-Ang):
   XX=             28.7639   YY=             -2.6202   ZZ=            -26.1436
   XY=             49.2405   XZ=            -20.5847   YZ=             -6.7852
 Octapole moment (field-independent basis, Debye-Ang**2):
  XXX=            618.9617  YYY=            -25.2956  ZZZ=             49.7548  XYY=           -125.9877
  XXY=           -539.3618  XXZ=             86.3544  XZZ=            317.7030  YZZ=            -20.4349
  YYZ=            -95.8073  XYZ=           -275.9845
 Hexadecapole moment (field-independent basis, Debye-Ang**3):
 XXXX=        -346337.8853 YYYY=         -12968.9538 ZZZZ=          -6917.2055 XXXY=           7307.7827
 XXXZ=         -10168.3651 YYYX=           1625.3542 YYYZ=             71.9435 ZZZX=            727.5462
 ZZZY=            -88.1523 XXYY=         -64847.7966 XXZZ=         -62841.1889 YYZZ=          -3360.0963
 XXYZ=          -1286.6400 YYXZ=           -357.5134 ZZXY=            182.4994
 N-N= 1.390372586133D+04 E-N=-4.103201076564D+04  KE= 5.601193530864D+03
 Leave Link  601 at Mon Jul 27 00:25:09 2020, MaxMem=  4026531840 cpu:              11.5 elap:               1.6
 (Enter /opt/ohpc/pub/libs/gaussian/g16-A.03/sandybridge/g16/l9999.exe)

 Test job not archived.
 1\1\GINC-SKYLAKE033\FOpt\ULC-wPBE\CC-pVDZ\C65H62O15S5\RDU230\27-Jul-20
 20\0\\#P uLC-wPBE/cc-pVDZ iop(3/107=0195900000, 3/108=0195900000) opt\
 \H62 C65 S5 O15\\0,1\C,18.5726428461,-2.0915708581,1.717149135\C,18.36
 77763671,-1.7559498953,0.3774253421\C,17.2023817066,-1.057541634,0.016
 0675919\O,16.8950077451,-0.7113553221,-1.2656128736\C,17.8358012733,-1
 .0268445411,-2.2783096875\C,16.2511071598,-0.6768930874,0.992756418\C,
 16.488905128,-1.0416020545,2.3385610622\O,15.5255111108,-0.6534175905,
 3.2250523301\C,15.7121809608,-0.9846448655,4.5918524755\C,17.646520636
 7,-1.7489039168,2.7047548883\C,15.0476981874,0.0841070609,0.6043525955
 \C,14.9922263668,1.3108536368,-0.0422640029\O,16.1469049379,1.97747981
 38,-0.333134789\C,16.005725278,3.2077504629,-1.0235329514\C,13.6611821
 347,1.7539515102,-0.3155234388\C,12.6983784934,0.8654154044,0.12709997
 46\S,13.4359572001,-0.5195564685,0.8722531301\C,11.2326621822,0.991402
 5676,0.029597919\C,10.3980036513,0.4187099104,1.0038821644\C,9.0060054
 405,0.5537254327,0.9013224165\O,8.1311016085,0.0312673739,1.8095375347
 \C,8.6666466183,-0.7010451524,2.9010707532\C,8.4123978204,1.2703355015
 ,-0.1635672052\C,9.2708998622,1.8246571145,-1.143020695\O,8.6460326595
 ,2.4590224441,-2.174809384\C,9.4560216086,3.0717665155,-3.1635931147\C
 ,10.6642483638,1.6913528622,-1.0481705992\C,6.951322719,1.4403801166,-
 0.2625480316\C,6.2382409788,2.6290832969,-0.3409089486\O,6.8963993177,
 3.82200752,-0.2639655691\C,6.0991961392,4.9885937662,-0.3803167204\C,4
 .827729694,2.442635523,-0.474457031\C,4.4620104192,1.1089961043,-0.493
 2658521\S,5.8588908369,0.0861424478,-0.3547263111\C,3.1066679594,0.539
 8182948,-0.6062866183\C,2.7935830021,-0.689866193,-0.0039449075\C,1.49
 91455799,-1.2195682215,-0.1158424942\O,1.1138808064,-2.3879239986,0.46
 91722712\C,2.1016501316,-3.1437974019,1.1509990775\C,0.4896581683,-0.5
 398569757,-0.8378892864\C,0.8233827309,0.7036414671,-1.4232578429\O,-0
 .1920026494,1.3160453376,-2.1001549327\C,0.0767547532,2.5664936566,-2.
 713684098\C,2.1153481337,1.2381845469,-1.3171668479\C,-0.8582877252,-1
 .1221380939,-0.9737445572\C,-1.1971083888,-2.3619091512,-1.4987923843\
 O,-0.224462383,-3.1735636831,-2.0053744171\C,-0.6488567821,-4.43456647
 76,-2.4949748882\C,-2.597691904,-2.6419206712,-1.4473938232\C,-3.33022
 49067,-1.6142364494,-0.8822823526\S,-2.2933359823,-0.2956915704,-0.430
 7871109\C,-4.7880573279,-1.5471980665,-0.6713047499\C,-5.3219553315,-0
 .8163812026,0.4031730221\C,-6.7098814233,-0.7697685161,0.5983447186\O,
 -7.3027138796,-0.0871293293,1.6208835894\C,-6.4632482269,0.622541645,2
 .519094419\C,-7.5974051029,-1.4574705436,-0.2615321053\C,-7.039273965,
 -2.1730988511,-1.3478655795\O,-7.9403923038,-2.7725481123,-2.176353466
 6\C,-7.4379461452,-3.5402083284,-3.2568461091\C,-5.6519225005,-2.22221
 45065,-1.5502810193\C,-9.0556373938,-1.4374671319,-0.0454514871\C,-9.9
 045447779,-2.5238830099,0.1177303775\O,-9.3909508164,-3.7877746738,0.1
 526079343\C,-10.3271918059,-4.8431318478,0.2917393195\C,-11.2790047738
 ,-2.1600081244,0.2612417487\C,-11.4800072094,-0.7926107566,0.212930860
 9\S,-9.9747566737,0.0426246998,-0.0179633538\C,-12.7520042728,-0.05728
 33341,0.3359810378\C,-12.7838207458,1.2311211462,0.8951611586\C,-14.00
 31793557,1.913850931,1.0129196406\O,-14.1160245519,3.1640739548,1.5488
 174231\C,-12.9286586008,3.8097025889,1.9823214661\C,-15.2184916361,1.3
 284693705,0.5890883864\C,-15.161240331,0.0371754593,0.0129531517\O,-16
 .352382208,-0.4592857757,-0.4263907868\C,-16.3637967161,-1.7678728063,
 -0.9705937361\C,-13.944903462,-0.6511426691,-0.1100472597\C,-16.508050
 9365,2.0292039565,0.736382675\C,-17.638458695,1.5887041145,1.410653798
 1\O,-17.6109879214,0.3990616687,2.0799351466\C,-18.8149363504,0.010840
 64,2.7194087462\C,-18.7446609742,2.4956416872,1.3266362608\C,-18.43724
 84678,3.6154134168,0.5889351243\S,-16.8190564395,3.5800614357,0.002552
 8066\H,19.4808418468,-2.640294046,2.0002911293\H,19.1078430047,-2.0454
 666993,-0.3755148489\H,17.9995641111,-2.1217880225,-2.3668567418\H,18.
 8125890425,-0.5284478447,-2.1035804999\H,17.4013502871,-0.6514965663,-
 3.2205913294\H,14.8324165909,-0.5814465037,5.1217664406\H,16.631201869
 7,-0.520124102,5.007305091\H,15.7599969515,-2.0829801452,4.7487110573\
 H,17.8329485419,-2.0261033405,3.7472322906\H,17.0290421853,3.587227156
 6,-1.1881423483\H,15.5061491302,3.0751484752,-2.0071704981\H,15.436850
 5089,3.9546908763,-0.4292212787\H,13.4067354659,2.7113628811,-0.780386
 5904\H,10.849654838,-0.1009296757,1.8553106778\H,9.3180873537,-0.06962
 14881,3.541098377\H,7.7975402028,-1.0382127917,3.4911313184\H,9.243631
 1813,-1.5865548879,2.5610711945\H,10.0824957681,2.3316462452,-3.705140
 8428\H,10.1144945361,3.8540242977,-2.7303630458\H,8.7571234114,3.54091
 62779,-3.8769757808\H,11.3192401007,2.0904424071,-1.8286675356\H,5.565
 5622553,5.0296596855,-1.3541136713\H,6.793994708,5.8437169838,-0.31459
 63581\H,5.3548382813,5.0666718457,0.4409983818\H,4.0935294619,3.253268
 2444,-0.5105398147\H,3.5612903735,-1.207431402,0.5806515771\H,1.589332
 601,-4.0521647121,1.5112862475\H,2.9340960828,-3.4361986821,0.47724602
 04\H,2.5179436896,-2.5939670973,2.0215002278\H,-0.8711852934,2.8805864
 154,-3.1826062123\H,0.8599835142,2.4822911176,-3.4962430113\H,0.387936
 797,3.3321658257,-1.9719464524\H,2.3766998789,2.1760834032,-1.81664130
 01\H,0.2598622788,-4.9447698206,-2.8584746846\H,-1.116497198,-5.051975
 0277,-1.6983067788\H,-1.365612075,-4.3325556177,-3.3380508539\H,-3.058
 4396568,-3.5767095796,-1.7810719434\H,-4.6407969607,-0.3170948348,1.10
 01150838\H,-5.7713873945,-0.0563353523,3.0603804712\H,-5.8695349464,1.
 4037882317,1.9997191027\H,-7.1401406642,1.1034078939,3.245559922\H,-6.
 8570131549,-2.9206551278,-3.9725196582\H,-6.8006467186,-4.3789753488,-
 2.9054067789\H,-8.3233037466,-3.9494636244,-3.7727585002\H,-5.23030709
 88,-2.7465451745,-2.413282631\H,-11.0560488337,-4.8629690504,-0.546800
 4993\H,-9.7406322806,-5.7780975395,0.2806522161\H,-10.8846728935,-4.78
 02468014,1.2509287555\H,-12.0949631429,-2.8668708874,0.4402184063\H,-1
 1.8541814711,1.6756493886,1.2654810095\H,-13.2443559816,4.7989227018,2
 .3550695014\H,-12.4326284398,3.2520290769,2.8043612664\H,-12.205676288
 ,3.9459826616,1.1508780899\H,-15.7414743607,-1.8426625225,-1.887539877
 2\H,-16.0149176973,-2.5233728921,-0.235208693\H,-17.415325518,-1.97600
 88773,-1.2323843999\H,-13.9034086005,-1.6337496423,-0.5898984353\H,-19
 .1211559785,0.7354566115,3.5043802023\H,-18.610355912,-0.9642417172,3.
 1946090287\H,-19.6493670033,-0.1079251854,1.9951688668\H,-19.722208625
 5,2.336013674,1.7918834552\H,-19.0829905906,4.4707367079,0.3708520137\
 \Version=EM64L-G16RevA.03\State=1-A\HF=-5629.6865418\S2=0.\S2-1=0.\S2A
 =0.\RMSD=3.606e-09\RMSF=2.072e-06\Dipole=1.411543,-0.574766,-0.079822\
 Quadrupole=21.2492107,-1.2580258,-19.9911849,37.5959263,-12.8223988,-3
 .8874605\PG=C01 [X(C65H62O15S5)]\\@


 CURIOUSER AND CURIOUSER

                  -- ALICE, IN WONDERLAND
 Job cpu time:       3 days 23 hours  3 minutes 59.7 seconds.
 Elapsed time:       0 days 12 hours  3 minutes 24.5 seconds.
 File lengths (MBytes):  RWF=   2568 Int=      0 D2E=      0 Chk=    232 Scr=      8
 Normal termination of Gaussian 16 at Mon Jul 27 00:25:09 2020.
