 Entering Gaussian System, Link 0=g16
 Input=mols_65_7_11_c-cF-COC_opt_0.gjf
 Output=mols_65_7_11_c-cF-COC_opt_0.log
 Initial command:
 /opt/ohpc/pub/libs/gaussian/g16-A.03/sandybridge/g16/l1.exe "/mnt/gpfs2_4m/scratch/rdu230/ondemand/projects/dihedral_energies/7trial/wtuning/mols_65_7_11_c-cF-COC/Gau-422364.inp" -scrdir="/mnt/gpfs2_4m/scratch/rdu230/ondemand/projects/dihedral_energies/7trial/wtuning/mols_65_7_11_c-cF-COC/"
 Entering Link 1 = /opt/ohpc/pub/libs/gaussian/g16-A.03/sandybridge/g16/l1.exe PID=    422365.
  
 Copyright (c) 1988,1990,1992,1993,1995,1998,2003,2009,2016,
            Gaussian, Inc.  All Rights Reserved.
  
 This is part of the Gaussian(R) 16 program.  It is based on
 the Gaussian(R) 09 system (copyright 2009, Gaussian, Inc.),
 the Gaussian(R) 03 system (copyright 2003, Gaussian, Inc.),
 the Gaussian(R) 98 system (copyright 1998, Gaussian, Inc.),
 the Gaussian(R) 94 system (copyright 1995, Gaussian, Inc.),
 the Gaussian 92(TM) system (copyright 1992, Gaussian, Inc.),
 the Gaussian 90(TM) system (copyright 1990, Gaussian, Inc.),
 the Gaussian 88(TM) system (copyright 1988, Gaussian, Inc.),
 the Gaussian 86(TM) system (copyright 1986, Carnegie Mellon
 University), and the Gaussian 82(TM) system (copyright 1983,
 Carnegie Mellon University). Gaussian is a federally registered
 trademark of Gaussian, Inc.
  
 This software contains proprietary and confidential information,
 including trade secrets, belonging to Gaussian, Inc.
  
 This software is provided under written license and may be
 used, copied, transmitted, or stored only in accord with that
 written license.
  
 The following legend is applicable only to US Government
 contracts under FAR:
  
                    RESTRICTED RIGHTS LEGEND
  
 Use, reproduction and disclosure by the US Government is
 subject to restrictions as set forth in subparagraphs (a)
 and (c) of the Commercial Computer Software - Restricted
 Rights clause in FAR 52.227-19.
  
 Gaussian, Inc.
 340 Quinnipiac St., Bldg. 40, Wallingford CT 06492
  
  
 ---------------------------------------------------------------
 Warning -- This program may not be used in any manner that
 competes with the business of Gaussian, Inc. or will provide
 assistance to any competitor of Gaussian, Inc.  The licensee
 of this program is prohibited from giving any competitor of
 Gaussian, Inc. access to this program.  By using this program,
 the user acknowledges that Gaussian, Inc. is engaged in the
 business of creating and licensing software in the field of
 computational chemistry and represents and warrants to the
 licensee that it is not a competitor of Gaussian, Inc. and that
 it will not use this program in any manner prohibited above.
 ---------------------------------------------------------------
  

 Cite this work as:
 Gaussian 16, Revision A.03,
 M. J. Frisch, G. W. Trucks, H. B. Schlegel, G. E. Scuseria, 
 M. A. Robb, J. R. Cheeseman, G. Scalmani, V. Barone, 
 G. A. Petersson, H. Nakatsuji, X. Li, M. Caricato, A. V. Marenich, 
 J. Bloino, B. G. Janesko, R. Gomperts, B. Mennucci, H. P. Hratchian, 
 J. V. Ortiz, A. F. Izmaylov, J. L. Sonnenberg, D. Williams-Young, 
 F. Ding, F. Lipparini, F. Egidi, J. Goings, B. Peng, A. Petrone, 
 T. Henderson, D. Ranasinghe, V. G. Zakrzewski, J. Gao, N. Rega, 
 G. Zheng, W. Liang, M. Hada, M. Ehara, K. Toyota, R. Fukuda, 
 J. Hasegawa, M. Ishida, T. Nakajima, Y. Honda, O. Kitao, H. Nakai, 
 T. Vreven, K. Throssell, J. A. Montgomery, Jr., J. E. Peralta, 
 F. Ogliaro, M. J. Bearpark, J. J. Heyd, E. N. Brothers, K. N. Kudin, 
 V. N. Staroverov, T. A. Keith, R. Kobayashi, J. Normand, 
 K. Raghavachari, A. P. Rendell, J. C. Burant, S. S. Iyengar, 
 J. Tomasi, M. Cossi, J. M. Millam, M. Klene, C. Adamo, R. Cammi, 
 J. W. Ochterski, R. L. Martin, K. Morokuma, O. Farkas, 
 J. B. Foresman, and D. J. Fox, Gaussian, Inc., Wallingford CT, 2016.
 
 ******************************************
 Gaussian 16:  EM64L-G16RevA.03 25-Dec-2016
                23-Jul-2020 
 ******************************************
 %mem=30GB
 %nproc=8
 Will use up to    8 processors via shared memory.
 ---------------------------------------------------------------
 #P uLC-wPBE/cc-pVDZ iop(3/107=0394000000, 3/108=0394000000) opt
 ---------------------------------------------------------------
 1/18=20,19=15,26=3,38=1/1,3;
 2/9=110,12=2,17=6,18=5,40=1/2;
 3/5=16,11=2,25=1,30=1,71=1,74=-41,107=394000000,108=394000000,116=2/1,2,3;
 4//1;
 5/5=2,38=5/2;
 6/7=2,8=2,9=2,10=2,28=1/1;
 7//1,2,3,16;
 1/18=20,19=15,26=3/3(2);
 2/9=110/2;
 99//99;
 2/9=110/2;
 3/5=16,11=2,25=1,30=1,71=1,74=-41,107=394000000,108=394000000,116=2/1,2,3;
 4/5=5,16=3,69=1/1;
 5/5=2,38=5/2;
 7//1,2,3,16;
 1/18=20,19=15,26=3/3(-5);
 2/9=110/2;
 6/7=2,8=2,9=2,10=2,19=2,28=1/1;
 99/9=1/99;
 Leave Link    1 at Thu Jul 23 11:35:21 2020, MaxMem=  4026531840 cpu:               2.1 elap:               0.3
 (Enter /opt/ohpc/pub/libs/gaussian/g16-A.03/sandybridge/g16/l101.exe)
 ----------------
 H51 C77 S7 O7 F7
 ----------------
 Symbolic Z-matrix:
 Charge =  0 Multiplicity = 1
 C                    -27.19771   1.26569   0.22207 
 C                    -26.76733   2.1799   -0.68722 
 C                    -25.36617   2.2552   -0.93264 
 C                    -24.47676   1.33934  -0.36154 
 C                    -25.01827   0.37621   0.59035 
 F                    -24.28928  -0.53101   1.15334 
 C                    -26.39478   0.30811   0.81566 
 C                    -22.95977   1.41155  -0.65955 
 C                    -22.30344   2.15203  -1.59477 
 O                    -22.97942   2.97578  -2.42021 
 C                    -22.18348   3.66764  -3.40157 
 C                    -20.92281   1.88126  -1.61245 
 C                    -20.46892   0.9791   -0.73724 
 S                    -21.8655   0.38324   0.21824 
 C                    -19.16593   0.45453  -0.48764 
 C                    -18.60993   0.26617   0.81644 
 C                    -17.35789  -0.18846   1.06171 
 C                    -16.47768  -0.47655   0.00242 
 C                    -17.02363  -0.33408  -1.30165 
 F                    -16.21274  -0.61004  -2.41347 
 C                    -18.2856   0.11198  -1.48319 
 C                    -15.11224  -0.79802   0.22383 
 C                    -14.58702  -1.9985    0.818 
 O                    -15.4418  -2.89235   1.33225 
 C                    -14.9001  -4.16444   1.49082 
 C                    -13.20981  -1.97917   0.97015 
 C                    -12.65712  -0.9193    0.33234 
 S                    -13.77211   0.17554  -0.31722 
 C                    -11.17808  -0.56324   0.24174 
 C                    -10.61662  -0.27087  -1.07469 
 C                    -9.22636   0.06079  -1.09398 
 C                    -8.50127   0.13542   0.03145 
 C                    -9.02352  -0.10425   1.23653 
 F                    -8.31035  -0.08929   2.39851 
 C                    -10.37079  -0.45108   1.33956 
 C                    -7.07392   0.59652  -0.12062 
 C                    -6.49791   1.63775  -0.80637 
 O                    -7.37269   2.51879  -1.42618 
 C                    -6.7253    3.76658  -1.87213 
 C                    -5.10801   1.66001  -0.63352 
 C                    -4.58497   0.72008   0.16831 
 S                    -5.86257  -0.328     0.71038 
 C                    -3.17234   0.39433   0.49931 
 C                    -2.33277   1.56604   0.7421 
 C                    -0.95279   1.35093   1.0319 
 C                    -0.41965   0.02583   1.17911 
 C                    -1.26635  -1.0123    1.00953 
 F                    -0.86546  -2.25809   1.19669 
 C                    -2.68161  -0.82631   0.68837 
 C                     0.98695  -0.17811   1.5684 
 C                     1.6738    0.42426   2.61477 
 O                     1.08902   1.32225   3.50596 
 C                     1.8768    2.08203   4.29753 
 C                     3.04565   0.05471   2.59556 
 C                     3.38315  -0.77637   1.51035 
 S                     1.93731  -1.14821   0.66245 
 C                     4.6555   -1.31209   1.12534 
 C                     5.09481  -2.55565   1.45801 
 C                     6.32984  -3.07825   1.09887 
 C                     7.24577  -2.2438    0.4161 
 C                     6.80655  -0.94999   0.15774 
 F                     7.60911  -0.05259  -0.59156 
 C                     5.51675  -0.48023   0.46339 
 C                     8.5784   -2.70227   0.14921 
 C                     9.02642  -3.90516  -0.50292 
 O                     8.08054  -4.77822  -0.80969 
 C                     8.54192  -5.94951  -1.48075 
 C                     10.38535  -3.94101  -0.78259 
 C                     11.0297  -2.81857  -0.31614 
 S                     9.96547  -1.70319   0.53242 
 C                     12.46825  -2.39637  -0.51306 
 C                     13.51654  -3.33844  -0.31783 
 C                     14.82631  -3.01301  -0.56187 
 C                     15.21296  -1.69417  -0.89107 
 C                     14.15163  -0.77633  -0.95906 
 F                     14.42042   0.50017  -1.38852 
 C                     12.84233  -1.06573  -0.7724 
 C                     16.5446  -1.34684  -1.10543 
 C                     17.473   -1.84945  -2.02591 
 O                     17.06823  -2.94132  -2.86394 
 C                     17.85534  -2.99375  -4.05004 
 C                     18.76974  -1.274    -1.93266 
 C                     18.78425  -0.23369  -1.00581 
 S                     17.36617  -0.19092  -0.17695 
 C                     19.9215   0.69992  -0.77126 
 C                     20.63226   1.21308  -1.85828 
 C                     21.71181   2.1084   -1.54658 
 C                     22.0497   2.54569  -0.30271 
 C                     21.3241   1.98569   0.79184 
 F                     21.552    2.34025   2.01648 
 C                     20.23555   1.05853   0.52856 
 C                     23.12888   3.44646  -0.05552 
 C                     24.20385   3.40544   0.82681 
 O                     24.40288   2.24421   1.50963 
 C                     25.38881   2.37179   2.54115 
 C                     24.96448   4.56641   0.76831 
 C                     24.4744   5.49852  -0.09951 
 S                     23.02574   5.01674  -0.82706 
 H                    -28.30804   1.21093   0.40354 
 H                    -27.40568   2.92689  -1.12575 
 H                    -25.04353   2.92936  -1.66237 
 H                    -26.72717  -0.35243   1.52454 
 H                    -22.81428   4.36822  -3.99254 
 H                    -21.32522   4.25411  -3.00414 
 H                    -21.75006   2.96079  -4.1708 
 H                    -20.12588   2.38624  -2.31573 
 H                    -19.28374   0.5582    1.71273 
 H                    -16.96955  -0.30165   2.1144 
 H                    -18.65005   0.18897  -2.59637 
 H                    -14.30229  -4.23643   2.36131 
 H                    -14.37407  -4.50979   0.63318 
 H                    -15.75941  -4.94674   1.69661 
 H                    -12.58337  -2.8104    1.39504 
 H                    -11.23169  -0.24968  -1.95361 
 H                    -8.85885   0.25726  -2.07448 
 H                    -10.81427  -0.67174   2.39335 
 H                    -6.36323   4.2469   -0.98064 
 H                    -5.957     3.51611  -2.56781 
 H                    -7.46435   4.35834  -2.34403 
 H                    -4.47391   2.41638  -1.12117 
 H                    -2.63334   2.54701   0.61174 
 H                    -0.3632    2.22245   1.21376 
 H                    -3.2647   -1.76112   0.4671 
 H                     2.41677   1.36889   5.02904 
 H                     1.26223   2.78085   4.90743 
 H                     2.57181   2.68054   3.73566 
 H                     3.82004   0.47485   3.24836 
 H                     4.37614  -3.24835   1.9642 
 H                     6.64619  -4.04304   1.36305 
 H                     5.25321   0.51844   0.18711 
 H                     9.30205  -6.541    -0.80522 
 H                     8.9712   -5.7528   -2.42381 
 H                     7.74648  -6.62819  -1.65735 
 H                     10.95411  -4.67673  -1.25273 
 H                     13.18878  -4.3719   -0.01642 
 H                     15.61229  -3.77164  -0.37205 
 H                     12.11351  -0.35276  -0.95564 
 H                     17.88939  -2.01127  -4.61245 
 H                     17.29007  -3.74557  -4.75771 
 H                     18.80953  -3.45452  -3.85586 
 H                     19.61736  -1.54241  -2.64501 
 H                     20.38668   0.96671  -2.86905 
 H                     22.24488   2.45313  -2.42568 
 H                     19.75528   0.6725    1.44989 
 H                     25.07279   3.25858   3.22678 
 H                     26.34192   2.61638   2.12754 
 H                     25.38889   1.43028   3.09255 
 H                     25.94105   4.78932   1.29719 
 H                     24.85649   6.49359  -0.29984 
 
 ITRead=  0  0  0  0  0  0  0  0  0  0  0  0  0  0  0  0  0  0  0  0
 ITRead=  0  0  0  0  0  0  0  0  0  0  0  0  0  0  0  0  0  0  0  0
 ITRead=  0  0  0  0  0  0  0  0  0  0  0  0  0  0  0  0  0  0  0  0
 ITRead=  0  0  0  0  0  0  0  0  0  0  0  0  0  0  0  0  0  0  0  0
 ITRead=  0  0  0  0  0  0  0  0  0  0  0  0  0  0  0  0  0  0  0  0
 ITRead=  0  0  0  0  0  0  0  0  0  0  0  0  0  0  0  0  0  0  0  0
 ITRead=  0  0  0  0  0  0  0  0  0  0  0  0  0  0  0  0  0  0  0  0
 ITRead=  0  0  0  0  0  0  0  0  0
 MicOpt= -1 -1 -1 -1 -1 -1 -1 -1 -1 -1 -1 -1 -1 -1 -1 -1 -1 -1 -1 -1
 MicOpt= -1 -1 -1 -1 -1 -1 -1 -1 -1 -1 -1 -1 -1 -1 -1 -1 -1 -1 -1 -1
 MicOpt= -1 -1 -1 -1 -1 -1 -1 -1 -1 -1 -1 -1 -1 -1 -1 -1 -1 -1 -1 -1
 MicOpt= -1 -1 -1 -1 -1 -1 -1 -1 -1 -1 -1 -1 -1 -1 -1 -1 -1 -1 -1 -1
 MicOpt= -1 -1 -1 -1 -1 -1 -1 -1 -1 -1 -1 -1 -1 -1 -1 -1 -1 -1 -1 -1
 MicOpt= -1 -1 -1 -1 -1 -1 -1 -1 -1 -1 -1 -1 -1 -1 -1 -1 -1 -1 -1 -1
 MicOpt= -1 -1 -1 -1 -1 -1 -1 -1 -1 -1 -1 -1 -1 -1 -1 -1 -1 -1 -1 -1
 MicOpt= -1 -1 -1 -1 -1 -1 -1 -1 -1
 NAtoms=    149 NQM=      149 NQMF=       0 NMMI=      0 NMMIF=      0
                NMic=       0 NMicF=      0.
                    Isotopes and Nuclear Properties:
 (Nuclear quadrupole moments (NQMom) in fm**2, nuclear magnetic moments (NMagM)
  in nuclear magnetons)

  Atom         1           2           3           4           5           6           7           8           9          10
 IAtWgt=          12          12          12          12          12          19          12          12          12          16
 AtmWgt=  12.0000000  12.0000000  12.0000000  12.0000000  12.0000000  18.9984033  12.0000000  12.0000000  12.0000000  15.9949146
 NucSpn=           0           0           0           0           0           1           0           0           0           0
 AtZEff=  -0.0000000  -0.0000000  -0.0000000  -0.0000000  -0.0000000  -0.0000000  -0.0000000  -0.0000000  -0.0000000  -0.0000000
 NQMom=    0.0000000   0.0000000   0.0000000   0.0000000   0.0000000   0.0000000   0.0000000   0.0000000   0.0000000   0.0000000
 NMagM=    0.0000000   0.0000000   0.0000000   0.0000000   0.0000000   2.6288670   0.0000000   0.0000000   0.0000000   0.0000000
 AtZNuc=   6.0000000   6.0000000   6.0000000   6.0000000   6.0000000   9.0000000   6.0000000   6.0000000   6.0000000   8.0000000

  Atom        11          12          13          14          15          16          17          18          19          20
 IAtWgt=          12          12          12          32          12          12          12          12          12          19
 AtmWgt=  12.0000000  12.0000000  12.0000000  31.9720718  12.0000000  12.0000000  12.0000000  12.0000000  12.0000000  18.9984033
 NucSpn=           0           0           0           0           0           0           0           0           0           1
 AtZEff=  -0.0000000  -0.0000000  -0.0000000  -0.0000000  -0.0000000  -0.0000000  -0.0000000  -0.0000000  -0.0000000  -0.0000000
 NQMom=    0.0000000   0.0000000   0.0000000   0.0000000   0.0000000   0.0000000   0.0000000   0.0000000   0.0000000   0.0000000
 NMagM=    0.0000000   0.0000000   0.0000000   0.0000000   0.0000000   0.0000000   0.0000000   0.0000000   0.0000000   2.6288670
 AtZNuc=   6.0000000   6.0000000   6.0000000  16.0000000   6.0000000   6.0000000   6.0000000   6.0000000   6.0000000   9.0000000

  Atom        21          22          23          24          25          26          27          28          29          30
 IAtWgt=          12          12          12          16          12          12          12          32          12          12
 AtmWgt=  12.0000000  12.0000000  12.0000000  15.9949146  12.0000000  12.0000000  12.0000000  31.9720718  12.0000000  12.0000000
 NucSpn=           0           0           0           0           0           0           0           0           0           0
 AtZEff=  -0.0000000  -0.0000000  -0.0000000  -0.0000000  -0.0000000  -0.0000000  -0.0000000  -0.0000000  -0.0000000  -0.0000000
 NQMom=    0.0000000   0.0000000   0.0000000   0.0000000   0.0000000   0.0000000   0.0000000   0.0000000   0.0000000   0.0000000
 NMagM=    0.0000000   0.0000000   0.0000000   0.0000000   0.0000000   0.0000000   0.0000000   0.0000000   0.0000000   0.0000000
 AtZNuc=   6.0000000   6.0000000   6.0000000   8.0000000   6.0000000   6.0000000   6.0000000  16.0000000   6.0000000   6.0000000

  Atom        31          32          33          34          35          36          37          38          39          40
 IAtWgt=          12          12          12          19          12          12          12          16          12          12
 AtmWgt=  12.0000000  12.0000000  12.0000000  18.9984033  12.0000000  12.0000000  12.0000000  15.9949146  12.0000000  12.0000000
 NucSpn=           0           0           0           1           0           0           0           0           0           0
 AtZEff=  -0.0000000  -0.0000000  -0.0000000  -0.0000000  -0.0000000  -0.0000000  -0.0000000  -0.0000000  -0.0000000  -0.0000000
 NQMom=    0.0000000   0.0000000   0.0000000   0.0000000   0.0000000   0.0000000   0.0000000   0.0000000   0.0000000   0.0000000
 NMagM=    0.0000000   0.0000000   0.0000000   2.6288670   0.0000000   0.0000000   0.0000000   0.0000000   0.0000000   0.0000000
 AtZNuc=   6.0000000   6.0000000   6.0000000   9.0000000   6.0000000   6.0000000   6.0000000   8.0000000   6.0000000   6.0000000

  Atom        41          42          43          44          45          46          47          48          49          50
 IAtWgt=          12          32          12          12          12          12          12          19          12          12
 AtmWgt=  12.0000000  31.9720718  12.0000000  12.0000000  12.0000000  12.0000000  12.0000000  18.9984033  12.0000000  12.0000000
 NucSpn=           0           0           0           0           0           0           0           1           0           0
 AtZEff=  -0.0000000  -0.0000000  -0.0000000  -0.0000000  -0.0000000  -0.0000000  -0.0000000  -0.0000000  -0.0000000  -0.0000000
 NQMom=    0.0000000   0.0000000   0.0000000   0.0000000   0.0000000   0.0000000   0.0000000   0.0000000   0.0000000   0.0000000
 NMagM=    0.0000000   0.0000000   0.0000000   0.0000000   0.0000000   0.0000000   0.0000000   2.6288670   0.0000000   0.0000000
 AtZNuc=   6.0000000  16.0000000   6.0000000   6.0000000   6.0000000   6.0000000   6.0000000   9.0000000   6.0000000   6.0000000

  Atom        51          52          53          54          55          56          57          58          59          60
 IAtWgt=          12          16          12          12          12          32          12          12          12          12
 AtmWgt=  12.0000000  15.9949146  12.0000000  12.0000000  12.0000000  31.9720718  12.0000000  12.0000000  12.0000000  12.0000000
 NucSpn=           0           0           0           0           0           0           0           0           0           0
 AtZEff=  -0.0000000  -0.0000000  -0.0000000  -0.0000000  -0.0000000  -0.0000000  -0.0000000  -0.0000000  -0.0000000  -0.0000000
 NQMom=    0.0000000   0.0000000   0.0000000   0.0000000   0.0000000   0.0000000   0.0000000   0.0000000   0.0000000   0.0000000
 NMagM=    0.0000000   0.0000000   0.0000000   0.0000000   0.0000000   0.0000000   0.0000000   0.0000000   0.0000000   0.0000000
 AtZNuc=   6.0000000   8.0000000   6.0000000   6.0000000   6.0000000  16.0000000   6.0000000   6.0000000   6.0000000   6.0000000

  Atom        61          62          63          64          65          66          67          68          69          70
 IAtWgt=          12          19          12          12          12          16          12          12          12          32
 AtmWgt=  12.0000000  18.9984033  12.0000000  12.0000000  12.0000000  15.9949146  12.0000000  12.0000000  12.0000000  31.9720718
 NucSpn=           0           1           0           0           0           0           0           0           0           0
 AtZEff=  -0.0000000  -0.0000000  -0.0000000  -0.0000000  -0.0000000  -0.0000000  -0.0000000  -0.0000000  -0.0000000  -0.0000000
 NQMom=    0.0000000   0.0000000   0.0000000   0.0000000   0.0000000   0.0000000   0.0000000   0.0000000   0.0000000   0.0000000
 NMagM=    0.0000000   2.6288670   0.0000000   0.0000000   0.0000000   0.0000000   0.0000000   0.0000000   0.0000000   0.0000000
 AtZNuc=   6.0000000   9.0000000   6.0000000   6.0000000   6.0000000   8.0000000   6.0000000   6.0000000   6.0000000  16.0000000

  Atom        71          72          73          74          75          76          77          78          79          80
 IAtWgt=          12          12          12          12          12          19          12          12          12          16
 AtmWgt=  12.0000000  12.0000000  12.0000000  12.0000000  12.0000000  18.9984033  12.0000000  12.0000000  12.0000000  15.9949146
 NucSpn=           0           0           0           0           0           1           0           0           0           0
 AtZEff=  -0.0000000  -0.0000000  -0.0000000  -0.0000000  -0.0000000  -0.0000000  -0.0000000  -0.0000000  -0.0000000  -0.0000000
 NQMom=    0.0000000   0.0000000   0.0000000   0.0000000   0.0000000   0.0000000   0.0000000   0.0000000   0.0000000   0.0000000
 NMagM=    0.0000000   0.0000000   0.0000000   0.0000000   0.0000000   2.6288670   0.0000000   0.0000000   0.0000000   0.0000000
 AtZNuc=   6.0000000   6.0000000   6.0000000   6.0000000   6.0000000   9.0000000   6.0000000   6.0000000   6.0000000   8.0000000

  Atom        81          82          83          84          85          86          87          88          89          90
 IAtWgt=          12          12          12          32          12          12          12          12          12          19
 AtmWgt=  12.0000000  12.0000000  12.0000000  31.9720718  12.0000000  12.0000000  12.0000000  12.0000000  12.0000000  18.9984033
 NucSpn=           0           0           0           0           0           0           0           0           0           1
 AtZEff=  -0.0000000  -0.0000000  -0.0000000  -0.0000000  -0.0000000  -0.0000000  -0.0000000  -0.0000000  -0.0000000  -0.0000000
 NQMom=    0.0000000   0.0000000   0.0000000   0.0000000   0.0000000   0.0000000   0.0000000   0.0000000   0.0000000   0.0000000
 NMagM=    0.0000000   0.0000000   0.0000000   0.0000000   0.0000000   0.0000000   0.0000000   0.0000000   0.0000000   2.6288670
 AtZNuc=   6.0000000   6.0000000   6.0000000  16.0000000   6.0000000   6.0000000   6.0000000   6.0000000   6.0000000   9.0000000

  Atom        91          92          93          94          95          96          97          98          99         100
 IAtWgt=          12          12          12          16          12          12          12          32           1           1
 AtmWgt=  12.0000000  12.0000000  12.0000000  15.9949146  12.0000000  12.0000000  12.0000000  31.9720718   1.0078250   1.0078250
 NucSpn=           0           0           0           0           0           0           0           0           1           1
 AtZEff=  -0.0000000  -0.0000000  -0.0000000  -0.0000000  -0.0000000  -0.0000000  -0.0000000  -0.0000000  -0.0000000  -0.0000000
 NQMom=    0.0000000   0.0000000   0.0000000   0.0000000   0.0000000   0.0000000   0.0000000   0.0000000   0.0000000   0.0000000
 NMagM=    0.0000000   0.0000000   0.0000000   0.0000000   0.0000000   0.0000000   0.0000000   0.0000000   2.7928460   2.7928460
 AtZNuc=   6.0000000   6.0000000   6.0000000   8.0000000   6.0000000   6.0000000   6.0000000  16.0000000   1.0000000   1.0000000

  Atom       101         102         103         104         105         106         107         108         109         110
 IAtWgt=           1           1           1           1           1           1           1           1           1           1
 AtmWgt=   1.0078250   1.0078250   1.0078250   1.0078250   1.0078250   1.0078250   1.0078250   1.0078250   1.0078250   1.0078250
 NucSpn=           1           1           1           1           1           1           1           1           1           1
 AtZEff=  -0.0000000  -0.0000000  -0.0000000  -0.0000000  -0.0000000  -0.0000000  -0.0000000  -0.0000000  -0.0000000  -0.0000000
 NQMom=    0.0000000   0.0000000   0.0000000   0.0000000   0.0000000   0.0000000   0.0000000   0.0000000   0.0000000   0.0000000
 NMagM=    2.7928460   2.7928460   2.7928460   2.7928460   2.7928460   2.7928460   2.7928460   2.7928460   2.7928460   2.7928460
 AtZNuc=   1.0000000   1.0000000   1.0000000   1.0000000   1.0000000   1.0000000   1.0000000   1.0000000   1.0000000   1.0000000

  Atom       111         112         113         114         115         116         117         118         119         120
 IAtWgt=           1           1           1           1           1           1           1           1           1           1
 AtmWgt=   1.0078250   1.0078250   1.0078250   1.0078250   1.0078250   1.0078250   1.0078250   1.0078250   1.0078250   1.0078250
 NucSpn=           1           1           1           1           1           1           1           1           1           1
 AtZEff=  -0.0000000  -0.0000000  -0.0000000  -0.0000000  -0.0000000  -0.0000000  -0.0000000  -0.0000000  -0.0000000  -0.0000000
 NQMom=    0.0000000   0.0000000   0.0000000   0.0000000   0.0000000   0.0000000   0.0000000   0.0000000   0.0000000   0.0000000
 NMagM=    2.7928460   2.7928460   2.7928460   2.7928460   2.7928460   2.7928460   2.7928460   2.7928460   2.7928460   2.7928460
 AtZNuc=   1.0000000   1.0000000   1.0000000   1.0000000   1.0000000   1.0000000   1.0000000   1.0000000   1.0000000   1.0000000

  Atom       121         122         123         124         125         126         127         128         129         130
 IAtWgt=           1           1           1           1           1           1           1           1           1           1
 AtmWgt=   1.0078250   1.0078250   1.0078250   1.0078250   1.0078250   1.0078250   1.0078250   1.0078250   1.0078250   1.0078250
 NucSpn=           1           1           1           1           1           1           1           1           1           1
 AtZEff=  -0.0000000  -0.0000000  -0.0000000  -0.0000000  -0.0000000  -0.0000000  -0.0000000  -0.0000000  -0.0000000  -0.0000000
 NQMom=    0.0000000   0.0000000   0.0000000   0.0000000   0.0000000   0.0000000   0.0000000   0.0000000   0.0000000   0.0000000
 NMagM=    2.7928460   2.7928460   2.7928460   2.7928460   2.7928460   2.7928460   2.7928460   2.7928460   2.7928460   2.7928460
 AtZNuc=   1.0000000   1.0000000   1.0000000   1.0000000   1.0000000   1.0000000   1.0000000   1.0000000   1.0000000   1.0000000

  Atom       131         132         133         134         135         136         137         138         139         140
 IAtWgt=           1           1           1           1           1           1           1           1           1           1
 AtmWgt=   1.0078250   1.0078250   1.0078250   1.0078250   1.0078250   1.0078250   1.0078250   1.0078250   1.0078250   1.0078250
 NucSpn=           1           1           1           1           1           1           1           1           1           1
 AtZEff=  -0.0000000  -0.0000000  -0.0000000  -0.0000000  -0.0000000  -0.0000000  -0.0000000  -0.0000000  -0.0000000  -0.0000000
 NQMom=    0.0000000   0.0000000   0.0000000   0.0000000   0.0000000   0.0000000   0.0000000   0.0000000   0.0000000   0.0000000
 NMagM=    2.7928460   2.7928460   2.7928460   2.7928460   2.7928460   2.7928460   2.7928460   2.7928460   2.7928460   2.7928460
 AtZNuc=   1.0000000   1.0000000   1.0000000   1.0000000   1.0000000   1.0000000   1.0000000   1.0000000   1.0000000   1.0000000

  Atom       141         142         143         144         145         146         147         148         149
 IAtWgt=           1           1           1           1           1           1           1           1           1
 AtmWgt=   1.0078250   1.0078250   1.0078250   1.0078250   1.0078250   1.0078250   1.0078250   1.0078250   1.0078250
 NucSpn=           1           1           1           1           1           1           1           1           1
 AtZEff=  -0.0000000  -0.0000000  -0.0000000  -0.0000000  -0.0000000  -0.0000000  -0.0000000  -0.0000000  -0.0000000
 NQMom=    0.0000000   0.0000000   0.0000000   0.0000000   0.0000000   0.0000000   0.0000000   0.0000000   0.0000000
 NMagM=    2.7928460   2.7928460   2.7928460   2.7928460   2.7928460   2.7928460   2.7928460   2.7928460   2.7928460
 AtZNuc=   1.0000000   1.0000000   1.0000000   1.0000000   1.0000000   1.0000000   1.0000000   1.0000000   1.0000000
 Leave Link  101 at Thu Jul 23 11:35:21 2020, MaxMem=  4026531840 cpu:               3.1 elap:               0.5
 (Enter /opt/ohpc/pub/libs/gaussian/g16-A.03/sandybridge/g16/l103.exe)

 GradGradGradGradGradGradGradGradGradGradGradGradGradGradGradGradGradGrad
 Berny optimization.
 Initialization pass.
                           ----------------------------
                           !    Initial Parameters    !
                           ! (Angstroms and Degrees)  !
 --------------------------                            --------------------------
 ! Name  Definition              Value          Derivative Info.                !
 --------------------------------------------------------------------------------
 ! R1    R(1,2)                  1.3593         estimate D2E/DX2                !
 ! R2    R(1,7)                  1.3835         estimate D2E/DX2                !
 ! R3    R(1,99)                 1.1264         estimate D2E/DX2                !
 ! R4    R(2,3)                  1.4245         estimate D2E/DX2                !
 ! R5    R(2,100)                1.076          estimate D2E/DX2                !
 ! R6    R(3,4)                  1.3986         estimate D2E/DX2                !
 ! R7    R(3,101)                1.0446         estimate D2E/DX2                !
 ! R8    R(4,5)                  1.4584         estimate D2E/DX2                !
 ! R9    R(4,8)                  1.5477         estimate D2E/DX2                !
 ! R10   R(5,6)                  1.2928         estimate D2E/DX2                !
 ! R11   R(5,7)                  1.3965         estimate D2E/DX2                !
 ! R12   R(7,102)                1.0244         estimate D2E/DX2                !
 ! R13   R(8,9)                  1.3615         estimate D2E/DX2                !
 ! R14   R(8,14)                 1.7394         estimate D2E/DX2                !
 ! R15   R(9,10)                 1.3479         estimate D2E/DX2                !
 ! R16   R(9,12)                 1.407          estimate D2E/DX2                !
 ! R17   R(10,11)                1.4406         estimate D2E/DX2                !
 ! R18   R(11,103)               1.1126         estimate D2E/DX2                !
 ! R19   R(11,104)               1.1129         estimate D2E/DX2                !
 ! R20   R(11,105)               1.131          estimate D2E/DX2                !
 ! R21   R(12,13)                1.3364         estimate D2E/DX2                !
 ! R22   R(12,106)               1.1767         estimate D2E/DX2                !
 ! R23   R(13,14)                1.794          estimate D2E/DX2                !
 ! R24   R(13,15)                1.4266         estimate D2E/DX2                !
 ! R25   R(15,16)                1.4301         estimate D2E/DX2                !
 ! R26   R(15,21)                1.3724         estimate D2E/DX2                !
 ! R27   R(16,17)                1.3544         estimate D2E/DX2                !
 ! R28   R(16,107)               1.1587         estimate D2E/DX2                !
 ! R29   R(17,18)                1.4071         estimate D2E/DX2                !
 ! R30   R(17,108)               1.1277         estimate D2E/DX2                !
 ! R31   R(18,19)                1.4209         estimate D2E/DX2                !
 ! R32   R(18,22)                1.4201         estimate D2E/DX2                !
 ! R33   R(19,20)                1.4035         estimate D2E/DX2                !
 ! R34   R(19,21)                1.3507         estimate D2E/DX2                !
 ! R35   R(21,109)               1.1738         estimate D2E/DX2                !
 ! R36   R(22,23)                1.4388         estimate D2E/DX2                !
 ! R37   R(22,28)                1.7426         estimate D2E/DX2                !
 ! R38   R(23,24)                1.3394         estimate D2E/DX2                !
 ! R39   R(23,26)                1.3857         estimate D2E/DX2                !
 ! R40   R(24,25)                1.3917         estimate D2E/DX2                !
 ! R41   R(25,110)               1.0585         estimate D2E/DX2                !
 ! R42   R(25,111)               1.0637         estimate D2E/DX2                !
 ! R43   R(25,112)               1.1801         estimate D2E/DX2                !
 ! R44   R(26,27)                1.3548         estimate D2E/DX2                !
 ! R45   R(26,113)               1.1242         estimate D2E/DX2                !
 ! R46   R(27,28)                1.6923         estimate D2E/DX2                !
 ! R47   R(27,29)                1.524          estimate D2E/DX2                !
 ! R48   R(29,30)                1.4607         estimate D2E/DX2                !
 ! R49   R(29,35)                1.3673         estimate D2E/DX2                !
 ! R50   R(30,31)                1.4294         estimate D2E/DX2                !
 ! R51   R(30,114)               1.073          estimate D2E/DX2                !
 ! R52   R(31,32)                1.3409         estimate D2E/DX2                !
 ! R53   R(31,115)               1.0654         estimate D2E/DX2                !
 ! R54   R(32,33)                1.3351         estimate D2E/DX2                !
 ! R55   R(32,36)                1.5077         estimate D2E/DX2                !
 ! R56   R(33,34)                1.3635         estimate D2E/DX2                !
 ! R57   R(33,35)                1.395          estimate D2E/DX2                !
 ! R58   R(35,116)               1.1644         estimate D2E/DX2                !
 ! R59   R(36,37)                1.3734         estimate D2E/DX2                !
 ! R60   R(36,42)                1.7357         estimate D2E/DX2                !
 ! R61   R(37,38)                1.3877         estimate D2E/DX2                !
 ! R62   R(37,40)                1.4008         estimate D2E/DX2                !
 ! R63   R(38,39)                1.4748         estimate D2E/DX2                !
 ! R64   R(39,117)               1.0754         estimate D2E/DX2                !
 ! R65   R(39,118)               1.0663         estimate D2E/DX2                !
 ! R66   R(39,119)               1.0579         estimate D2E/DX2                !
 ! R67   R(40,41)                1.3416         estimate D2E/DX2                !
 ! R68   R(40,120)               1.1009         estimate D2E/DX2                !
 ! R69   R(41,42)                1.7391         estimate D2E/DX2                !
 ! R70   R(41,43)                1.487          estimate D2E/DX2                !
 ! R71   R(43,44)                1.4618         estimate D2E/DX2                !
 ! R72   R(43,49)                1.3291         estimate D2E/DX2                !
 ! R73   R(44,45)                1.4264         estimate D2E/DX2                !
 ! R74   R(44,121)               1.0342         estimate D2E/DX2                !
 ! R75   R(45,46)                1.4359         estimate D2E/DX2                !
 ! R76   R(45,122)               1.0678         estimate D2E/DX2                !
 ! R77   R(46,47)                1.3503         estimate D2E/DX2                !
 ! R78   R(46,50)                1.4737         estimate D2E/DX2                !
 ! R79   R(47,48)                1.322          estimate D2E/DX2                !
 ! R80   R(47,49)                1.4631         estimate D2E/DX2                !
 ! R81   R(49,123)               1.1238         estimate D2E/DX2                !
 ! R82   R(50,51)                1.3891         estimate D2E/DX2                !
 ! R83   R(50,56)                1.6325         estimate D2E/DX2                !
 ! R84   R(51,52)                1.3938         estimate D2E/DX2                !
 ! R85   R(51,54)                1.4209         estimate D2E/DX2                !
 ! R86   R(52,53)                1.3507         estimate D2E/DX2                !
 ! R87   R(53,124)               1.1555         estimate D2E/DX2                !
 ! R88   R(53,125)               1.1127         estimate D2E/DX2                !
 ! R89   R(53,126)               1.0756         estimate D2E/DX2                !
 ! R90   R(54,55)                1.4079         estimate D2E/DX2                !
 ! R91   R(54,127)               1.0965         estimate D2E/DX2                !
 ! R92   R(55,56)                1.7169         estimate D2E/DX2                !
 ! R93   R(55,57)                1.4332         estimate D2E/DX2                !
 ! R94   R(57,58)                1.3602         estimate D2E/DX2                !
 ! R95   R(57,63)                1.3682         estimate D2E/DX2                !
 ! R96   R(58,59)                1.3883         estimate D2E/DX2                !
 ! R97   R(58,128)               1.1192         estimate D2E/DX2                !
 ! R98   R(59,60)                1.4147         estimate D2E/DX2                !
 ! R99   R(59,129)               1.0491         estimate D2E/DX2                !
 ! R100  R(60,61)                1.3905         estimate D2E/DX2                !
 ! R101  R(60,64)                1.4343         estimate D2E/DX2                !
 ! R102  R(61,62)                1.4181         estimate D2E/DX2                !
 ! R103  R(61,63)                1.4063         estimate D2E/DX2                !
 ! R104  R(63,130)               1.0692         estimate D2E/DX2                !
 ! R105  R(64,65)                1.4398         estimate D2E/DX2                !
 ! R106  R(64,70)                1.7519         estimate D2E/DX2                !
 ! R107  R(65,66)                1.3233         estimate D2E/DX2                !
 ! R108  R(65,68)                1.3879         estimate D2E/DX2                !
 ! R109  R(66,67)                1.4266         estimate D2E/DX2                !
 ! R110  R(67,131)               1.1764         estimate D2E/DX2                !
 ! R111  R(67,132)               1.0547         estimate D2E/DX2                !
 ! R112  R(67,133)               1.0604         estimate D2E/DX2                !
 ! R113  R(68,69)                1.3757         estimate D2E/DX2                !
 ! R114  R(68,134)               1.042          estimate D2E/DX2                !
 ! R115  R(69,70)                1.7597         estimate D2E/DX2                !
 ! R116  R(69,71)                1.5121         estimate D2E/DX2                !
 ! R117  R(71,72)                1.4229         estimate D2E/DX2                !
 ! R118  R(71,77)                1.4063         estimate D2E/DX2                !
 ! R119  R(72,73)                1.3715         estimate D2E/DX2                !
 ! R120  R(72,135)               1.1253         estimate D2E/DX2                !
 ! R121  R(73,74)                1.4132         estimate D2E/DX2                !
 ! R122  R(73,136)               1.1088         estimate D2E/DX2                !
 ! R123  R(74,75)                1.4048         estimate D2E/DX2                !
 ! R124  R(74,78)                1.3928         estimate D2E/DX2                !
 ! R125  R(75,76)                1.3734         estimate D2E/DX2                !
 ! R126  R(75,77)                1.3538         estimate D2E/DX2                !
 ! R127  R(77,137)               1.0359         estimate D2E/DX2                !
 ! R128  R(78,79)                1.4006         estimate D2E/DX2                !
 ! R129  R(78,84)                1.6951         estimate D2E/DX2                !
 ! R130  R(79,80)                1.4347         estimate D2E/DX2                !
 ! R131  R(79,82)                1.4218         estimate D2E/DX2                !
 ! R132  R(80,81)                1.4245         estimate D2E/DX2                !
 ! R133  R(81,138)               1.1326         estimate D2E/DX2                !
 ! R134  R(81,139)               1.1771         estimate D2E/DX2                !
 ! R135  R(81,140)               1.0773         estimate D2E/DX2                !
 ! R136  R(82,83)                1.3934         estimate D2E/DX2                !
 ! R137  R(82,141)               1.1393         estimate D2E/DX2                !
 ! R138  R(83,84)                1.6431         estimate D2E/DX2                !
 ! R139  R(83,85)                1.49           estimate D2E/DX2                !
 ! R140  R(85,86)                1.3965         estimate D2E/DX2                !
 ! R141  R(85,91)                1.3845         estimate D2E/DX2                !
 ! R142  R(86,87)                1.4367         estimate D2E/DX2                !
 ! R143  R(86,142)               1.069          estimate D2E/DX2                !
 ! R144  R(87,88)                1.3611         estimate D2E/DX2                !
 ! R145  R(87,143)               1.0844         estimate D2E/DX2                !
 ! R146  R(88,89)                1.4276         estimate D2E/DX2                !
 ! R147  R(88,92)                1.4273         estimate D2E/DX2                !
 ! R148  R(89,90)                1.2951         estimate D2E/DX2                !
 ! R149  R(89,91)                1.4539         estimate D2E/DX2                !
 ! R150  R(91,144)               1.1084         estimate D2E/DX2                !
 ! R151  R(92,93)                1.3913         estimate D2E/DX2                !
 ! R152  R(92,98)                1.7526         estimate D2E/DX2                !
 ! R153  R(93,94)                1.3617         estimate D2E/DX2                !
 ! R154  R(93,96)                1.3892         estimate D2E/DX2                !
 ! R155  R(94,95)                1.4326         estimate D2E/DX2                !
 ! R156  R(95,145)               1.1646         estimate D2E/DX2                !
 ! R157  R(95,146)               1.0674         estimate D2E/DX2                !
 ! R158  R(95,147)               1.0911         estimate D2E/DX2                !
 ! R159  R(96,97)                1.3646         estimate D2E/DX2                !
 ! R160  R(96,148)               1.1327         estimate D2E/DX2                !
 ! R161  R(97,98)                1.6912         estimate D2E/DX2                !
 ! R162  R(97,149)               1.0846         estimate D2E/DX2                !
 ! A1    A(2,1,7)              124.6636         estimate D2E/DX2                !
 ! A2    A(2,1,99)             116.9075         estimate D2E/DX2                !
 ! A3    A(7,1,99)             117.9903         estimate D2E/DX2                !
 ! A4    A(1,2,3)              117.5305         estimate D2E/DX2                !
 ! A5    A(1,2,100)            123.4826         estimate D2E/DX2                !
 ! A6    A(3,2,100)            118.4654         estimate D2E/DX2                !
 ! A7    A(2,3,4)              121.3697         estimate D2E/DX2                !
 ! A8    A(2,3,101)            117.2771         estimate D2E/DX2                !
 ! A9    A(4,3,101)            120.7632         estimate D2E/DX2                !
 ! A10   A(3,4,5)              117.572          estimate D2E/DX2                !
 ! A11   A(3,4,8)              120.9409         estimate D2E/DX2                !
 ! A12   A(5,4,8)              121.3611         estimate D2E/DX2                !
 ! A13   A(4,5,6)              122.5667         estimate D2E/DX2                !
 ! A14   A(4,5,7)              120.232          estimate D2E/DX2                !
 ! A15   A(6,5,7)              116.8285         estimate D2E/DX2                !
 ! A16   A(1,7,5)              117.975          estimate D2E/DX2                !
 ! A17   A(1,7,102)            123.7052         estimate D2E/DX2                !
 ! A18   A(5,7,102)            117.5774         estimate D2E/DX2                !
 ! A19   A(4,8,9)              129.0604         estimate D2E/DX2                !
 ! A20   A(4,8,14)             119.4651         estimate D2E/DX2                !
 ! A21   A(9,8,14)             111.4023         estimate D2E/DX2                !
 ! A22   A(8,9,10)             120.7482         estimate D2E/DX2                !
 ! A23   A(8,9,12)             112.1464         estimate D2E/DX2                !
 ! A24   A(10,9,12)            127.0134         estimate D2E/DX2                !
 ! A25   A(9,10,11)            115.6955         estimate D2E/DX2                !
 ! A26   A(10,11,103)          110.5482         estimate D2E/DX2                !
 ! A27   A(10,11,104)          115.8439         estimate D2E/DX2                !
 ! A28   A(10,11,105)          112.0183         estimate D2E/DX2                !
 ! A29   A(103,11,104)         107.1624         estimate D2E/DX2                !
 ! A30   A(103,11,105)         104.4497         estimate D2E/DX2                !
 ! A31   A(104,11,105)         106.0624         estimate D2E/DX2                !
 ! A32   A(9,12,13)            117.062          estimate D2E/DX2                !
 ! A33   A(9,12,106)           126.118          estimate D2E/DX2                !
 ! A34   A(13,12,106)          116.8137         estimate D2E/DX2                !
 ! A35   A(12,13,14)           107.9763         estimate D2E/DX2                !
 ! A36   A(12,13,15)           132.3005         estimate D2E/DX2                !
 ! A37   A(14,13,15)           119.7157         estimate D2E/DX2                !
 ! A38   A(8,14,13)             91.4101         estimate D2E/DX2                !
 ! A39   A(13,15,16)           124.2676         estimate D2E/DX2                !
 ! A40   A(13,15,21)           123.4173         estimate D2E/DX2                !
 ! A41   A(16,15,21)           112.2851         estimate D2E/DX2                !
 ! A42   A(15,16,17)           124.6623         estimate D2E/DX2                !
 ! A43   A(15,16,107)          116.492          estimate D2E/DX2                !
 ! A44   A(17,16,107)          118.8205         estimate D2E/DX2                !
 ! A45   A(16,17,18)           120.7081         estimate D2E/DX2                !
 ! A46   A(16,17,108)          121.4038         estimate D2E/DX2                !
 ! A47   A(18,17,108)          117.8247         estimate D2E/DX2                !
 ! A48   A(17,18,19)           115.4704         estimate D2E/DX2                !
 ! A49   A(17,18,22)           122.0352         estimate D2E/DX2                !
 ! A50   A(19,18,22)           122.3585         estimate D2E/DX2                !
 ! A51   A(18,19,20)           119.0341         estimate D2E/DX2                !
 ! A52   A(18,19,21)           121.027          estimate D2E/DX2                !
 ! A53   A(20,19,21)           119.8842         estimate D2E/DX2                !
 ! A54   A(15,21,19)           125.749          estimate D2E/DX2                !
 ! A55   A(15,21,109)          118.19           estimate D2E/DX2                !
 ! A56   A(19,21,109)          116.0518         estimate D2E/DX2                !
 ! A57   A(18,22,23)           127.1751         estimate D2E/DX2                !
 ! A58   A(18,22,28)           124.3721         estimate D2E/DX2                !
 ! A59   A(23,22,28)           108.2787         estimate D2E/DX2                !
 ! A60   A(22,23,24)           118.8423         estimate D2E/DX2                !
 ! A61   A(22,23,26)           113.3603         estimate D2E/DX2                !
 ! A62   A(24,23,26)           126.9706         estimate D2E/DX2                !
 ! A63   A(23,24,25)           113.9119         estimate D2E/DX2                !
 ! A64   A(24,25,110)          112.0687         estimate D2E/DX2                !
 ! A65   A(24,25,111)          113.4148         estimate D2E/DX2                !
 ! A66   A(24,25,112)          110.0212         estimate D2E/DX2                !
 ! A67   A(110,25,111)         111.2044         estimate D2E/DX2                !
 ! A68   A(110,25,112)         102.8707         estimate D2E/DX2                !
 ! A69   A(111,25,112)         106.5858         estimate D2E/DX2                !
 ! A70   A(23,26,27)           111.3867         estimate D2E/DX2                !
 ! A71   A(23,26,113)          125.8008         estimate D2E/DX2                !
 ! A72   A(27,26,113)          121.9387         estimate D2E/DX2                !
 ! A73   A(26,27,28)           114.7099         estimate D2E/DX2                !
 ! A74   A(26,27,29)           127.3485         estimate D2E/DX2                !
 ! A75   A(28,27,29)           117.7404         estimate D2E/DX2                !
 ! A76   A(22,28,27)            91.4946         estimate D2E/DX2                !
 ! A77   A(27,29,30)           118.2533         estimate D2E/DX2                !
 ! A78   A(27,29,35)           122.9867         estimate D2E/DX2                !
 ! A79   A(30,29,35)           118.7011         estimate D2E/DX2                !
 ! A80   A(29,30,31)           115.6231         estimate D2E/DX2                !
 ! A81   A(29,30,114)          121.4564         estimate D2E/DX2                !
 ! A82   A(31,30,114)          122.8134         estimate D2E/DX2                !
 ! A83   A(30,31,32)           121.8392         estimate D2E/DX2                !
 ! A84   A(30,31,115)          112.9995         estimate D2E/DX2                !
 ! A85   A(32,31,115)          125.1454         estimate D2E/DX2                !
 ! A86   A(31,32,33)           122.4177         estimate D2E/DX2                !
 ! A87   A(31,32,36)           116.3794         estimate D2E/DX2                !
 ! A88   A(33,32,36)           121.0836         estimate D2E/DX2                !
 ! A89   A(32,33,34)           124.241          estimate D2E/DX2                !
 ! A90   A(32,33,35)           119.2811         estimate D2E/DX2                !
 ! A91   A(34,33,35)           116.4194         estimate D2E/DX2                !
 ! A92   A(29,35,33)           122.0941         estimate D2E/DX2                !
 ! A93   A(29,35,116)          119.0923         estimate D2E/DX2                !
 ! A94   A(33,35,116)          118.8027         estimate D2E/DX2                !
 ! A95   A(32,36,37)           132.7886         estimate D2E/DX2                !
 ! A96   A(32,36,42)           116.7135         estimate D2E/DX2                !
 ! A97   A(37,36,42)           110.498          estimate D2E/DX2                !
 ! A98   A(36,37,38)           116.1025         estimate D2E/DX2                !
 ! A99   A(36,37,40)           111.5051         estimate D2E/DX2                !
 ! A100  A(38,37,40)           132.1073         estimate D2E/DX2                !
 ! A101  A(37,38,39)           113.2987         estimate D2E/DX2                !
 ! A102  A(38,39,117)          105.9626         estimate D2E/DX2                !
 ! A103  A(38,39,118)          108.3507         estimate D2E/DX2                !
 ! A104  A(38,39,119)          107.5483         estimate D2E/DX2                !
 ! A105  A(117,39,118)         113.7758         estimate D2E/DX2                !
 ! A106  A(117,39,119)         110.8036         estimate D2E/DX2                !
 ! A107  A(118,39,119)         110.1051         estimate D2E/DX2                !
 ! A108  A(37,40,41)           116.7076         estimate D2E/DX2                !
 ! A109  A(37,40,120)          121.8548         estimate D2E/DX2                !
 ! A110  A(41,40,120)          121.4344         estimate D2E/DX2                !
 ! A111  A(40,41,42)           108.7898         estimate D2E/DX2                !
 ! A112  A(40,41,43)           131.0607         estimate D2E/DX2                !
 ! A113  A(42,41,43)           119.7674         estimate D2E/DX2                !
 ! A114  A(36,42,41)            92.4339         estimate D2E/DX2                !
 ! A115  A(41,43,44)           114.0172         estimate D2E/DX2                !
 ! A116  A(41,43,49)           125.7039         estimate D2E/DX2                !
 ! A117  A(44,43,49)           120.0311         estimate D2E/DX2                !
 ! A118  A(43,44,45)           117.9391         estimate D2E/DX2                !
 ! A119  A(43,44,121)          124.9204         estimate D2E/DX2                !
 ! A120  A(45,44,121)          116.7318         estimate D2E/DX2                !
 ! A121  A(44,45,46)           121.2793         estimate D2E/DX2                !
 ! A122  A(44,45,122)          116.4677         estimate D2E/DX2                !
 ! A123  A(46,45,122)          122.0545         estimate D2E/DX2                !
 ! A124  A(45,46,47)           117.632          estimate D2E/DX2                !
 ! A125  A(45,46,50)           120.6102         estimate D2E/DX2                !
 ! A126  A(47,46,50)           121.6871         estimate D2E/DX2                !
 ! A127  A(46,47,48)           121.1012         estimate D2E/DX2                !
 ! A128  A(46,47,49)           122.4366         estimate D2E/DX2                !
 ! A129  A(48,47,49)           116.3712         estimate D2E/DX2                !
 ! A130  A(43,49,47)           120.3386         estimate D2E/DX2                !
 ! A131  A(43,49,123)          122.983          estimate D2E/DX2                !
 ! A132  A(47,49,123)          116.0644         estimate D2E/DX2                !
 ! A133  A(46,50,51)           127.6583         estimate D2E/DX2                !
 ! A134  A(46,50,56)           119.4262         estimate D2E/DX2                !
 ! A135  A(51,50,56)           112.8224         estimate D2E/DX2                !
 ! A136  A(50,51,52)           123.6139         estimate D2E/DX2                !
 ! A137  A(50,51,54)           110.7589         estimate D2E/DX2                !
 ! A138  A(52,51,54)           125.5426         estimate D2E/DX2                !
 ! A139  A(51,52,53)           119.5            estimate D2E/DX2                !
 ! A140  A(52,53,124)          107.2399         estimate D2E/DX2                !
 ! A141  A(52,53,125)          110.6326         estimate D2E/DX2                !
 ! A142  A(52,53,126)          112.5644         estimate D2E/DX2                !
 ! A143  A(124,53,125)         107.3797         estimate D2E/DX2                !
 ! A144  A(124,53,126)         111.8488         estimate D2E/DX2                !
 ! A145  A(125,53,126)         107.0834         estimate D2E/DX2                !
 ! A146  A(51,54,55)           113.2899         estimate D2E/DX2                !
 ! A147  A(51,54,127)          125.0405         estimate D2E/DX2                !
 ! A148  A(55,54,127)          121.048          estimate D2E/DX2                !
 ! A149  A(54,55,56)           107.8565         estimate D2E/DX2                !
 ! A150  A(54,55,57)           129.8293         estimate D2E/DX2                !
 ! A151  A(56,55,57)           122.2758         estimate D2E/DX2                !
 ! A152  A(50,56,55)            95.0188         estimate D2E/DX2                !
 ! A153  A(55,57,58)           124.2472         estimate D2E/DX2                !
 ! A154  A(55,57,63)           117.486          estimate D2E/DX2                !
 ! A155  A(58,57,63)           118.0926         estimate D2E/DX2                !
 ! A156  A(57,58,59)           124.6248         estimate D2E/DX2                !
 ! A157  A(57,58,128)          117.9755         estimate D2E/DX2                !
 ! A158  A(59,58,128)          117.082          estimate D2E/DX2                !
 ! A159  A(58,59,60)           118.6049         estimate D2E/DX2                !
 ! A160  A(58,59,129)          123.3164         estimate D2E/DX2                !
 ! A161  A(60,59,129)          117.952          estimate D2E/DX2                !
 ! A162  A(59,60,61)           115.7207         estimate D2E/DX2                !
 ! A163  A(59,60,64)           120.1845         estimate D2E/DX2                !
 ! A164  A(61,60,64)           123.7998         estimate D2E/DX2                !
 ! A165  A(60,61,62)           120.5462         estimate D2E/DX2                !
 ! A166  A(60,61,63)           124.0635         estimate D2E/DX2                !
 ! A167  A(62,61,63)           114.994          estimate D2E/DX2                !
 ! A168  A(57,63,61)           118.6458         estimate D2E/DX2                !
 ! A169  A(57,63,130)          122.5321         estimate D2E/DX2                !
 ! A170  A(61,63,130)          118.8109         estimate D2E/DX2                !
 ! A171  A(60,64,65)           129.8246         estimate D2E/DX2                !
 ! A172  A(60,64,70)           120.8401         estimate D2E/DX2                !
 ! A173  A(65,64,70)           109.2178         estimate D2E/DX2                !
 ! A174  A(64,65,66)           115.7089         estimate D2E/DX2                !
 ! A175  A(64,65,68)           114.6796         estimate D2E/DX2                !
 ! A176  A(66,65,68)           129.5046         estimate D2E/DX2                !
 ! A177  A(65,66,67)           114.8082         estimate D2E/DX2                !
 ! A178  A(66,67,131)          110.5896         estimate D2E/DX2                !
 ! A179  A(66,67,132)          113.5234         estimate D2E/DX2                !
 ! A180  A(66,67,133)          111.1749         estimate D2E/DX2                !
 ! A181  A(131,67,132)         110.1347         estimate D2E/DX2                !
 ! A182  A(131,67,133)         104.9816         estimate D2E/DX2                !
 ! A183  A(132,67,133)         106.0079         estimate D2E/DX2                !
 ! A184  A(65,68,69)           111.6666         estimate D2E/DX2                !
 ! A185  A(65,68,134)          130.0609         estimate D2E/DX2                !
 ! A186  A(69,68,134)          118.2541         estimate D2E/DX2                !
 ! A187  A(68,69,70)           113.414          estimate D2E/DX2                !
 ! A188  A(68,69,71)           128.9938         estimate D2E/DX2                !
 ! A189  A(70,69,71)           117.4628         estimate D2E/DX2                !
 ! A190  A(64,70,69)            90.6813         estimate D2E/DX2                !
 ! A191  A(69,71,72)           119.8795         estimate D2E/DX2                !
 ! A192  A(69,71,77)           122.769          estimate D2E/DX2                !
 ! A193  A(72,71,77)           117.1158         estimate D2E/DX2                !
 ! A194  A(71,72,73)           121.4714         estimate D2E/DX2                !
 ! A195  A(71,72,135)          115.4815         estimate D2E/DX2                !
 ! A196  A(73,72,135)          122.9388         estimate D2E/DX2                !
 ! A197  A(72,73,74)           121.6129         estimate D2E/DX2                !
 ! A198  A(72,73,136)          118.9581         estimate D2E/DX2                !
 ! A199  A(74,73,136)          118.9768         estimate D2E/DX2                !
 ! A200  A(73,74,75)           114.4746         estimate D2E/DX2                !
 ! A201  A(73,74,78)           122.016          estimate D2E/DX2                !
 ! A202  A(75,74,78)           123.5012         estimate D2E/DX2                !
 ! A203  A(74,75,76)           118.3298         estimate D2E/DX2                !
 ! A204  A(74,75,77)           125.7549         estimate D2E/DX2                !
 ! A205  A(76,75,77)           115.5355         estimate D2E/DX2                !
 ! A206  A(71,77,75)           119.0072         estimate D2E/DX2                !
 ! A207  A(71,77,137)          119.7816         estimate D2E/DX2                !
 ! A208  A(75,77,137)          120.5914         estimate D2E/DX2                !
 ! A209  A(74,78,79)           130.1951         estimate D2E/DX2                !
 ! A210  A(74,78,84)           123.3094         estimate D2E/DX2                !
 ! A211  A(79,78,84)           106.4644         estimate D2E/DX2                !
 ! A212  A(78,79,80)           118.032          estimate D2E/DX2                !
 ! A213  A(78,79,82)           114.5954         estimate D2E/DX2                !
 ! A214  A(80,79,82)           127.1333         estimate D2E/DX2                !
 ! A215  A(79,80,81)           111.0077         estimate D2E/DX2                !
 ! A216  A(80,81,138)          113.4628         estimate D2E/DX2                !
 ! A217  A(80,81,139)          104.9958         estimate D2E/DX2                !
 ! A218  A(80,81,140)          110.7987         estimate D2E/DX2                !
 ! A219  A(138,81,139)         105.6622         estimate D2E/DX2                !
 ! A220  A(138,81,140)         115.7168         estimate D2E/DX2                !
 ! A221  A(139,81,140)         105.1021         estimate D2E/DX2                !
 ! A222  A(79,82,83)           110.8129         estimate D2E/DX2                !
 ! A223  A(79,82,141)          122.8344         estimate D2E/DX2                !
 ! A224  A(83,82,141)          125.737          estimate D2E/DX2                !
 ! A225  A(82,83,84)           110.2423         estimate D2E/DX2                !
 ! A226  A(82,83,85)           125.4851         estimate D2E/DX2                !
 ! A227  A(84,83,85)           124.2653         estimate D2E/DX2                !
 ! A228  A(78,84,83)            97.1369         estimate D2E/DX2                !
 ! A229  A(83,85,86)           119.7491         estimate D2E/DX2                !
 ! A230  A(83,85,91)           118.8971         estimate D2E/DX2                !
 ! A231  A(86,85,91)           121.3441         estimate D2E/DX2                !
 ! A232  A(85,86,87)           116.2671         estimate D2E/DX2                !
 ! A233  A(85,86,142)          122.3046         estimate D2E/DX2                !
 ! A234  A(87,86,142)          121.4252         estimate D2E/DX2                !
 ! A235  A(86,87,88)           125.803          estimate D2E/DX2                !
 ! A236  A(86,87,143)          113.0547         estimate D2E/DX2                !
 ! A237  A(88,87,143)          121.1125         estimate D2E/DX2                !
 ! A238  A(87,88,89)           116.6451         estimate D2E/DX2                !
 ! A239  A(87,88,92)           123.2801         estimate D2E/DX2                !
 ! A240  A(89,88,92)           119.9385         estimate D2E/DX2                !
 ! A241  A(88,89,90)           121.8797         estimate D2E/DX2                !
 ! A242  A(88,89,91)           119.4613         estimate D2E/DX2                !
 ! A243  A(90,89,91)           118.5251         estimate D2E/DX2                !
 ! A244  A(85,91,89)           120.3328         estimate D2E/DX2                !
 ! A245  A(85,91,144)          126.2925         estimate D2E/DX2                !
 ! A246  A(89,91,144)          113.3277         estimate D2E/DX2                !
 ! A247  A(88,92,93)           132.487          estimate D2E/DX2                !
 ! A248  A(88,92,98)           116.4046         estimate D2E/DX2                !
 ! A249  A(93,92,98)           110.5522         estimate D2E/DX2                !
 ! A250  A(92,93,94)           117.1333         estimate D2E/DX2                !
 ! A251  A(92,93,96)           111.8206         estimate D2E/DX2                !
 ! A252  A(94,93,96)           130.8255         estimate D2E/DX2                !
 ! A253  A(93,94,95)           112.6869         estimate D2E/DX2                !
 ! A254  A(94,95,145)          107.7554         estimate D2E/DX2                !
 ! A255  A(94,95,146)          110.8496         estimate D2E/DX2                !
 ! A256  A(94,95,147)          106.6833         estimate D2E/DX2                !
 ! A257  A(145,95,146)         107.2139         estimate D2E/DX2                !
 ! A258  A(145,95,147)         111.0733         estimate D2E/DX2                !
 ! A259  A(146,95,147)         113.1723         estimate D2E/DX2                !
 ! A260  A(93,96,97)           113.6407         estimate D2E/DX2                !
 ! A261  A(93,96,148)          128.0865         estimate D2E/DX2                !
 ! A262  A(97,96,148)          118.1725         estimate D2E/DX2                !
 ! A263  A(96,97,98)           112.7449         estimate D2E/DX2                !
 ! A264  A(96,97,149)          128.1449         estimate D2E/DX2                !
 ! A265  A(98,97,149)          118.9264         estimate D2E/DX2                !
 ! A266  A(92,98,97)            90.8849         estimate D2E/DX2                !
 ! D1    D(7,1,2,3)             -7.4277         estimate D2E/DX2                !
 ! D2    D(7,1,2,100)         -179.0024         estimate D2E/DX2                !
 ! D3    D(99,1,2,3)          -179.6511         estimate D2E/DX2                !
 ! D4    D(99,1,2,100)           8.7742         estimate D2E/DX2                !
 ! D5    D(2,1,7,5)              7.8465         estimate D2E/DX2                !
 ! D6    D(2,1,7,102)          177.7198         estimate D2E/DX2                !
 ! D7    D(99,1,7,5)           179.9927         estimate D2E/DX2                !
 ! D8    D(99,1,7,102)         -10.134          estimate D2E/DX2                !
 ! D9    D(1,2,3,4)              6.1159         estimate D2E/DX2                !
 ! D10   D(1,2,3,101)          177.3717         estimate D2E/DX2                !
 ! D11   D(100,2,3,4)          178.1253         estimate D2E/DX2                !
 ! D12   D(100,2,3,101)        -10.6189         estimate D2E/DX2                !
 ! D13   D(2,3,4,5)             -5.3738         estimate D2E/DX2                !
 ! D14   D(2,3,4,8)            178.6522         estimate D2E/DX2                !
 ! D15   D(101,3,4,5)         -176.3268         estimate D2E/DX2                !
 ! D16   D(101,3,4,8)            7.6992         estimate D2E/DX2                !
 ! D17   D(3,4,5,6)            178.471          estimate D2E/DX2                !
 ! D18   D(3,4,5,7)              5.7054         estimate D2E/DX2                !
 ! D19   D(8,4,5,6)             -5.5729         estimate D2E/DX2                !
 ! D20   D(8,4,5,7)           -178.3385         estimate D2E/DX2                !
 ! D21   D(3,4,8,9)            -10.8538         estimate D2E/DX2                !
 ! D22   D(3,4,8,14)           172.519          estimate D2E/DX2                !
 ! D23   D(5,4,8,9)            173.3258         estimate D2E/DX2                !
 ! D24   D(5,4,8,14)            -3.3014         estimate D2E/DX2                !
 ! D25   D(4,5,7,1)             -6.6938         estimate D2E/DX2                !
 ! D26   D(4,5,7,102)         -177.1955         estimate D2E/DX2                !
 ! D27   D(6,5,7,1)           -179.8634         estimate D2E/DX2                !
 ! D28   D(6,5,7,102)            9.6349         estimate D2E/DX2                !
 ! D29   D(4,8,9,10)             0.4817         estimate D2E/DX2                !
 ! D30   D(4,8,9,12)          -176.2683         estimate D2E/DX2                !
 ! D31   D(14,8,9,10)          177.3279         estimate D2E/DX2                !
 ! D32   D(14,8,9,12)            0.578          estimate D2E/DX2                !
 ! D33   D(4,8,14,13)          176.7435         estimate D2E/DX2                !
 ! D34   D(9,8,14,13)           -0.4441         estimate D2E/DX2                !
 ! D35   D(8,9,10,11)         -177.6796         estimate D2E/DX2                !
 ! D36   D(12,9,10,11)          -1.4502         estimate D2E/DX2                !
 ! D37   D(8,9,12,13)           -0.455          estimate D2E/DX2                !
 ! D38   D(8,9,12,106)        -179.5097         estimate D2E/DX2                !
 ! D39   D(10,9,12,13)        -176.9567         estimate D2E/DX2                !
 ! D40   D(10,9,12,106)          3.9886         estimate D2E/DX2                !
 ! D41   D(9,10,11,103)       -176.4937         estimate D2E/DX2                !
 ! D42   D(9,10,11,104)        -54.3725         estimate D2E/DX2                !
 ! D43   D(9,10,11,105)         67.4639         estimate D2E/DX2                !
 ! D44   D(9,12,13,14)           0.1073         estimate D2E/DX2                !
 ! D45   D(9,12,13,15)         179.0826         estimate D2E/DX2                !
 ! D46   D(106,12,13,14)       179.2517         estimate D2E/DX2                !
 ! D47   D(106,12,13,15)        -1.7729         estimate D2E/DX2                !
 ! D48   D(12,13,14,8)           0.1891         estimate D2E/DX2                !
 ! D49   D(15,13,14,8)        -178.9383         estimate D2E/DX2                !
 ! D50   D(12,13,15,16)        135.9347         estimate D2E/DX2                !
 ! D51   D(12,13,15,21)        -41.9192         estimate D2E/DX2                !
 ! D52   D(14,13,15,16)        -45.1874         estimate D2E/DX2                !
 ! D53   D(14,13,15,21)        136.9586         estimate D2E/DX2                !
 ! D54   D(13,15,16,17)       -177.6544         estimate D2E/DX2                !
 ! D55   D(13,15,16,107)         0.4918         estimate D2E/DX2                !
 ! D56   D(21,15,16,17)          0.4098         estimate D2E/DX2                !
 ! D57   D(21,15,16,107)       178.556          estimate D2E/DX2                !
 ! D58   D(13,15,21,19)        177.0207         estimate D2E/DX2                !
 ! D59   D(13,15,21,109)        -4.1348         estimate D2E/DX2                !
 ! D60   D(16,15,21,19)         -1.0627         estimate D2E/DX2                !
 ! D61   D(16,15,21,109)       177.7818         estimate D2E/DX2                !
 ! D62   D(15,16,17,18)          2.0229         estimate D2E/DX2                !
 ! D63   D(15,16,17,108)       179.0625         estimate D2E/DX2                !
 ! D64   D(107,16,17,18)      -176.0834         estimate D2E/DX2                !
 ! D65   D(107,16,17,108)        0.9562         estimate D2E/DX2                !
 ! D66   D(16,17,18,19)         -3.6347         estimate D2E/DX2                !
 ! D67   D(16,17,18,22)        172.2199         estimate D2E/DX2                !
 ! D68   D(108,17,18,19)       179.2223         estimate D2E/DX2                !
 ! D69   D(108,17,18,22)        -4.9232         estimate D2E/DX2                !
 ! D70   D(17,18,19,20)       -179.6407         estimate D2E/DX2                !
 ! D71   D(17,18,19,21)          3.0508         estimate D2E/DX2                !
 ! D72   D(22,18,19,20)          4.5196         estimate D2E/DX2                !
 ! D73   D(22,18,19,21)       -172.7889         estimate D2E/DX2                !
 ! D74   D(17,18,22,23)         69.8912         estimate D2E/DX2                !
 ! D75   D(17,18,22,28)       -115.4775         estimate D2E/DX2                !
 ! D76   D(19,18,22,23)       -114.5399         estimate D2E/DX2                !
 ! D77   D(19,18,22,28)         60.0914         estimate D2E/DX2                !
 ! D78   D(18,19,21,15)         -0.7186         estimate D2E/DX2                !
 ! D79   D(18,19,21,109)      -179.5849         estimate D2E/DX2                !
 ! D80   D(20,19,21,15)       -178.0044         estimate D2E/DX2                !
 ! D81   D(20,19,21,109)         3.1292         estimate D2E/DX2                !
 ! D82   D(18,22,23,24)         -5.9736         estimate D2E/DX2                !
 ! D83   D(18,22,23,26)       -176.2863         estimate D2E/DX2                !
 ! D84   D(28,22,23,24)        178.6915         estimate D2E/DX2                !
 ! D85   D(28,22,23,26)          8.3788         estimate D2E/DX2                !
 ! D86   D(18,22,28,27)       -179.3902         estimate D2E/DX2                !
 ! D87   D(23,22,28,27)         -3.8933         estimate D2E/DX2                !
 ! D88   D(22,23,24,25)        160.8137         estimate D2E/DX2                !
 ! D89   D(26,23,24,25)        -30.3349         estimate D2E/DX2                !
 ! D90   D(22,23,26,27)         -9.6151         estimate D2E/DX2                !
 ! D91   D(22,23,26,113)      -179.018          estimate D2E/DX2                !
 ! D92   D(24,23,26,27)       -178.9837         estimate D2E/DX2                !
 ! D93   D(24,23,26,113)        11.6135         estimate D2E/DX2                !
 ! D94   D(23,24,25,110)        79.6926         estimate D2E/DX2                !
 ! D95   D(23,24,25,111)       -47.2403         estimate D2E/DX2                !
 ! D96   D(23,24,25,112)      -166.5068         estimate D2E/DX2                !
 ! D97   D(23,26,27,28)          6.5406         estimate D2E/DX2                !
 ! D98   D(23,26,27,29)       -178.7741         estimate D2E/DX2                !
 ! D99   D(113,26,27,28)       176.4176         estimate D2E/DX2                !
 ! D100  D(113,26,27,29)        -8.8972         estimate D2E/DX2                !
 ! D101  D(26,27,28,22)         -1.3946         estimate D2E/DX2                !
 ! D102  D(29,27,28,22)       -176.6223         estimate D2E/DX2                !
 ! D103  D(26,27,29,30)        130.0379         estimate D2E/DX2                !
 ! D104  D(26,27,29,35)        -52.79           estimate D2E/DX2                !
 ! D105  D(28,27,29,30)        -55.4177         estimate D2E/DX2                !
 ! D106  D(28,27,29,35)        121.7545         estimate D2E/DX2                !
 ! D107  D(27,29,30,31)        179.7829         estimate D2E/DX2                !
 ! D108  D(27,29,30,114)         3.4437         estimate D2E/DX2                !
 ! D109  D(35,29,30,31)          2.4871         estimate D2E/DX2                !
 ! D110  D(35,29,30,114)      -173.8522         estimate D2E/DX2                !
 ! D111  D(27,29,35,33)       -179.0107         estimate D2E/DX2                !
 ! D112  D(27,29,35,116)         2.2076         estimate D2E/DX2                !
 ! D113  D(30,29,35,33)         -1.8505         estimate D2E/DX2                !
 ! D114  D(30,29,35,116)       179.3678         estimate D2E/DX2                !
 ! D115  D(29,30,31,32)         -1.9024         estimate D2E/DX2                !
 ! D116  D(29,30,31,115)       179.4752         estimate D2E/DX2                !
 ! D117  D(114,30,31,32)       174.3819         estimate D2E/DX2                !
 ! D118  D(114,30,31,115)       -4.2405         estimate D2E/DX2                !
 ! D119  D(30,31,32,33)          0.5592         estimate D2E/DX2                !
 ! D120  D(30,31,32,36)       -175.5069         estimate D2E/DX2                !
 ! D121  D(115,31,32,33)       179.0084         estimate D2E/DX2                !
 ! D122  D(115,31,32,36)         2.9422         estimate D2E/DX2                !
 ! D123  D(31,32,33,34)        177.3756         estimate D2E/DX2                !
 ! D124  D(31,32,33,35)          0.2626         estimate D2E/DX2                !
 ! D125  D(36,32,33,34)         -6.7398         estimate D2E/DX2                !
 ! D126  D(36,32,33,35)        176.1473         estimate D2E/DX2                !
 ! D127  D(31,32,36,37)         46.5777         estimate D2E/DX2                !
 ! D128  D(31,32,36,42)       -133.4022         estimate D2E/DX2                !
 ! D129  D(33,32,36,37)       -129.5448         estimate D2E/DX2                !
 ! D130  D(33,32,36,42)         50.4752         estimate D2E/DX2                !
 ! D131  D(32,33,35,29)          0.434          estimate D2E/DX2                !
 ! D132  D(32,33,35,116)       179.2192         estimate D2E/DX2                !
 ! D133  D(34,33,35,29)       -176.9011         estimate D2E/DX2                !
 ! D134  D(34,33,35,116)         1.884          estimate D2E/DX2                !
 ! D135  D(32,36,37,38)          5.0514         estimate D2E/DX2                !
 ! D136  D(32,36,37,40)        179.6697         estimate D2E/DX2                !
 ! D137  D(42,36,37,38)       -174.9677         estimate D2E/DX2                !
 ! D138  D(42,36,37,40)         -0.3495         estimate D2E/DX2                !
 ! D139  D(32,36,42,41)       -178.4733         estimate D2E/DX2                !
 ! D140  D(37,36,42,41)          1.5424         estimate D2E/DX2                !
 ! D141  D(36,37,38,39)        166.6612         estimate D2E/DX2                !
 ! D142  D(40,37,38,39)         -6.5841         estimate D2E/DX2                !
 ! D143  D(36,37,40,41)         -1.5645         estimate D2E/DX2                !
 ! D144  D(36,37,40,120)       179.0735         estimate D2E/DX2                !
 ! D145  D(38,37,40,41)        171.9168         estimate D2E/DX2                !
 ! D146  D(38,37,40,120)        -7.4452         estimate D2E/DX2                !
 ! D147  D(37,38,39,117)       -62.5029         estimate D2E/DX2                !
 ! D148  D(37,38,39,118)        59.9546         estimate D2E/DX2                !
 ! D149  D(37,38,39,119)       178.9493         estimate D2E/DX2                !
 ! D150  D(37,40,41,42)          2.6634         estimate D2E/DX2                !
 ! D151  D(37,40,41,43)        175.3678         estimate D2E/DX2                !
 ! D152  D(120,40,41,42)      -177.9717         estimate D2E/DX2                !
 ! D153  D(120,40,41,43)        -5.2673         estimate D2E/DX2                !
 ! D154  D(40,41,42,36)         -2.3424         estimate D2E/DX2                !
 ! D155  D(43,41,42,36)       -176.0094         estimate D2E/DX2                !
 ! D156  D(40,41,43,44)         42.7517         estimate D2E/DX2                !
 ! D157  D(40,41,43,49)       -143.0054         estimate D2E/DX2                !
 ! D158  D(42,41,43,44)       -145.2092         estimate D2E/DX2                !
 ! D159  D(42,41,43,49)         29.0337         estimate D2E/DX2                !
 ! D160  D(41,43,44,45)       -178.3643         estimate D2E/DX2                !
 ! D161  D(41,43,44,121)        -5.963          estimate D2E/DX2                !
 ! D162  D(49,43,44,45)          7.0345         estimate D2E/DX2                !
 ! D163  D(49,43,44,121)       179.4359         estimate D2E/DX2                !
 ! D164  D(41,43,49,47)        179.9528         estimate D2E/DX2                !
 ! D165  D(41,43,49,123)         9.2943         estimate D2E/DX2                !
 ! D166  D(44,43,49,47)         -6.1224         estimate D2E/DX2                !
 ! D167  D(44,43,49,123)      -176.781          estimate D2E/DX2                !
 ! D168  D(43,44,45,46)         -4.4987         estimate D2E/DX2                !
 ! D169  D(43,44,45,122)      -179.4811         estimate D2E/DX2                !
 ! D170  D(121,44,45,46)      -177.5258         estimate D2E/DX2                !
 ! D171  D(121,44,45,122)        7.4917         estimate D2E/DX2                !
 ! D172  D(44,45,46,47)          1.1712         estimate D2E/DX2                !
 ! D173  D(44,45,46,50)       -175.8234         estimate D2E/DX2                !
 ! D174  D(122,45,46,47)       175.8708         estimate D2E/DX2                !
 ! D175  D(122,45,46,50)        -1.1238         estimate D2E/DX2                !
 ! D176  D(45,46,47,48)       -176.4744         estimate D2E/DX2                !
 ! D177  D(45,46,47,49)         -0.0698         estimate D2E/DX2                !
 ! D178  D(50,46,47,48)          0.4859         estimate D2E/DX2                !
[...]
  Beta virt. eigenvalues --    2.63515   2.63568   2.63943   2.63985   2.64087
  Beta virt. eigenvalues --    2.64206   2.64425   2.66543   2.66674   2.67152
  Beta virt. eigenvalues --    2.67553   2.67575   2.68085   2.69567   2.73927
  Beta virt. eigenvalues --    2.74195   2.74847   2.75841   2.76361   2.77446
  Beta virt. eigenvalues --    2.78023   2.78963   2.79564   2.80247   2.80511
  Beta virt. eigenvalues --    2.81270   2.81771   2.81878   2.82549   2.83521
  Beta virt. eigenvalues --    2.83803   2.84584   2.85312   2.85782   2.86710
  Beta virt. eigenvalues --    2.88787   2.89245   2.89841   2.90548   2.90759
  Beta virt. eigenvalues --    2.91010   2.91286   2.95015   2.95427   2.96040
  Beta virt. eigenvalues --    2.96332   2.97350   2.97882   2.98104   2.99899
  Beta virt. eigenvalues --    3.00118   3.00271   3.00490   3.00873   3.01316
  Beta virt. eigenvalues --    3.01855   3.07456   3.07825   3.08186   3.09416
  Beta virt. eigenvalues --    3.10525   3.10679   3.11289   3.12974   3.13084
  Beta virt. eigenvalues --    3.13128   3.13202   3.13272   3.13524   3.14264
  Beta virt. eigenvalues --    3.16467   3.16533   3.16654   3.16783   3.16875
  Beta virt. eigenvalues --    3.16939   3.17009   3.45243   3.45415   3.45605
  Beta virt. eigenvalues --    3.45879   3.46019   3.47397   3.47752   3.48972
  Beta virt. eigenvalues --    3.50310   3.50450   3.50590   3.50750   3.50937
  Beta virt. eigenvalues --    3.54898   3.56097   3.56355   3.56569   3.57104
  Beta virt. eigenvalues --    3.57622   3.57936   3.59400   3.67519   3.67540
  Beta virt. eigenvalues --    3.67542   3.67641   3.67645   3.68106   3.68837
  Beta virt. eigenvalues --    3.72079   3.72101   3.72223   3.72233   3.72359
  Beta virt. eigenvalues --    3.72792   3.72910   3.86776   3.86838   3.86854
  Beta virt. eigenvalues --    3.86868   3.86869   3.87294   3.88282   4.09729
  Beta virt. eigenvalues --    4.09779   4.09835   4.09849   4.09869   4.09980
  Beta virt. eigenvalues --    4.11537   4.30389   4.30477   4.30514   4.30529
  Beta virt. eigenvalues --    4.30540   4.31075   4.31708
          Condensed to atoms (all electrons):
          Atomic-Atomic Spin Densities.
 Mulliken charges and spin densities:
               1          2
     1  C    0.009828  -0.000000
     2  C    0.012762  -0.000000
     3  C   -0.000867  -0.000000
     4  C   -0.014842  -0.000000
     5  C    0.086703   0.000000
     6  F   -0.132703  -0.000000
     7  C    0.002333   0.000000
     8  C   -0.188411   0.000000
     9  C    0.163058   0.000000
    10  O   -0.263850   0.000000
    11  C    0.045046  -0.000000
    12  C   -0.012210  -0.000000
    13  C   -0.155959   0.000000
    14  S    0.187844  -0.000000
    15  C    0.052655  -0.000000
    16  C    0.003107   0.000000
    17  C    0.009227   0.000000
    18  C   -0.002012  -0.000000
    19  C    0.096583   0.000000
    20  F   -0.131885  -0.000000
    21  C   -0.009259  -0.000000
    22  C   -0.189544  -0.000000
    23  C    0.158279  -0.000000
    24  O   -0.264341  -0.000000
    25  C    0.045090  -0.000000
    26  C   -0.009167   0.000000
    27  C   -0.155953   0.000000
    28  S    0.189015   0.000000
    29  C    0.051336  -0.000000
    30  C    0.002437   0.000000
    31  C    0.008185  -0.000000
    32  C   -0.002977  -0.000000
    33  C    0.096487  -0.000000
    34  F   -0.130653  -0.000000
    35  C   -0.007856   0.000000
    36  C   -0.188600   0.000000
    37  C    0.158812  -0.000000
    38  O   -0.264541  -0.000000
    39  C    0.045272  -0.000000
    40  C   -0.008772  -0.000000
    41  C   -0.154749   0.000000
    42  S    0.188266  -0.000000
    43  C    0.047243   0.000000
    44  C   -0.001141  -0.000000
    45  C    0.012658   0.000000
    46  C   -0.003534  -0.000000
    47  C    0.095389   0.000000
    48  F   -0.129702   0.000000
    49  C   -0.000541  -0.000000
    50  C   -0.190289  -0.000000
    51  C    0.157997   0.000000
    52  O   -0.265019   0.000000
    53  C    0.045088  -0.000000
    54  C   -0.009633   0.000000
    55  C   -0.155855   0.000000
    56  S    0.191147   0.000000
    57  C    0.051320   0.000000
    58  C    0.002330   0.000000
    59  C    0.009214   0.000000
    60  C   -0.002105  -0.000000
    61  C    0.097196   0.000000
    62  F   -0.130883  -0.000000
    63  C   -0.008731  -0.000000
    64  C   -0.190057  -0.000000
    65  C    0.157665   0.000000
    66  O   -0.264171   0.000000
    67  C    0.045209  -0.000000
    68  C   -0.009082   0.000000
    69  C   -0.154742  -0.000000
    70  S    0.190661   0.000000
    71  C    0.049349   0.000000
    72  C   -0.000879  -0.000000
    73  C    0.010372   0.000000
    74  C   -0.002379  -0.000000
    75  C    0.093005   0.000000
    76  F   -0.128731   0.000000
    77  C   -0.001022  -0.000000
    78  C   -0.188928  -0.000000
    79  C    0.157497  -0.000000
    80  O   -0.265361   0.000000
    81  C    0.045352  -0.000000
    82  C   -0.007356   0.000000
    83  C   -0.156293  -0.000000
    84  S    0.191869  -0.000000
    85  C    0.045186   0.000000
    86  C   -0.007795   0.000000
    87  C    0.030397  -0.000000
    88  C   -0.025707   0.000000
    89  C    0.126123  -0.000000
    90  F   -0.117218  -0.000000
    91  C   -0.011525  -0.000000
    92  C   -0.232650  -0.000000
    93  C    0.167668   0.000000
    94  O   -0.244190  -0.000000
    95  C    0.040347  -0.000000
    96  C   -0.005682  -0.000000
    97  C   -0.135890   0.000000
    98  S    0.173563  -0.000000
    99  H    0.008808   0.000000
   100  H    0.003733  -0.000000
   101  H    0.010112   0.000000
   102  H    0.018577   0.000000
   103  H    0.061956   0.000000
   104  H    0.051921   0.000000
   105  H    0.051125   0.000000
   106  H    0.009836   0.000000
   107  H    0.007020   0.000000
   108  H    0.011988   0.000000
   109  H    0.008951  -0.000000
   110  H    0.050798   0.000000
   111  H    0.054125  -0.000000
   112  H    0.063391   0.000000
   113  H    0.010798   0.000000
   114  H    0.007512   0.000000
   115  H    0.012265   0.000000
   116  H    0.009721   0.000000
   117  H    0.051362   0.000000
   118  H    0.052859   0.000000
   119  H    0.063239  -0.000000
   120  H    0.010140  -0.000000
   121  H   -0.005870   0.000000
   122  H    0.011077  -0.000000
   123  H    0.021492   0.000000
   124  H    0.054701   0.000000
   125  H    0.062446   0.000000
   126  H    0.050850   0.000000
   127  H    0.010964   0.000000
   128  H    0.008163  -0.000000
   129  H    0.012240   0.000000
   130  H    0.009498  -0.000000
   131  H    0.050105   0.000000
   132  H    0.053897   0.000000
   133  H    0.063516   0.000000
   134  H    0.010121  -0.000000
   135  H   -0.005913  -0.000000
   136  H    0.010996   0.000000
   137  H    0.022827  -0.000000
   138  H    0.051730  -0.000000
   139  H    0.061930  -0.000000
   140  H    0.052970   0.000000
   141  H    0.010171  -0.000000
   142  H   -0.003313   0.000000
   143  H    0.006464   0.000000
   144  H    0.021837   0.000000
   145  H    0.050021   0.000000
   146  H    0.046833   0.000000
   147  H    0.062812  -0.000000
   148  H    0.014772  -0.000000
   149  H    0.042496   0.000000
 Sum of Mulliken charges =  -0.00000   0.00000
 Mulliken charges and spin densities with hydrogens summed into heavy atoms:
               1          2
     1  C    0.018635   0.000000
     2  C    0.016494  -0.000000
     3  C    0.009245  -0.000000
     4  C   -0.014842  -0.000000
     5  C    0.086703   0.000000
     6  F   -0.132703  -0.000000
     7  C    0.020911   0.000000
     8  C   -0.188411   0.000000
     9  C    0.163058   0.000000
    10  O   -0.263850   0.000000
    11  C    0.210047   0.000000
    12  C   -0.002374  -0.000000
    13  C   -0.155959   0.000000
    14  S    0.187844  -0.000000
    15  C    0.052655  -0.000000
    16  C    0.010127   0.000000
    17  C    0.021215   0.000000
    18  C   -0.002012  -0.000000
    19  C    0.096583   0.000000
    20  F   -0.131885  -0.000000
    21  C   -0.000308  -0.000000
    22  C   -0.189544  -0.000000
    23  C    0.158279  -0.000000
    24  O   -0.264341  -0.000000
    25  C    0.213404  -0.000000
    26  C    0.001631   0.000000
    27  C   -0.155953   0.000000
    28  S    0.189015   0.000000
    29  C    0.051336  -0.000000
    30  C    0.009949   0.000000
    31  C    0.020450   0.000000
    32  C   -0.002977  -0.000000
    33  C    0.096487  -0.000000
    34  F   -0.130653  -0.000000
    35  C    0.001865   0.000000
    36  C   -0.188600   0.000000
    37  C    0.158812  -0.000000
    38  O   -0.264541  -0.000000
    39  C    0.212732  -0.000000
    40  C    0.001368  -0.000000
    41  C   -0.154749   0.000000
    42  S    0.188266  -0.000000
    43  C    0.047243   0.000000
    44  C   -0.007011   0.000000
    45  C    0.023734   0.000000
    46  C   -0.003534  -0.000000
    47  C    0.095389   0.000000
    48  F   -0.129702   0.000000
    49  C    0.020952  -0.000000
    50  C   -0.190289  -0.000000
    51  C    0.157997   0.000000
    52  O   -0.265019   0.000000
    53  C    0.213085  -0.000000
    54  C    0.001331   0.000000
    55  C   -0.155855   0.000000
    56  S    0.191147   0.000000
    57  C    0.051320   0.000000
    58  C    0.010493   0.000000
    59  C    0.021454   0.000000
    60  C   -0.002105  -0.000000
    61  C    0.097196   0.000000
    62  F   -0.130883  -0.000000
    63  C    0.000767  -0.000000
    64  C   -0.190057  -0.000000
    65  C    0.157665   0.000000
    66  O   -0.264171   0.000000
    67  C    0.212726   0.000000
    68  C    0.001038   0.000000
    69  C   -0.154742  -0.000000
    70  S    0.190661   0.000000
    71  C    0.049349   0.000000
    72  C   -0.006792  -0.000000
    73  C    0.021368   0.000000
    74  C   -0.002379  -0.000000
    75  C    0.093005   0.000000
    76  F   -0.128731   0.000000
    77  C    0.021805  -0.000000
    78  C   -0.188928  -0.000000
    79  C    0.157497  -0.000000
    80  O   -0.265361   0.000000
    81  C    0.211983  -0.000000
    82  C    0.002815   0.000000
    83  C   -0.156293  -0.000000
    84  S    0.191869  -0.000000
    85  C    0.045186   0.000000
    86  C   -0.011107   0.000000
    87  C    0.036861  -0.000000
    88  C   -0.025707   0.000000
    89  C    0.126123  -0.000000
    90  F   -0.117218  -0.000000
    91  C    0.010312  -0.000000
    92  C   -0.232650  -0.000000
    93  C    0.167668   0.000000
    94  O   -0.244190  -0.000000
    95  C    0.200014  -0.000000
    96  C    0.009090  -0.000000
    97  C   -0.093393   0.000000
    98  S    0.173563  -0.000000
 Electronic spatial extent (au):  <R**2>=         693021.4497
 Charge=              0.0000 electrons
 Dipole moment (field-independent basis, Debye):
    X=             -6.1469    Y=             -0.3886    Z=             -0.2695  Tot=              6.1651
 Quadrupole moment (field-independent basis, Debye-Ang):
   XX=           -446.6190   YY=           -507.7482   ZZ=           -587.5138
   XY=             97.5574   XZ=             34.4320   YZ=              4.5147
 Traceless Quadrupole moment (field-independent basis, Debye-Ang):
   XX=             67.3413   YY=              6.2121   ZZ=            -73.5535
   XY=             97.5574   XZ=             34.4320   YZ=              4.5147
 Octapole moment (field-independent basis, Debye-Ang**2):
  XXX=          -4405.3806  YYY=            -35.9587  ZZZ=            -63.3568  XYY=           -209.1098
  XXY=            136.5033  XXZ=           -676.2738  XZZ=           -200.8310  YZZ=             34.1475
  YYZ=             54.8218  XYZ=            586.8840
 Hexadecapole moment (field-independent basis, Debye-Ang**3):
 XXXX=        -713612.1749 YYYY=         -14820.0627 ZZZZ=          -4450.5400 XXXY=          26422.5386
 XXXZ=          23217.2854 YYYX=           2543.0936 YYYZ=            -43.5973 ZZZX=           2271.9620
 ZZZY=            -39.4194 XXYY=        -139266.4536 XXZZ=        -146705.5916 YYZZ=          -3359.9997
 XXYZ=            -62.2582 YYXZ=           -243.1641 ZZXY=           -567.4120
 N-N= 1.524427900850D+04 E-N=-4.689357898852D+04  KE= 6.941687039004D+03
 Leave Link  601 at Thu Jul 23 22:48:26 2020, MaxMem=  4026531840 cpu:              13.6 elap:               1.9
 (Enter /opt/ohpc/pub/libs/gaussian/g16-A.03/sandybridge/g16/l9999.exe)

 Test job not archived.
 1\1\GINC-SKYLAKE015\FOpt\ULC-wPBE\CC-pVDZ\C77H51F7O7S7\RDU230\23-Jul-2
 020\0\\#P uLC-wPBE/cc-pVDZ iop(3/107=0394000000, 3/108=0394000000) opt
 \\H51 C77 S7 O7 F7\\0,1\C,-27.1335525593,-2.5075050684,0.3551967409\C,
 -26.9263465978,-1.1548178606,0.5950209475\C,-25.6578010571,-0.60721281
 92,0.4717152946\C,-24.5537639416,-1.3857191237,0.1009719146\C,-24.8058
 126634,-2.7395456101,-0.1246739084\F,-23.7844762621,-3.5472008921,-0.4
 702613401\C,-26.0597511871,-3.3079719678,-0.0058044861\C,-23.210435292
 5,-0.8007128992,-0.0372399871\C,-22.8873687827,0.5093448235,-0.3189863
 46\O,-23.8497752076,1.4368192267,-0.5449563399\C,-23.4258408014,2.7150
 55361,-0.9609293808\C,-21.4866024997,0.7606988572,-0.3315015222\C,-20.
 7515706346,-0.3575928104,-0.0508143509\S,-21.76280635,-1.7186731258,0.
 2010192143\C,-19.2864350598,-0.4726247202,0.0224780512\C,-18.663619027
 ,-1.4021065637,0.8577051588\C,-17.2833238436,-1.4921891104,0.922223268
 5\C,-16.4491051408,-0.662587266,0.1619045591\C,-17.1034311306,0.259445
 3937,-0.656818378\F,-16.3717001536,1.0973543207,-1.4164046282\C,-18.47
 59130718,0.3647491734,-0.7425276846\C,-14.9847870308,-0.7637283191,0.2
 280291195\C,-14.2312407158,-1.8521691241,0.615313505\O,-14.8165357609,
 -3.0277938258,0.9477704398\C,-13.9652857482,-4.1227604587,1.2020854959
 \C,-12.830330924,-1.6034484052,0.6164430914\C,-12.5249563796,-0.326108
 6849,0.2354220418\S,-13.9399019009,0.5694136328,-0.1294681754\C,-11.18
 87392415,0.2777681067,0.1149063777\C,-10.9155598871,1.2802638304,-0.81
 78138424\C,-9.6500614468,1.8327085987,-0.9221011204\C,-8.5893664296,1.
 417799689,-0.1065182607\C,-8.8947227927,0.409802191,0.8095929141\F,-7.
 9274777605,-0.0484992293,1.6268124274\C,-10.1477603342,-0.1524389751,0
 .9362820694\C,-7.2484618864,2.008984014,-0.2158673999\C,-6.9118588593,
 3.2475344896,-0.7208907192\O,-7.8612320481,4.1062851514,-1.1646243094\
 C,-7.4371580869,5.3964401725,-1.5434613461\C,-5.5111998777,3.498368800
 2,-0.729217442\C,-4.7884424259,2.4466802577,-0.2383839248\S,-5.8126217
 311,1.1650925775,0.2580297912\C,-3.3263942695,2.3537477769,-0.09863731
 97\C,-2.5553640391,3.4936163794,0.1390322209\C,-1.1783337585,3.4121039
 109,0.2558936225\C,-0.4961888605,2.1922805021,0.1556242785\C,-1.296262
 1004,1.0733974806,-0.0798597401\F,-0.713884355,-0.1337007715,-0.206279
 4375\C,-2.6687410411,1.1300314942,-0.2096297749\C,0.9646080854,2.10739
 10123,0.2902030606\C,1.8049302154,2.9886512299,0.9380208729\O,1.317169
 8464,4.0669045087,1.5981227494\C,2.2340892059,4.8321983097,2.347730089
 5\C,3.1808582552,2.6404421854,0.8391747903\C,3.3812130631,1.4995417533
 ,0.1122640225\S,1.8973208189,0.8479451783,-0.4448274254\C,4.6626347861
 ,0.8427131986,-0.189800075\C,4.7582607437,-0.5397216945,-0.3613395997\
 C,5.9738378635,-1.1419354926,-0.6389815054\C,7.1578066513,-0.403095028
 8,-0.75959378\C,7.0282526227,0.9745528545,-0.5756437798\F,8.1219595862
 ,1.7545132715,-0.6704468746\C,5.8286264053,1.5983535094,-0.3035469917\
 C,8.4452851496,-1.0438761412,-1.0603528695\C,8.6587024688,-2.255897224
 3,-1.6830678819\O,7.6243707127,-2.9954149361,-2.15071065\C,7.941886912
 7,-4.1519297912,-2.8919856283\C,10.032569649,-2.6143336443,-1.77604619
 48\C,10.856965382,-1.6763309456,-1.2188512592\S,9.962657922,-0.3574040
 064,-0.5881278519\C,12.3258339013,-1.7114141763,-1.1406792394\C,13.006
 9848749,-2.9263517357,-1.038031993\C,14.3893462363,-2.9666677216,-0.97
 56335664\C,15.1676046784,-1.8019312874,-1.0081089092\C,14.4553873448,-
 0.6051671152,-1.0973649393\F,15.1313047661,0.5584042914,-1.1232829348\
 C,13.0789434233,-0.5389265768,-1.1658173201\C,16.6352132663,-1.8477091
 526,-0.9456247242\C,17.4612045802,-2.8973879028,-1.2892217655\O,16.957
 8643572,-4.0552254251,-1.7822195779\C,17.8832063355,-5.0217073498,-2.2
 264371476\C,18.8412858657,-2.6340411178,-1.0638109783\C,19.057541414,-
 1.3888623429,-0.5424313276\S,17.5873625699,-0.5293164055,-0.351548452\
 C,20.3508237443,-0.7814243389,-0.1856015821\C,21.50911179,-1.109264783
 ,-0.8942706613\C,22.7291014434,-0.5557839369,-0.5417252198\C,22.847561
 9325,0.3529446104,0.5121997644\C,21.6736475028,0.6821511928,1.18672986
 34\F,21.7184213413,1.576229919,2.1814838676\C,20.448851698,0.128767311
 4,0.8663653831\C,24.1374733577,0.9543396825,0.8804983005\C,24.71426310
 72,1.0168316818,2.1238191111\O,24.0949675092,0.4739341897,3.1942079533
 \C,24.6872713393,0.68870412,4.4536509514\C,25.9931602401,1.6556407474,
 2.1148589535\C,26.3539660339,2.0518792281,0.8634843963\S,25.1690744313
 ,1.6707274726,-0.3035854666\H,-28.1290826641,-2.9436356632,0.451825444
 8\H,-27.7607682528,-0.5150901564,0.8864794773\H,-25.5035553991,0.45299
 01839,0.6613168786\H,-26.1689513152,-4.3748021509,-0.2022164609\H,-24.
 3362990122,3.2937890769,-1.15391118\H,-22.8384293543,3.2233449349,-0.1
 791019572\H,-22.831486335,2.6616218301,-1.887147438\H,-21.0358758674,1
 .7343093752,-0.5103906978\H,-19.269364773,-2.0565405547,1.4868751178\H
 ,-16.8246842723,-2.2234781011,1.5839064659\H,-18.8944201692,1.09500076
 75,-1.4349541015\H,-13.3280607899,-3.9454349424,2.0835492632\H,-13.329
 9019867,-4.3503097453,0.331366829\H,-14.6182029375,-4.9799504962,1.401
 5953304\H,-12.0717010852,-2.344914469,0.856661883\H,-11.7025414771,1.6
 224016746,-1.4920792189\H,-9.4641230527,2.6092156557,-1.6605643572\H,-
 10.2965514995,-0.912307766,1.7033552724\H,-6.9281304167,5.9130683318,-
 0.7141431903\H,-6.7688551962,5.3635569157,-2.4190682446\H,-8.343441022
 7,5.9527130827,-1.8083232934\H,-5.0483831977,4.4056733408,-1.110577713
 8\H,-3.0432582591,4.4625075754,0.252268771\H,-0.6014227646,4.314631132
 4,0.4450054608\H,-3.2067905505,0.2033914793,-0.4130153411\H,2.73744347
 74,4.2214789584,3.1140434111\H,1.6488515294,5.6153039372,2.8428880303\
 H,2.9913379323,5.3056698256,1.7020501947\H,3.9923615874,3.1891485378,1
 .3118021864\H,3.8681084488,-1.162139193,-0.2552595351\H,6.0203537118,-
 2.2213384956,-0.7644437989\H,5.8223392799,2.6840156623,-0.2074300553\H
 ,8.4733187316,-4.8955920027,-2.2762829054\H,8.5501461541,-3.9088111361
 ,-3.7777593388\H,6.9873299554,-4.5785223908,-3.2202322393\H,10.4057045
 5,-3.5119077359,-2.2638602442\H,12.4435242894,-3.8584149681,-0.9792674
 022\H,14.8947608778,-3.9261310273,-0.8918169972\H,12.6135300758,0.4430
 978266,-1.2586142661\H,18.5401300124,-4.6189845216,-3.013882296\H,17.2
 92164367,-5.8459817261,-2.6414949886\H,18.4993553122,-5.4056651438,-1.
 3973703514\H,19.6442070218,-3.3440935697,-1.2483133695\H,21.4516053064
 ,-1.7956807465,-1.7397192636\H,23.6283605302,-0.8306227343,-1.09633947
 33\H,19.5780321229,0.4180538981,1.456073165\H,24.7820112941,1.76335769
 8,4.6790660671\H,25.6791834665,0.2124878811,4.5241333301\H,24.02006021
 08,0.2278251063,5.1907986102\H,26.6183633521,1.8090000826,2.9919937229
 \H,27.269446578,2.5616928995,0.5714344709\\Version=EM64L-G16RevA.03\St
 ate=1-A\HF=-6974.1169755\S2=0.\S2-1=0.\S2A=0.\RMSD=2.564e-09\RMSF=8.43
 0e-07\Dipole=2.4184617,-0.1676186,0.0779985\Quadrupole=50.2362725,3.36
 02806,-53.5965531,-76.1320768,10.8011537,8.3732752\PG=C01 [X(C77H51F7O
 7S7)]\\@


 AND HERE I AM, FOR ALL MY LORE,
 THE WRETCHED FOOL I WAS BEFORE.
 CALLED MASTER OF ARTS, AND DOCTOR TO BOOT,
 FOR TEN YEARS ALMOST I CONFUTE
 AND UP AND DOWN, WHEREVER IT GOES
 I DRAG MY STUDENTS BY THE NOSE --
 AND SEE THAT FOR ALL OUR SCIENCE AND ART
 WE CAN KNOW NOTHING.  IT BURNS MY HEART.

                                       -- FAUST
 Job cpu time:       3 days 16 hours 20 minutes 59.6 seconds.
 Elapsed time:       0 days 11 hours 13 minutes  0.3 seconds.
 File lengths (MBytes):  RWF=   3032 Int=      0 D2E=      0 Chk=    272 Scr=      8
 Normal termination of Gaussian 16 at Thu Jul 23 22:48:26 2020.
