 Entering Gaussian System, Link 0=g16
 Input=mols_66_7_17_n-n-cOC-cOC_opt_0.gjf
 Output=mols_66_7_17_n-n-cOC-cOC_opt_0.log
 Initial command:
 /opt/ohpc/pub/libs/gaussian/g16-A.03/sandybridge/g16/l1.exe "/mnt/gpfs2_4m/scratch/rdu230/ondemand/projects/dihedral_energies/7trial/wtuning/mols_66_7_17_n-n-cOC-cOC/Gau-240064.inp" -scrdir="/mnt/gpfs2_4m/scratch/rdu230/ondemand/projects/dihedral_energies/7trial/wtuning/mols_66_7_17_n-n-cOC-cOC/"
 Entering Link 1 = /opt/ohpc/pub/libs/gaussian/g16-A.03/sandybridge/g16/l1.exe PID=    240065.
  
 Copyright (c) 1988,1990,1992,1993,1995,1998,2003,2009,2016,
            Gaussian, Inc.  All Rights Reserved.
  
 This is part of the Gaussian(R) 16 program.  It is based on
 the Gaussian(R) 09 system (copyright 2009, Gaussian, Inc.),
 the Gaussian(R) 03 system (copyright 2003, Gaussian, Inc.),
 the Gaussian(R) 98 system (copyright 1998, Gaussian, Inc.),
 the Gaussian(R) 94 system (copyright 1995, Gaussian, Inc.),
 the Gaussian 92(TM) system (copyright 1992, Gaussian, Inc.),
 the Gaussian 90(TM) system (copyright 1990, Gaussian, Inc.),
 the Gaussian 88(TM) system (copyright 1988, Gaussian, Inc.),
 the Gaussian 86(TM) system (copyright 1986, Carnegie Mellon
 University), and the Gaussian 82(TM) system (copyright 1983,
 Carnegie Mellon University). Gaussian is a federally registered
 trademark of Gaussian, Inc.
  
 This software contains proprietary and confidential information,
 including trade secrets, belonging to Gaussian, Inc.
  
 This software is provided under written license and may be
 used, copied, transmitted, or stored only in accord with that
 written license.
  
 The following legend is applicable only to US Government
 contracts under FAR:
  
                    RESTRICTED RIGHTS LEGEND
  
 Use, reproduction and disclosure by the US Government is
 subject to restrictions as set forth in subparagraphs (a)
 and (c) of the Commercial Computer Software - Restricted
 Rights clause in FAR 52.227-19.
  
 Gaussian, Inc.
 340 Quinnipiac St., Bldg. 40, Wallingford CT 06492
  
  
 ---------------------------------------------------------------
 Warning -- This program may not be used in any manner that
 competes with the business of Gaussian, Inc. or will provide
 assistance to any competitor of Gaussian, Inc.  The licensee
 of this program is prohibited from giving any competitor of
 Gaussian, Inc. access to this program.  By using this program,
 the user acknowledges that Gaussian, Inc. is engaged in the
 business of creating and licensing software in the field of
 computational chemistry and represents and warrants to the
 licensee that it is not a competitor of Gaussian, Inc. and that
 it will not use this program in any manner prohibited above.
 ---------------------------------------------------------------
  

 Cite this work as:
 Gaussian 16, Revision A.03,
 M. J. Frisch, G. W. Trucks, H. B. Schlegel, G. E. Scuseria, 
 M. A. Robb, J. R. Cheeseman, G. Scalmani, V. Barone, 
 G. A. Petersson, H. Nakatsuji, X. Li, M. Caricato, A. V. Marenich, 
 J. Bloino, B. G. Janesko, R. Gomperts, B. Mennucci, H. P. Hratchian, 
 J. V. Ortiz, A. F. Izmaylov, J. L. Sonnenberg, D. Williams-Young, 
 F. Ding, F. Lipparini, F. Egidi, J. Goings, B. Peng, A. Petrone, 
 T. Henderson, D. Ranasinghe, V. G. Zakrzewski, J. Gao, N. Rega, 
 G. Zheng, W. Liang, M. Hada, M. Ehara, K. Toyota, R. Fukuda, 
 J. Hasegawa, M. Ishida, T. Nakajima, Y. Honda, O. Kitao, H. Nakai, 
 T. Vreven, K. Throssell, J. A. Montgomery, Jr., J. E. Peralta, 
 F. Ogliaro, M. J. Bearpark, J. J. Heyd, E. N. Brothers, K. N. Kudin, 
 V. N. Staroverov, T. A. Keith, R. Kobayashi, J. Normand, 
 K. Raghavachari, A. P. Rendell, J. C. Burant, S. S. Iyengar, 
 J. Tomasi, M. Cossi, J. M. Millam, M. Klene, C. Adamo, R. Cammi, 
 J. W. Ochterski, R. L. Martin, K. Morokuma, O. Farkas, 
 J. B. Foresman, and D. J. Fox, Gaussian, Inc., Wallingford CT, 2016.
 
 ******************************************
 Gaussian 16:  EM64L-G16RevA.03 25-Dec-2016
                25-Jul-2020 
 ******************************************
 %mem=30GB
 %nproc=8
 Will use up to    8 processors via shared memory.
 ---------------------------------------------------------------
 #P uLC-wPBE/cc-pVDZ iop(3/107=0061100000, 3/108=0061100000) opt
 ---------------------------------------------------------------
 1/18=20,19=15,26=3,38=1/1,3;
 2/9=110,12=2,17=6,18=5,40=1/2;
 3/5=16,11=2,25=1,30=1,71=1,74=-41,107=61100000,108=61100000,116=2/1,2,3;
 4//1;
 5/5=2,38=5/2;
 6/7=2,8=2,9=2,10=2,28=1/1;
 7//1,2,3,16;
 1/18=20,19=15,26=3/3(2);
 2/9=110/2;
 99//99;
 2/9=110/2;
 3/5=16,11=2,25=1,30=1,71=1,74=-41,107=61100000,108=61100000,116=2/1,2,3;
 4/5=5,16=3,69=1/1;
 5/5=2,38=5/2;
 7//1,2,3,16;
 1/18=20,19=15,26=3/3(-5);
 2/9=110/2;
 6/7=2,8=2,9=2,10=2,19=2,28=1/1;
 99/9=1/99;
 Leave Link    1 at Sat Jul 25 05:30:58 2020, MaxMem=  4026531840 cpu:               1.1 elap:               0.2
 (Enter /opt/ohpc/pub/libs/gaussian/g16-A.03/sandybridge/g16/l101.exe)
 ---------------
 H72 C84 N14 O14
 ---------------
 Symbolic Z-matrix:
 Charge =  0 Multiplicity = 1
 C                     28.1194   2.81658  -1.99825 
 C                     27.69993   3.02537  -0.70063 
 C                     26.42845   2.72387  -0.28562 
 O                     26.00181   2.88217   1.03525 
 C                     26.88468   3.34793   2.04722 
 C                     25.52718   2.28119  -1.20581 
 N                     25.86267   2.07132  -2.53643 
 C                     27.06161   2.34819  -2.86447 
 C                     24.11296   2.01435  -0.88995 
 N                     23.70323   0.63482  -1.02126 
 C                     22.46745   0.29503  -0.81863 
 C                     21.43086   1.20317  -0.37435 
 C                     21.84042   2.50874  -0.15916 
 C                     23.18736   2.96211  -0.52206 
 O                     23.63356   4.23677  -0.38843 
 C                     22.6204   5.22525  -0.00461 
 C                     20.09971   0.70122  -0.06084 
 C                     19.53814   0.76608   1.24307 
 C                     18.29212   0.27337   1.40701 
 O                     17.77212   0.27882   2.68836 
 C                     17.39902   1.50804   3.20647 
 C                     17.52419  -0.11527   0.32534 
 N                     18.05081  -0.18562  -0.98351 
 C                     19.28259   0.31764  -1.12166 
 C                     16.0802  -0.58719   0.43252 
 N                     15.23003   0.29519   0.81543 
 C                     13.89248  -0.05858   0.8869 
 C                     13.46013  -1.2851    0.55261 
 C                     14.38505  -2.21517   0.21759 
 C                     15.67778  -1.94088   0.15781 
 O                     16.64887  -2.84197  -0.25307 
 C                     16.51074  -3.14373  -1.64298 
 C                     11.97278  -1.53597   0.56957 
 C                     11.19537  -1.33732  -0.51218 
 C                     9.81701  -1.42692  -0.4621 
 O                     9.05607  -1.06474  -1.53041 
 C                     9.04468  -2.21855  -2.44851 
 C                     9.21965  -1.86375   0.72819 
 N                     10.04097  -2.19336   1.86465 
 C                     11.33924  -2.06497   1.71902 
 C                     7.82061  -1.98227   0.91688 
 N                     7.13908  -2.79066   0.04017 
 C                     5.75713  -2.73459   0.06532 
 C                     5.01068  -1.89011   0.85118 
 C                     5.6407   -1.15643   1.78164 
 C                     7.10056  -1.20842   1.8222 
 O                     7.66926  -0.27691   2.64023 
 C                     7.70883  -0.87272   3.97608 
 C                     3.52107  -1.77812   0.65969 
 C                     2.97782  -0.56858   0.20297 
 C                     1.55483  -0.49813   0.04251 
 O                     0.97937   0.62113  -0.39984 
 C                     1.70935   1.60269  -1.09737 
 C                     0.85248  -1.65328   0.21907 
 N                     1.37054  -2.86678   0.65534 
 C                     2.67064  -2.87973   0.77387 
 C                    -0.60817  -1.6171    0.07565 
 N                    -1.40823  -1.62487   1.20207 
 C                    -2.73093  -1.49508   1.02024 
 C                    -3.43765  -1.42128  -0.1703 
 C                    -2.64762  -1.4773   -1.35261 
 C                    -1.19531  -1.5424   -1.24307 
 O                    -0.4041   -1.57857  -2.33003 
 C                    -0.92402  -1.08099  -3.51743 
 C                    -4.90282  -1.366    -0.23039 
 C                    -5.69118  -2.29339   0.51345 
 C                    -7.09267  -2.20014   0.47233 
 O                    -7.8894   -3.07064   1.04006 
 C                    -7.34402  -4.20804   1.81638 
 C                    -7.66352  -1.20761  -0.27177 
 N                    -6.89647  -0.23784  -1.00098 
 C                    -5.49753  -0.3747   -0.86009 
 C                    -9.05255  -0.99713  -0.38443 
 N                    -9.66169   0.01036   0.41688 
 C                    -10.98338   0.20737   0.35061 
 C                    -11.89511  -0.63067  -0.41486 
 C                    -11.24397  -1.58859  -1.22539 
 C                    -9.89882  -1.79628  -1.23582 
 O                    -9.20469  -2.80672  -1.95166 
 C                    -10.056   -3.89216  -2.3922 
 C                    -13.28021  -0.40721  -0.34511 
 C                    -14.06228  -0.59224   0.71957 
 C                    -15.46543  -0.40303   0.78406 
 O                    -16.0838  -0.53223   1.92516 
 C                    -16.5059  -1.97402   2.06505 
 C                    -16.07131   0.05836  -0.45936 
 N                    -15.35789   0.26654  -1.60178 
 C                    -13.96204   0.00165  -1.50902 
 C                    -17.47655   0.44347  -0.48723 
 N                    -18.32538  -0.68112  -0.22185 
 C                    -19.65628  -0.31865  -0.1204 
 C                    -20.23394   0.92932  -0.35126 
 C                    -19.37251   1.9538   -0.65896 
 C                    -17.94964   1.66246  -0.6832 
 O                    -16.99538   2.65357  -1.01963 
 C                    -17.35096   3.9421   -0.57619 
 C                    -21.62636   1.17361  -0.17434 
 C                    -22.64684   0.63717  -0.99756 
 C                    -23.92348   0.88022  -0.74906 
 O                    -24.85825   0.38514  -1.64584 
 C                    -25.23707  -0.98841  -1.36078 
 C                    -24.32487   1.66656   0.25258 
 N                    -23.44242   2.20605   1.13389 
 C                    -22.12513   1.96928   0.91833 
 C                    -25.71567   2.05579   0.53315 
 N                    -26.50165   1.07205   1.04885 
 C                    -27.80782   1.36046   1.34394 
 C                    -28.3216   2.57917   1.14892 
 C                    -27.55526   3.5809    0.7073 
 C                    -26.27852   3.35652   0.37802 
 O                    -25.43196   4.36317  -0.18495 
 C                    -25.08092   5.2498    0.86156 
 H                     29.07948   2.97483  -2.37638 
 H                     28.4699   3.3202   -0.01448 
 H                     27.77293   2.60308   2.10729 
 H                     26.35075   3.29153   2.96812 
 H                     27.21399   4.33926   1.83939 
 H                     27.36306   2.24111  -3.90909 
 H                     22.25703  -0.79239  -0.92459 
 H                     21.13837   3.23548   0.13008 
 H                     22.3667   5.1437    1.01411 
 H                     21.84035   5.2883   -0.67292 
 H                     23.13507   6.25805  -0.09356 
 H                     20.1897   1.1095    2.03881 
 H                     16.81917   2.04546   2.51872 
 H                     16.8652   1.42463   4.15715 
 H                     18.32666   2.10132   3.44697 
 H                     19.621    0.2631   -2.17488 
 H                     13.22171   0.81208   1.21171 
 H                     13.99259  -3.27585   0.01597 
 H                     17.57448  -3.52105  -1.96493 
 H                     15.80133  -3.93495  -1.76983 
 H                     16.29969  -2.24451  -2.18355 
 H                     11.63183  -0.94198  -1.44788 
 H                     9.97618  -2.17309  -3.10211 
 H                     8.21515  -1.98875  -3.17009 
 H                     8.8401   -3.16605  -1.97288 
 H                     11.92517  -2.23392   2.64499 
 H                     5.26677  -3.45846  -0.68025 
 H                     5.17956  -0.46444   2.39284 
 H                     6.72842  -1.01659   4.39564 
 H                     8.31711  -0.16443   4.57491 
 H                     8.27571  -1.83397   4.02125 
 H                     3.66105   0.23383   0.11978 
 H                     2.42313   2.15538  -0.44899 
 H                     2.36482   1.12546  -1.86987 
 H                     1.12407   2.33447  -1.51828 
 H                     2.98998  -3.86164   1.13909 
 H                    -3.27564  -1.41808   1.99241 
 H                    -3.16554  -1.48151  -2.26264 
 H                    -1.30717  -0.0398   -3.37412 
 H                    -1.68708  -1.70709  -3.95489 
 H                    -0.09326  -0.94533  -4.25333 
 H                    -5.22117  -3.13939   1.04805 
 H                    -8.16258  -4.73071   2.18983 
 H                    -6.76982  -4.86864   1.13473 
 H                    -6.73831  -3.82579   2.62112 
 H                    -4.97289   0.35858  -1.40213 
 H                    -11.3837   0.96043   0.95996 
 H                    -11.93726  -2.23407  -1.76432 
 H                    -9.35151  -4.61222  -2.77752 
 H                    -10.65163  -3.56617  -3.22354 
 H                    -10.57929  -4.29823  -1.60716 
 H                    -13.53076  -0.97835   1.66645 
 H                    -15.6596  -2.51395   2.54149 
 H                    -17.38264  -1.98758   2.79954 
 H                    -16.83063  -2.40097   1.18298 
 H                    -13.52087   0.22929  -2.48325 
 H                    -20.30679  -1.25085   0.10876 
 H                    -19.75024   2.91595  -0.91773 
 H                    -16.51126   4.65838  -0.68293 
 H                    -18.16859   4.4596   -1.2258 
 H                    -17.61142   3.9769    0.51732 
 H                    -22.27812   0.00468  -1.83145 
 H                    -26.17567  -1.1702   -1.84276 
 H                    -24.44034  -1.59591  -1.73022 
 H                    -25.3553  -1.16458  -0.27529 
 H                    -21.40611   2.37059   1.65756 
 H                    -28.33865   0.45322   1.77237 
 H                    -29.42342   2.68329   1.3996 
 H                    -28.00973   4.51944   0.47 
 H                    -24.31439   5.9573    0.43156 
 H                    -25.89865   5.86526   1.25869 
 H                    -24.60335   4.71411   1.69085 
 
 ITRead=  0  0  0  0  0  0  0  0  0  0  0  0  0  0  0  0  0  0  0  0
 ITRead=  0  0  0  0  0  0  0  0  0  0  0  0  0  0  0  0  0  0  0  0
 ITRead=  0  0  0  0  0  0  0  0  0  0  0  0  0  0  0  0  0  0  0  0
 ITRead=  0  0  0  0  0  0  0  0  0  0  0  0  0  0  0  0  0  0  0  0
 ITRead=  0  0  0  0  0  0  0  0  0  0  0  0  0  0  0  0  0  0  0  0
 ITRead=  0  0  0  0  0  0  0  0  0  0  0  0  0  0  0  0  0  0  0  0
 ITRead=  0  0  0  0  0  0  0  0  0  0  0  0  0  0  0  0  0  0  0  0
 ITRead=  0  0  0  0  0  0  0  0  0  0  0  0  0  0  0  0  0  0  0  0
 ITRead=  0  0  0  0  0  0  0  0  0  0  0  0  0  0  0  0  0  0  0  0
 ITRead=  0  0  0  0
 MicOpt= -1 -1 -1 -1 -1 -1 -1 -1 -1 -1 -1 -1 -1 -1 -1 -1 -1 -1 -1 -1
 MicOpt= -1 -1 -1 -1 -1 -1 -1 -1 -1 -1 -1 -1 -1 -1 -1 -1 -1 -1 -1 -1
 MicOpt= -1 -1 -1 -1 -1 -1 -1 -1 -1 -1 -1 -1 -1 -1 -1 -1 -1 -1 -1 -1
 MicOpt= -1 -1 -1 -1 -1 -1 -1 -1 -1 -1 -1 -1 -1 -1 -1 -1 -1 -1 -1 -1
 MicOpt= -1 -1 -1 -1 -1 -1 -1 -1 -1 -1 -1 -1 -1 -1 -1 -1 -1 -1 -1 -1
 MicOpt= -1 -1 -1 -1 -1 -1 -1 -1 -1 -1 -1 -1 -1 -1 -1 -1 -1 -1 -1 -1
 MicOpt= -1 -1 -1 -1 -1 -1 -1 -1 -1 -1 -1 -1 -1 -1 -1 -1 -1 -1 -1 -1
 MicOpt= -1 -1 -1 -1 -1 -1 -1 -1 -1 -1 -1 -1 -1 -1 -1 -1 -1 -1 -1 -1
 MicOpt= -1 -1 -1 -1 -1 -1 -1 -1 -1 -1 -1 -1 -1 -1 -1 -1 -1 -1 -1 -1
 MicOpt= -1 -1 -1 -1
 NAtoms=    184 NQM=      184 NQMF=       0 NMMI=      0 NMMIF=      0
                NMic=       0 NMicF=      0.
                    Isotopes and Nuclear Properties:
 (Nuclear quadrupole moments (NQMom) in fm**2, nuclear magnetic moments (NMagM)
  in nuclear magnetons)

  Atom         1           2           3           4           5           6           7           8           9          10
 IAtWgt=          12          12          12          16          12          12          14          12          12          14
 AtmWgt=  12.0000000  12.0000000  12.0000000  15.9949146  12.0000000  12.0000000  14.0030740  12.0000000  12.0000000  14.0030740
 NucSpn=           0           0           0           0           0           0           2           0           0           2
 AtZEff=  -0.0000000  -0.0000000  -0.0000000  -0.0000000  -0.0000000  -0.0000000  -0.0000000  -0.0000000  -0.0000000  -0.0000000
 NQMom=    0.0000000   0.0000000   0.0000000   0.0000000   0.0000000   0.0000000   2.0440000   0.0000000   0.0000000   2.0440000
 NMagM=    0.0000000   0.0000000   0.0000000   0.0000000   0.0000000   0.0000000   0.4037610   0.0000000   0.0000000   0.4037610
 AtZNuc=   6.0000000   6.0000000   6.0000000   8.0000000   6.0000000   6.0000000   7.0000000   6.0000000   6.0000000   7.0000000

  Atom        11          12          13          14          15          16          17          18          19          20
 IAtWgt=          12          12          12          12          16          12          12          12          12          16
 AtmWgt=  12.0000000  12.0000000  12.0000000  12.0000000  15.9949146  12.0000000  12.0000000  12.0000000  12.0000000  15.9949146
 NucSpn=           0           0           0           0           0           0           0           0           0           0
 AtZEff=  -0.0000000  -0.0000000  -0.0000000  -0.0000000  -0.0000000  -0.0000000  -0.0000000  -0.0000000  -0.0000000  -0.0000000
 NQMom=    0.0000000   0.0000000   0.0000000   0.0000000   0.0000000   0.0000000   0.0000000   0.0000000   0.0000000   0.0000000
 NMagM=    0.0000000   0.0000000   0.0000000   0.0000000   0.0000000   0.0000000   0.0000000   0.0000000   0.0000000   0.0000000
 AtZNuc=   6.0000000   6.0000000   6.0000000   6.0000000   8.0000000   6.0000000   6.0000000   6.0000000   6.0000000   8.0000000

  Atom        21          22          23          24          25          26          27          28          29          30
 IAtWgt=          12          12          14          12          12          14          12          12          12          12
 AtmWgt=  12.0000000  12.0000000  14.0030740  12.0000000  12.0000000  14.0030740  12.0000000  12.0000000  12.0000000  12.0000000
 NucSpn=           0           0           2           0           0           2           0           0           0           0
 AtZEff=  -0.0000000  -0.0000000  -0.0000000  -0.0000000  -0.0000000  -0.0000000  -0.0000000  -0.0000000  -0.0000000  -0.0000000
 NQMom=    0.0000000   0.0000000   2.0440000   0.0000000   0.0000000   2.0440000   0.0000000   0.0000000   0.0000000   0.0000000
 NMagM=    0.0000000   0.0000000   0.4037610   0.0000000   0.0000000   0.4037610   0.0000000   0.0000000   0.0000000   0.0000000
 AtZNuc=   6.0000000   6.0000000   7.0000000   6.0000000   6.0000000   7.0000000   6.0000000   6.0000000   6.0000000   6.0000000

  Atom        31          32          33          34          35          36          37          38          39          40
 IAtWgt=          16          12          12          12          12          16          12          12          14          12
 AtmWgt=  15.9949146  12.0000000  12.0000000  12.0000000  12.0000000  15.9949146  12.0000000  12.0000000  14.0030740  12.0000000
 NucSpn=           0           0           0           0           0           0           0           0           2           0
 AtZEff=  -0.0000000  -0.0000000  -0.0000000  -0.0000000  -0.0000000  -0.0000000  -0.0000000  -0.0000000  -0.0000000  -0.0000000
 NQMom=    0.0000000   0.0000000   0.0000000   0.0000000   0.0000000   0.0000000   0.0000000   0.0000000   2.0440000   0.0000000
 NMagM=    0.0000000   0.0000000   0.0000000   0.0000000   0.0000000   0.0000000   0.0000000   0.0000000   0.4037610   0.0000000
 AtZNuc=   8.0000000   6.0000000   6.0000000   6.0000000   6.0000000   8.0000000   6.0000000   6.0000000   7.0000000   6.0000000

  Atom        41          42          43          44          45          46          47          48          49          50
 IAtWgt=          12          14          12          12          12          12          16          12          12          12
 AtmWgt=  12.0000000  14.0030740  12.0000000  12.0000000  12.0000000  12.0000000  15.9949146  12.0000000  12.0000000  12.0000000
 NucSpn=           0           2           0           0           0           0           0           0           0           0
 AtZEff=  -0.0000000  -0.0000000  -0.0000000  -0.0000000  -0.0000000  -0.0000000  -0.0000000  -0.0000000  -0.0000000  -0.0000000
 NQMom=    0.0000000   2.0440000   0.0000000   0.0000000   0.0000000   0.0000000   0.0000000   0.0000000   0.0000000   0.0000000
 NMagM=    0.0000000   0.4037610   0.0000000   0.0000000   0.0000000   0.0000000   0.0000000   0.0000000   0.0000000   0.0000000
 AtZNuc=   6.0000000   7.0000000   6.0000000   6.0000000   6.0000000   6.0000000   8.0000000   6.0000000   6.0000000   6.0000000

  Atom        51          52          53          54          55          56          57          58          59          60
 IAtWgt=          12          16          12          12          14          12          12          14          12          12
 AtmWgt=  12.0000000  15.9949146  12.0000000  12.0000000  14.0030740  12.0000000  12.0000000  14.0030740  12.0000000  12.0000000
 NucSpn=           0           0           0           0           2           0           0           2           0           0
 AtZEff=  -0.0000000  -0.0000000  -0.0000000  -0.0000000  -0.0000000  -0.0000000  -0.0000000  -0.0000000  -0.0000000  -0.0000000
 NQMom=    0.0000000   0.0000000   0.0000000   0.0000000   2.0440000   0.0000000   0.0000000   2.0440000   0.0000000   0.0000000
 NMagM=    0.0000000   0.0000000   0.0000000   0.0000000   0.4037610   0.0000000   0.0000000   0.4037610   0.0000000   0.0000000
 AtZNuc=   6.0000000   8.0000000   6.0000000   6.0000000   7.0000000   6.0000000   6.0000000   7.0000000   6.0000000   6.0000000

  Atom        61          62          63          64          65          66          67          68          69          70
 IAtWgt=          12          12          16          12          12          12          12          16          12          12
 AtmWgt=  12.0000000  12.0000000  15.9949146  12.0000000  12.0000000  12.0000000  12.0000000  15.9949146  12.0000000  12.0000000
 NucSpn=           0           0           0           0           0           0           0           0           0           0
 AtZEff=  -0.0000000  -0.0000000  -0.0000000  -0.0000000  -0.0000000  -0.0000000  -0.0000000  -0.0000000  -0.0000000  -0.0000000
 NQMom=    0.0000000   0.0000000   0.0000000   0.0000000   0.0000000   0.0000000   0.0000000   0.0000000   0.0000000   0.0000000
 NMagM=    0.0000000   0.0000000   0.0000000   0.0000000   0.0000000   0.0000000   0.0000000   0.0000000   0.0000000   0.0000000
 AtZNuc=   6.0000000   6.0000000   8.0000000   6.0000000   6.0000000   6.0000000   6.0000000   8.0000000   6.0000000   6.0000000

  Atom        71          72          73          74          75          76          77          78          79          80
 IAtWgt=          14          12          12          14          12          12          12          12          16          12
 AtmWgt=  14.0030740  12.0000000  12.0000000  14.0030740  12.0000000  12.0000000  12.0000000  12.0000000  15.9949146  12.0000000
 NucSpn=           2           0           0           2           0           0           0           0           0           0
 AtZEff=  -0.0000000  -0.0000000  -0.0000000  -0.0000000  -0.0000000  -0.0000000  -0.0000000  -0.0000000  -0.0000000  -0.0000000
 NQMom=    2.0440000   0.0000000   0.0000000   2.0440000   0.0000000   0.0000000   0.0000000   0.0000000   0.0000000   0.0000000
 NMagM=    0.4037610   0.0000000   0.0000000   0.4037610   0.0000000   0.0000000   0.0000000   0.0000000   0.0000000   0.0000000
 AtZNuc=   7.0000000   6.0000000   6.0000000   7.0000000   6.0000000   6.0000000   6.0000000   6.0000000   8.0000000   6.0000000

  Atom        81          82          83          84          85          86          87          88          89          90
 IAtWgt=          12          12          12          16          12          12          14          12          12          14
 AtmWgt=  12.0000000  12.0000000  12.0000000  15.9949146  12.0000000  12.0000000  14.0030740  12.0000000  12.0000000  14.0030740
 NucSpn=           0           0           0           0           0           0           2           0           0           2
 AtZEff=  -0.0000000  -0.0000000  -0.0000000  -0.0000000  -0.0000000  -0.0000000  -0.0000000  -0.0000000  -0.0000000  -0.0000000
 NQMom=    0.0000000   0.0000000   0.0000000   0.0000000   0.0000000   0.0000000   2.0440000   0.0000000   0.0000000   2.0440000
 NMagM=    0.0000000   0.0000000   0.0000000   0.0000000   0.0000000   0.0000000   0.4037610   0.0000000   0.0000000   0.4037610
 AtZNuc=   6.0000000   6.0000000   6.0000000   8.0000000   6.0000000   6.0000000   7.0000000   6.0000000   6.0000000   7.0000000

  Atom        91          92          93          94          95          96          97          98          99         100
 IAtWgt=          12          12          12          12          16          12          12          12          12          16
 AtmWgt=  12.0000000  12.0000000  12.0000000  12.0000000  15.9949146  12.0000000  12.0000000  12.0000000  12.0000000  15.9949146
 NucSpn=           0           0           0           0           0           0           0           0           0           0
 AtZEff=  -0.0000000  -0.0000000  -0.0000000  -0.0000000  -0.0000000  -0.0000000  -0.0000000  -0.0000000  -0.0000000  -0.0000000
 NQMom=    0.0000000   0.0000000   0.0000000   0.0000000   0.0000000   0.0000000   0.0000000   0.0000000   0.0000000   0.0000000
 NMagM=    0.0000000   0.0000000   0.0000000   0.0000000   0.0000000   0.0000000   0.0000000   0.0000000   0.0000000   0.0000000
 AtZNuc=   6.0000000   6.0000000   6.0000000   6.0000000   8.0000000   6.0000000   6.0000000   6.0000000   6.0000000   8.0000000

  Atom       101         102         103         104         105         106         107         108         109         110
 IAtWgt=          12          12          14          12          12          14          12          12          12          12
 AtmWgt=  12.0000000  12.0000000  14.0030740  12.0000000  12.0000000  14.0030740  12.0000000  12.0000000  12.0000000  12.0000000
 NucSpn=           0           0           2           0           0           2           0           0           0           0
 AtZEff=  -0.0000000  -0.0000000  -0.0000000  -0.0000000  -0.0000000  -0.0000000  -0.0000000  -0.0000000  -0.0000000  -0.0000000
 NQMom=    0.0000000   0.0000000   2.0440000   0.0000000   0.0000000   2.0440000   0.0000000   0.0000000   0.0000000   0.0000000
 NMagM=    0.0000000   0.0000000   0.4037610   0.0000000   0.0000000   0.4037610   0.0000000   0.0000000   0.0000000   0.0000000
 AtZNuc=   6.0000000   6.0000000   7.0000000   6.0000000   6.0000000   7.0000000   6.0000000   6.0000000   6.0000000   6.0000000

  Atom       111         112         113         114         115         116         117         118         119         120
 IAtWgt=          16          12           1           1           1           1           1           1           1           1
 AtmWgt=  15.9949146  12.0000000   1.0078250   1.0078250   1.0078250   1.0078250   1.0078250   1.0078250   1.0078250   1.0078250
 NucSpn=           0           0           1           1           1           1           1           1           1           1
 AtZEff=  -0.0000000  -0.0000000  -0.0000000  -0.0000000  -0.0000000  -0.0000000  -0.0000000  -0.0000000  -0.0000000  -0.0000000
 NQMom=    0.0000000   0.0000000   0.0000000   0.0000000   0.0000000   0.0000000   0.0000000   0.0000000   0.0000000   0.0000000
 NMagM=    0.0000000   0.0000000   2.7928460   2.7928460   2.7928460   2.7928460   2.7928460   2.7928460   2.7928460   2.7928460
 AtZNuc=   8.0000000   6.0000000   1.0000000   1.0000000   1.0000000   1.0000000   1.0000000   1.0000000   1.0000000   1.0000000

  Atom       121         122         123         124         125         126         127         128         129         130
 IAtWgt=           1           1           1           1           1           1           1           1           1           1
 AtmWgt=   1.0078250   1.0078250   1.0078250   1.0078250   1.0078250   1.0078250   1.0078250   1.0078250   1.0078250   1.0078250
 NucSpn=           1           1           1           1           1           1           1           1           1           1
 AtZEff=  -0.0000000  -0.0000000  -0.0000000  -0.0000000  -0.0000000  -0.0000000  -0.0000000  -0.0000000  -0.0000000  -0.0000000
 NQMom=    0.0000000   0.0000000   0.0000000   0.0000000   0.0000000   0.0000000   0.0000000   0.0000000   0.0000000   0.0000000
 NMagM=    2.7928460   2.7928460   2.7928460   2.7928460   2.7928460   2.7928460   2.7928460   2.7928460   2.7928460   2.7928460
 AtZNuc=   1.0000000   1.0000000   1.0000000   1.0000000   1.0000000   1.0000000   1.0000000   1.0000000   1.0000000   1.0000000

  Atom       131         132         133         134         135         136         137         138         139         140
 IAtWgt=           1           1           1           1           1           1           1           1           1           1
 AtmWgt=   1.0078250   1.0078250   1.0078250   1.0078250   1.0078250   1.0078250   1.0078250   1.0078250   1.0078250   1.0078250
 NucSpn=           1           1           1           1           1           1           1           1           1           1
 AtZEff=  -0.0000000  -0.0000000  -0.0000000  -0.0000000  -0.0000000  -0.0000000  -0.0000000  -0.0000000  -0.0000000  -0.0000000
 NQMom=    0.0000000   0.0000000   0.0000000   0.0000000   0.0000000   0.0000000   0.0000000   0.0000000   0.0000000   0.0000000
 NMagM=    2.7928460   2.7928460   2.7928460   2.7928460   2.7928460   2.7928460   2.7928460   2.7928460   2.7928460   2.7928460
 AtZNuc=   1.0000000   1.0000000   1.0000000   1.0000000   1.0000000   1.0000000   1.0000000   1.0000000   1.0000000   1.0000000

  Atom       141         142         143         144         145         146         147         148         149         150
 IAtWgt=           1           1           1           1           1           1           1           1           1           1
 AtmWgt=   1.0078250   1.0078250   1.0078250   1.0078250   1.0078250   1.0078250   1.0078250   1.0078250   1.0078250   1.0078250
 NucSpn=           1           1           1           1           1           1           1           1           1           1
 AtZEff=  -0.0000000  -0.0000000  -0.0000000  -0.0000000  -0.0000000  -0.0000000  -0.0000000  -0.0000000  -0.0000000  -0.0000000
 NQMom=    0.0000000   0.0000000   0.0000000   0.0000000   0.0000000   0.0000000   0.0000000   0.0000000   0.0000000   0.0000000
 NMagM=    2.7928460   2.7928460   2.7928460   2.7928460   2.7928460   2.7928460   2.7928460   2.7928460   2.7928460   2.7928460
 AtZNuc=   1.0000000   1.0000000   1.0000000   1.0000000   1.0000000   1.0000000   1.0000000   1.0000000   1.0000000   1.0000000

  Atom       151         152         153         154         155         156         157         158         159         160
 IAtWgt=           1           1           1           1           1           1           1           1           1           1
 AtmWgt=   1.0078250   1.0078250   1.0078250   1.0078250   1.0078250   1.0078250   1.0078250   1.0078250   1.0078250   1.0078250
 NucSpn=           1           1           1           1           1           1           1           1           1           1
 AtZEff=  -0.0000000  -0.0000000  -0.0000000  -0.0000000  -0.0000000  -0.0000000  -0.0000000  -0.0000000  -0.0000000  -0.0000000
 NQMom=    0.0000000   0.0000000   0.0000000   0.0000000   0.0000000   0.0000000   0.0000000   0.0000000   0.0000000   0.0000000
 NMagM=    2.7928460   2.7928460   2.7928460   2.7928460   2.7928460   2.7928460   2.7928460   2.7928460   2.7928460   2.7928460
 AtZNuc=   1.0000000   1.0000000   1.0000000   1.0000000   1.0000000   1.0000000   1.0000000   1.0000000   1.0000000   1.0000000

  Atom       161         162         163         164         165         166         167         168         169         170
 IAtWgt=           1           1           1           1           1           1           1           1           1           1
 AtmWgt=   1.0078250   1.0078250   1.0078250   1.0078250   1.0078250   1.0078250   1.0078250   1.0078250   1.0078250   1.0078250
 NucSpn=           1           1           1           1           1           1           1           1           1           1
 AtZEff=  -0.0000000  -0.0000000  -0.0000000  -0.0000000  -0.0000000  -0.0000000  -0.0000000  -0.0000000  -0.0000000  -0.0000000
 NQMom=    0.0000000   0.0000000   0.0000000   0.0000000   0.0000000   0.0000000   0.0000000   0.0000000   0.0000000   0.0000000
 NMagM=    2.7928460   2.7928460   2.7928460   2.7928460   2.7928460   2.7928460   2.7928460   2.7928460   2.7928460   2.7928460
 AtZNuc=   1.0000000   1.0000000   1.0000000   1.0000000   1.0000000   1.0000000   1.0000000   1.0000000   1.0000000   1.0000000

  Atom       171         172         173         174         175         176         177         178         179         180
 IAtWgt=           1           1           1           1           1           1           1           1           1           1
 AtmWgt=   1.0078250   1.0078250   1.0078250   1.0078250   1.0078250   1.0078250   1.0078250   1.0078250   1.0078250   1.0078250
 NucSpn=           1           1           1           1           1           1           1           1           1           1
 AtZEff=  -0.0000000  -0.0000000  -0.0000000  -0.0000000  -0.0000000  -0.0000000  -0.0000000  -0.0000000  -0.0000000  -0.0000000
 NQMom=    0.0000000   0.0000000   0.0000000   0.0000000   0.0000000   0.0000000   0.0000000   0.0000000   0.0000000   0.0000000
 NMagM=    2.7928460   2.7928460   2.7928460   2.7928460   2.7928460   2.7928460   2.7928460   2.7928460   2.7928460   2.7928460
 AtZNuc=   1.0000000   1.0000000   1.0000000   1.0000000   1.0000000   1.0000000   1.0000000   1.0000000   1.0000000   1.0000000

  Atom       181         182         183         184
 IAtWgt=           1           1           1           1
 AtmWgt=   1.0078250   1.0078250   1.0078250   1.0078250
 NucSpn=           1           1           1           1
 AtZEff=  -0.0000000  -0.0000000  -0.0000000  -0.0000000
 NQMom=    0.0000000   0.0000000   0.0000000   0.0000000
 NMagM=    2.7928460   2.7928460   2.7928460   2.7928460
 AtZNuc=   1.0000000   1.0000000   1.0000000   1.0000000
 Leave Link  101 at Sat Jul 25 05:30:59 2020, MaxMem=  4026531840 cpu:               3.6 elap:               0.5
 (Enter /opt/ohpc/pub/libs/gaussian/g16-A.03/sandybridge/g16/l103.exe)

 GradGradGradGradGradGradGradGradGradGradGradGradGradGradGradGradGradGrad
 Berny optimization.
 Initialization pass.
                           ----------------------------
                           !    Initial Parameters    !
                           ! (Angstroms and Degrees)  !
 --------------------------                            --------------------------
 ! Name  Definition              Value          Derivative Info.                !
 --------------------------------------------------------------------------------
 ! R1    R(1,2)                  1.3796         estimate D2E/DX2                !
 ! R2    R(1,8)                  1.4452         estimate D2E/DX2                !
 ! R3    R(1,113)                1.0439         estimate D2E/DX2                !
 ! R4    R(2,3)                  1.371          estimate D2E/DX2                !
 ! R5    R(2,114)                1.0727         estimate D2E/DX2                !
 ! R6    R(3,4)                  1.3971         estimate D2E/DX2                !
 ! R7    R(3,6)                  1.362          estimate D2E/DX2                !
 ! R8    R(4,5)                  1.4214         estimate D2E/DX2                !
 ! R9    R(5,115)                1.1608         estimate D2E/DX2                !
 ! R10   R(5,116)                1.066          estimate D2E/DX2                !
 ! R11   R(5,117)                1.0651         estimate D2E/DX2                !
 ! R12   R(6,7)                  1.3882         estimate D2E/DX2                !
 ! R13   R(6,9)                  1.4734         estimate D2E/DX2                !
 ! R14   R(7,8)                  1.2735         estimate D2E/DX2                !
 ! R15   R(8,118)                1.0925         estimate D2E/DX2                !
 ! R16   R(9,10)                 1.4451         estimate D2E/DX2                !
 ! R17   R(9,14)                 1.3749         estimate D2E/DX2                !
 ! R18   R(10,11)                1.2976         estimate D2E/DX2                !
 ! R19   R(11,12)                1.448          estimate D2E/DX2                !
 ! R20   R(11,119)               1.1126         estimate D2E/DX2                !
 ! R21   R(12,13)                1.3851         estimate D2E/DX2                !
 ! R22   R(12,17)                1.4568         estimate D2E/DX2                !
 ! R23   R(13,14)                1.4668         estimate D2E/DX2                !
 ! R24   R(13,120)               1.051          estimate D2E/DX2                !
 ! R25   R(14,15)                1.3571         estimate D2E/DX2                !
 ! R26   R(15,16)                1.4666         estimate D2E/DX2                !
 ! R27   R(16,121)               1.053          estimate D2E/DX2                !
 ! R28   R(16,122)               1.0291         estimate D2E/DX2                !
 ! R29   R(16,123)               1.1574         estimate D2E/DX2                !
 ! R30   R(17,18)                1.4212         estimate D2E/DX2                !
 ! R31   R(17,24)                1.3929         estimate D2E/DX2                !
 ! R32   R(18,19)                1.3499         estimate D2E/DX2                !
 ! R33   R(18,124)               1.0843         estimate D2E/DX2                !
 ! R34   R(19,20)                1.3829         estimate D2E/DX2                !
 ! R35   R(19,22)                1.3823         estimate D2E/DX2                !
 ! R36   R(20,21)                1.3851         estimate D2E/DX2                !
 ! R37   R(21,125)               1.0479         estimate D2E/DX2                !
 ! R38   R(21,126)               1.0935         estimate D2E/DX2                !
 ! R39   R(21,127)               1.1271         estimate D2E/DX2                !
 ! R40   R(22,23)                1.4126         estimate D2E/DX2                !
 ! R41   R(22,25)                1.5229         estimate D2E/DX2                !
 ! R42   R(23,24)                1.3378         estimate D2E/DX2                !
 ! R43   R(24,128)               1.1076         estimate D2E/DX2                !
 ! R44   R(25,26)                1.2837         estimate D2E/DX2                !
 ! R45   R(25,30)                1.4387         estimate D2E/DX2                !
 ! R46   R(26,27)                1.3854         estimate D2E/DX2                !
 ! R47   R(27,28)                1.3428         estimate D2E/DX2                !
 ! R48   R(27,129)               1.1461         estimate D2E/DX2                !
 ! R49   R(28,29)                1.3538         estimate D2E/DX2                !
 ! R50   R(28,33)                1.5085         estimate D2E/DX2                !
 ! R51   R(29,30)                1.3229         estimate D2E/DX2                !
 ! R52   R(29,130)               1.1488         estimate D2E/DX2                !
 ! R53   R(30,31)                1.387          estimate D2E/DX2                !
 ! R54   R(31,32)                1.429          estimate D2E/DX2                !
 ! R55   R(32,131)               1.1737         estimate D2E/DX2                !
 ! R56   R(32,132)               1.0702         estimate D2E/DX2                !
 ! R57   R(32,133)               1.0702         estimate D2E/DX2                !
 ! R58   R(33,34)                1.3469         estimate D2E/DX2                !
 ! R59   R(33,40)                1.4151         estimate D2E/DX2                !
 ! R60   R(34,35)                1.3822         estimate D2E/DX2                !
 ! R61   R(34,134)               1.1056         estimate D2E/DX2                !
 ! R62   R(35,36)                1.3607         estimate D2E/DX2                !
 ! R63   R(35,38)                1.4016         estimate D2E/DX2                !
 ! R64   R(36,37)                1.4746         estimate D2E/DX2                !
 ! R65   R(37,135)               1.1388         estimate D2E/DX2                !
 ! R66   R(37,136)               1.1232         estimate D2E/DX2                !
 ! R67   R(37,137)               1.0797         estimate D2E/DX2                !
 ! R68   R(38,39)                1.4404         estimate D2E/DX2                !
 ! R69   R(38,41)                1.4167         estimate D2E/DX2                !
 ! R70   R(39,40)                1.3127         estimate D2E/DX2                !
 ! R71   R(40,138)               1.1087         estimate D2E/DX2                !
 ! R72   R(41,42)                1.3735         estimate D2E/DX2                !
 ! R73   R(41,46)                1.3917         estimate D2E/DX2                !
 ! R74   R(42,43)                1.3833         estimate D2E/DX2                !
 ! R75   R(43,44)                1.374          estimate D2E/DX2                !
 ! R76   R(43,139)               1.1491         estimate D2E/DX2                !
 ! R77   R(44,45)                1.342          estimate D2E/DX2                !
 ! R78   R(44,49)                1.506          estimate D2E/DX2                !
 ! R79   R(45,46)                1.4613         estimate D2E/DX2                !
 ! R80   R(45,140)               1.032          estimate D2E/DX2                !
 ! R81   R(46,47)                1.3639         estimate D2E/DX2                !
 ! R82   R(47,48)                1.4632         estimate D2E/DX2                !
 ! R83   R(48,141)               1.0761         estimate D2E/DX2                !
 ! R84   R(48,142)               1.1092         estimate D2E/DX2                !
 ! R85   R(48,143)               1.1169         estimate D2E/DX2                !
 ! R86   R(49,50)                1.4024         estimate D2E/DX2                !
 ! R87   R(49,56)                1.3964         estimate D2E/DX2                !
 ! R88   R(50,51)                1.4337         estimate D2E/DX2                !
 ! R89   R(50,144)               1.0572         estimate D2E/DX2                !
 ! R90   R(51,52)                1.334          estimate D2E/DX2                !
 ! R91   R(51,54)                1.3634         estimate D2E/DX2                !
 ! R92   R(52,53)                1.4081         estimate D2E/DX2                !
 ! R93   R(53,145)               1.1115         estimate D2E/DX2                !
 ! R94   R(53,146)               1.1199         estimate D2E/DX2                !
 ! R95   R(53,147)               1.0272         estimate D2E/DX2                !
 ! R96   R(54,55)                1.3897         estimate D2E/DX2                !
 ! R97   R(54,57)                1.4681         estimate D2E/DX2                !
 ! R98   R(55,56)                1.3056         estimate D2E/DX2                !
 ! R99   R(56,148)               1.0952         estimate D2E/DX2                !
 ! R100  R(57,58)                1.3817         estimate D2E/DX2                !
 ! R101  R(57,62)                1.4454         estimate D2E/DX2                !
 ! R102  R(58,59)                1.3414         estimate D2E/DX2                !
 ! R103  R(59,60)                1.3865         estimate D2E/DX2                !
 ! R104  R(59,149)               1.117          estimate D2E/DX2                !
 ! R105  R(60,61)                1.4231         estimate D2E/DX2                !
 ! R106  R(60,65)                1.4674         estimate D2E/DX2                !
 ! R107  R(61,62)                1.4579         estimate D2E/DX2                !
 ! R108  R(61,150)               1.0471         estimate D2E/DX2                !
 ! R109  R(62,63)                1.3449         estimate D2E/DX2                !
 ! R110  R(63,64)                1.3885         estimate D2E/DX2                !
 ! R111  R(64,151)               1.1187         estimate D2E/DX2                !
 ! R112  R(64,152)               1.0796         estimate D2E/DX2                !
 ! R113  R(64,153)               1.1181         estimate D2E/DX2                !
 ! R114  R(65,66)                1.4265         estimate D2E/DX2                !
 ! R115  R(65,72)                1.3164         estimate D2E/DX2                !
 ! R116  R(66,67)                1.4052         estimate D2E/DX2                !
 ! R117  R(66,154)               1.1056         estimate D2E/DX2                !
 ! R118  R(67,68)                1.3095         estimate D2E/DX2                !
 ! R119  R(67,70)                1.3655         estimate D2E/DX2                !
 ! R120  R(68,69)                1.4811         estimate D2E/DX2                !
 ! R121  R(69,155)               1.0405         estimate D2E/DX2                !
 ! R122  R(69,156)               1.1094         estimate D2E/DX2                !
 ! R123  R(69,157)               1.0773         estimate D2E/DX2                !
 ! R124  R(70,71)                1.4355         estimate D2E/DX2                !
 ! R125  R(70,73)                1.4094         estimate D2E/DX2                !
 ! R126  R(71,72)                1.4127         estimate D2E/DX2                !
 ! R127  R(72,158)               1.052          estimate D2E/DX2                !
 ! R128  R(73,74)                1.4241         estimate D2E/DX2                !
 ! R129  R(73,78)                1.4421         estimate D2E/DX2                !
 ! R130  R(74,75)                1.3379         estimate D2E/DX2                !
 ! R131  R(75,76)                1.4559         estimate D2E/DX2                !
 ! R132  R(75,159)               1.0482         estimate D2E/DX2                !
 ! R133  R(76,77)                1.4137         estimate D2E/DX2                !
 ! R134  R(76,81)                1.4048         estimate D2E/DX2                !
 ! R135  R(77,78)                1.3611         estimate D2E/DX2                !
 ! R136  R(77,160)               1.0898         estimate D2E/DX2                !
 ! R137  R(78,79)                1.4196         estimate D2E/DX2                !
 ! R138  R(79,80)                1.4481         estimate D2E/DX2                !
 ! R139  R(80,161)               1.0785         estimate D2E/DX2                !
 ! R140  R(80,162)               1.0734         estimate D2E/DX2                !
 ! R141  R(80,163)               1.0271         estimate D2E/DX2                !
 ! R142  R(81,82)                1.3339         estimate D2E/DX2                !
 ! R143  R(81,88)                1.4095         estimate D2E/DX2                !
 ! R144  R(82,83)                1.4173         estimate D2E/DX2                !
 ! R145  R(82,164)               1.1525         estimate D2E/DX2                !
 ! R146  R(83,84)                1.3043         estimate D2E/DX2                !
 ! R147  R(83,86)                1.4581         estimate D2E/DX2                !
 ! R148  R(84,85)                1.5088         estimate D2E/DX2                !
 ! R149  R(85,165)               1.1112         estimate D2E/DX2                !
 ! R150  R(85,166)               1.1438         estimate D2E/DX2                !
 ! R151  R(85,167)               1.0324         estimate D2E/DX2                !
 ! R152  R(86,87)                1.3629         estimate D2E/DX2                !
 ! R153  R(86,89)                1.4573         estimate D2E/DX2                !
 ! R154  R(87,88)                1.4238         estimate D2E/DX2                !
 ! R155  R(88,168)               1.0934         estimate D2E/DX2                !
 ! R156  R(89,90)                1.4337         estimate D2E/DX2                !
 ! R157  R(89,94)                1.3222         estimate D2E/DX2                !
 ! R158  R(90,91)                1.3831         estimate D2E/DX2                !
 ! R159  R(91,92)                1.3944         estimate D2E/DX2                !
 ! R160  R(91,169)               1.1596         estimate D2E/DX2                !
 ! R161  R(92,93)                1.3734         estimate D2E/DX2                !
 ! R162  R(92,97)                1.4247         estimate D2E/DX2                !
 ! R163  R(93,94)                1.4526         estimate D2E/DX2                !
 ! R164  R(93,170)               1.0655         estimate D2E/DX2                !
 ! R165  R(94,95)                1.4164         estimate D2E/DX2                !
 ! R166  R(95,96)                1.4083         estimate D2E/DX2                !
 ! R167  R(96,171)               1.1089         estimate D2E/DX2                !
 ! R168  R(96,172)               1.1655         estimate D2E/DX2                !
 ! R169  R(96,173)               1.1246         estimate D2E/DX2                !
 ! R170  R(97,98)                1.4166         estimate D2E/DX2                !
 ! R171  R(97,104)               1.4408         estimate D2E/DX2                !
 ! R172  R(98,99)                1.3231         estimate D2E/DX2                !
 ! R173  R(98,174)               1.1097         estimate D2E/DX2                !
 ! R174  R(99,100)               1.3868         estimate D2E/DX2                !
 ! R175  R(99,102)               1.3352         estimate D2E/DX2                !
 ! R176  R(100,101)              1.4531         estimate D2E/DX2                !
 ! R177  R(101,175)              1.0707         estimate D2E/DX2                !
 ! R178  R(101,176)              1.0679         estimate D2E/DX2                !
 ! R179  R(101,177)              1.106          estimate D2E/DX2                !
 ! R180  R(102,103)              1.3589         estimate D2E/DX2                !
 ! R181  R(102,105)              1.4712         estimate D2E/DX2                !
 ! R182  R(103,104)              1.3556         estimate D2E/DX2                !
 ! R183  R(104,178)              1.1066         estimate D2E/DX2                !
 ! R184  R(105,106)              1.3607         estimate D2E/DX2                !
 ! R185  R(105,110)              1.4258         estimate D2E/DX2                !
 ! R186  R(106,107)              1.3698         estimate D2E/DX2                !
 ! R187  R(107,108)              1.3369         estimate D2E/DX2                !
 ! R188  R(107,179)              1.1351         estimate D2E/DX2                !
 ! R189  R(108,109)              1.3363         estimate D2E/DX2                !
 ! R190  R(108,180)              1.1348         estimate D2E/DX2                !
 ! R191  R(109,110)              1.3375         estimate D2E/DX2                !
 ! R192  R(109,181)              1.0694         estimate D2E/DX2                !
 ! R193  R(110,111)              1.4307         estimate D2E/DX2                !
 ! R194  R(111,112)              1.4158         estimate D2E/DX2                !
 ! R195  R(112,182)              1.1283         estimate D2E/DX2                !
 ! R196  R(112,183)              1.0978         estimate D2E/DX2                !
 ! R197  R(112,184)              1.0967         estimate D2E/DX2                !
 ! A1    A(2,1,8)              112.9701         estimate D2E/DX2                !
 ! A2    A(2,1,113)            126.6818         estimate D2E/DX2                !
 ! A3    A(8,1,113)            120.3428         estimate D2E/DX2                !
 ! A4    A(1,2,3)              122.2345         estimate D2E/DX2                !
 ! A5    A(1,2,114)            115.1505         estimate D2E/DX2                !
 ! A6    A(3,2,114)            122.1749         estimate D2E/DX2                !
 ! A7    A(2,3,4)              122.9888         estimate D2E/DX2                !
 ! A8    A(2,3,6)              118.7273         estimate D2E/DX2                !
 ! A9    A(4,3,6)              118.2631         estimate D2E/DX2                !
 ! A10   A(3,4,5)              121.3699         estimate D2E/DX2                !
 ! A11   A(4,5,115)            107.57           estimate D2E/DX2                !
 ! A12   A(4,5,116)            106.6548         estimate D2E/DX2                !
 ! A13   A(4,5,117)            110.9837         estimate D2E/DX2                !
 ! A14   A(115,5,116)          107.7358         estimate D2E/DX2                !
 ! A15   A(115,5,117)          111.7617         estimate D2E/DX2                !
 ! A16   A(116,5,117)          111.8817         estimate D2E/DX2                !
 ! A17   A(3,6,7)              122.4667         estimate D2E/DX2                !
 ! A18   A(3,6,9)              123.3102         estimate D2E/DX2                !
 ! A19   A(7,6,9)              114.2082         estimate D2E/DX2                !
 ! A20   A(6,7,8)              116.2036         estimate D2E/DX2                !
 ! A21   A(1,8,7)              127.2404         estimate D2E/DX2                !
 ! A22   A(1,8,118)            113.7606         estimate D2E/DX2                !
 ! A23   A(7,8,118)            118.9969         estimate D2E/DX2                !
 ! A24   A(6,9,10)             115.1858         estimate D2E/DX2                !
 ! A25   A(6,9,14)             125.3583         estimate D2E/DX2                !
 ! A26   A(10,9,14)            119.4391         estimate D2E/DX2                !
 ! A27   A(9,10,11)            120.3873         estimate D2E/DX2                !
 ! A28   A(10,11,12)           124.4353         estimate D2E/DX2                !
 ! A29   A(10,11,119)          114.9088         estimate D2E/DX2                !
 ! A30   A(12,11,119)          120.4505         estimate D2E/DX2                !
 ! A31   A(11,12,13)           115.2871         estimate D2E/DX2                !
 ! A32   A(11,12,17)           120.2704         estimate D2E/DX2                !
 ! A33   A(13,12,17)           124.1613         estimate D2E/DX2                !
 ! A34   A(12,13,14)           121.6294         estimate D2E/DX2                !
 ! A35   A(12,13,120)          119.8007         estimate D2E/DX2                !
 ! A36   A(14,13,120)          117.888          estimate D2E/DX2                !
 ! A37   A(9,14,13)            118.1216         estimate D2E/DX2                !
 ! A38   A(9,14,15)            116.9019         estimate D2E/DX2                !
 ! A39   A(13,14,15)           124.6019         estimate D2E/DX2                !
 ! A40   A(14,15,16)           115.5749         estimate D2E/DX2                !
 ! A41   A(15,16,121)          111.5568         estimate D2E/DX2                !
 ! A42   A(15,16,122)          113.264          estimate D2E/DX2                !
 ! A43   A(15,16,123)          105.9109         estimate D2E/DX2                !
 ! A44   A(121,16,122)         116.7688         estimate D2E/DX2                !
 ! A45   A(121,16,123)         104.5129         estimate D2E/DX2                !
 ! A46   A(122,16,123)         103.4438         estimate D2E/DX2                !
 ! A47   A(12,17,18)           122.874          estimate D2E/DX2                !
 ! A48   A(12,17,24)           117.8418         estimate D2E/DX2                !
 ! A49   A(18,17,24)           118.6534         estimate D2E/DX2                !
 ! A50   A(17,18,19)           117.3554         estimate D2E/DX2                !
 ! A51   A(17,18,124)          116.765          estimate D2E/DX2                !
 ! A52   A(19,18,124)          125.5317         estimate D2E/DX2                !
 ! A53   A(18,19,20)           117.2706         estimate D2E/DX2                !
 ! A54   A(18,19,22)           121.3579         estimate D2E/DX2                !
 ! A55   A(20,19,22)           121.1499         estimate D2E/DX2                !
 ! A56   A(19,20,21)           116.8323         estimate D2E/DX2                !
 ! A57   A(20,21,125)          111.0191         estimate D2E/DX2                !
 ! A58   A(20,21,126)          112.8927         estimate D2E/DX2                !
 ! A59   A(20,21,127)          108.9808         estimate D2E/DX2                !
 ! A60   A(125,21,126)         109.8522         estimate D2E/DX2                !
 ! A61   A(125,21,127)         108.9966         estimate D2E/DX2                !
 ! A62   A(126,21,127)         104.8587         estimate D2E/DX2                !
 ! A63   A(19,22,23)           122.137          estimate D2E/DX2                !
 ! A64   A(19,22,25)           123.9729         estimate D2E/DX2                !
 ! A65   A(23,22,25)           113.782          estimate D2E/DX2                !
 ! A66   A(22,23,24)           114.848          estimate D2E/DX2                !
 ! A67   A(17,24,23)           124.4098         estimate D2E/DX2                !
 ! A68   A(17,24,128)          123.9541         estimate D2E/DX2                !
 ! A69   A(23,24,128)          111.1613         estimate D2E/DX2                !
 ! A70   A(22,25,26)           115.8448         estimate D2E/DX2                !
 ! A71   A(22,25,30)           122.9113         estimate D2E/DX2                !
 ! A72   A(26,25,30)           121.2275         estimate D2E/DX2                !
 ! A73   A(25,26,27)           118.6374         estimate D2E/DX2                !
 ! A74   A(26,27,28)           122.091          estimate D2E/DX2                !
 ! A75   A(26,27,129)          112.6871         estimate D2E/DX2                !
 ! A76   A(28,27,129)          125.1719         estimate D2E/DX2                !
 ! A77   A(27,28,29)           117.9803         estimate D2E/DX2                !
 ! A78   A(27,28,33)           117.8128         estimate D2E/DX2                !
 ! A79   A(29,28,33)           124.2064         estimate D2E/DX2                !
 ! A80   A(28,29,30)           122.4373         estimate D2E/DX2                !
 ! A81   A(28,29,130)          116.3817         estimate D2E/DX2                !
 ! A82   A(30,29,130)          121.1556         estimate D2E/DX2                !
 ! A83   A(25,30,29)           117.3747         estimate D2E/DX2                !
 ! A84   A(25,30,31)           118.1643         estimate D2E/DX2                !
 ! A85   A(29,30,31)           124.2539         estimate D2E/DX2                !
 ! A86   A(30,31,32)           110.9559         estimate D2E/DX2                !
 ! A87   A(31,32,131)          104.3053         estimate D2E/DX2                !
 ! A88   A(31,32,132)          109.6022         estimate D2E/DX2                !
 ! A89   A(31,32,133)          109.4462         estimate D2E/DX2                !
 ! A90   A(131,32,132)         109.3033         estimate D2E/DX2                !
 ! A91   A(131,32,133)         108.0762         estimate D2E/DX2                !
 ! A92   A(132,32,133)         115.5058         estimate D2E/DX2                !
 ! A93   A(28,33,34)           122.3826         estimate D2E/DX2                !
 ! A94   A(28,33,40)           120.8468         estimate D2E/DX2                !
 ! A95   A(34,33,40)           116.6875         estimate D2E/DX2                !
 ! A96   A(33,34,35)           122.476          estimate D2E/DX2                !
 ! A97   A(33,34,134)          120.3067         estimate D2E/DX2                !
 ! A98   A(35,34,134)          116.5854         estimate D2E/DX2                !
 ! A99   A(34,35,36)           120.796          estimate D2E/DX2                !
 ! A100  A(34,35,38)           118.4247         estimate D2E/DX2                !
 ! A101  A(36,35,38)           120.755          estimate D2E/DX2                !
 ! A102  A(35,36,37)           106.552          estimate D2E/DX2                !
 ! A103  A(36,37,135)          108.65           estimate D2E/DX2                !
 ! A104  A(36,37,136)          104.2174         estimate D2E/DX2                !
 ! A105  A(36,37,137)          114.4456         estimate D2E/DX2                !
 ! A106  A(135,37,136)         103.1327         estimate D2E/DX2                !
 ! A107  A(135,37,137)         116.2845         estimate D2E/DX2                !
 ! A108  A(136,37,137)         108.8205         estimate D2E/DX2                !
 ! A109  A(35,38,39)           119.8903         estimate D2E/DX2                !
 ! A110  A(35,38,41)           124.062          estimate D2E/DX2                !
 ! A111  A(39,38,41)           116.0318         estimate D2E/DX2                !
 ! A112  A(38,39,40)           117.002          estimate D2E/DX2                !
 ! A113  A(33,40,39)           124.7125         estimate D2E/DX2                !
 ! A114  A(33,40,138)          119.9177         estimate D2E/DX2                !
 ! A115  A(39,40,138)          114.526          estimate D2E/DX2                !
 ! A116  A(38,41,42)           117.0154         estimate D2E/DX2                !
 ! A117  A(38,41,46)           123.44           estimate D2E/DX2                !
 ! A118  A(42,41,46)           119.0612         estimate D2E/DX2                !
 ! A119  A(41,42,43)           117.4022         estimate D2E/DX2                !
 ! A120  A(42,43,44)           125.3124         estimate D2E/DX2                !
 ! A121  A(42,43,139)          112.892          estimate D2E/DX2                !
 ! A122  A(44,43,139)          121.7671         estimate D2E/DX2                !
 ! A123  A(43,44,45)           118.5238         estimate D2E/DX2                !
 ! A124  A(43,44,49)           120.6848         estimate D2E/DX2                !
 ! A125  A(45,44,49)           120.7868         estimate D2E/DX2                !
 ! A126  A(44,45,46)           117.9551         estimate D2E/DX2                !
 ! A127  A(44,45,140)          124.5711         estimate D2E/DX2                !
 ! A128  A(46,45,140)          116.9872         estimate D2E/DX2                !
 ! A129  A(41,46,45)           121.2367         estimate D2E/DX2                !
 ! A130  A(41,46,47)           123.6535         estimate D2E/DX2                !
 ! A131  A(45,46,47)           114.1345         estimate D2E/DX2                !
 ! A132  A(46,47,48)           106.3036         estimate D2E/DX2                !
 ! A133  A(47,48,141)          112.6906         estimate D2E/DX2                !
 ! A134  A(47,48,142)          104.3415         estimate D2E/DX2                !
 ! A135  A(47,48,143)          113.6471         estimate D2E/DX2                !
 ! A136  A(141,48,142)         111.9956         estimate D2E/DX2                !
 ! A137  A(141,48,143)         109.3656         estimate D2E/DX2                !
 ! A138  A(142,48,143)         104.4427         estimate D2E/DX2                !
 ! A139  A(44,49,50)           119.2542         estimate D2E/DX2                !
 ! A140  A(44,49,56)           122.2308         estimate D2E/DX2                !
 ! A141  A(50,49,56)           118.1083         estimate D2E/DX2                !
 ! A142  A(49,50,51)           117.5998         estimate D2E/DX2                !
 ! A143  A(49,50,144)          115.4628         estimate D2E/DX2                !
 ! A144  A(51,50,144)          126.5367         estimate D2E/DX2                !
 ! A145  A(50,51,52)           120.4297         estimate D2E/DX2                !
 ! A146  A(50,51,54)           117.0753         estimate D2E/DX2                !
 ! A147  A(52,51,54)           122.1129         estimate D2E/DX2                !
 ! A148  A(51,52,53)           121.7003         estimate D2E/DX2                !
 ! A149  A(52,53,145)          112.9894         estimate D2E/DX2                !
 ! A150  A(52,53,146)          110.3695         estimate D2E/DX2                !
 ! A151  A(52,53,147)          113.8397         estimate D2E/DX2                !
 ! A152  A(145,53,146)         103.7938         estimate D2E/DX2                !
 ! A153  A(145,53,147)         104.5182         estimate D2E/DX2                !
 ! A154  A(146,53,147)         110.7572         estimate D2E/DX2                !
 ! A155  A(51,54,55)           126.0471         estimate D2E/DX2                !
 ! A156  A(51,54,57)           118.6199         estimate D2E/DX2                !
 ! A157  A(55,54,57)           115.0283         estimate D2E/DX2                !
 ! A158  A(54,55,56)           114.1032         estimate D2E/DX2                !
 ! A159  A(49,56,55)           126.245          estimate D2E/DX2                !
 ! A160  A(49,56,148)          123.8473         estimate D2E/DX2                !
 ! A161  A(55,56,148)          109.2402         estimate D2E/DX2                !
 ! A162  A(54,57,58)           119.7576         estimate D2E/DX2                !
 ! A163  A(54,57,62)           119.6384         estimate D2E/DX2                !
 ! A164  A(58,57,62)           120.5884         estimate D2E/DX2                !
 ! A165  A(57,58,59)           117.382          estimate D2E/DX2                !
 ! A166  A(58,59,60)           128.6201         estimate D2E/DX2                !
 ! A167  A(58,59,149)          111.6868         estimate D2E/DX2                !
 ! A168  A(60,59,149)          119.6762         estimate D2E/DX2                !
 ! A169  A(59,60,61)           115.3618         estimate D2E/DX2                !
 ! A170  A(59,60,65)           123.1004         estimate D2E/DX2                !
 ! A171  A(61,60,65)           121.4502         estimate D2E/DX2                !
 ! A172  A(60,61,62)           119.496          estimate D2E/DX2                !
 ! A173  A(60,61,150)          116.5909         estimate D2E/DX2                !
 ! A174  A(62,61,150)          123.9079         estimate D2E/DX2                !
 ! A175  A(57,62,61)           118.3919         estimate D2E/DX2                !
 ! A176  A(57,62,63)           119.8011         estimate D2E/DX2                !
 ! A177  A(61,62,63)           121.7702         estimate D2E/DX2                !
 ! A178  A(62,63,64)           117.4676         estimate D2E/DX2                !
 ! A179  A(63,64,151)          110.6241         estimate D2E/DX2                !
 ! A180  A(63,64,152)          113.7878         estimate D2E/DX2                !
 ! A181  A(63,64,153)          109.1551         estimate D2E/DX2                !
 ! A182  A(151,64,152)         110.4615         estimate D2E/DX2                !
 ! A183  A(151,64,153)         103.0546         estimate D2E/DX2                !
 ! A184  A(152,64,153)         109.1973         estimate D2E/DX2                !
 ! A185  A(60,65,66)           120.3955         estimate D2E/DX2                !
 ! A186  A(60,65,72)           119.9358         estimate D2E/DX2                !
 ! A187  A(66,65,72)           119.2962         estimate D2E/DX2                !
 ! A188  A(65,66,67)           119.5254         estimate D2E/DX2                !
 ! A189  A(65,66,154)          120.9741         estimate D2E/DX2                !
 ! A190  A(67,66,154)          119.2687         estimate D2E/DX2                !
 ! A191  A(66,67,68)           123.3677         estimate D2E/DX2                !
 ! A192  A(66,67,70)           118.7589         estimate D2E/DX2                !
 ! A193  A(68,67,70)           117.7142         estimate D2E/DX2                !
 ! A194  A(67,68,69)           120.909          estimate D2E/DX2                !
 ! A195  A(68,69,155)          106.5102         estimate D2E/DX2                !
 ! A196  A(68,69,156)          109.0142         estimate D2E/DX2                !
 ! A197  A(68,69,157)          109.0311         estimate D2E/DX2                !
 ! A198  A(155,69,156)         109.1827         estimate D2E/DX2                !
 ! A199  A(155,69,157)         110.6362         estimate D2E/DX2                !
 ! A200  A(156,69,157)         112.2874         estimate D2E/DX2                !
 ! A201  A(67,70,71)           122.9883         estimate D2E/DX2                !
 ! A202  A(67,70,73)           124.3408         estimate D2E/DX2                !
 ! A203  A(71,70,73)           112.6521         estimate D2E/DX2                !
 ! A204  A(70,71,72)           114.3964         estimate D2E/DX2                !
 ! A205  A(65,72,71)           124.6147         estimate D2E/DX2                !
 ! A206  A(65,72,158)          123.0963         estimate D2E/DX2                !
 ! A207  A(71,72,158)          112.0205         estimate D2E/DX2                !
 ! A208  A(70,73,74)           118.8306         estimate D2E/DX2                !
 ! A209  A(70,73,78)           122.8729         estimate D2E/DX2                !
 ! A210  A(74,73,78)           118.2429         estimate D2E/DX2                !
 ! A211  A(73,74,75)           119.9227         estimate D2E/DX2                !
 ! A212  A(74,75,76)           124.051          estimate D2E/DX2                !
 ! A213  A(74,75,159)          117.0185         estimate D2E/DX2                !
 ! A214  A(76,75,159)          118.6888         estimate D2E/DX2                !
 ! A215  A(75,76,77)           113.7694         estimate D2E/DX2                !
 ! A216  A(75,76,81)           119.9877         estimate D2E/DX2                !
 ! A217  A(77,76,81)           126.1864         estimate D2E/DX2                !
 ! A218  A(76,77,78)           124.2617         estimate D2E/DX2                !
 ! A219  A(76,77,160)          113.0689         estimate D2E/DX2                !
 ! A220  A(78,77,160)          122.3107         estimate D2E/DX2                !
 ! A221  A(73,78,77)           119.3967         estimate D2E/DX2                !
 ! A222  A(73,78,79)           113.904          estimate D2E/DX2                !
 ! A223  A(77,78,79)           126.5626         estimate D2E/DX2                !
 ! A224  A(78,79,80)           113.5453         estimate D2E/DX2                !
 ! A225  A(79,80,161)          103.0096         estimate D2E/DX2                !
 ! A226  A(79,80,162)          109.5234         estimate D2E/DX2                !
 ! A227  A(79,80,163)          111.305          estimate D2E/DX2                !
 ! A228  A(161,80,162)         106.7686         estimate D2E/DX2                !
 ! A229  A(161,80,163)         109.9921         estimate D2E/DX2                !
 ! A230  A(162,80,163)         115.4235         estimate D2E/DX2                !
 ! A231  A(76,81,82)           126.559          estimate D2E/DX2                !
 ! A232  A(76,81,88)           118.8232         estimate D2E/DX2                !
 ! A233  A(82,81,88)           114.5634         estimate D2E/DX2                !
 ! A234  A(81,82,83)           126.7425         estimate D2E/DX2                !
 ! A235  A(81,82,164)          115.5845         estimate D2E/DX2                !
 ! A236  A(83,82,164)          117.6412         estimate D2E/DX2                !
 ! A237  A(82,83,84)           119.7323         estimate D2E/DX2                !
 ! A238  A(82,83,86)           114.5072         estimate D2E/DX2                !
 ! A239  A(84,83,86)           125.4796         estimate D2E/DX2                !
 ! A240  A(83,84,85)           107.9633         estimate D2E/DX2                !
 ! A241  A(84,85,165)          106.9184         estimate D2E/DX2                !
 ! A242  A(84,85,166)          106.5765         estimate D2E/DX2                !
 ! A243  A(84,85,167)          113.8267         estimate D2E/DX2                !
 ! A244  A(165,85,166)         107.6199         estimate D2E/DX2                !
 ! A245  A(165,85,167)         113.8883         estimate D2E/DX2                !
 ! A246  A(166,85,167)         107.6163         estimate D2E/DX2                !
 ! A247  A(83,86,87)           123.0691         estimate D2E/DX2                !
 ! A248  A(83,86,89)           120.0397         estimate D2E/DX2                !
 ! A249  A(87,86,89)           116.6387         estimate D2E/DX2                !
 ! A250  A(86,87,88)           115.4777         estimate D2E/DX2                !
 ! A251  A(81,88,87)           125.592          estimate D2E/DX2                !
 ! A252  A(81,88,168)          126.9377         estimate D2E/DX2                !
 ! A253  A(87,88,168)          107.3842         estimate D2E/DX2                !
 ! A254  A(86,89,90)           111.1042         estimate D2E/DX2                !
 ! A255  A(86,89,94)           126.2624         estimate D2E/DX2                !
 ! A256  A(90,89,94)           122.599          estimate D2E/DX2                !
 ! A257  A(89,90,91)           112.1917         estimate D2E/DX2                !
 ! A258  A(90,91,92)           128.3912         estimate D2E/DX2                !
 ! A259  A(90,91,169)          110.0977         estimate D2E/DX2                !
 ! A260  A(92,91,169)          121.3185         estimate D2E/DX2                !
 ! A261  A(91,92,93)           116.4137         estimate D2E/DX2                !
 ! A262  A(91,92,97)           122.5318         estimate D2E/DX2                !
 ! A263  A(93,92,97)           120.8583         estimate D2E/DX2                !
 ! A264  A(92,93,94)           117.9377         estimate D2E/DX2                !
 ! A265  A(92,93,170)          120.3719         estimate D2E/DX2                !
 ! A266  A(94,93,170)          121.6211         estimate D2E/DX2                !
 ! A267  A(89,94,93)           122.2031         estimate D2E/DX2                !
 ! A268  A(89,94,95)           116.0581         estimate D2E/DX2                !
 ! A269  A(93,94,95)           121.5721         estimate D2E/DX2                !
 ! A270  A(94,95,96)           113.2863         estimate D2E/DX2                !
 ! A271  A(95,96,171)          111.685          estimate D2E/DX2                !
 ! A272  A(95,96,172)          114.0723         estimate D2E/DX2                !
 ! A273  A(95,96,173)          113.1375         estimate D2E/DX2                !
 ! A274  A(171,96,172)         100.9982         estimate D2E/DX2                !
 ! A275  A(171,96,173)         104.4174         estimate D2E/DX2                !
 ! A276  A(172,96,173)         111.4534         estimate D2E/DX2                !
 ! A277  A(92,97,98)           124.5366         estimate D2E/DX2                !
 ! A278  A(92,97,104)          121.8172         estimate D2E/DX2                !
 ! A279  A(98,97,104)          113.6073         estimate D2E/DX2                !
 ! A280  A(97,98,99)           121.0875         estimate D2E/DX2                !
 ! A281  A(97,98,174)          114.4047         estimate D2E/DX2                !
 ! A282  A(99,98,174)          124.5025         estimate D2E/DX2                !
 ! A283  A(98,99,100)          117.6039         estimate D2E/DX2                !
 ! A284  A(98,99,102)          122.6253         estimate D2E/DX2                !
 ! A285  A(100,99,102)         119.5206         estimate D2E/DX2                !
 ! A286  A(99,100,101)         112.7263         estimate D2E/DX2                !
 ! A287  A(100,101,175)        107.5018         estimate D2E/DX2                !
 ! A288  A(100,101,176)        105.9851         estimate D2E/DX2                !
 ! A289  A(100,101,177)        111.7754         estimate D2E/DX2                !
 ! A290  A(175,101,176)        113.6864         estimate D2E/DX2                !
 ! A291  A(175,101,177)        108.7264         estimate D2E/DX2                !
 ! A292  A(176,101,177)        109.1886         estimate D2E/DX2                !
 ! A293  A(99,102,103)         121.6779         estimate D2E/DX2                !
 ! A294  A(99,102,105)         125.6657         estimate D2E/DX2                !
 ! A295  A(103,102,105)        112.6552         estimate D2E/DX2                !
 ! A296  A(102,103,104)        117.2944         estimate D2E/DX2                !
 ! A297  A(97,104,103)         123.6034         estimate D2E/DX2                !
 ! A298  A(97,104,178)         118.8143         estimate D2E/DX2                !
 ! A299  A(103,104,178)        117.505          estimate D2E/DX2                !
 ! A300  A(102,105,106)        115.2816         estimate D2E/DX2                !
 ! A301  A(102,105,110)        126.4271         estimate D2E/DX2                !
 ! A302  A(106,105,110)        118.2147         estimate D2E/DX2                !
 ! A303  A(105,106,107)        118.7008         estimate D2E/DX2                !
 ! A304  A(106,107,108)        121.8012         estimate D2E/DX2                !
 ! A305  A(106,107,179)        111.0364         estimate D2E/DX2                !
 ! A306  A(108,107,179)        127.1536         estimate D2E/DX2                !
 ! A307  A(107,108,109)        120.7418         estimate D2E/DX2                !
 ! A308  A(107,108,180)        115.1234         estimate D2E/DX2                !
 ! A309  A(109,108,180)        124.1283         estimate D2E/DX2                !
 ! A310  A(108,109,110)        120.2009         estimate D2E/DX2                !
 ! A311  A(108,109,181)        119.1756         estimate D2E/DX2                !
 ! A312  A(110,109,181)        119.8848         estimate D2E/DX2                !
 ! A313  A(105,110,109)        120.206          estimate D2E/DX2                !
 ! A314  A(105,110,111)        116.816          estimate D2E/DX2                !
 ! A315  A(109,110,111)        122.9342         estimate D2E/DX2                !
 ! A316  A(110,111,112)        107.2465         estimate D2E/DX2                !
 ! A317  A(111,112,182)        106.2265         estimate D2E/DX2                !
 ! A318  A(111,112,183)        115.7085         estimate D2E/DX2                !
 ! A319  A(111,112,184)        111.1618         estimate D2E/DX2                !
 ! A320  A(182,112,183)        107.0004         estimate D2E/DX2                !
 ! A321  A(182,112,184)        107.3749         estimate D2E/DX2                !
 ! A322  A(183,112,184)        108.9447         estimate D2E/DX2                !
 ! D1    D(8,1,2,3)              4.1417         estimate D2E/DX2                !
 ! D2    D(8,1,2,114)          176.6791         estimate D2E/DX2                !
 ! D3    D(113,1,2,3)         -176.7022         estimate D2E/DX2                !
 ! D4    D(113,1,2,114)         -4.1648         estimate D2E/DX2                !
 ! D5    D(2,1,8,7)             -3.2551         estimate D2E/DX2                !
 ! D6    D(2,1,8,118)          176.209          estimate D2E/DX2                !
 ! D7    D(113,1,8,7)          177.5291         estimate D2E/DX2                !
 ! D8    D(113,1,8,118)         -3.0068         estimate D2E/DX2                !
 ! D9    D(1,2,3,4)            177.5482         estimate D2E/DX2                !
 ! D10   D(1,2,3,6)             -4.1427         estimate D2E/DX2                !
 ! D11   D(114,2,3,4)            5.5322         estimate D2E/DX2                !
 ! D12   D(114,2,3,6)         -176.1587         estimate D2E/DX2                !
 ! D13   D(2,3,4,5)             -1.2839         estimate D2E/DX2                !
 ! D14   D(6,3,4,5)           -179.6004         estimate D2E/DX2                !
 ! D15   D(2,3,6,7)              2.7304         estimate D2E/DX2                !
 ! D16   D(2,3,6,9)           -175.7847         estimate D2E/DX2                !
 ! D17   D(4,3,6,7)           -178.8798         estimate D2E/DX2                !
[...]
    18  C    0.106669  -0.000000
    19  C    0.046896   0.000000
    20  O   -0.245820  -0.000000
    21  C    0.074642  -0.000000
    22  C    0.079921  -0.000000
    23  N   -0.190252  -0.000000
    24  C    0.076207   0.000000
    25  C    0.080182   0.000000
    26  N   -0.190373  -0.000000
    27  C    0.075800   0.000000
    28  C   -0.030884  -0.000000
    29  C    0.109663   0.000000
    30  C    0.050060  -0.000000
    31  O   -0.245070  -0.000000
    32  C    0.071019  -0.000000
    33  C   -0.031019   0.000000
    34  C    0.110377  -0.000000
    35  C    0.048369   0.000000
    36  O   -0.245860   0.000000
    37  C    0.071589  -0.000000
    38  C    0.080022  -0.000000
    39  N   -0.189631  -0.000000
    40  C    0.076225  -0.000000
    41  C    0.079424  -0.000000
    42  N   -0.190447   0.000000
    43  C    0.077718   0.000000
    44  C   -0.030342  -0.000000
    45  C    0.110374  -0.000000
    46  C    0.046611   0.000000
    47  O   -0.246775   0.000000
    48  C    0.071784  -0.000000
    49  C   -0.038487   0.000000
    50  C    0.019284  -0.000000
    51  C    0.131450  -0.000000
    52  O   -0.226141  -0.000000
    53  C    0.063217  -0.000000
    54  C    0.050315  -0.000000
    55  N   -0.165171   0.000000
    56  C    0.068821  -0.000000
    57  C    0.049563   0.000000
    58  N   -0.165611   0.000000
    59  C    0.065833  -0.000000
    60  C   -0.033968   0.000000
    61  C    0.020094  -0.000000
    62  C    0.129711  -0.000000
    63  O   -0.228689  -0.000000
    64  C    0.062863   0.000000
    65  C   -0.036691  -0.000000
    66  C    0.020027   0.000000
    67  C    0.130504  -0.000000
    68  O   -0.228026  -0.000000
    69  C    0.062739   0.000000
    70  C    0.049121   0.000000
    71  N   -0.165017   0.000000
    72  C    0.065285   0.000000
    73  C    0.049555  -0.000000
    74  N   -0.164369  -0.000000
    75  C    0.067240   0.000000
    76  C   -0.036464  -0.000000
    77  C    0.020229  -0.000000
    78  C    0.129833   0.000000
    79  O   -0.227489   0.000000
    80  C    0.063045   0.000000
    81  C   -0.027686   0.000000
    82  C    0.105421   0.000000
    83  C    0.053470  -0.000000
    84  O   -0.247032   0.000000
    85  C    0.071673  -0.000000
    86  C    0.063425  -0.000000
    87  N   -0.177310  -0.000000
    88  C    0.062076  -0.000000
    89  C    0.066981   0.000000
    90  N   -0.181287   0.000000
    91  C    0.075907  -0.000000
    92  C   -0.035415   0.000000
    93  C    0.022796   0.000000
    94  C    0.121215  -0.000000
    95  O   -0.211548  -0.000000
    96  C    0.062451  -0.000000
    97  C   -0.030529  -0.000000
    98  C    0.108880   0.000000
    99  C    0.049028  -0.000000
   100  O   -0.245543  -0.000000
   101  C    0.073019  -0.000000
   102  C    0.082989  -0.000000
   103  N   -0.189416   0.000000
   104  C    0.072566  -0.000000
   105  C    0.078912   0.000000
   106  N   -0.191635  -0.000000
   107  C    0.083860   0.000000
   108  C   -0.012103   0.000000
   109  C    0.102459  -0.000000
   110  C    0.044544  -0.000000
   111  O   -0.244962  -0.000000
   112  C    0.072513   0.000000
   113  H   -0.019970  -0.000000
   114  H   -0.017588  -0.000000
   115  H    0.045897   0.000000
   116  H    0.049039   0.000000
   117  H    0.042336   0.000000
   118  H   -0.007305  -0.000000
   119  H   -0.009046  -0.000000
   120  H   -0.029049   0.000000
   121  H    0.041350   0.000000
   122  H    0.047748  -0.000000
   123  H    0.049076   0.000000
   124  H   -0.026534   0.000000
   125  H    0.038049   0.000000
   126  H    0.042772   0.000000
   127  H    0.016308  -0.000000
   128  H   -0.004241   0.000000
   129  H   -0.007606  -0.000000
   130  H   -0.022524  -0.000000
   131  H    0.044293   0.000000
   132  H    0.024173   0.000000
   133  H    0.039789   0.000000
   134  H   -0.023440   0.000000
   135  H    0.023792  -0.000000
   136  H    0.042865  -0.000000
   137  H    0.039565   0.000000
   138  H   -0.006662  -0.000000
   139  H   -0.006329   0.000000
   140  H   -0.028602   0.000000
   141  H    0.023570  -0.000000
   142  H    0.042645   0.000000
   143  H    0.039099   0.000000
   144  H   -0.024812  -0.000000
   145  H    0.044439   0.000000
   146  H    0.046100  -0.000000
   147  H    0.050494   0.000000
   148  H   -0.009063  -0.000000
   149  H   -0.014087  -0.000000
   150  H   -0.023938   0.000000
   151  H    0.044742   0.000000
   152  H    0.048274  -0.000000
   153  H    0.048585  -0.000000
   154  H   -0.022749  -0.000000
   155  H    0.048627  -0.000000
   156  H    0.046277   0.000000
   157  H    0.047199  -0.000000
   158  H   -0.014840  -0.000000
   159  H   -0.009249   0.000000
   160  H   -0.024848   0.000000
   161  H    0.048966  -0.000000
   162  H    0.045547  -0.000000
   163  H    0.045920   0.000000
   164  H   -0.023405  -0.000000
   165  H    0.023918   0.000000
   166  H    0.042108   0.000000
   167  H    0.037443   0.000000
   168  H   -0.012777   0.000000
   169  H   -0.014934  -0.000000
   170  H   -0.023186  -0.000000
   171  H    0.053567   0.000000
   172  H    0.048520  -0.000000
   173  H    0.042761   0.000000
   174  H   -0.020451   0.000000
   175  H    0.042738  -0.000000
   176  H    0.021571   0.000000
   177  H    0.038020  -0.000000
   178  H   -0.011774   0.000000
   179  H   -0.004470   0.000000
   180  H   -0.015632   0.000000
   181  H   -0.014174   0.000000
   182  H    0.041089  -0.000000
   183  H    0.021903  -0.000000
   184  H    0.038110   0.000000
 Sum of Mulliken charges =  -0.00000  -0.00000
 Mulliken charges and spin densities with hydrogens summed into heavy atoms:
               1          2
     1  C   -0.036653  -0.000000
     2  C   -0.000748   0.000000
     3  C    0.125502  -0.000000
     4  O   -0.226746   0.000000
     5  C    0.198379   0.000000
     6  C    0.043294   0.000000
     7  N   -0.168540   0.000000
     8  C    0.069856   0.000000
     9  C    0.054843   0.000000
    10  N   -0.164870   0.000000
    11  C    0.060015  -0.000000
    12  C   -0.035514   0.000000
    13  C   -0.009126   0.000000
    14  C    0.131357   0.000000
    15  O   -0.227081  -0.000000
    16  C    0.201909  -0.000000
    17  C   -0.028791  -0.000000
    18  C    0.080135  -0.000000
    19  C    0.046896   0.000000
    20  O   -0.245820  -0.000000
    21  C    0.171771  -0.000000
    22  C    0.079921  -0.000000
    23  N   -0.190252  -0.000000
    24  C    0.071965   0.000000
    25  C    0.080182   0.000000
    26  N   -0.190373  -0.000000
    27  C    0.068195   0.000000
    28  C   -0.030884  -0.000000
    29  C    0.087139  -0.000000
    30  C    0.050060  -0.000000
    31  O   -0.245070  -0.000000
    32  C    0.179273  -0.000000
    33  C   -0.031019   0.000000
    34  C    0.086937  -0.000000
    35  C    0.048369   0.000000
    36  O   -0.245860   0.000000
    37  C    0.177811  -0.000000
    38  C    0.080022  -0.000000
    39  N   -0.189631  -0.000000
    40  C    0.069563  -0.000000
    41  C    0.079424  -0.000000
    42  N   -0.190447   0.000000
    43  C    0.071389   0.000000
    44  C   -0.030342  -0.000000
    45  C    0.081771  -0.000000
    46  C    0.046611   0.000000
    47  O   -0.246775   0.000000
    48  C    0.177098   0.000000
    49  C   -0.038487   0.000000
    50  C   -0.005528  -0.000000
    51  C    0.131450  -0.000000
    52  O   -0.226141  -0.000000
    53  C    0.204249  -0.000000
    54  C    0.050315  -0.000000
    55  N   -0.165171   0.000000
    56  C    0.059758  -0.000000
    57  C    0.049563   0.000000
    58  N   -0.165611   0.000000
    59  C    0.051745  -0.000000
    60  C   -0.033968   0.000000
    61  C   -0.003844  -0.000000
    62  C    0.129711  -0.000000
    63  O   -0.228689  -0.000000
    64  C    0.204464  -0.000000
    65  C   -0.036691  -0.000000
    66  C   -0.002722   0.000000
    67  C    0.130504  -0.000000
    68  O   -0.228026  -0.000000
    69  C    0.204841  -0.000000
    70  C    0.049121   0.000000
    71  N   -0.165017   0.000000
    72  C    0.050445   0.000000
    73  C    0.049555  -0.000000
    74  N   -0.164369  -0.000000
    75  C    0.057990   0.000000
    76  C   -0.036464  -0.000000
    77  C   -0.004619  -0.000000
    78  C    0.129833   0.000000
    79  O   -0.227489   0.000000
    80  C    0.203479   0.000000
    81  C   -0.027686   0.000000
    82  C    0.082016   0.000000
    83  C    0.053470  -0.000000
    84  O   -0.247032   0.000000
    85  C    0.175142   0.000000
    86  C    0.063425  -0.000000
    87  N   -0.177310  -0.000000
    88  C    0.049299  -0.000000
    89  C    0.066981   0.000000
    90  N   -0.181287   0.000000
    91  C    0.060973  -0.000000
    92  C   -0.035415   0.000000
    93  C   -0.000389   0.000000
    94  C    0.121215  -0.000000
    95  O   -0.211548  -0.000000
    96  C    0.207298  -0.000000
    97  C   -0.030529  -0.000000
    98  C    0.088428   0.000000
    99  C    0.049028  -0.000000
   100  O   -0.245543  -0.000000
   101  C    0.175349  -0.000000
   102  C    0.082989  -0.000000
   103  N   -0.189416   0.000000
   104  C    0.060792  -0.000000
   105  C    0.078912   0.000000
   106  N   -0.191635  -0.000000
   107  C    0.079390   0.000000
   108  C   -0.027735   0.000000
   109  C    0.088285  -0.000000
   110  C    0.044544  -0.000000
   111  O   -0.244962  -0.000000
   112  C    0.173616   0.000000
 Electronic spatial extent (au):  <R**2>=         843494.3533
 Charge=             -0.0000 electrons
 Dipole moment (field-independent basis, Debye):
    X=              0.7352    Y=              5.4157    Z=             -2.9682  Tot=              6.2194
 Quadrupole moment (field-independent basis, Debye-Ang):
   XX=           -409.9644   YY=           -593.5657   ZZ=           -618.0757
   XY=            100.7424   XZ=             16.0303   YZ=            -15.1901
 Traceless Quadrupole moment (field-independent basis, Debye-Ang):
   XX=            130.5709   YY=            -53.0304   ZZ=            -77.5404
   XY=            100.7424   XZ=             16.0303   YZ=            -15.1901
 Octapole moment (field-independent basis, Debye-Ang**2):
  XXX=           2778.6597  YYY=            102.2316  ZZZ=            -16.3422  XYY=           -382.2326
  XXY=           2956.3974  XXZ=           -169.5110  XZZ=              5.6552  YZZ=             44.3744
  YYZ=              0.5002  XYZ=            162.9729
 Hexadecapole moment (field-independent basis, Debye-Ang**3):
 XXXX=        -783056.8207 YYYY=         -11417.3083 ZZZZ=          -5932.0315 XXXY=          48984.4612
 XXXZ=           3318.8893 YYYX=           1408.0935 YYYZ=           -122.4387 ZZZX=            365.7359
 ZZZY=            -20.2496 XXYY=        -183143.4121 XXZZ=        -188483.0411 YYZZ=          -2905.8921
 XXYZ=          -8968.6926 YYXZ=             37.1767 ZZXY=            596.9122
 N-N= 1.642590762760D+04 E-N=-4.464593715824D+04  KE= 5.026185423430D+03
 Leave Link  601 at Sat Jul 25 19:06:56 2020, MaxMem=  4026531840 cpu:              21.6 elap:               3.0
 (Enter /opt/ohpc/pub/libs/gaussian/g16-A.03/sandybridge/g16/l9999.exe)

 Test job not archived.
 1\1\GINC-SKYLAKE039\FOpt\ULC-wPBE\CC-pVDZ\C84H72N14O14\RDU230\25-Jul-2
 020\0\\#P uLC-wPBE/cc-pVDZ iop(3/107=0061100000, 3/108=0061100000) opt
 \\H72 C84 N14 O14\\0,1\C,28.5964480835,-3.1094548931,-0.8397072306\C,2
 8.3811272575,-1.9274625921,-0.1158179678\C,27.0627260718,-1.4635230393
 ,0.0298419366\O,26.6976154948,-0.3573209478,0.7425309532\C,27.73709781
 13,0.4073902199,1.3466795976\C,26.0104415244,-2.2045515084,-0.57781403
 02\N,26.2268277727,-3.3454596857,-1.2534678624\C,27.4944956586,-3.7824
 982465,-1.3793535074\C,24.5817883739,-1.7712170709,-0.445098589\N,23.7
 378877222,-2.6467661808,0.1253448621\C,22.4412366962,-2.3146300105,0.2
 361232796\C,21.8952891921,-1.0973564758,-0.2214009832\C,22.7816409326,
 -0.1827585879,-0.8302558029\C,24.1381482666,-0.5165606969,-0.950639902
 6\O,25.0789100787,0.2609525636,-1.5618334541\C,24.6621250285,1.5281404
 606,-2.0628935983\C,20.455775884,-0.7888012409,-0.0674571273\C,19.9933
 502882,0.5119815194,0.2083359416\C,18.620565834,0.7552860308,0.3534843
 006\O,18.1752101249,1.9993003747,0.7349945875\C,18.1440215706,2.973341
 0467,-0.3201392385\C,17.7165862795,-0.3284175153,0.2119019659\N,18.152
 6489978,-1.5848643667,-0.0366358916\C,19.4675736941,-1.7955544694,-0.1
 789341174\C,16.2412723144,-0.1330124515,0.311277132\N,15.7114767128,0.
 9076151357,-0.3721097518\C,14.3831864014,1.0769008675,-0.360146144\C,1
 3.4763243246,0.2384047914,0.3289571958\C,14.0386388809,-0.8213169802,1
 .0655173629\C,15.4276021055,-1.0116658169,1.0719569144\O,15.9929864313
 ,-1.9784598843,1.8671213804\C,15.8627535889,-3.3212981136,1.3703860085
 \C,12.0174570861,0.4867924976,0.2986583933\C,11.3656138448,0.971509791
 6,-0.8510718231\C,9.9826969697,1.2004996596,-0.8299831466\O,9.35741652
 87,1.7683404362,-1.9137551865\C,9.1304646128,0.873320877,-3.0156514218
 \C,9.2611517456,0.916618472,0.3581251754\N,9.8854411638,0.482832766,1.
 4773695425\C,11.207962159,0.2767797361,1.4392473517\C,7.7781681525,1.0
 625002546,0.4241651569\N,7.0653581996,0.5429937914,-0.6016005294\C,5.7
 281403597,0.5985886406,-0.5519583404\C,4.9906766938,1.1757678984,0.508
 785719\C,5.7419367758,1.743660027,1.5548439742\C,7.142488917,1.7008200
 584,1.5198882285\O,7.8800310049,2.3416915899,2.4869663647\C,7.95933304
 15,1.6454786854,3.7422269932\C,3.5106699943,1.1965531261,0.4963208669\
 C,2.7837648747,2.2932862698,1.0068985674\C,1.3820702546,2.2653518529,0
 .9713290846\O,0.5722566127,3.2424859581,1.4715492854\C,1.1969338861,4.
 3925407197,2.0364554016\C,0.7347142033,1.1369668747,0.3922222833\N,1.4
 250365767,0.0795190823,-0.0664761974\C,2.7662997574,0.1114859025,-0.01
 22321606\C,-0.7575783537,1.0466529024,0.3153923485\N,-1.3256961546,-0.
 0175646506,0.9079457565\C,-2.6591125114,-0.1564956885,0.8392035387\C,-
 3.5166310538,0.7408263189,0.1685544147\C,-2.9162180511,1.8499532469,-0
 .4652666283\C,-1.5243678227,2.0100114677,-0.3987347315\O,-0.8280157048
 ,3.0093939805,-1.0143540437\C,-1.5769032788,3.9991926172,-1.7161104368
 \C,-4.9823628919,0.5360666631,0.1349019785\C,-5.5429289933,-0.75680712
 68,0.0563152243\C,-6.9379179725,-0.9012261575,0.0328440146\O,-7.593738
 1578,-2.0974403104,0.0035459123\C,-6.8018793728,-3.2826051585,-0.03587
 4595\C,-7.7482961693,0.269129916,0.0558782751\N,-7.2167962448,1.499166
 1694,0.1595987583\C,-5.8806479908,1.6217728446,0.2011729678\C,-9.24244
 95181,0.186267242,0.0205665087\N,-9.9007250322,0.7644986784,1.03972501
 28\C,-11.2422783118,0.7185109333,1.0495250512\C,-12.0200077818,0.09074
 90949,0.0540316426\C,-11.3287023706,-0.488590259,-1.0316534997\C,-9.92
 76011473,-0.4307410392,-1.0640506173\O,-9.1539987989,-0.9144384738,-2.
 0789229324\C,-9.8170262607,-1.5592566881,-3.1636611241\C,-13.497874531
 7,0.0583212662,0.1323791535\C,-14.176670835,-0.0764333759,1.3586833761
 \C,-15.5780844741,-0.0919233457,1.3844456373\O,-16.253329494,-0.128363
 1973,2.5821519855\C,-16.28615492,-1.4192638034,3.2124889192\C,-16.2845
 609965,0.012529816,0.1591949754\N,-15.6443877372,0.1738285941,-1.02037
 87395\C,-14.3057686058,0.1912656556,-1.0219098713\C,-17.7745051778,-0.
 077813053,0.1155759695\N,-18.3399370455,-1.1199763059,0.7525930536\C,-
 19.6707848457,-1.2827519721,0.6869538659\C,-20.5334807686,-0.422858819
 9,-0.0225121165\C,-19.9477812046,0.6874433491,-0.6663449257\C,-18.5591
 306397,0.8807049274,-0.592295583\O,-17.8983158034,1.9356196178,-1.1395
 411108\C,-18.6679421577,2.9024784481,-1.851057091\C,-21.9928764313,-0.
 6652803608,-0.0683372096\C,-22.5304446068,-1.9642471467,-0.1459789006\
 C,-23.9199873644,-2.1469882329,-0.1826559677\O,-24.449591424,-3.400382
 8158,-0.3747516198\C,-24.4382592191,-4.2412010887,0.7905222859\C,-24.7
 617026489,-1.0064751413,-0.1329322176\N,-24.2534140514,0.2459951858,-0
 .0776816872\C,-22.9234870534,0.3993862249,-0.038482036\C,-26.249064078
 6,-1.1364932083,-0.1152186661\N,-26.7696786596,-2.0451729326,0.7412049
 647\C,-28.105906358,-2.1508354295,0.8254617139\C,-28.9964242346,-1.377
 0581875,0.0654978194\C,-28.4632194283,-0.4537284699,-0.8399672021\C,-2
 7.0681802655,-0.3284129527,-0.9449233977\O,-26.5087780454,0.4896172782
 ,-1.8977943483\C,-26.5542564314,1.8909959142,-1.5852761322\H,29.614929
 3531,-3.5023870777,-0.9733763689\H,29.2269888221,-1.3900618456,0.33234
 52355\H,28.3085751371,-0.1889647396,2.0920909958\H,27.2346293689,1.245
 4737296,1.8621727888\H,28.443914585,0.8126816131,0.5888932979\H,27.628
 4932291,-4.7192027548,-1.9448478812\H,21.7993112089,-3.0501699948,0.74
 77975759\H,22.3935858891,0.7602099422,-1.2374883245\H,24.2659909947,2.
 1804925592,-1.2532495815\H,23.8886187587,1.4246657818,-2.8558723314\H,
 25.5655936911,1.9925882613,-2.4969674556\H,20.6965103006,1.3429424963,
 0.3683257356\H,17.3777307049,2.6882204638,-1.0712112061\H,17.867244083
 6,3.9329100284,0.1550926106\H,19.1392167562,3.0814702697,-0.8075160267
 \H,19.76514027,-2.8291791976,-0.4202789796\H,14.0057678381,1.950880007
 1,-0.9170023197\H,13.4058049023,-1.5095975085,1.6447674849\H,16.267645
 71,-3.9807658681,2.1602881256\H,14.7987645427,-3.587859653,1.182541914
 6\H,16.4579382083,-3.4346200048,0.4403154202\H,11.9234853741,1.1793875
 983,-1.7759160295\H,10.0756331876,0.3946415376,-3.3563540716\H,8.72234
 17291,1.4935226645,-3.8352586105\H,8.3910129393,0.0994234097,-2.721609
 6264\H,11.6687218068,-0.0579419466,2.3837004936\H,5.196413916,0.178366
 4237,-1.4214443447\H,5.2488568819,2.2289550343,2.4103227661\H,6.948770
 948,1.4211454627,4.1510358077\H,8.4892938852,2.3240232509,4.4363445991
 \H,8.5386337779,0.7073946192,3.6134469113\H,3.3210475983,3.1619168591,
 1.4099152593\H,1.8383189075,4.1280612984,2.9061318307\H,1.8108798262,4
 .9374250024,1.28562169\H,0.3736594465,5.0449194574,2.3782202945\H,3.28
 43548339,-0.7911341221,-0.375603947\H,-3.0792040072,-1.0225323241,1.37
 7181847\H,-3.539599924,2.5502802813,-1.0359927815\H,-2.2809362403,4.53
 58450446,-1.0425728485\H,-2.1494744979,3.5601350894,-2.562777646\H,-0.
 8335740289,4.7134383349,-2.1131726278\H,-4.8824975574,-1.6315138203,-0
 .0029225722\H,-7.518691082,-4.1230689419,-0.0458952809\H,-6.1715505786
 ,-3.3257007695,-0.9514454713\H,-6.1471340465,-3.370817102,0.8589939522
 \H,-5.4958581445,2.6488459927,0.3160611367\H,-11.7346514468,1.23012974
 87,1.8930922297\H,-11.8919433692,-0.992576184,-1.8277248005\H,-9.01981
 39186,-1.8659840281,-3.8641629872\H,-10.5181644499,-0.8715020059,-3.68
 61451213\H,-10.3768547505,-2.4595906891,-2.8266845898\H,-13.6247537271
 ,-0.1688654822,2.3055561687\H,-15.2618848479,-1.824692072,3.3713692939
 \H,-16.7724618795,-1.2695128638,4.1944708469\H,-16.8849699954,-2.12202
 10354,2.5956916546\H,-13.8305386359,0.3451809431,-2.0058206509\H,-20.0
 815131743,-2.1376769992,1.2484681978\H,-20.5805313515,1.3783666226,-1.
 2381198971\H,-17.9450579243,3.6616283428,-2.1985758435\H,-19.179223981
 6,2.4535153339,-2.7308567388\H,-19.4264828263,3.3881943067,-1.19790124
 33\H,-21.876628047,-2.8442514523,-0.2337828032\H,-24.789217806,-5.2350
 290095,0.4556068812\H,-23.4141451679,-4.3401902073,1.2150115762\H,-25.
 1327196805,-3.8312214173,1.5534808494\H,-22.5633332076,1.4383733028,0.
 0477418106\H,-28.4860251295,-2.8976039278,1.5421768553\H,-30.083121999
 4,-1.5077058683,0.1710780482\H,-29.1072203713,0.1559196416,-1.49050619
 38\H,-26.1741627441,2.4183944997,-2.4801075953\H,-27.5928353121,2.2319
 94758,-1.375676345\H,-25.8987548906,2.1016547359,-0.7142035385\\Versio
 n=EM64L-G16RevA.03\State=1-A\HF=-5058.8487927\S2=0.\S2-1=0.\S2A=0.\RMS
 D=6.112e-09\RMSF=6.784e-07\Dipole=0.2906859,2.1309758,-1.1669109\Quadr
 upole=96.971903,-39.3663195,-57.6055835,74.9719326,12.2328946,-11.1408
 527\PG=C01 [X(C84H72N14O14)]\\@


 PERICLES, SOPHOCLES,
 PELOPONESIAN WAR,
 FRENCH VERBS, LATIN VERBS
 H2SO4.
 Job cpu time:       4 days 11 hours 11 minutes 43.6 seconds.
 Elapsed time:       0 days 13 hours 35 minutes 53.6 seconds.
 File lengths (MBytes):  RWF=   4088 Int=      0 D2E=      0 Chk=    368 Scr=      8
 Normal termination of Gaussian 16 at Sat Jul 25 19:06:56 2020.
