 Entering Gaussian System, Link 0=g16
 Input=mols_65_3_18_n-n-CF_opt_0.gjf
 Output=mols_65_3_18_n-n-CF_opt_0.log
 Initial command:
 /opt/ohpc/pub/libs/gaussian/g16-A.03/sandybridge/g16/l1.exe "/mnt/gpfs2_4m/scratch/rdu230/ondemand/projects/dihedral_energies/7trial/wtuning/mols_65_3_18_n-n-CF/Gau-364330.inp" -scrdir="/mnt/gpfs2_4m/scratch/rdu230/ondemand/projects/dihedral_energies/7trial/wtuning/mols_65_3_18_n-n-CF/"
 Entering Link 1 = /opt/ohpc/pub/libs/gaussian/g16-A.03/sandybridge/g16/l1.exe PID=    364331.
  
 Copyright (c) 1988,1990,1992,1993,1995,1998,2003,2009,2016,
            Gaussian, Inc.  All Rights Reserved.
  
 This is part of the Gaussian(R) 16 program.  It is based on
 the Gaussian(R) 09 system (copyright 2009, Gaussian, Inc.),
 the Gaussian(R) 03 system (copyright 2003, Gaussian, Inc.),
 the Gaussian(R) 98 system (copyright 1998, Gaussian, Inc.),
 the Gaussian(R) 94 system (copyright 1995, Gaussian, Inc.),
 the Gaussian 92(TM) system (copyright 1992, Gaussian, Inc.),
 the Gaussian 90(TM) system (copyright 1990, Gaussian, Inc.),
 the Gaussian 88(TM) system (copyright 1988, Gaussian, Inc.),
 the Gaussian 86(TM) system (copyright 1986, Carnegie Mellon
 University), and the Gaussian 82(TM) system (copyright 1983,
 Carnegie Mellon University). Gaussian is a federally registered
 trademark of Gaussian, Inc.
  
 This software contains proprietary and confidential information,
 including trade secrets, belonging to Gaussian, Inc.
  
 This software is provided under written license and may be
 used, copied, transmitted, or stored only in accord with that
 written license.
  
 The following legend is applicable only to US Government
 contracts under FAR:
  
                    RESTRICTED RIGHTS LEGEND
  
 Use, reproduction and disclosure by the US Government is
 subject to restrictions as set forth in subparagraphs (a)
 and (c) of the Commercial Computer Software - Restricted
 Rights clause in FAR 52.227-19.
  
 Gaussian, Inc.
 340 Quinnipiac St., Bldg. 40, Wallingford CT 06492
  
  
 ---------------------------------------------------------------
 Warning -- This program may not be used in any manner that
 competes with the business of Gaussian, Inc. or will provide
 assistance to any competitor of Gaussian, Inc.  The licensee
 of this program is prohibited from giving any competitor of
 Gaussian, Inc. access to this program.  By using this program,
 the user acknowledges that Gaussian, Inc. is engaged in the
 business of creating and licensing software in the field of
 computational chemistry and represents and warrants to the
 licensee that it is not a competitor of Gaussian, Inc. and that
 it will not use this program in any manner prohibited above.
 ---------------------------------------------------------------
  

 Cite this work as:
 Gaussian 16, Revision A.03,
 M. J. Frisch, G. W. Trucks, H. B. Schlegel, G. E. Scuseria, 
 M. A. Robb, J. R. Cheeseman, G. Scalmani, V. Barone, 
 G. A. Petersson, H. Nakatsuji, X. Li, M. Caricato, A. V. Marenich, 
 J. Bloino, B. G. Janesko, R. Gomperts, B. Mennucci, H. P. Hratchian, 
 J. V. Ortiz, A. F. Izmaylov, J. L. Sonnenberg, D. Williams-Young, 
 F. Ding, F. Lipparini, F. Egidi, J. Goings, B. Peng, A. Petrone, 
 T. Henderson, D. Ranasinghe, V. G. Zakrzewski, J. Gao, N. Rega, 
 G. Zheng, W. Liang, M. Hada, M. Ehara, K. Toyota, R. Fukuda, 
 J. Hasegawa, M. Ishida, T. Nakajima, Y. Honda, O. Kitao, H. Nakai, 
 T. Vreven, K. Throssell, J. A. Montgomery, Jr., J. E. Peralta, 
 F. Ogliaro, M. J. Bearpark, J. J. Heyd, E. N. Brothers, K. N. Kudin, 
 V. N. Staroverov, T. A. Keith, R. Kobayashi, J. Normand, 
 K. Raghavachari, A. P. Rendell, J. C. Burant, S. S. Iyengar, 
 J. Tomasi, M. Cossi, J. M. Millam, M. Klene, C. Adamo, R. Cammi, 
 J. W. Ochterski, R. L. Martin, K. Morokuma, O. Farkas, 
 J. B. Foresman, and D. J. Fox, Gaussian, Inc., Wallingford CT, 2016.
 
 ******************************************
 Gaussian 16:  EM64L-G16RevA.03 25-Dec-2016
                24-Jul-2020 
 ******************************************
 %mem=30GB
 %nproc=8
 Will use up to    8 processors via shared memory.
 ---------------------------------------------------------------
 #P uLC-wPBE/cc-pVDZ iop(3/107=0070700000, 3/108=0070700000) opt
 ---------------------------------------------------------------
 1/18=20,19=15,26=3,38=1/1,3;
 2/9=110,12=2,17=6,18=5,40=1/2;
 3/5=16,11=2,25=1,30=1,71=1,74=-41,107=70700000,108=70700000,116=2/1,2,3;
 4//1;
 5/5=2,38=5/2;
 6/7=2,8=2,9=2,10=2,28=1/1;
 7//1,2,3,16;
 1/18=20,19=15,26=3/3(2);
 2/9=110/2;
 99//99;
 2/9=110/2;
 3/5=16,11=2,25=1,30=1,71=1,74=-41,107=70700000,108=70700000,116=2/1,2,3;
 4/5=5,16=3,69=1/1;
 5/5=2,38=5/2;
 7//1,2,3,16;
 1/18=20,19=15,26=3/3(-5);
 2/9=110/2;
 6/7=2,8=2,9=2,10=2,19=2,28=1/1;
 99/9=1/99;
 Leave Link    1 at Fri Jul 24 03:43:31 2020, MaxMem=  4026531840 cpu:               2.0 elap:               0.3
 (Enter /opt/ohpc/pub/libs/gaussian/g16-A.03/sandybridge/g16/l101.exe)
 ----------------
 H11 C24 S3 N6 F3
 ----------------
 Symbolic Z-matrix:
 Charge =  0 Multiplicity = 1
 C                     10.60314   2.77824  -0.16592 
 C                     10.74387   1.4194    0.14294 
 N                     9.6501    0.54497   0.2907 
 C                     8.41883   1.13559   0.08656 
 N                     8.25624   2.39917  -0.27668 
 C                     9.30871   3.23912  -0.42493 
 C                     7.31345   0.25511   0.15895 
 C                     7.20004  -1.09889   0.54114 
 F                     8.26544  -1.76265   0.84152 
 C                     5.91501  -1.54833   0.57926 
 C                     4.93396  -0.61148   0.18732 
 S                     5.7066    0.88752  -0.1696 
 C                     3.48776  -0.78463   0.05241 
 C                     2.52991   0.18772   0.30189 
 N                     1.20967   0.03956   0.27543 
 C                     0.82891  -1.1795   -0.11843 
 N                     1.58581  -2.22809  -0.36419 
 C                     2.9411   -1.99758  -0.32222 
 C                    -0.69996  -1.40265  -0.24701 
 C                    -1.31228  -2.59022  -0.60509 
 F                    -0.76008  -3.67427  -0.95923 
 C                    -2.77261  -2.44627  -0.64793 
 C                    -3.14538  -1.08482  -0.30641 
 S                    -1.82002  -0.16557   0.06473 
 C                    -4.46674  -0.60819  -0.13249 
 C                    -4.79202   0.71731  -0.45586 
 N                    -6.07586   1.18944  -0.39568 
 C                    -7.06592   0.3791    0.0008 
 N                    -6.86366  -0.89456   0.32366 
 C                    -5.52968  -1.3705    0.27901 
 C                    -8.43819   0.94061   0.17956 
 C                    -8.86915   2.16069  -0.18929 
 F                    -8.0883    3.16525  -0.65185 
 C                    -10.24024   2.36376   0.12173 
 C                    -10.84214   1.23907   0.58104 
 S                    -9.74031  -0.09042   0.7576 
 H                     11.50176   3.38561  -0.23755 
 H                     11.69071   0.9749    0.33653 
 H                     9.12608   4.24012  -0.65342 
 H                     5.63437  -2.64404   0.84908 
 H                     2.85616   1.15157   0.60207 
 H                     3.52758  -2.9191   -0.49001 
 H                    -3.41326  -3.16116  -0.91499 
 H                    -4.14672   1.4465   -0.84077 
 H                    -5.42116  -2.43818   0.49754 
 H                    -10.83552   3.22733  -0.10108 
 H                    -11.92978   1.0119    0.81425 
 
 ITRead=  0  0  0  0  0  0  0  0  0  0  0  0  0  0  0  0  0  0  0  0
 ITRead=  0  0  0  0  0  0  0  0  0  0  0  0  0  0  0  0  0  0  0  0
 ITRead=  0  0  0  0  0  0  0
 MicOpt= -1 -1 -1 -1 -1 -1 -1 -1 -1 -1 -1 -1 -1 -1 -1 -1 -1 -1 -1 -1
 MicOpt= -1 -1 -1 -1 -1 -1 -1 -1 -1 -1 -1 -1 -1 -1 -1 -1 -1 -1 -1 -1
 MicOpt= -1 -1 -1 -1 -1 -1 -1
 NAtoms=     47 NQM=       47 NQMF=       0 NMMI=      0 NMMIF=      0
                NMic=       0 NMicF=      0.
                    Isotopes and Nuclear Properties:
 (Nuclear quadrupole moments (NQMom) in fm**2, nuclear magnetic moments (NMagM)
  in nuclear magnetons)

  Atom         1           2           3           4           5           6           7           8           9          10
 IAtWgt=          12          12          14          12          14          12          12          12          19          12
 AtmWgt=  12.0000000  12.0000000  14.0030740  12.0000000  14.0030740  12.0000000  12.0000000  12.0000000  18.9984033  12.0000000
 NucSpn=           0           0           2           0           2           0           0           0           1           0
 AtZEff=  -0.0000000  -0.0000000  -0.0000000  -0.0000000  -0.0000000  -0.0000000  -0.0000000  -0.0000000  -0.0000000  -0.0000000
 NQMom=    0.0000000   0.0000000   2.0440000   0.0000000   2.0440000   0.0000000   0.0000000   0.0000000   0.0000000   0.0000000
 NMagM=    0.0000000   0.0000000   0.4037610   0.0000000   0.4037610   0.0000000   0.0000000   0.0000000   2.6288670   0.0000000
 AtZNuc=   6.0000000   6.0000000   7.0000000   6.0000000   7.0000000   6.0000000   6.0000000   6.0000000   9.0000000   6.0000000

  Atom        11          12          13          14          15          16          17          18          19          20
 IAtWgt=          12          32          12          12          14          12          14          12          12          12
 AtmWgt=  12.0000000  31.9720718  12.0000000  12.0000000  14.0030740  12.0000000  14.0030740  12.0000000  12.0000000  12.0000000
 NucSpn=           0           0           0           0           2           0           2           0           0           0
 AtZEff=  -0.0000000  -0.0000000  -0.0000000  -0.0000000  -0.0000000  -0.0000000  -0.0000000  -0.0000000  -0.0000000  -0.0000000
 NQMom=    0.0000000   0.0000000   0.0000000   0.0000000   2.0440000   0.0000000   2.0440000   0.0000000   0.0000000   0.0000000
 NMagM=    0.0000000   0.0000000   0.0000000   0.0000000   0.4037610   0.0000000   0.4037610   0.0000000   0.0000000   0.0000000
 AtZNuc=   6.0000000  16.0000000   6.0000000   6.0000000   7.0000000   6.0000000   7.0000000   6.0000000   6.0000000   6.0000000

  Atom        21          22          23          24          25          26          27          28          29          30
 IAtWgt=          19          12          12          32          12          12          14          12          14          12
 AtmWgt=  18.9984033  12.0000000  12.0000000  31.9720718  12.0000000  12.0000000  14.0030740  12.0000000  14.0030740  12.0000000
 NucSpn=           1           0           0           0           0           0           2           0           2           0
 AtZEff=  -0.0000000  -0.0000000  -0.0000000  -0.0000000  -0.0000000  -0.0000000  -0.0000000  -0.0000000  -0.0000000  -0.0000000
 NQMom=    0.0000000   0.0000000   0.0000000   0.0000000   0.0000000   0.0000000   2.0440000   0.0000000   2.0440000   0.0000000
 NMagM=    2.6288670   0.0000000   0.0000000   0.0000000   0.0000000   0.0000000   0.4037610   0.0000000   0.4037610   0.0000000
 AtZNuc=   9.0000000   6.0000000   6.0000000  16.0000000   6.0000000   6.0000000   7.0000000   6.0000000   7.0000000   6.0000000

  Atom        31          32          33          34          35          36          37          38          39          40
 IAtWgt=          12          12          19          12          12          32           1           1           1           1
 AtmWgt=  12.0000000  12.0000000  18.9984033  12.0000000  12.0000000  31.9720718   1.0078250   1.0078250   1.0078250   1.0078250
 NucSpn=           0           0           1           0           0           0           1           1           1           1
 AtZEff=  -0.0000000  -0.0000000  -0.0000000  -0.0000000  -0.0000000  -0.0000000  -0.0000000  -0.0000000  -0.0000000  -0.0000000
 NQMom=    0.0000000   0.0000000   0.0000000   0.0000000   0.0000000   0.0000000   0.0000000   0.0000000   0.0000000   0.0000000
 NMagM=    0.0000000   0.0000000   2.6288670   0.0000000   0.0000000   0.0000000   2.7928460   2.7928460   2.7928460   2.7928460
 AtZNuc=   6.0000000   6.0000000   9.0000000   6.0000000   6.0000000  16.0000000   1.0000000   1.0000000   1.0000000   1.0000000

  Atom        41          42          43          44          45          46          47
 IAtWgt=           1           1           1           1           1           1           1
 AtmWgt=   1.0078250   1.0078250   1.0078250   1.0078250   1.0078250   1.0078250   1.0078250
 NucSpn=           1           1           1           1           1           1           1
 AtZEff=  -0.0000000  -0.0000000  -0.0000000  -0.0000000  -0.0000000  -0.0000000  -0.0000000
 NQMom=    0.0000000   0.0000000   0.0000000   0.0000000   0.0000000   0.0000000   0.0000000
 NMagM=    2.7928460   2.7928460   2.7928460   2.7928460   2.7928460   2.7928460   2.7928460
 AtZNuc=   1.0000000   1.0000000   1.0000000   1.0000000   1.0000000   1.0000000   1.0000000
 Leave Link  101 at Fri Jul 24 03:43:35 2020, MaxMem=  4026531840 cpu:               2.8 elap:               0.4
 (Enter /opt/ohpc/pub/libs/gaussian/g16-A.03/sandybridge/g16/l103.exe)

 GradGradGradGradGradGradGradGradGradGradGradGradGradGradGradGradGradGrad
 Berny optimization.
 Initialization pass.
                           ----------------------------
                           !    Initial Parameters    !
                           ! (Angstroms and Degrees)  !
 --------------------------                            --------------------------
 ! Name  Definition              Value          Derivative Info.                !
 --------------------------------------------------------------------------------
 ! R1    R(1,2)                  1.4006         estimate D2E/DX2                !
 ! R2    R(1,6)                  1.3982         estimate D2E/DX2                !
 ! R3    R(1,37)                 1.087          estimate D2E/DX2                !
 ! R4    R(2,3)                  1.4081         estimate D2E/DX2                !
 ! R5    R(2,38)                 1.0637         estimate D2E/DX2                !
 ! R6    R(3,4)                  1.3808         estimate D2E/DX2                !
 ! R7    R(4,5)                  1.3248         estimate D2E/DX2                !
 ! R8    R(4,7)                  1.415          estimate D2E/DX2                !
 ! R9    R(5,6)                  1.3547         estimate D2E/DX2                !
 ! R10   R(6,39)                 1.0429         estimate D2E/DX2                !
 ! R11   R(7,8)                  1.4115         estimate D2E/DX2                !
 ! R12   R(7,12)                 1.7578         estimate D2E/DX2                !
 ! R13   R(8,9)                  1.2907         estimate D2E/DX2                !
 ! R14   R(8,10)                 1.3619         estimate D2E/DX2                !
 ! R15   R(10,11)                1.412          estimate D2E/DX2                !
 ! R16   R(10,40)                1.1628         estimate D2E/DX2                !
 ! R17   R(11,12)                1.7238         estimate D2E/DX2                !
 ! R18   R(11,13)                1.4628         estimate D2E/DX2                !
 ! R19   R(13,14)                1.3875         estimate D2E/DX2                !
 ! R20   R(13,18)                1.3822         estimate D2E/DX2                !
 ! R21   R(14,15)                1.3288         estimate D2E/DX2                !
 ! R22   R(14,41)                1.0609         estimate D2E/DX2                !
 ! R23   R(15,16)                1.3365         estimate D2E/DX2                !
 ! R24   R(16,17)                1.3164         estimate D2E/DX2                !
 ! R25   R(16,19)                1.5504         estimate D2E/DX2                !
 ! R26   R(17,18)                1.3754         estimate D2E/DX2                !
 ! R27   R(18,42)                1.1051         estimate D2E/DX2                !
 ! R28   R(19,20)                1.3833         estimate D2E/DX2                !
 ! R29   R(19,24)                1.6977         estimate D2E/DX2                !
 ! R30   R(20,21)                1.2671         estimate D2E/DX2                !
 ! R31   R(20,22)                1.468          estimate D2E/DX2                !
 ! R32   R(22,23)                1.4523         estimate D2E/DX2                !
 ! R33   R(22,43)                0.9964         estimate D2E/DX2                !
 ! R34   R(23,24)                1.6551         estimate D2E/DX2                !
 ! R35   R(23,25)                1.4154         estimate D2E/DX2                !
 ! R36   R(25,26)                1.4026         estimate D2E/DX2                !
 ! R37   R(25,30)                1.3712         estimate D2E/DX2                !
 ! R38   R(26,27)                1.3692         estimate D2E/DX2                !
 ! R39   R(26,44)                1.047          estimate D2E/DX2                !
 ! R40   R(27,28)                1.3394         estimate D2E/DX2                !
 ! R41   R(28,29)                1.3294         estimate D2E/DX2                !
 ! R42   R(28,31)                1.4934         estimate D2E/DX2                !
 ! R43   R(29,30)                1.417          estimate D2E/DX2                !
 ! R44   R(30,45)                1.0952         estimate D2E/DX2                !
 ! R45   R(31,32)                1.3455         estimate D2E/DX2                !
 ! R46   R(31,36)                1.7586         estimate D2E/DX2                !
 ! R47   R(32,33)                1.3538         estimate D2E/DX2                !
 ! R48   R(32,34)                1.4205         estimate D2E/DX2                !
 ! R49   R(34,35)                1.3558         estimate D2E/DX2                !
 ! R50   R(34,46)                1.0723         estimate D2E/DX2                !
 ! R51   R(35,36)                1.7357         estimate D2E/DX2                !
 ! R52   R(35,47)                1.1353         estimate D2E/DX2                !
 ! A1    A(2,1,6)              116.979          estimate D2E/DX2                !
 ! A2    A(2,1,37)             118.2666         estimate D2E/DX2                !
 ! A3    A(6,1,37)             124.6766         estimate D2E/DX2                !
 ! A4    A(1,2,3)              123.2008         estimate D2E/DX2                !
 ! A5    A(1,2,38)             122.3423         estimate D2E/DX2                !
 ! A6    A(3,2,38)             114.3811         estimate D2E/DX2                !
 ! A7    A(2,3,4)              114.2999         estimate D2E/DX2                !
 ! A8    A(3,4,5)              123.9158         estimate D2E/DX2                !
 ! A9    A(3,4,7)              115.0155         estimate D2E/DX2                !
 ! A10   A(5,4,7)              120.773          estimate D2E/DX2                !
 ! A11   A(4,5,6)              121.7385         estimate D2E/DX2                !
 ! A12   A(1,6,5)              119.6426         estimate D2E/DX2                !
 ! A13   A(1,6,39)             121.2716         estimate D2E/DX2                !
 ! A14   A(5,6,39)             118.8857         estimate D2E/DX2                !
 ! A15   A(4,7,8)              132.3383         estimate D2E/DX2                !
 ! A16   A(4,7,12)             118.7287         estimate D2E/DX2                !
 ! A17   A(8,7,12)             108.8013         estimate D2E/DX2                !
 ! A18   A(7,8,9)              119.3421         estimate D2E/DX2                !
 ! A19   A(7,8,10)             113.5764         estimate D2E/DX2                !
 ! A20   A(9,8,10)             127.0585         estimate D2E/DX2                !
 ! A21   A(8,10,11)            115.3943         estimate D2E/DX2                !
 ! A22   A(8,10,40)            123.0378         estimate D2E/DX2                !
 ! A23   A(11,10,40)           121.4612         estimate D2E/DX2                !
 ! A24   A(10,11,12)           108.8458         estimate D2E/DX2                !
 ! A25   A(10,11,13)           129.3446         estimate D2E/DX2                !
 ! A26   A(12,11,13)           121.8028         estimate D2E/DX2                !
 ! A27   A(7,12,11)             93.3352         estimate D2E/DX2                !
 ! A28   A(11,13,14)           125.6604         estimate D2E/DX2                !
 ! A29   A(11,13,18)           121.3261         estimate D2E/DX2                !
 ! A30   A(14,13,18)           112.9972         estimate D2E/DX2                !
 ! A31   A(13,14,15)           127.1696         estimate D2E/DX2                !
 ! A32   A(13,14,41)           118.3762         estimate D2E/DX2                !
 ! A33   A(15,14,41)           114.3597         estimate D2E/DX2                !
 ! A34   A(14,15,16)           112.9937         estimate D2E/DX2                !
 ! A35   A(15,16,17)           128.155          estimate D2E/DX2                !
 ! A36   A(15,16,19)           115.8909         estimate D2E/DX2                !
 ! A37   A(17,16,19)           115.9042         estimate D2E/DX2                !
 ! A38   A(16,17,18)           115.3016         estimate D2E/DX2                !
 ! A39   A(13,18,17)           123.0297         estimate D2E/DX2                !
 ! A40   A(13,18,42)           124.265          estimate D2E/DX2                !
 ! A41   A(17,18,42)           112.2434         estimate D2E/DX2                !
 ! A42   A(16,19,20)           125.5591         estimate D2E/DX2                !
 ! A43   A(16,19,24)           122.0386         estimate D2E/DX2                !
 ! A44   A(20,19,24)           112.4002         estimate D2E/DX2                !
 ! A45   A(19,20,21)           127.8746         estimate D2E/DX2                !
 ! A46   A(19,20,22)           111.3283         estimate D2E/DX2                !
 ! A47   A(21,20,22)           120.6139         estimate D2E/DX2                !
 ! A48   A(20,22,23)           109.9005         estimate D2E/DX2                !
 ! A49   A(20,22,43)           125.2443         estimate D2E/DX2                !
 ! A50   A(23,22,43)           124.791          estimate D2E/DX2                !
 ! A51   A(22,23,24)           111.5834         estimate D2E/DX2                !
 ! A52   A(22,23,25)           125.7457         estimate D2E/DX2                !
 ! A53   A(24,23,25)           122.2075         estimate D2E/DX2                !
 ! A54   A(19,24,23)            94.7284         estimate D2E/DX2                !
 ! A55   A(23,25,26)           120.4237         estimate D2E/DX2                !
 ! A56   A(23,25,30)           124.983          estimate D2E/DX2                !
 ! A57   A(26,25,30)           114.5054         estimate D2E/DX2                !
 ! A58   A(25,26,27)           122.2199         estimate D2E/DX2                !
 ! A59   A(25,26,44)           126.8676         estimate D2E/DX2                !
 ! A60   A(27,26,44)           110.726          estimate D2E/DX2                !
 ! A61   A(26,27,28)           119.833          estimate D2E/DX2                !
 ! A62   A(27,28,29)           122.6187         estimate D2E/DX2                !
 ! A63   A(27,28,31)           119.1539         estimate D2E/DX2                !
 ! A64   A(29,28,31)           118.0954         estimate D2E/DX2                !
 ! A65   A(28,29,30)           117.216          estimate D2E/DX2                !
 ! A66   A(25,30,29)           123.537          estimate D2E/DX2                !
 ! A67   A(25,30,45)           121.6701         estimate D2E/DX2                !
 ! A68   A(29,30,45)           114.4822         estimate D2E/DX2                !
 ! A69   A(28,31,32)           127.0445         estimate D2E/DX2                !
 ! A70   A(28,31,36)           119.9516         estimate D2E/DX2                !
 ! A71   A(32,31,36)           112.6172         estimate D2E/DX2                !
 ! A72   A(31,32,33)           125.5752         estimate D2E/DX2                !
 ! A73   A(31,32,34)           112.2569         estimate D2E/DX2                !
 ! A74   A(33,32,34)           121.6984         estimate D2E/DX2                !
 ! A75   A(32,34,35)           112.5873         estimate D2E/DX2                !
 ! A76   A(32,34,46)           127.2631         estimate D2E/DX2                !
 ! A77   A(35,34,46)           119.4737         estimate D2E/DX2                !
 ! A78   A(34,35,36)           112.8327         estimate D2E/DX2                !
 ! A79   A(34,35,47)           131.3669         estimate D2E/DX2                !
 ! A80   A(36,35,47)           115.7199         estimate D2E/DX2                !
 ! A81   A(31,36,35)            89.2851         estimate D2E/DX2                !
 ! D1    D(6,1,2,3)             -4.5143         estimate D2E/DX2                !
 ! D2    D(6,1,2,38)           178.8303         estimate D2E/DX2                !
 ! D3    D(37,1,2,3)           178.5394         estimate D2E/DX2                !
 ! D4    D(37,1,2,38)            1.884          estimate D2E/DX2                !
 ! D5    D(2,1,6,5)              4.6488         estimate D2E/DX2                !
 ! D6    D(2,1,6,39)           179.4511         estimate D2E/DX2                !
 ! D7    D(37,1,6,5)          -178.622          estimate D2E/DX2                !
 ! D8    D(37,1,6,39)           -3.8196         estimate D2E/DX2                !
 ! D9    D(1,2,3,4)              0.8667         estimate D2E/DX2                !
 ! D10   D(38,2,3,4)           177.7645         estimate D2E/DX2                !
 ! D11   D(2,3,4,5)              2.909          estimate D2E/DX2                !
 ! D12   D(2,3,4,7)            176.6894         estimate D2E/DX2                !
 ! D13   D(3,4,5,6)             -2.8082         estimate D2E/DX2                !
 ! D14   D(7,4,5,6)           -176.2469         estimate D2E/DX2                !
 ! D15   D(3,4,7,8)              7.8766         estimate D2E/DX2                !
 ! D16   D(3,4,7,12)          -176.8182         estimate D2E/DX2                !
 ! D17   D(5,4,7,8)           -178.1298         estimate D2E/DX2                !
 ! D18   D(5,4,7,12)            -2.8246         estimate D2E/DX2                !
 ! D19   D(4,5,6,1)             -1.2374         estimate D2E/DX2                !
 ! D20   D(4,5,6,39)          -176.164          estimate D2E/DX2                !
 ! D21   D(4,7,8,9)             -3.779          estimate D2E/DX2                !
 ! D22   D(4,7,8,10)           174.5969         estimate D2E/DX2                !
 ! D23   D(12,7,8,9)          -179.4308         estimate D2E/DX2                !
 ! D24   D(12,7,8,10)           -1.0549         estimate D2E/DX2                !
 ! D25   D(4,7,12,11)         -176.5809         estimate D2E/DX2                !
 ! D26   D(8,7,12,11)           -0.2452         estimate D2E/DX2                !
 ! D27   D(7,8,10,11)            2.2445         estimate D2E/DX2                !
 ! D28   D(7,8,10,40)          178.533          estimate D2E/DX2                !
 ! D29   D(9,8,10,11)         -179.5296         estimate D2E/DX2                !
 ! D30   D(9,8,10,40)           -3.2411         estimate D2E/DX2                !
 ! D31   D(8,10,11,12)          -2.3344         estimate D2E/DX2                !
 ! D32   D(8,10,11,13)         176.7187         estimate D2E/DX2                !
 ! D33   D(40,10,11,12)       -178.687          estimate D2E/DX2                !
 ! D34   D(40,10,11,13)          0.3662         estimate D2E/DX2                !
 ! D35   D(10,11,12,7)           1.399          estimate D2E/DX2                !
 ! D36   D(13,11,12,7)        -177.7393         estimate D2E/DX2                !
 ! D37   D(10,11,13,14)        146.6889         estimate D2E/DX2                !
 ! D38   D(10,11,13,18)        -31.7363         estimate D2E/DX2                !
 ! D39   D(12,11,13,14)        -34.3656         estimate D2E/DX2                !
 ! D40   D(12,11,13,18)        147.2093         estimate D2E/DX2                !
 ! D41   D(11,13,14,15)       -175.165          estimate D2E/DX2                !
 ! D42   D(11,13,14,41)          1.0832         estimate D2E/DX2                !
 ! D43   D(18,13,14,15)          3.3736         estimate D2E/DX2                !
 ! D44   D(18,13,14,41)        179.6218         estimate D2E/DX2                !
 ! D45   D(11,13,18,17)        175.0422         estimate D2E/DX2                !
 ! D46   D(11,13,18,42)          3.4507         estimate D2E/DX2                !
 ! D47   D(14,13,18,17)         -3.5678         estimate D2E/DX2                !
 ! D48   D(14,13,18,42)       -175.1593         estimate D2E/DX2                !
 ! D49   D(13,14,15,16)         -4.2318         estimate D2E/DX2                !
 ! D50   D(41,14,15,16)        179.3917         estimate D2E/DX2                !
 ! D51   D(14,15,16,17)          5.8603         estimate D2E/DX2                !
 ! D52   D(14,15,16,19)       -176.8373         estimate D2E/DX2                !
 ! D53   D(15,16,17,18)         -6.2913         estimate D2E/DX2                !
 ! D54   D(19,16,17,18)        176.4066         estimate D2E/DX2                !
 ! D55   D(15,16,19,20)       -178.3017         estimate D2E/DX2                !
 ! D56   D(15,16,19,24)          1.1261         estimate D2E/DX2                !
 ! D57   D(17,16,19,20)         -0.6597         estimate D2E/DX2                !
 ! D58   D(17,16,19,24)        178.7681         estimate D2E/DX2                !
 ! D59   D(16,17,18,13)          4.9042         estimate D2E/DX2                !
 ! D60   D(16,17,18,42)        177.4019         estimate D2E/DX2                !
 ! D61   D(16,19,20,21)         -4.162          estimate D2E/DX2                !
 ! D62   D(16,19,20,22)       -179.2051         estimate D2E/DX2                !
 ! D63   D(24,19,20,21)        176.3626         estimate D2E/DX2                !
 ! D64   D(24,19,20,22)          1.3195         estimate D2E/DX2                !
 ! D65   D(16,19,24,23)        178.3561         estimate D2E/DX2                !
 ! D66   D(20,19,24,23)         -2.1474         estimate D2E/DX2                !
 ! D67   D(19,20,22,23)          0.3473         estimate D2E/DX2                !
 ! D68   D(19,20,22,43)        177.5432         estimate D2E/DX2                !
 ! D69   D(21,20,22,23)       -175.1072         estimate D2E/DX2                !
 ! D70   D(21,20,22,43)          2.0887         estimate D2E/DX2                !
 ! D71   D(20,22,23,24)         -1.9014         estimate D2E/DX2                !
 ! D72   D(20,22,23,25)       -174.1895         estimate D2E/DX2                !
 ! D73   D(43,22,23,24)       -179.1128         estimate D2E/DX2                !
 ! D74   D(43,22,23,25)          8.5991         estimate D2E/DX2                !
 ! D75   D(22,23,24,19)          2.3117         estimate D2E/DX2                !
 ! D76   D(25,23,24,19)        174.916          estimate D2E/DX2                !
 ! D77   D(22,23,25,26)       -148.2911         estimate D2E/DX2                !
 ! D78   D(22,23,25,30)         28.1078         estimate D2E/DX2                !
 ! D79   D(24,23,25,26)         40.1896         estimate D2E/DX2                !
 ! D80   D(24,23,25,30)       -143.4115         estimate D2E/DX2                !
 ! D81   D(23,25,26,27)        175.102          estimate D2E/DX2                !
 ! D82   D(23,25,26,44)          0.5367         estimate D2E/DX2                !
 ! D83   D(30,25,26,27)         -1.6559         estimate D2E/DX2                !
 ! D84   D(30,25,26,44)       -176.2212         estimate D2E/DX2                !
 ! D85   D(23,25,30,29)       -173.8847         estimate D2E/DX2                !
 ! D86   D(23,25,30,45)         -0.6435         estimate D2E/DX2                !
 ! D87   D(26,25,30,29)          2.7029         estimate D2E/DX2                !
 ! D88   D(26,25,30,45)        175.9441         estimate D2E/DX2                !
 ! D89   D(25,26,27,28)          0.9532         estimate D2E/DX2                !
 ! D90   D(44,26,27,28)        176.3064         estimate D2E/DX2                !
 ! D91   D(26,27,28,29)         -1.2197         estimate D2E/DX2                !
 ! D92   D(26,27,28,31)        174.5219         estimate D2E/DX2                !
 ! D93   D(27,28,29,30)          2.1445         estimate D2E/DX2                !
 ! D94   D(31,28,29,30)       -173.6399         estimate D2E/DX2                !
 ! D95   D(27,28,31,32)          9.9969         estimate D2E/DX2                !
 ! D96   D(27,28,31,36)       -177.6933         estimate D2E/DX2                !
 ! D97   D(29,28,31,32)       -174.0686         estimate D2E/DX2                !
 ! D98   D(29,28,31,36)         -1.7588         estimate D2E/DX2                !
 ! D99   D(28,29,30,25)         -3.0103         estimate D2E/DX2                !
 ! D100  D(28,29,30,45)       -176.6915         estimate D2E/DX2                !
 ! D101  D(28,31,32,33)         -8.3138         estimate D2E/DX2                !
 ! D102  D(28,31,32,34)        179.4811         estimate D2E/DX2                !
 ! D103  D(36,31,32,33)        178.9019         estimate D2E/DX2                !
 ! D104  D(36,31,32,34)          6.6968         estimate D2E/DX2                !
 ! D105  D(28,31,36,35)       -177.1781         estimate D2E/DX2                !
 ! D106  D(32,31,36,35)         -3.8225         estimate D2E/DX2                !
 ! D107  D(31,32,34,35)         -6.8695         estimate D2E/DX2                !
 ! D108  D(31,32,34,46)       -177.2957         estimate D2E/DX2                !
 ! D109  D(33,32,34,35)       -179.4199         estimate D2E/DX2                !
 ! D110  D(33,32,34,46)         10.1539         estimate D2E/DX2                !
 ! D111  D(32,34,35,36)          3.9034         estimate D2E/DX2                !
 ! D112  D(32,34,35,47)       -172.6312         estimate D2E/DX2                !
 ! D113  D(46,34,35,36)        175.158          estimate D2E/DX2                !
 ! D114  D(46,34,35,47)         -1.3766         estimate D2E/DX2                !
 ! D115  D(34,35,36,31)         -0.1644         estimate D2E/DX2                !
 ! D116  D(47,35,36,31)        176.9494         estimate D2E/DX2                !
 --------------------------------------------------------------------------------
 Trust Radius=3.00D-01 FncErr=1.00D-07 GrdErr=1.00D-06 EigMax=2.50D+02 EigMin=1.00D-04
 Number of steps in this run=    259 maximum allowed number of steps=    282.
 GradGradGradGradGradGradGradGradGradGradGradGradGradGradGradGradGradGrad

 Leave Link  103 at Fri Jul 24 03:43:35 2020, MaxMem=  4026531840 cpu:               0.1 elap:               0.0
 (Enter /opt/ohpc/pub/libs/gaussian/g16-A.03/sandybridge/g16/l202.exe)
                          Input orientation:                          
 ---------------------------------------------------------------------
 Center     Atomic      Atomic             Coordinates (Angstroms)
 Number     Number       Type             X           Y           Z
 ---------------------------------------------------------------------
      1          6           0       10.603141    2.778238   -0.165918
      2          6           0       10.743870    1.419400    0.142942
      3          7           0        9.650095    0.544965    0.290703
      4          6           0        8.418828    1.135588    0.086555
      5          7           0        8.256235    2.399170   -0.276683
      6          6           0        9.308712    3.239123   -0.424926
      7          6           0        7.313446    0.255114    0.158949
      8          6           0        7.200038   -1.098886    0.541141
      9          9           0        8.265437   -1.762646    0.841517
     10          6           0        5.915008   -1.548334    0.579260
     11          6           0        4.933955   -0.611479    0.187323
     12         16           0        5.706601    0.887519   -0.169604
     13          6           0        3.487764   -0.784633    0.052411
     14          6           0        2.529914    0.187722    0.301888
     15          7           0        1.209667    0.039562    0.275431
     16          6           0        0.828910   -1.179499   -0.118433
     17          7           0        1.585813   -2.228091   -0.364192
     18          6           0        2.941103   -1.997576   -0.322224
     19          6           0       -0.699956   -1.402650   -0.247010
     20          6           0       -1.312278   -2.590216   -0.605092
     21          9           0       -0.760075   -3.674274   -0.959225
     22          6           0       -2.772606   -2.446273   -0.647929
     23          6           0       -3.145378   -1.084815   -0.306405
     24         16           0       -1.820023   -0.165572    0.064726
     25          6           0       -4.466743   -0.608193   -0.132486
     26          6           0       -4.792022    0.717312   -0.455862
     27          7           0       -6.075861    1.189438   -0.395682
     28          6           0       -7.065915    0.379103    0.000802
     29          7           0       -6.863656   -0.894564    0.323658
     30          6           0       -5.529681   -1.370495    0.279005
     31          6           0       -8.438188    0.940612    0.179555
     32          6           0       -8.869152    2.160691   -0.189294
     33          9           0       -8.088298    3.165248   -0.651850
     34          6           0      -10.240244    2.363755    0.121727
     35          6           0      -10.842138    1.239074    0.581042
     36         16           0       -9.740314   -0.090416    0.757602
     37          1           0       11.501758    3.385609   -0.237547
     38          1           0       11.690706    0.974898    0.336529
     39          1           0        9.126084    4.240125   -0.653423
     40          1           0        5.634366   -2.644042    0.849075
     41          1           0        2.856158    1.151570    0.602071
     42          1           0        3.527581   -2.919099   -0.490012
     43          1           0       -3.413262   -3.161164   -0.914985
     44          1           0       -4.146723    1.446496   -0.840769
     45          1           0       -5.421164   -2.438180    0.497538
     46          1           0      -10.835524    3.227327   -0.101084
     47          1           0      -11.929776    1.011900    0.814248
 ---------------------------------------------------------------------
                    Distance matrix (angstroms):
                    1          2          3          4          5
     1  C    0.000000
     2  C    1.400586   0.000000
     3  N    2.470690   1.408124   0.000000
     4  C    2.744679   2.342979   1.380772   0.000000
     5  N    2.379901   2.706356   2.388064   1.324771   0.000000
     6  C    1.398230   2.386115   2.808408   2.340591   1.354697
     7  C    4.158580   3.622655   2.358241   1.415042   2.382352
     8  C    5.207027   4.365670   2.961038   2.585531   3.744434
     9  F    5.205710   4.093416   2.746951   2.998876   4.309428
    10  C    6.422858   5.684692   4.291391   3.703419   4.668701
    11  C    6.614728   6.154799   4.856957   3.899582   4.507422
    12  S    5.248899   5.074905   3.985018   2.735568   2.966005
    13  C    7.960547   7.583998   6.308640   5.291862   5.743102
    14  C    8.491561   8.307308   7.129146   5.968595   6.165712
    15  N    9.794513   9.634445   8.455560   7.294446   7.451624
    16  C   10.545214  10.253245   8.997470   7.937790   8.246034
    17  N   10.315757   9.870734   8.552857   7.629391   8.118727
    18  C    9.029931   8.530843   7.200748   6.323708   6.898121
    19  C   12.051822  11.793099  10.545421   9.471333   9.729752
    20  C   13.076329  12.727422  11.437020  10.442912  10.796215
    21  F   13.091483  12.629372  11.302032  10.415406  10.892494
    22  C   14.367966  14.080626  12.812183  11.773589  12.052032
    23  C   14.281621  14.120348  12.912662  11.781998  11.922073
    24  S   12.769268  12.663714  11.494326  10.321219  10.403146
    25  C   15.445726  15.347630  14.170179  13.004872  13.074372
    26  C   15.535203  15.563272  14.462427  13.228595  13.157422
    27  N   16.756079  16.829924  15.754116  14.502809  14.383553
    28  C   17.831971  17.840708  16.719346  15.503448  15.457230
    29  N   17.855480  17.759844  16.576408  15.418562  15.486129
    30  C   16.663670  16.511526  15.300154  14.173157  14.302819
    31  C   19.132915  19.188067  18.092951  16.858400  16.764227
    32  C   19.482097  19.629838  18.595792  17.320542  17.127270
    33  F   18.701759  18.929613  17.955636  16.647822  16.366777
    34  C   20.849490  21.005364  19.974037  18.699481  18.500803
    35  C   21.513414  21.591206  20.506041  19.267590  19.152790
    36  S   20.565462  20.548945  19.406434  18.212848  18.197350
    37  H    1.086988   2.141295   3.431758   3.830417   3.392346
    38  H    2.165014   1.063746   2.085914   3.285345   3.768311
    39  H    2.134589   3.347823   3.849697   3.268934   2.070673
    40  H    7.424288   6.566370   5.158258   4.756077   5.794438
    41  H    7.953088   7.905601   6.828067   5.586529   5.611555
    42  H    9.090007   8.443816   7.077742   6.379437   7.119667
    43  H   15.241298  14.917277  13.632328  12.627886  12.942253
    44  H   14.825230  14.923075  13.872461  12.603558  12.452275
    45  H   16.865039  16.622725  15.365051  14.299864  14.528270
    46  H   21.443466  21.656371  20.664200  19.368548  19.110519
    47  H   22.623285  22.687242  21.591270  20.361987  20.263013
                    6          7          8          9         10
     6  C    0.000000
     7  C    3.636799   0.000000
     8  C    4.919158   1.411470   0.000000
     9  F    5.264028   2.333140   1.290689   0.000000
    10  C    5.953601   2.320499   1.361895   2.374705   0.000000
    11  C    5.860075   2.532541   2.344757   3.584959   1.412012
    12  S    4.309343   1.757792   2.584824   3.820129   2.556875
    13  C    7.092383   3.965888   3.757471   4.940178   2.598523
    14  C    7.469365   4.786142   4.850017   6.082052   3.814405
    15  N    8.736259   6.108695   6.103377   7.304266   4.975335
    16  C    9.566880   6.647124   6.405686   7.520871   5.146961
    17  N    9.462414   6.264644   5.797780   6.803510   4.482644
    18  C    8.244999   4.942016   4.437518   5.455091   3.139841
    19  C   11.034090   8.193143   7.945021   9.038405   6.667960
    20  C   12.116892   9.114975   8.717651   9.721634   7.397423
    21  F   12.225425   9.048323   8.499831   9.399833   7.172398
    22  C   13.354089  10.472678  10.133260  11.159041   8.819690
    23  C   13.183886  10.554571  10.380085  11.488424   9.115363
    24  S   11.648195   9.143638   9.080724  10.240632   7.874483
    25  C   14.305612  11.815375  11.696509  12.821461  10.448502
    26  C   14.324496  12.129879  12.169720  13.354049  10.992958
    27  N   15.520540  13.433321  13.504205  14.694158  12.338024
    28  C   16.627969  14.380765  14.352485  15.503040  13.135981
    29  N   16.709076  14.224595  14.066859  15.162823  12.797930
    30  C   15.553842  12.946155  12.735314  13.812150  11.450008
    31  C   17.905335  15.766557  15.774803  16.933898  14.572881
    32  C   18.211350  16.298128  16.412716  17.608216  15.261682
    33  F   17.398647  15.695222  15.916635  17.145231  14.826533
    34  C   19.576179  17.679926  17.785647  18.973811  16.628468
    35  C   20.274835  18.187126  18.193069  19.343671  16.987395
    36  S   19.373941  17.067762  16.971723  18.083431  15.724072
    37  H    2.205906   5.243965   6.262735   6.175976   7.498183
    38  H    3.373488   4.439598   4.950611   4.413800   6.307480
    39  H    1.042866   4.452630   5.800144   6.245704   6.733259
    40  H    7.052342   3.420627   2.221184   2.774788   1.162814
    41  H    6.859158   4.568086   4.892602   6.149007   4.080020
    42  H    8.446858   4.982926   4.226511   5.055456   2.953328
    43  H   14.249648  11.308694  10.909419  11.892568   9.583872
    44  H   13.580691  11.565219  11.710578  12.930212  10.593579
    45  H   15.813031  13.020705  12.692137  13.707579  11.371337
    46  H   20.146842  18.392574  18.558288  19.764489  17.431297
    47  H   21.390873  19.269243  19.247852  20.384933  18.029041
                   11         12         13         14         15
    11  C    0.000000
    12  S    1.723767   0.000000
    13  C    1.462755   2.787225   0.000000
    14  C    2.535993   3.286847   1.387512   0.000000
    15  N    3.781790   4.597771   2.432850   1.328798   0.000000
    16  C    4.155422   5.297835   2.693439   2.222471   1.336493
    17  N    3.758678   5.169699   2.423746   2.677899   2.385970
    18  C    2.480396   3.999381   1.382180   2.309571   2.739524
    19  C    5.705747   6.804031   4.243654   3.641790   2.449404
    20  C    6.599905   7.845314   5.170381   4.827214   3.748501
    21  F    6.566374   7.953072   5.236179   5.227757   4.381419
    22  C    7.965877   9.123591   6.514887   5.996399   4.784398
    23  C    8.108233   9.070080   6.649619   5.847932   4.535325
    24  S    6.769792   7.603550   5.343781   4.370700   3.043928
    25  C    9.406137  10.282775   7.958612   7.055166   5.727793
    26  C    9.837378  10.503904   8.430245   7.380068   6.083947
    27  N   11.171358  11.788498   9.775514   8.691916   7.406182
    28  C   12.042131  12.783767  10.617772   9.602459   8.287096
    29  N   11.801794  12.705530  10.355557   9.455738   8.127328
    30  C   10.491529  11.469695   9.039297   8.208875   6.885280
    31  C   13.461919  14.149197  12.050766  10.994593   9.690314
    32  C   14.083768  14.631266  12.705382  11.578971  10.310080
    33  F   13.584806  13.989991  12.251643  11.068952   9.853016
    34  C   15.463267  16.017678  14.084579  12.955482  11.684432
    35  C   15.889137  16.569485  14.481745  13.416223  12.115207
    36  S   14.694587  15.505588  13.265040  12.281837  10.961362
    37  H    7.700212   6.311015   9.038755   9.539992  10.834496
    38  H    6.942085   6.006107   8.394339   9.194616  10.522869
    39  H    6.466750   4.813202   7.585318   7.800259   9.009837
    40  H    2.249401   3.676255   2.949572   4.237443   5.206607
    41  H    2.756374   2.964832   2.109487   1.060918   2.013501
    42  H    2.785997   4.397855   2.202670   3.357794   3.835662
    43  H    8.797273  10.005965   7.362602   6.929441   5.747452
    44  H    9.367548   9.891962   8.003818   6.889678   5.649449
    45  H   10.519580  11.633250   9.072009   8.375756   7.082122
    46  H   16.232562  16.706924  14.875347  13.712641  12.465562
    47  H   16.953283  17.664236  15.540543  14.492219  13.186384
                   16         17         18         19         20
    16  C    0.000000
    17  N    1.316376   0.000000
    18  C    2.274234   1.375394   0.000000
    19  C    1.550406   2.433069   3.690109   0.000000
    20  C    2.609913   2.930546   4.303776   1.383284   0.000000
    21  F    3.075013   2.819344   4.112883   2.381416   1.267091
    22  C    3.854348   4.373091   5.740547   2.354944   1.468030
    23  C    3.979857   4.867709   6.154562   2.466705   2.390753
    24  S    2.842260   4.004706   5.116081   1.697672   2.566196
    25  C    5.326399   6.269864   7.539401   3.851358   3.755319
    26  C    5.941938   7.025709   8.196932   4.613335   4.803189
    27  N    7.305107   8.389383   9.563895   5.970040   6.084518
    28  C    8.048088   9.043400  10.290450   6.615247   6.502946
    29  N    7.710526   8.581664   9.887725   6.210878   5.878402
    30  C    6.373862   7.195792   8.515215   4.858392   4.478374
    31  C    9.511192  10.526962  11.763205   8.096485   7.991308
    32  C   10.257402  11.340119  12.521620   8.912715   8.935902
    33  F    9.933678  11.079679  12.182409   8.695814   8.890557
    34  C   11.624908  12.695542  13.891228  10.263473  10.236145
    35  C   11.939519  12.937104  14.186949  10.513241  10.338695
    36  S   10.661240  11.580554  12.869406   9.190173   8.895939
    37  H   11.608793  11.395422  10.112896  13.107606  14.143730
    38  H   11.082736  10.623512   9.264184  12.630192  13.515705
    39  H    9.924799   9.938670   8.790483  11.338304  12.474586
    40  H    5.115991   4.246859   3.007245   6.547220   7.097419
    41  H    3.172183   3.737586   3.283087   4.459924   5.730102
    42  H    3.232198   2.064894   1.105131   4.497859   4.852385
    43  H    4.749475   5.115149   6.487161   3.301604   2.199125
    44  H    5.672261   6.825810   7.897329   4.511140   4.938083
    45  H    6.405242   7.062892   8.413896   4.890448   4.256977
    46  H   12.469139  13.569098  14.735806  11.143954  11.170946
    47  H   12.979067  13.948384  15.214847  11.535388  11.301373
                   21         22         23         24         25
    21  F    0.000000
    22  C    2.378061   0.000000
    23  C    3.580662   1.452297   0.000000
    24  S    3.805648   2.572331   1.655087   0.000000
    25  C    4.880957   2.552317   1.415423   2.690712   0.000000
    26  C    5.982976   3.758085   2.445697   3.143767   1.402620
    27  N    7.227092   4.918691   3.710516   4.490009   2.426934
    28  C    7.557456   5.180357   4.196194   5.274480   2.783561
    29  N    6.828344   4.482017   3.776078   5.102618   2.456678
    30  C    5.439646   3.101285   2.471683   3.906318   1.371228
    31  C    9.030361   6.652409   5.687913   6.710956   4.274171
    32  C   10.019817   7.655216   6.580928   7.427398   5.201072
    33  F   10.028778   7.729538   6.528003   7.134362   5.255878
    34  C   11.291583   8.915961   7.900193   8.792091   6.498493
    35  C   11.320839   8.955976   8.088766   9.145391   6.675865
    36  S    9.820195   7.488293   6.753823   7.950895   5.373165
    37  H   14.167403  15.425198  15.314308  13.790290  16.460696
    38  H   13.353491  14.894998  14.992170  13.561502  16.241592
    39  H   12.667571  13.648691  13.381487  11.821301  14.441001
    40  H    6.724597   8.541505   8.991675   7.894677  10.350872
    41  H    6.229250   6.796319   6.468785   4.887768   7.567114
    42  H    4.378863   6.319878   6.922911   6.040407   8.329305
    43  H    2.702710   0.996408   2.180219   3.531546   2.870503
    44  H    6.140497   4.132679   2.774125   2.971905   2.196776
    45  H    5.037444   2.885658   2.767151   4.280221   2.157939
    46  H   12.242678   9.874180   8.819018   9.634237   7.434620
    47  H   12.242045   9.897004   9.100424  10.205652   7.695315
                   26         27         28         29         30
    26  C    0.000000
    27  N    1.369221   0.000000
    28  C    2.343825   1.339421   0.000000
    29  N    2.738150   2.341182   1.329426   0.000000
    30  C    2.333047   2.703104   2.344889   1.417037   0.000000
    31  C    3.707849   2.444054   1.493445   2.422352   3.716251
    32  C    4.333289   2.964524   2.542018   3.690490   4.882688
    33  F    4.110503   2.831846   3.038721   4.351257   5.290177
    34  C    5.720796   4.357616   3.745642   4.696676   6.013216
    35  C    6.160463   4.865578   3.916132   4.521833   5.926489
    36  S    5.158538   4.049235   2.818795   3.018298   4.426860
    37  H   16.512260  17.714990  18.811017  18.865929  17.690598
    38  H   16.503774  17.782943  18.769084  18.648308  17.379468
    39  H   14.358374  15.507168  16.658821  16.822351  15.720685
    40  H   11.032277  12.384442  13.082664  12.630807  11.250904
    41  H    7.733205   8.987653   9.970244   9.936748   8.762847
    42  H    9.079672  10.445816  11.105908  10.617844   9.220822
    43  H    4.141781   5.127070   5.168562   4.310096   3.018499
    44  H    1.047031   1.996435   3.220132   3.770700   3.331952
    45  H    3.355879   3.792899   3.299854   2.119851   1.095210
    46  H    6.553622   5.185959   4.725750   5.739872   7.031103
    47  H    7.255859   5.980282   4.971848   5.435150   6.850074
                   31         32         33         34         35
    31  C    0.000000
    32  C    1.345501   0.000000
    33  F    2.400555   1.353819   0.000000
    34  C    2.296973   1.420515   2.423156   0.000000
    35  C    2.455452   2.309863   3.579637   1.355785   0.000000
    36  S    1.758604   2.592878   3.913446   2.584032   1.735723
    37  H   20.093617  20.407761  19.595676  21.768967  22.461687
    38  H   20.129535  20.600737  19.924445  21.975933  22.535719
    39  H   17.890900  18.120927  17.247907  19.472449  20.230178
    40  H   14.537358  15.313906  14.977054  16.661642  16.930021
    41  H   11.304215  11.795231  11.198586  13.161150  13.698592
    42  H   12.590684  13.400511  13.113890  14.759261  14.997546
    43  H    6.578181   7.656076   7.870749   8.843483   8.762898
    44  H    4.440006   4.820356   4.304162   6.236887   6.847858
    45  H    4.540901   5.788780   6.311347   6.813468   6.551040
    46  H    3.324913   2.238775   2.802579   1.072268   2.102020
    47  H    3.549522   3.419684   4.641477   2.271919   1.135319
                   36         37         38         39         40
    36  S    0.000000
    37  H   21.547591   0.000000
    38  H   21.461613   2.485315   0.000000
    39  H   19.408389   2.558706   4.268372   0.000000
    40  H   15.585575   8.483144   7.073803   7.863927   0.000000
    41  H   12.658508   8.968962   8.840303   7.101226   4.710215
    42  H   13.623327  10.168608   9.082015   9.089798   2.511444
    43  H    7.229013  16.302668  15.709970  14.563059   9.232491
    44  H    6.017071  15.779702  15.888127  13.564913  10.735817
    45  H    4.922874  17.912067  17.449674  16.048268  11.063033
    46  H    3.597811  22.338260  22.642791  19.994915  17.510941
    47  H    2.451949  23.574935  23.625341  21.352394  17.940630
                   41         42         43         44         45
    41  H    0.000000
    42  H    4.267763   0.000000
    43  H    7.759302   6.958053   0.000000
    44  H    7.156054   8.836085   4.666262   0.000000
    45  H    9.022821   9.015907   2.559218   4.301857   0.000000
    46  H   13.865978  15.627815   9.826761   6.961218   7.859492
    47  H   14.788116  16.002616   9.640317   7.968931   7.373289
                   46         47
    46  H    0.000000
    47  H    2.635021   0.000000
 Stoichiometry    C24H11F3N6S3
 Framework group  C1[X(C24H11F3N6S3)]
 Deg. of freedom   135
 Full point group                 C1      NOp   1
 Largest Abelian subgroup         C1      NOp   1
 Largest concise Abelian subgroup C1      NOp   1
                         Standard orientation:                         
 ---------------------------------------------------------------------
 Center     Atomic      Atomic             Coordinates (Angstroms)
 Number     Number       Type             X           Y           Z
 ---------------------------------------------------------------------
      1          6           0       10.604758    2.760562   -0.168220
      2          6           0       10.744116    1.401839    0.141766
      3          7           0        9.649458    0.528638    0.290279
      4          6           0        8.418786    1.120339    0.085668
      5          7           0        8.257466    2.383783   -0.278617
      6          6           0        9.310791    3.222545   -0.427582
      7          6           0        7.312513    0.241048    0.158819
      8          6           0        7.197740   -1.112518    0.542139
      9          9           0        8.262472   -1.777109    0.843043
     10          6           0        5.912256   -1.560631    0.580661
     11          6           0        4.932144   -0.623107    0.187968
     12         16           0        5.706302    0.874809   -0.170223
     13          6           0        3.485775   -0.794906    0.053233
     14          6           0        2.528918    0.178627    0.301923
     15          7           0        1.208521    0.031785    0.275619
     16          6           0        0.826518   -1.187217   -0.117223
     17          7           0        1.582351   -2.236780   -0.362127
     18          6           0        2.937875   -2.007605   -0.320381
     19          6           0       -0.702576   -1.408923   -0.245579
     20          6           0       -1.316111   -2.596165   -0.602660
     21          9           0       -0.765017   -3.681077   -0.955904
     22          6           0       -2.776293   -2.450776   -0.645583
     23          6           0       -3.147676   -1.088657   -0.305183
     24         16           0       -1.821381   -0.170451    0.065153
     25          6           0       -4.468553   -0.610551   -0.131630
     26          6           0       -4.792495    0.715014   -0.456101
     27          7           0       -6.075853    1.188492   -0.396285
     28          6           0       -7.066719    0.379492    0.000896
     29          7           0       -6.865744   -0.894111    0.324806
     30          6           0       -5.532254   -1.371432    0.280518
     31          6           0       -8.438417    0.942541    0.179213
     32          6           0       -8.868152    2.162750   -0.190641
     33          9           0       -8.086290    3.166129   -0.654050
     34          6           0      -10.239030    2.367463    0.120242
     35          6           0      -10.842054    1.243775    0.580506
     36         16           0       -9.741575   -0.086684    0.758146
     37          1           0       11.503989    3.366962   -0.240375
     38          1           0       11.690505    0.956538    0.335701
     39          1           0        9.129173    4.223541   -0.656907
     40          1           0        5.630509   -2.655829    0.851394
     41          1           0        2.856147    1.142393    0.601297
     42          1           0        3.523414   -2.929862   -0.487416
     43          1           0       -3.417681   -3.165239   -0.912030
     44          1           0       -4.146465    1.443223   -0.841629
     45          1           0       -5.424815   -2.439044    0.499936
     46          1           0      -10.833439    3.231453   -0.103273
     47          1           0      -11.929916    1.017899    0.813926
 ---------------------------------------------------------------------
 Rotational constants (GHZ):           0.3051712           0.0209026           0.0197234
 Leave Link  202 at Fri Jul 24 03:43:35 2020, MaxMem=  4026531840 cpu:               0.1 elap:               0.0
 (Enter /opt/ohpc/pub/libs/gaussian/g16-A.03/sandybridge/g16/l301.exe)
 Standard basis: CC-pVDZ (5D, 7F)
 Ernie: Thresh=  0.10000D-02 Tol=  0.10000D-05 Strict=F.
 Ernie:  96 primitive shells out of 931 were deleted.
 There are   607 symmetry adapted cartesian basis functions of A   symmetry.
 There are   571 symmetry adapted basis functions of A   symmetry.
   571 basis functions,  1379 primitive gaussians,   607 cartesian basis functions
   136 alpha electrons      136 beta electrons
       nuclear repulsion energy      3660.2408611338 Hartrees.
 IExCor=32609 DFT=T Ex+Corr=LC-wPBE ExCW=0 ScaHFX=  1.000000
 ScaDFX=  1.000000  0.000000  1.000000  1.000000 ScalE2=  1.000000  1.000000
 IRadAn=      5 IRanWt=     -1 IRanGd=            0 ICorTp=0 IEmpDi=  4
 HFx  wShort=  0.000000 wLong=  0.070700 cFull=  0.000000 cShort=  0.000000 cLong=  1.000000
 DFx  wShort=  0.000000 wLong=  0.070700 cFull=  0.000000 cShort=  0.000000 cLong=  1.000000
 NAtoms=   47 NActive=   47 NUniq=   47 SFac= 1.00D+00 NAtFMM=   60 NAOKFM=F Big=F
 Integral buffers will be    131072 words long.
 Raffenetti 2 integral format.
 Two-electron integral symmetry is turned on.
 Leave Link  301 at Fri Jul 24 03:43:35 2020, MaxMem=  4026531840 cpu:               0.4 elap:               0.1
 (Enter /opt/ohpc/pub/libs/gaussian/g16-A.03/sandybridge/g16/l302.exe)
 NPDir=0 NMtPBC=     1 NCelOv=     1 NCel=       1 NClECP=     1 NCelD=      1
         NCelK=      1 NCelE2=     1 NClLst=     1 CellRange=     0.0.
 One-electron integrals computed using PRISM.
 One-electron integral symmetry used in STVInt
 NBasis=   571 RedAO= T EigKep=  3.91D-04  NBF=   571
 NBsUse=   571 1.00D-06 EigRej= -1.00D+00 NBFU=   571
 Precomputing XC quadrature grid using
 IXCGrd= 4 IRadAn=           5 IRanWt=          -1 IRanGd=           0 AccXCQ= 0.00D+00.
 Generated NRdTot=       0 NPtTot=           0 NUsed=           0 NTot=          32
 NSgBfM=   513   513   513   513   513 MxSgAt=    47 MxSgA2=    47.
 Leave Link  302 at Fri Jul 24 03:43:36 2020, MaxMem=  4026531840 cpu:               7.8 elap:               1.0
 (Enter /opt/ohpc/pub/libs/gaussian/g16-A.03/sandybridge/g16/l303.exe)
 DipDrv:  MaxL=1.
 Leave Link  303 at Fri Jul 24 03:43:36 2020, MaxMem=  4026531840 cpu:               0.8 elap:               0.1
 (Enter /opt/ohpc/pub/libs/gaussian/g16-A.03/sandybridge/g16/l401.exe)
 ExpMin= 1.22D-01 ExpMax= 1.11D+05 ExpMxC= 1.07D+03 IAcc=3 IRadAn=         5 AccDes= 0.00D+00
 Harris functional with IExCor=32609 and IRadAn=       5 diagonalized for initial guess.
 HarFok:  IExCor=32609 AccDes= 0.00D+00 IRadAn=         5 IDoV= 1 UseB2=F ITyADJ=14
 ICtDFT=  3500011 ScaDFX=  1.000000  1.000000  1.000000  1.000000
 FoFCou: FMM=F IPFlag=           0 FMFlag=      100000 FMFlg1=           0
         NFxFlg=           0 DoJE=T BraDBF=F KetDBF=T FulRan=T
         wScrn=  0.000000 ICntrl=       500 IOpCl=  0 I1Cent=   200000004 NGrid=           0
         NMat0=    1 NMatS0=      1 NMatT0=    0 NMatD0=    1 NMtDS0=    0 NMtDT0=    0
 Petite list used in FoFCou.
 Harris En= -2741.84607545655    
 JPrj=0 DoOrth=F DoCkMO=F.
 Initial guess <Sx>= 0.0000 <Sy>= 0.0000 <Sz>= 0.0000 <S**2>= 0.0000 S= 0.0000
 Leave Link  401 at Fri Jul 24 03:43:41 2020, MaxMem=  4026531840 cpu:              35.5 elap:               4.5
 (Enter /opt/ohpc/pub/libs/gaussian/g16-A.03/sandybridge/g16/l502.exe)
 Integral symmetry usage will be decided dynamically.
 UHF open shell SCF:
 Using DIIS extrapolation, IDIIS=  1040.
 NGot=  4026531840 LenX=  4025784083 LenY=  4025415027
 Requested convergence on RMS density matrix=1.00D-08 within 128 cycles.
 Requested convergence on MAX density matrix=1.00D-06.
 Requested convergence on             energy=1.00D-06.
 No special actions if energy rises.
 Fock matrices will be formed incrementally for  20 cycles.
 Integral accuracy reduced to 1.0D-05 until final iterations.

 Cycle   1  Pass 0  IDiag  1:
 FoFJK:  IHMeth= 1 ICntrl=       0 DoSepK=T KAlg= 0 I1Cent=           0 FoldK=F
 IRaf=         1 NMat=       1 IRICut=       1 DoRegI=T DoRafI=F ISym2E= 0 IDoP0=0 IntGTp=1.
 FoFCou: FMM=F IPFlag=           0 FMFlag=      100000 FMFlg1=           0
         NFxFlg=           0 DoJE=T BraDBF=F KetDBF=F FulRan=T
         wScrn=  0.000000 ICntrl=       500 IOpCl=  0 I1Cent=           0 NGrid=           0
         NMat0=    1 NMatS0=      1 NMatT0=    0 NMatD0=    1 NMtDS0=    0 NMtDT0=    0
 Symmetry not used in FoFCou.
 E= -2741.31551554440    
 DIIS: error= 1.52D-02 at cycle   1 NSaved=   1.
 NSaved= 1 IEnMin= 1 EnMin= -2741.31551554440     IErMin= 1 ErrMin= 1.52D-02
 ErrMax= 1.52D-02  0.00D+00 EMaxC= 1.00D-01 BMatC= 1.90D+00 BMatP= 1.90D+00
 IDIUse=3 WtCom= 8.48D-01 WtEn= 1.52D-01
 Coeff-Com:  0.100D+01
 Coeff-En:   0.100D+01
 Coeff:      0.100D+01
 Gap=     0.159 Goal=   None    Shift=    0.000
 Gap=     0.159 Goal=   None    Shift=    0.000
 GapD=    0.159 DampG=1.000 DampE=0.500 DampFc=0.5000 IDamp=-1.
 Damping current iteration by 5.00D-01
 RMSDP=3.38D-03 MaxDP=1.80D-01              OVMax= 2.46D-01

 Cycle   2  Pass 0  IDiag  1:
 RMSU=  1.69D-03    CP:  9.96D-01
 E= -2741.48689958079     Delta-E=       -0.171384036389 Rises=F Damp=T
 DIIS: error= 6.63D-03 at cycle   2 NSaved=   2.
 NSaved= 2 IEnMin= 2 EnMin= -2741.48689958079     IErMin= 2 ErrMin= 6.63D-03
 ErrMax= 6.63D-03  0.00D+00 EMaxC= 1.00D-01 BMatC= 2.02D-01 BMatP= 1.90D+00
 IDIUse=3 WtCom= 9.34D-01 WtEn= 6.63D-02
 Coeff-Com:  0.192D+00 0.808D+00
 Coeff-En:   0.313D+00 0.687D+00
 Coeff:      0.200D+00 0.800D+00
 Gap=     0.159 Goal=   None    Shift=    0.000
 Gap=     0.159 Goal=   None    Shift=    0.000
 RMSDP=8.91D-04 MaxDP=3.77D-02 DE=-1.71D-01 OVMax= 2.44D-01

 Cycle   3  Pass 0  IDiag  1:
 RMSU=  8.52D-04    CP:  9.96D-01  8.45D-01
 E= -2741.81974046916     Delta-E=       -0.332840888372 Rises=F Damp=F
 DIIS: error= 3.54D-03 at cycle   3 NSaved=   3.
 NSaved= 3 IEnMin= 3 EnMin= -2741.81974046916     IErMin= 3 ErrMin= 3.54D-03
 ErrMax= 3.54D-03  0.00D+00 EMaxC= 1.00D-01 BMatC= 9.86D-02 BMatP= 2.02D-01
 IDIUse=3 WtCom= 9.65D-01 WtEn= 3.54D-02
 Coeff-Com:  0.724D-01 0.417D+00 0.511D+00
 Coeff-En:   0.000D+00 0.000D+00 0.100D+01
 Coeff:      0.698D-01 0.402D+00 0.528D+00
 Gap=     0.159 Goal=   None    Shift=    0.000
 Gap=     0.159 Goal=   None    Shift=    0.000
 RMSDP=4.43D-04 MaxDP=2.10D-02 DE=-3.33D-01 OVMax= 4.50D-02

 Cycle   4  Pass 0  IDiag  1:
 RMSU=  3.09D-04    CP:  9.97D-01  8.78D-01  6.33D-01
 E= -2741.84029154987     Delta-E=       -0.020551080715 Rises=F Damp=F
 DIIS: error= 2.58D-03 at cycle   4 NSaved=   4.
 NSaved= 4 IEnMin= 4 EnMin= -2741.84029154987     IErMin= 4 ErrMin= 2.58D-03
 ErrMax= 2.58D-03  0.00D+00 EMaxC= 1.00D-01 BMatC= 2.60D-02 BMatP= 9.86D-02
 IDIUse=3 WtCom= 9.74D-01 WtEn= 2.58D-02
 Coeff-Com:  0.241D-01 0.132D+00 0.341D+00 0.503D+00
 Coeff-En:   0.000D+00 0.000D+00 0.217D+00 0.783D+00
 Coeff:      0.235D-01 0.129D+00 0.338D+00 0.510D+00
 Gap=     0.154 Goal=   None    Shift=    0.000
 Gap=     0.154 Goal=   None    Shift=    0.000
 RMSDP=1.62D-04 MaxDP=9.92D-03 DE=-2.06D-02 OVMax= 1.86D-02

 Cycle   5  Pass 0  IDiag  1:
 RMSU=  9.81D-05    CP:  9.97D-01  8.61D-01  6.96D-01  6.35D-01
 E= -2741.84631545239     Delta-E=       -0.006023902515 Rises=F Damp=F
 DIIS: error= 1.11D-03 at cycle   5 NSaved=   5.
 NSaved= 5 IEnMin= 5 EnMin= -2741.84631545239     IErMin= 5 ErrMin= 1.11D-03
 ErrMax= 1.11D-03  0.00D+00 EMaxC= 1.00D-01 BMatC= 2.29D-03 BMatP= 2.60D-02
 IDIUse=3 WtCom= 9.89D-01 WtEn= 1.11D-02
 Coeff-Com:  0.960D-02 0.279D-01 0.142D+00 0.297D+00 0.523D+00
 Coeff-En:   0.000D+00 0.000D+00 0.000D+00 0.000D+00 0.100D+01
 Coeff:      0.949D-02 0.276D-01 0.141D+00 0.294D+00 0.529D+00
 Gap=     0.155 Goal=   None    Shift=    0.000
 Gap=     0.155 Goal=   None    Shift=    0.000
 RMSDP=5.34D-05 MaxDP=3.53D-03 DE=-6.02D-03 OVMax= 6.21D-03

 Cycle   6  Pass 0  IDiag  1:
 RMSU=  3.91D-05    CP:  9.97D-01  8.58D-01  7.01D-01  6.89D-01  6.76D-01
 E= -2741.84677476097     Delta-E=       -0.000459308585 Rises=F Damp=F
 DIIS: error= 4.71D-04 at cycle   6 NSaved=   6.
 NSaved= 6 IEnMin= 6 EnMin= -2741.84677476097     IErMin= 6 ErrMin= 4.71D-04
 ErrMax= 4.71D-04  0.00D+00 EMaxC= 1.00D-01 BMatC= 4.03D-04 BMatP= 2.29D-03
 IDIUse=3 WtCom= 9.95D-01 WtEn= 4.71D-03
 Coeff-Com:  0.317D-02-0.679D-02 0.320D-01 0.102D+00 0.338D+00 0.531D+00
 Coeff-En:   0.000D+00 0.000D+00 0.000D+00 0.000D+00 0.132D+00 0.868D+00
 Coeff:      0.315D-02-0.676D-02 0.319D-01 0.102D+00 0.337D+00 0.533D+00
 Gap=     0.155 Goal=   None    Shift=    0.000
 Gap=     0.155 Goal=   None    Shift=    0.000
 RMSDP=2.00D-05 MaxDP=1.27D-03 DE=-4.59D-04 OVMax= 2.02D-03

 Cycle   7  Pass 0  IDiag  1:
 RMSU=  1.21D-05    CP:  9.97D-01  8.57D-01  7.06D-01  6.92D-01  7.60D-01
                    CP:  6.84D-01
 E= -2741.84686743866     Delta-E=       -0.000092677684 Rises=F Damp=F
 DIIS: error= 9.93D-05 at cycle   7 NSaved=   7.
 NSaved= 7 IEnMin= 7 EnMin= -2741.84686743866     IErMin= 7 ErrMin= 9.93D-05
 ErrMax= 9.93D-05  0.00D+00 EMaxC= 1.00D-01 BMatC= 2.78D-05 BMatP= 4.03D-04
 IDIUse=1 WtCom= 1.00D+00 WtEn= 0.00D+00
 Coeff-Com:  0.125D-02-0.634D-02 0.738D-02 0.345D-01 0.144D+00 0.293D+00
 Coeff-Com:  0.526D+00
 Coeff:      0.125D-02-0.634D-02 0.738D-02 0.345D-01 0.144D+00 0.293D+00
 Coeff:      0.526D+00
 Gap=     0.156 Goal=   None    Shift=    0.000
 Gap=     0.156 Goal=   None    Shift=    0.000
 RMSDP=6.41D-06 MaxDP=3.65D-04 DE=-9.27D-05 OVMax= 6.21D-04

 Initial convergence to 1.0D-05 achieved.  Increase integral accuracy.
 Cycle   8  Pass 1  IDiag  1:
 E= -2741.84649940409     Delta-E=        0.000368034569 Rises=F Damp=F
 DIIS: error= 1.37D-04 at cycle   1 NSaved=   1.
 NSaved= 1 IEnMin= 1 EnMin= -2741.84649940409     IErMin= 1 ErrMin= 1.37D-04
 ErrMax= 1.37D-04  0.00D+00 EMaxC= 1.00D-01 BMatC= 2.51D-05 BMatP= 2.51D-05
 IDIUse=3 WtCom= 9.99D-01 WtEn= 1.37D-03
 Coeff-Com:  0.100D+01
 Coeff-En:   0.100D+01
 Coeff:      0.100D+01
 Gap=     0.155 Goal=   None    Shift=    0.000
 Gap=     0.155 Goal=   None    Shift=    0.000
 RMSDP=6.41D-06 MaxDP=3.65D-04 DE= 3.68D-04 OVMax= 6.29D-04

 Cycle   9  Pass 1  IDiag  1:
 RMSU=  7.45D-05    CP:  1.00D+00
 E= -2741.84649963204     Delta-E=       -0.000000227947 Rises=F Damp=F
 DIIS: error= 8.50D-05 at cycle   2 NSaved=   2.
 NSaved= 2 IEnMin= 2 EnMin= -2741.84649963204     IErMin= 2 ErrMin= 8.50D-05
 ErrMax= 8.50D-05  0.00D+00 EMaxC= 1.00D-01 BMatC= 2.24D-05 BMatP= 2.51D-05
 IDIUse=1 WtCom= 1.00D+00 WtEn= 0.00D+00
 Coeff-Com:  0.480D+00 0.520D+00
 Coeff:      0.480D+00 0.520D+00
 Gap=     0.156 Goal=   None    Shift=    0.000
 Gap=     0.156 Goal=   None    Shift=    0.000
 RMSDP=7.41D-06 MaxDP=4.97D-04 DE=-2.28D-07 OVMax= 8.28D-04

 Cycle  10  Pass 1  IDiag  1:
 RMSU=  7.35D-06    CP:  1.00D+00  1.01D+00
 E= -2741.84650216944     Delta-E=       -0.000002537399 Rises=F Damp=F
 DIIS: error= 6.49D-05 at cycle   3 NSaved=   3.
 NSaved= 3 IEnMin= 3 EnMin= -2741.84650216944     IErMin= 3 ErrMin= 6.49D-05
 ErrMax= 6.49D-05  0.00D+00 EMaxC= 1.00D-01 BMatC= 1.22D-05 BMatP= 2.24D-05
 IDIUse=1 WtCom= 1.00D+00 WtEn= 0.00D+00
 Coeff-Com:  0.199D-02 0.423D+00 0.575D+00
 Coeff:      0.199D-02 0.423D+00 0.575D+00
 Gap=     0.155 Goal=   None    Shift=    0.000
 Gap=     0.155 Goal=   None    Shift=    0.000
 RMSDP=3.66D-06 MaxDP=2.25D-04 DE=-2.54D-06 OVMax= 4.73D-04

 Cycle  11  Pass 1  IDiag  1:
 RMSU=  1.15D-06    CP:  1.00D+00  1.04D+00  5.91D-01
 E= -2741.84650515051     Delta-E=       -0.000002981070 Rises=F Damp=F
 DIIS: error= 1.68D-05 at cycle   4 NSaved=   4.
 NSaved= 4 IEnMin= 4 EnMin= -2741.84650515051     IErMin= 4 ErrMin= 1.68D-05
 ErrMax= 1.68D-05  0.00D+00 EMaxC= 1.00D-01 BMatC= 5.72D-07 BMatP= 1.22D-05
 IDIUse=1 WtCom= 1.00D+00 WtEn= 0.00D+00
 Coeff-Com: -0.118D-01 0.263D+00 0.375D+00 0.373D+00
 Coeff:     -0.118D-01 0.263D+00 0.375D+00 0.373D+00
 Gap=     0.156 Goal=   None    Shift=    0.000
 Gap=     0.156 Goal=   None    Shift=    0.000
 RMSDP=6.68D-07 MaxDP=4.66D-05 DE=-2.98D-06 OVMax= 1.12D-04

 Cycle  12  Pass 1  IDiag  1:
 RMSU=  3.74D-07    CP:  1.00D+00  1.04D+00  6.07D-01  5.33D-01
 E= -2741.84650532087     Delta-E=       -0.000000170362 Rises=F Damp=F
 DIIS: error= 2.50D-06 at cycle   5 NSaved=   5.
 NSaved= 5 IEnMin= 5 EnMin= -2741.84650532087     IErMin= 5 ErrMin= 2.50D-06
 ErrMax= 2.50D-06  0.00D+00 EMaxC= 1.00D-01 BMatC= 1.23D-08 BMatP= 5.72D-07
 IDIUse=1 WtCom= 1.00D+00 WtEn= 0.00D+00
 Coeff-Com: -0.667D-02 0.130D+00 0.187D+00 0.208D+00 0.482D+00
 Coeff:     -0.667D-02 0.130D+00 0.187D+00 0.208D+00 0.482D+00
 Gap=     0.156 Goal=   None    Shift=    0.000
 Gap=     0.156 Goal=   None    Shift=    0.000
 RMSDP=1.37D-07 MaxDP=1.02D-05 DE=-1.70D-07 OVMax= 1.56D-05

 Cycle  13  Pass 1  IDiag  1:
 RMSU=  1.25D-07    CP:  1.00D+00  1.04D+00  6.06D-01  5.59D-01  8.86D-01
 E= -2741.84650532382     Delta-E=       -0.000000002951 Rises=F Damp=F
 DIIS: error= 8.74D-07 at cycle   6 NSaved=   6.
 NSaved= 6 IEnMin= 6 EnMin= -2741.84650532382     IErMin= 6 ErrMin= 8.74D-07
 ErrMax= 8.74D-07  0.00D+00 EMaxC= 1.00D-01 BMatC= 1.96D-09 BMatP= 1.23D-08
 IDIUse=1 WtCom= 1.00D+00 WtEn= 0.00D+00
 Coeff-Com: -0.123D-02 0.173D-01 0.252D-01 0.362D-01 0.287D+00 0.635D+00
 Coeff:     -0.123D-02 0.173D-01 0.252D-01 0.362D-01 0.287D+00 0.635D+00
 Gap=     0.156 Goal=   None    Shift=    0.000
 Gap=     0.156 Goal=   None    Shift=    0.000
 RMSDP=6.91D-08 MaxDP=3.15D-06 DE=-2.95D-09 OVMax= 1.29D-05

 Cycle  14  Pass 1  IDiag  1:
 RMSU=  5.03D-08    CP:  1.00D+00  1.04D+00  6.07D-01  5.68D-01  9.90D-01
                    CP:  8.44D-01
 E= -2741.84650532425     Delta-E=       -0.000000000431 Rises=F Damp=F
 DIIS: error= 5.38D-07 at cycle   7 NSaved=   7.
 NSaved= 7 IEnMin= 7 EnMin= -2741.84650532425     IErMin= 7 ErrMin= 5.38D-07
 ErrMax= 5.38D-07  0.00D+00 EMaxC= 1.00D-01 BMatC= 4.93D-10 BMatP= 1.96D-09
 IDIUse=1 WtCom= 1.00D+00 WtEn= 0.00D+00
 Coeff-Com:  0.584D-03-0.161D-01-0.229D-01-0.202D-01 0.923D-01 0.416D+00
 Coeff-Com:  0.551D+00
 Coeff:      0.584D-03-0.161D-01-0.229D-01-0.202D-01 0.923D-01 0.416D+00
 Coeff:      0.551D+00
 Gap=     0.156 Goal=   None    Shift=    0.000
 Gap=     0.156 Goal=   None    Shift=    0.000
 RMSDP=3.16D-08 MaxDP=1.38D-06 DE=-4.31D-10 OVMax= 5.33D-06

 Cycle  15  Pass 1  IDiag  1:
 RMSU=  2.38D-08    CP:  1.00D+00  1.04D+00  6.07D-01  5.76D-01  1.02D+00
                    CP:  9.28D-01  8.41D-01
 E= -2741.84650532446     Delta-E=       -0.000000000207 Rises=F Damp=F
 DIIS: error= 1.44D-07 at cycle   8 NSaved=   8.
 NSaved= 8 IEnMin= 8 EnMin= -2741.84650532446     IErMin= 8 ErrMin= 1.44D-07
 ErrMax= 1.44D-07  0.00D+00 EMaxC= 1.00D-01 BMatC= 4.99D-11 BMatP= 4.93D-10
 IDIUse=1 WtCom= 1.00D+00 WtEn= 0.00D+00
 Coeff-Com:  0.518D-03-0.116D-01-0.166D-01-0.171D-01 0.446D-02 0.127D+00
 Coeff-Com:  0.301D+00 0.613D+00
 Coeff:      0.518D-03-0.116D-01-0.166D-01-0.171D-01 0.446D-02 0.127D+00
 Coeff:      0.301D+00 0.613D+00
 Gap=     0.156 Goal=   None    Shift=    0.000
 Gap=     0.156 Goal=   None    Shift=    0.000
 RMSDP=1.16D-08 MaxDP=5.69D-07 DE=-2.07D-10 OVMax= 2.22D-06

 Cycle  16  Pass 1  IDiag  1:
 RMSU=  8.80D-09    CP:  1.00D+00  1.04D+00  6.07D-01  5.78D-01  1.03D+00
                    CP:  9.55D-01  9.42D-01  9.68D-01
 E= -2741.84650532444     Delta-E=        0.000000000015 Rises=F Damp=F
 DIIS: error= 5.96D-08 at cycle   9 NSaved=   9.
 NSaved= 9 IEnMin= 8 EnMin= -2741.84650532446     IErMin= 9 ErrMin= 5.96D-08
 ErrMax= 5.96D-08  0.00D+00 EMaxC= 1.00D-01 BMatC= 1.16D-11 BMatP= 4.99D-11
 IDIUse=1 WtCom= 1.00D+00 WtEn= 0.00D+00
 Coeff-Com:  0.246D-03-0.519D-02-0.741D-02-0.797D-02-0.545D-02 0.356D-01
 Coeff-Com:  0.124D+00 0.381D+00 0.485D+00
 Coeff:      0.246D-03-0.519D-02-0.741D-02-0.797D-02-0.545D-02 0.356D-01
 Coeff:      0.124D+00 0.381D+00 0.485D+00
 Gap=     0.156 Goal=   None    Shift=    0.000
 Gap=     0.156 Goal=   None    Shift=    0.000
 RMSDP=4.45D-09 MaxDP=3.05D-07 DE= 1.46D-11 OVMax= 7.29D-07

 SCF Done:  E(ULC-wPBE) =  -2741.84650532     A.U. after   16 cycles
            NFock= 16  Conv=0.44D-08     -V/T= 2.0040
 <Sx>= 0.0000 <Sy>= 0.0000 <Sz>= 0.0000 <S**2>=-0.0000 S=-0.0000
 <L.S>= 0.000000000000E+00
 KE= 2.730947182787D+03 PE=-1.377648709446D+04 EE= 4.643452545218D+03
 Annihilation of the first spin contaminant:
 S**2 before annihilation    -0.0000,   after    -0.0000
 Leave Link  502 at Fri Jul 24 03:49:15 2020, MaxMem=  4026531840 cpu:            2669.6 elap:             334.7
 (Enter /opt/ohpc/pub/libs/gaussian/g16-A.03/sandybridge/g16/l601.exe)
 Copying SCF densities to generalized density rwf, IOpCl= 1 IROHF=0.

 **********************************************************************

            Population analysis using the SCF density.

 **********************************************************************

 Orbital symmetries:
 Alpha Orbitals:
       Occupied  (A) (A) (A) (A) (A) (A) (A) (A) (A) (A) (A) (A)
                 (A) (A) (A) (A) (A) (A) (A) (A) (A) (A) (A) (A)
                 (A) (A) (A) (A) (A) (A) (A) (A) (A) (A) (A) (A)
                 (A) (A) (A) (A) (A) (A) (A) (A) (A) (A) (A) (A)
                 (A) (A) (A) (A) (A) (A) (A) (A) (A) (A) (A) (A)
                 (A) (A) (A) (A) (A) (A) (A) (A) (A) (A) (A) (A)
                 (A) (A) (A) (A) (A) (A) (A) (A) (A) (A) (A) (A)
                 (A) (A) (A) (A) (A) (A) (A) (A) (A) (A) (A) (A)
                 (A) (A) (A) (A) (A) (A) (A) (A) (A) (A) (A) (A)
                 (A) (A) (A) (A) (A) (A) (A) (A) (A) (A) (A) (A)
                 (A) (A) (A) (A) (A) (A) (A) (A) (A) (A) (A) (A)
                 (A) (A) (A) (A)
       Virtual   (A) (A) (A) (A) (A) (A) (A) (A) (A) (A) (A) (A)
                 (A) (A) (A) (A) (A) (A) (A) (A) (A) (A) (A) (A)
                 (A) (A) (A) (A) (A) (A) (A) (A) (A) (A) (A) (A)
                 (A) (A) (A) (A) (A) (A) (A) (A) (A) (A) (A) (A)
                 (A) (A) (A) (A) (A) (A) (A) (A) (A) (A) (A) (A)
                 (A) (A) (A) (A) (A) (A) (A) (A) (A) (A) (A) (A)
                 (A) (A) (A) (A) (A) (A) (A) (A) (A) (A) (A) (A)
                 (A) (A) (A) (A) (A) (A) (A) (A) (A) (A) (A) (A)
                 (A) (A) (A) (A) (A) (A) (A) (A) (A) (A) (A) (A)
                 (A) (A) (A) (A) (A) (A) (A) (A) (A) (A) (A) (A)
                 (A) (A) (A) (A) (A) (A) (A) (A) (A) (A) (A) (A)
                 (A) (A) (A) (A) (A) (A) (A) (A) (A) (A) (A) (A)
                 (A) (A) (A) (A) (A) (A) (A) (A) (A) (A) (A) (A)
                 (A) (A) (A) (A) (A) (A) (A) (A) (A) (A) (A) (A)
                 (A) (A) (A) (A) (A) (A) (A) (A) (A) (A) (A) (A)
                 (A) (A) (A) (A) (A) (A) (A) (A) (A) (A) (A) (A)
                 (A) (A) (A) (A) (A) (A) (A) (A) (A) (A) (A) (A)
                 (A) (A) (A) (A) (A) (A) (A) (A) (A) (A) (A) (A)
                 (A) (A) (A) (A) (A) (A) (A) (A) (A) (A) (A) (A)
                 (A) (A) (A) (A) (A) (A) (A) (A) (A) (A) (A) (A)
                 (A) (A) (A) (A) (A) (A) (A) (A) (A) (A) (A) (A)
                 (A) (A) (A) (A) (A) (A) (A) (A) (A) (A) (A) (A)
                 (A) (A) (A) (A) (A) (A) (A) (A) (A) (A) (A) (A)
                 (A) (A) (A) (A) (A) (A) (A) (A) (A) (A) (A) (A)
                 (A) (A) (A) (A) (A) (A) (A) (A) (A) (A) (A) (A)
                 (A) (A) (A) (A) (A) (A) (A) (A) (A) (A) (A) (A)
                 (A) (A) (A) (A) (A) (A) (A) (A) (A) (A) (A) (A)
                 (A) (A) (A) (A) (A) (A) (A) (A) (A) (A) (A) (A)
                 (A) (A) (A) (A) (A) (A) (A) (A) (A) (A) (A) (A)
                 (A) (A) (A) (A) (A) (A) (A) (A) (A) (A) (A) (A)
                 (A) (A) (A) (A) (A) (A) (A) (A) (A) (A) (A) (A)
                 (A) (A) (A) (A) (A) (A) (A) (A) (A) (A) (A) (A)
                 (A) (A) (A) (A) (A) (A) (A) (A) (A) (A) (A) (A)
                 (A) (A) (A) (A) (A) (A) (A) (A) (A) (A) (A) (A)
                 (A) (A) (A) (A) (A) (A) (A) (A) (A) (A) (A) (A)
                 (A) (A) (A) (A) (A) (A) (A) (A) (A) (A) (A) (A)
                 (A) (A) (A)
 Beta  Orbitals:
       Occupied  (A) (A) (A) (A) (A) (A) (A) (A) (A) (A) (A) (A)
                 (A) (A) (A) (A) (A) (A) (A) (A) (A) (A) (A) (A)
                 (A) (A) (A) (A) (A) (A) (A) (A) (A) (A) (A) (A)
                 (A) (A) (A) (A) (A) (A) (A) (A) (A) (A) (A) (A)
                 (A) (A) (A) (A) (A) (A) (A) (A) (A) (A) (A) (A)
                 (A) (A) (A) (A) (A) (A) (A) (A) (A) (A) (A) (A)
                 (A) (A) (A) (A) (A) (A) (A) (A) (A) (A) (A) (A)
                 (A) (A) (A) (A) (A) (A) (A) (A) (A) (A) (A) (A)
                 (A) (A) (A) (A) (A) (A) (A) (A) (A) (A) (A) (A)
                 (A) (A) (A) (A) (A) (A) (A) (A) (A) (A) (A) (A)
                 (A) (A) (A) (A) (A) (A) (A) (A) (A) (A) (A) (A)
                 (A) (A) (A) (A)
       Virtual   (A) (A) (A) (A) (A) (A) (A) (A) (A) (A) (A) (A)
                 (A) (A) (A) (A) (A) (A) (A) (A) (A) (A) (A) (A)
                 (A) (A) (A) (A) (A) (A) (A) (A) (A) (A) (A) (A)
                 (A) (A) (A) (A) (A) (A) (A) (A) (A) (A) (A) (A)
                 (A) (A) (A) (A) (A) (A) (A) (A) (A) (A) (A) (A)
                 (A) (A) (A) (A) (A) (A) (A) (A) (A) (A) (A) (A)
                 (A) (A) (A) (A) (A) (A) (A) (A) (A) (A) (A) (A)
                 (A) (A) (A) (A) (A) (A) (A) (A) (A) (A) (A) (A)
                 (A) (A) (A) (A) (A) (A) (A) (A) (A) (A) (A) (A)
                 (A) (A) (A) (A) (A) (A) (A) (A) (A) (A) (A) (A)
                 (A) (A) (A) (A) (A) (A) (A) (A) (A) (A) (A) (A)
                 (A) (A) (A) (A) (A) (A) (A) (A) (A) (A) (A) (A)
                 (A) (A) (A) (A) (A) (A) (A) (A) (A) (A) (A) (A)
                 (A) (A) (A) (A) (A) (A) (A) (A) (A) (A) (A) (A)
                 (A) (A) (A) (A) (A) (A) (A) (A) (A) (A) (A) (A)
                 (A) (A) (A) (A) (A) (A) (A) (A) (A) (A) (A) (A)
[...]
    20   Atom        0.000000     -0.000000      0.000000
    21   Atom       -0.000000      0.000000     -0.000000
    22   Atom       -0.000000      0.000000      0.000000
    23   Atom        0.000000     -0.000000     -0.000000
    24   Atom       -0.000000      0.000000     -0.000000
    25   Atom       -0.000000      0.000000      0.000000
    26   Atom       -0.000000      0.000000     -0.000000
    27   Atom        0.000000     -0.000000      0.000000
    28   Atom       -0.000000      0.000000     -0.000000
    29   Atom       -0.000000      0.000000     -0.000000
    30   Atom        0.000000     -0.000000     -0.000000
    31   Atom        0.000000     -0.000000     -0.000000
    32   Atom       -0.000000      0.000000      0.000000
    33   Atom        0.000000     -0.000000     -0.000000
    34   Atom       -0.000000     -0.000000      0.000000
    35   Atom        0.000000     -0.000000      0.000000
    36   Atom        0.000000     -0.000000     -0.000000
    37   Atom        0.000000     -0.000000      0.000000
    38   Atom       -0.000000      0.000000      0.000000
    39   Atom        0.000000     -0.000000      0.000000
    40   Atom       -0.000000      0.000000     -0.000000
    41   Atom        0.000000     -0.000000     -0.000000
    42   Atom       -0.000000     -0.000000      0.000000
    43   Atom        0.000000     -0.000000      0.000000
    44   Atom        0.000000     -0.000000     -0.000000
    45   Atom        0.000000     -0.000000     -0.000000
    46   Atom        0.000000     -0.000000      0.000000
    47   Atom       -0.000000      0.000000      0.000000
 --------------------------------------------------------
                        XY            XZ            YZ
 --------------------------------------------------------
     1   Atom       -0.000000      0.000000      0.000000
     2   Atom        0.000000     -0.000000     -0.000000
     3   Atom        0.000000     -0.000000     -0.000000
     4   Atom        0.000000     -0.000000      0.000000
     5   Atom       -0.000000      0.000000     -0.000000
     6   Atom       -0.000000     -0.000000      0.000000
     7   Atom       -0.000000     -0.000000      0.000000
     8   Atom       -0.000000      0.000000      0.000000
     9   Atom       -0.000000     -0.000000     -0.000000
    10   Atom       -0.000000      0.000000     -0.000000
    11   Atom        0.000000     -0.000000      0.000000
    12   Atom        0.000000     -0.000000      0.000000
    13   Atom       -0.000000      0.000000     -0.000000
    14   Atom       -0.000000     -0.000000      0.000000
    15   Atom        0.000000     -0.000000     -0.000000
    16   Atom        0.000000     -0.000000     -0.000000
    17   Atom       -0.000000      0.000000     -0.000000
    18   Atom       -0.000000     -0.000000      0.000000
    19   Atom       -0.000000      0.000000     -0.000000
    20   Atom        0.000000      0.000000     -0.000000
    21   Atom       -0.000000     -0.000000      0.000000
    22   Atom       -0.000000     -0.000000      0.000000
    23   Atom       -0.000000      0.000000     -0.000000
    24   Atom       -0.000000     -0.000000      0.000000
    25   Atom        0.000000     -0.000000     -0.000000
    26   Atom        0.000000     -0.000000     -0.000000
    27   Atom        0.000000      0.000000      0.000000
    28   Atom        0.000000     -0.000000     -0.000000
    29   Atom       -0.000000      0.000000     -0.000000
    30   Atom        0.000000     -0.000000      0.000000
    31   Atom       -0.000000      0.000000     -0.000000
    32   Atom       -0.000000      0.000000      0.000000
    33   Atom        0.000000     -0.000000     -0.000000
    34   Atom        0.000000      0.000000      0.000000
    35   Atom       -0.000000      0.000000      0.000000
    36   Atom       -0.000000      0.000000      0.000000
    37   Atom       -0.000000     -0.000000     -0.000000
    38   Atom       -0.000000      0.000000     -0.000000
    39   Atom       -0.000000      0.000000      0.000000
    40   Atom        0.000000     -0.000000     -0.000000
    41   Atom        0.000000      0.000000     -0.000000
    42   Atom        0.000000      0.000000     -0.000000
    43   Atom       -0.000000     -0.000000     -0.000000
    44   Atom        0.000000     -0.000000     -0.000000
    45   Atom       -0.000000     -0.000000      0.000000
    46   Atom        0.000000     -0.000000      0.000000
    47   Atom       -0.000000      0.000000      0.000000
 --------------------------------------------------------


 ---------------------------------------------------------------------------------
              Anisotropic Spin Dipole Couplings in Principal Axis System
 ---------------------------------------------------------------------------------

       Atom             a.u.   MegaHertz   Gauss  10(-4) cm-1        Axes

              Baa    -0.0000    -0.000    -0.000    -0.000  0.8322  0.5132 -0.2098
     1 C(13)  Bbb     0.0000     0.000     0.000     0.000  0.2084  0.0610  0.9761
              Bcc     0.0000     0.000     0.000     0.000 -0.5138  0.8561  0.0562
 
              Baa    -0.0000    -0.000    -0.000    -0.000  0.9356 -0.2694  0.2284
     2 C(13)  Bbb    -0.0000    -0.000    -0.000    -0.000 -0.1756  0.2062  0.9626
              Bcc     0.0000     0.000     0.000     0.000  0.3064  0.9407 -0.1456
 
              Baa    -0.0000    -0.000    -0.000    -0.000  0.9365 -0.3223  0.1384
     3 N(14)  Bbb    -0.0000    -0.000    -0.000    -0.000 -0.1012  0.1296  0.9864
              Bcc     0.0000     0.000     0.000     0.000  0.3358  0.9377 -0.0888
 
              Baa    -0.0000    -0.000    -0.000    -0.000  0.9833 -0.0609  0.1715
     4 C(13)  Bbb    -0.0000    -0.000    -0.000    -0.000 -0.1715  0.0066  0.9852
              Bcc     0.0000     0.000     0.000     0.000  0.0611  0.9981  0.0040
 
              Baa    -0.0000    -0.000    -0.000    -0.000 -0.2076  0.0179  0.9781
     5 N(14)  Bbb    -0.0000    -0.000    -0.000    -0.000  0.5395  0.8361  0.0992
              Bcc     0.0000     0.000     0.000     0.000  0.8160 -0.5482  0.1832
 
              Baa    -0.0000    -0.000    -0.000    -0.000  0.2542  0.9631 -0.0885
     6 C(13)  Bbb     0.0000     0.000     0.000     0.000  0.3987 -0.0210  0.9169
              Bcc     0.0000     0.000     0.000     0.000  0.8812 -0.2684 -0.3893
 
              Baa    -0.0000    -0.000    -0.000    -0.000  0.2682  0.9467 -0.1783
     7 C(13)  Bbb     0.0000     0.000     0.000     0.000  0.8693 -0.1581  0.4683
              Bcc     0.0000     0.000     0.000     0.000 -0.4152  0.2805  0.8654
 
              Baa    -0.0000    -0.000    -0.000    -0.000  0.0298  0.9692 -0.2444
     8 C(13)  Bbb     0.0000     0.000     0.000     0.000 -0.0332  0.2453  0.9689
              Bcc     0.0000     0.000     0.000     0.000  0.9990 -0.0208  0.0395
 
              Baa    -0.0000    -0.000    -0.000    -0.000  0.9968  0.0690  0.0415
     9 F(19)  Bbb     0.0000     0.000     0.000     0.000 -0.0555  0.2142  0.9752
              Bcc     0.0000     0.000     0.000     0.000 -0.0584  0.9744 -0.2173
 
              Baa    -0.0000    -0.000    -0.000    -0.000 -0.0810  0.2105  0.9742
    10 C(13)  Bbb    -0.0000    -0.000    -0.000    -0.000  0.9497  0.3128  0.0114
              Bcc     0.0000     0.000     0.000     0.000 -0.3024  0.9262 -0.2253
 
              Baa    -0.0000    -0.000    -0.000    -0.000 -0.4305  0.8681 -0.2473
    11 C(13)  Bbb    -0.0000    -0.000    -0.000    -0.000  0.0360  0.2903  0.9563
              Bcc     0.0000     0.000     0.000     0.000  0.9019  0.4028 -0.1562
 
              Baa    -0.0000    -0.000    -0.000    -0.000  0.9996 -0.0190  0.0201
    12 S(33)  Bbb     0.0000     0.000     0.000     0.000  0.0212  0.9934 -0.1125
              Bcc     0.0000     0.000     0.000     0.000 -0.0178  0.1129  0.9934
 
              Baa    -0.0000    -0.000    -0.000    -0.000  0.7102  0.6853 -0.1610
    13 C(13)  Bbb    -0.0000    -0.000    -0.000    -0.000 -0.0186  0.2469  0.9689
              Bcc     0.0000     0.000     0.000     0.000  0.7037 -0.6851  0.1881
 
              Baa    -0.0000    -0.000    -0.000    -0.000  0.9815  0.1893  0.0273
    14 C(13)  Bbb     0.0000     0.000     0.000     0.000  0.0178 -0.2322  0.9725
              Bcc     0.0000     0.000     0.000     0.000 -0.1904  0.9541  0.2313
 
              Baa    -0.0000    -0.000    -0.000    -0.000  0.9940 -0.0867  0.0662
    15 N(14)  Bbb     0.0000     0.000     0.000     0.000 -0.0487  0.1903  0.9805
              Bcc     0.0000     0.000     0.000     0.000  0.0976  0.9779 -0.1849
 
              Baa    -0.0000    -0.000    -0.000    -0.000 -0.1031  0.9847  0.1405
    16 C(13)  Bbb    -0.0000    -0.000    -0.000    -0.000  0.0440 -0.1366  0.9896
              Bcc     0.0000     0.000     0.000     0.000  0.9937  0.1083 -0.0293
 
              Baa    -0.0000    -0.000    -0.000    -0.000  0.7989  0.5916 -0.1086
    17 N(14)  Bbb    -0.0000    -0.000    -0.000    -0.000  0.0653  0.0941  0.9934
              Bcc     0.0000     0.000     0.000     0.000 -0.5980  0.8007 -0.0366
 
              Baa    -0.0000    -0.000    -0.000    -0.000  0.5379  0.8428  0.0185
    18 C(13)  Bbb    -0.0000    -0.000    -0.000    -0.000  0.1137 -0.0943  0.9890
              Bcc     0.0000     0.000     0.000     0.000  0.8353 -0.5299 -0.1466
 
              Baa    -0.0000    -0.000    -0.000    -0.000  0.1826  0.9818  0.0518
    19 C(13)  Bbb     0.0000     0.000     0.000     0.000 -0.1567 -0.0230  0.9874
              Bcc     0.0000     0.000     0.000     0.000  0.9706 -0.1884  0.1496
 
              Baa    -0.0000    -0.000    -0.000    -0.000 -0.2074  0.9708  0.1203
    20 C(13)  Bbb     0.0000     0.000     0.000     0.000  0.9777  0.2015  0.0595
              Bcc     0.0000     0.000     0.000     0.000 -0.0335 -0.1299  0.9910
 
              Baa    -0.0000    -0.000    -0.000    -0.000  0.9958  0.0777  0.0487
    21 F(19)  Bbb    -0.0000    -0.000    -0.000    -0.000 -0.0390 -0.1213  0.9918
              Bcc     0.0000     0.000     0.000     0.000 -0.0830  0.9896  0.1178
 
              Baa    -0.0000    -0.000    -0.000    -0.000  0.9663  0.2555 -0.0309
    22 C(13)  Bbb    -0.0000    -0.000    -0.000    -0.000  0.1077 -0.2925  0.9502
              Bcc     0.0000     0.000     0.000     0.000 -0.2338  0.9215  0.3102
 
              Baa    -0.0000    -0.000    -0.000    -0.000  0.0893  0.2803  0.9557
    23 C(13)  Bbb    -0.0000    -0.000    -0.000    -0.000  0.4249  0.8572 -0.2911
              Bcc     0.0000     0.000     0.000     0.000  0.9008 -0.4321  0.0425
 
              Baa    -0.0000    -0.000    -0.000    -0.000  0.9750  0.2218  0.0163
    24 S(33)  Bbb    -0.0000    -0.000    -0.000    -0.000  0.0037 -0.0894  0.9960
              Bcc     0.0000     0.000     0.000     0.000 -0.2223  0.9710  0.0880
 
              Baa    -0.0000    -0.000    -0.000    -0.000  0.9913 -0.1229  0.0479
    25 C(13)  Bbb     0.0000     0.000     0.000     0.000 -0.0315  0.1321  0.9907
              Bcc     0.0000     0.000     0.000     0.000  0.1281  0.9836 -0.1271
 
              Baa    -0.0000    -0.000    -0.000    -0.000  0.9593 -0.2242  0.1718
    26 C(13)  Bbb    -0.0000    -0.000    -0.000    -0.000 -0.0966  0.3111  0.9455
              Bcc     0.0000     0.000     0.000     0.000  0.2654  0.9236 -0.2767
 
              Baa    -0.0000    -0.000    -0.000    -0.000 -0.3568  0.9274 -0.1125
    27 N(14)  Bbb     0.0000     0.000     0.000     0.000 -0.2296  0.0297  0.9728
              Bcc     0.0000     0.000     0.000     0.000  0.9055  0.3729  0.2023
 
              Baa    -0.0000    -0.000    -0.000    -0.000  0.9257 -0.3362  0.1734
    28 C(13)  Bbb    -0.0000    -0.000    -0.000    -0.000 -0.1347  0.1354  0.9816
              Bcc     0.0000     0.000     0.000     0.000  0.3535  0.9320 -0.0801
 
              Baa    -0.0000    -0.000    -0.000    -0.000  0.9146  0.3836 -0.1277
    29 N(14)  Bbb    -0.0000    -0.000    -0.000    -0.000  0.0874  0.1208  0.9888
              Bcc     0.0000     0.000     0.000     0.000 -0.3948  0.9155 -0.0770
 
              Baa    -0.0000    -0.000    -0.000    -0.000  0.1234 -0.1256  0.9844
    30 C(13)  Bbb    -0.0000    -0.000    -0.000    -0.000 -0.1130  0.9837  0.1397
              Bcc     0.0000     0.000     0.000     0.000  0.9859  0.1285 -0.1072
 
              Baa    -0.0000    -0.000    -0.000    -0.000 -0.0239 -0.0006  0.9997
    31 C(13)  Bbb    -0.0000    -0.000    -0.000    -0.000  0.3960  0.9182  0.0100
              Bcc     0.0000     0.000     0.000     0.000  0.9179 -0.3962  0.0217
 
              Baa    -0.0000    -0.000    -0.000    -0.000  0.8642  0.4631 -0.1969
    32 C(13)  Bbb     0.0000     0.000     0.000     0.000  0.1620  0.1143  0.9801
              Bcc     0.0000     0.000     0.000     0.000 -0.4764  0.8789 -0.0238
 
              Baa    -0.0000    -0.000    -0.000    -0.000 -0.6727  0.7353 -0.0827
    33 F(19)  Bbb    -0.0000    -0.000    -0.000    -0.000  0.0531  0.1595  0.9858
              Bcc     0.0000     0.000     0.000     0.000  0.7380  0.6587 -0.1464
 
              Baa    -0.0000    -0.000    -0.000    -0.000  0.9832  0.0080 -0.1826
    34 C(13)  Bbb    -0.0000    -0.000    -0.000    -0.000 -0.0324  0.9908 -0.1310
              Bcc     0.0000     0.000     0.000     0.000  0.1799  0.1347  0.9744
 
              Baa    -0.0000    -0.000    -0.000    -0.000  0.0836  0.9925 -0.0891
    35 C(13)  Bbb     0.0000     0.000     0.000     0.000 -0.5554  0.1206  0.8228
              Bcc     0.0000     0.000     0.000     0.000  0.8274 -0.0193  0.5613
 
              Baa    -0.0000    -0.000    -0.000    -0.000  0.1330  0.9206 -0.3673
    36 S(33)  Bbb    -0.0000    -0.000    -0.000    -0.000 -0.1266  0.3833  0.9149
              Bcc     0.0000     0.000     0.000     0.000  0.9830 -0.0752  0.1675
 
              Baa    -0.0000    -0.000    -0.000    -0.000  0.3115  0.9469  0.0802
    37 H(1)   Bbb     0.0000     0.000     0.000     0.000 -0.0487 -0.0684  0.9965
              Bcc     0.0000     0.000     0.000     0.000  0.9490 -0.3143  0.0248
 
              Baa    -0.0000    -0.000    -0.000    -0.000  0.9819  0.1886 -0.0147
    38 H(1)   Bbb     0.0000     0.000     0.000     0.000 -0.0602  0.3851  0.9209
              Bcc     0.0000     0.000     0.000     0.000 -0.1793  0.9034 -0.3895
 
              Baa    -0.0000    -0.000    -0.000    -0.000  0.1446  0.9887 -0.0399
    39 H(1)   Bbb     0.0000     0.000     0.000     0.000 -0.3134  0.0840  0.9459
              Bcc     0.0000     0.000     0.000     0.000  0.9385 -0.1243  0.3220
 
              Baa    -0.0000    -0.000    -0.000    -0.000  0.9097 -0.3342 -0.2464
    40 H(1)   Bbb    -0.0000    -0.000    -0.000    -0.000  0.2826  0.0634  0.9571
              Bcc     0.0000     0.000     0.000     0.000  0.3043  0.9404 -0.1521
 
              Baa    -0.0000    -0.000    -0.000    -0.000 -0.5441  0.8264  0.1448
    41 H(1)   Bbb    -0.0000    -0.000    -0.000    -0.000 -0.0701 -0.2168  0.9737
              Bcc     0.0000     0.000     0.000     0.000  0.8361  0.5196  0.1760
 
              Baa    -0.0000    -0.000    -0.000    -0.000 -0.6276  0.7401  0.2416
    42 H(1)   Bbb     0.0000     0.000     0.000     0.000 -0.1290 -0.4049  0.9052
              Bcc     0.0000     0.000     0.000     0.000  0.7677  0.5370  0.3496
 
              Baa    -0.0000    -0.000    -0.000    -0.000  0.0903  0.9742  0.2069
    43 H(1)   Bbb     0.0000     0.000     0.000     0.000  0.9937 -0.1020  0.0463
              Bcc     0.0000     0.000     0.000     0.000 -0.0662 -0.2015  0.9773
 
              Baa    -0.0000    -0.000    -0.000    -0.000 -0.6427  0.7583  0.1097
    44 H(1)   Bbb    -0.0000    -0.000    -0.000    -0.000  0.2290  0.0535  0.9719
              Bcc     0.0000     0.000     0.000     0.000  0.7311  0.6498 -0.2081
 
              Baa    -0.0000    -0.000    -0.000    -0.000  0.1706  0.9832 -0.0647
    45 H(1)   Bbb    -0.0000    -0.000    -0.000    -0.000  0.2770  0.0151  0.9607
              Bcc     0.0000     0.000     0.000     0.000  0.9456 -0.1818 -0.2698
 
              Baa    -0.0000    -0.000    -0.000    -0.000 -0.3365  0.9124 -0.2331
    46 H(1)   Bbb     0.0000     0.000     0.000     0.000  0.2331  0.3205  0.9181
              Bcc     0.0000     0.000     0.000     0.000  0.9124  0.2546 -0.3205
 
              Baa    -0.0000    -0.000    -0.000    -0.000  0.9892  0.0987 -0.1087
    47 H(1)   Bbb     0.0000     0.000     0.000     0.000 -0.1131  0.9843 -0.1356
              Bcc     0.0000     0.000     0.000     0.000  0.0936  0.1464  0.9848
 

 ---------------------------------------------------------------------------------

 No NMR shielding tensors so no spin-rotation constants.
 Leave Link  601 at Fri Jul 24 05:29:00 2020, MaxMem=  4026531840 cpu:               4.5 elap:               0.6
 (Enter /opt/ohpc/pub/libs/gaussian/g16-A.03/sandybridge/g16/l9999.exe)

 Test job not archived.
 1\1\GINC-SKYLAKE034\FOpt\ULC-wPBE\CC-pVDZ\C24H11F3N6S3\RDU230\24-Jul-2
 020\0\\#P uLC-wPBE/cc-pVDZ iop(3/107=0070700000, 3/108=0070700000) opt
 \\H11 C24 S3 N6 F3\\0,1\C,10.3959702072,2.9600076477,-0.1071325953\C,1
 0.6168665234,1.5999581962,0.15364552\N,9.6257065593,0.6979666918,0.233
 7711413\C,8.376177786,1.1877981751,0.0456447473\N,8.0400567896,2.47959
 07294,-0.2117334337\C,9.0597528031,3.347027421,-0.2848219009\C,7.25839
 6712,0.2537646746,0.1202528982\C,7.2224077593,-1.1177735559,0.36465643
 95\F,8.3138715638,-1.8614516572,0.6005663728\C,5.9274398473,-1.6909762
 804,0.3571847765\C,4.9376931935,-0.746566328,0.1032935625\S,5.63085447
 04,0.8511358702,-0.1345410484\C,3.4968487881,-0.959528365,0.0209250893
 \C,2.5499893252,0.0824507269,0.1685527796\N,1.2313381153,-0.1062780902
 ,0.0934346884\C,0.8156158559,-1.3830964603,-0.1227784138\N,1.616884591
 9,-2.4664666153,-0.2797851065\C,2.9310634685,-2.2365758535,-0.21417172
 15\C,-0.6241634961,-1.5769145999,-0.1873251947\C,-1.3866771188,-2.7259
 74228,-0.396563839\F,-0.8580026888,-3.942490921,-0.5979417723\C,-2.787
 0892865,-2.5210015302,-0.3925508729\C,-3.1215272451,-1.1872597282,-0.1
 770267246\S,-1.6842422946,-0.1972208648,0.0294758927\C,-4.4542413671,-
 0.5978664623,-0.1091777483\C,-4.7045730908,0.780964122,-0.307554104\N,
 -5.9188929266,1.3341565791,-0.2472044322\C,-6.9456309821,0.4854863138,
 0.0082613726\N,-6.8399103683,-0.8553656011,0.2146107344\C,-5.610253538
 4,-1.3698472161,0.161324292\C,-8.2915806931,1.0339417916,0.0748588673\
 C,-8.7559350346,2.3382848374,-0.0885819764\F,-7.9604133258,3.385478636
 6,-0.3565610036\C,-10.1627609123,2.4900701122,0.0498589601\C,-10.77111
 40049,1.2813376052,0.3225244809\S,-9.6435716991,-0.0340190717,0.410704
 6804\H,11.2217975375,3.6811846647,-0.1687232203\H,11.6377034574,1.2095
 454129,0.3062978316\H,8.7914328914,4.3965338325,-0.494355133\H,5.74667
 01208,-2.7527863133,0.5609784751\H,2.8836136441,1.1163276062,0.3678422
 263\H,3.5818695643,-3.113905247,-0.3704584141\H,-3.5063818505,-3.32853
 25304,-0.571673216\H,-3.8712703681,1.4684566803,-0.5392206\H,-5.527780
 8151,-2.4525466349,0.3576010508\H,-10.679485686,3.4515137197,-0.050329
 9541\H,-11.8383097822,1.0899241074,0.4790085463\\Version=EM64L-G16RevA
 .03\State=1-A\HF=-2741.9324285\S2=0.\S2-1=0.\S2A=0.\RMSD=3.275e-09\RMS
 F=4.179e-06\Dipole=0.3199861,0.45446,0.0386211\Quadrupole=29.3911881,-
 9.9850412,-19.4061469,14.3110057,-2.3883413,-0.4882751\PG=C01 [X(C24H1
 1F3N6S3)]\\@


 The theorems and results in mathematical physics are
 not theorems and results about Nature, but about our
 description of it.
                   --Gerard 't Hooft
 Job cpu time:       0 days 14 hours  0 minutes  8.1 seconds.
 Elapsed time:       0 days  1 hours 45 minutes 24.1 seconds.
 File lengths (MBytes):  RWF=    416 Int=      0 D2E=      0 Chk=     40 Scr=      8
 Normal termination of Gaussian 16 at Fri Jul 24 05:29:00 2020.
