 Entering Gaussian System, Link 0=g16
 Input=mols_65_5_31_cF-cF-COC_opt_0.gjf
 Output=mols_65_5_31_cF-cF-COC_opt_0.log
 Initial command:
 /opt/ohpc/pub/libs/gaussian/g16-A.03/sandybridge/g16/l1.exe "/mnt/gpfs2_4m/scratch/rdu230/ondemand/projects/dihedral_energies/7trial/wtuning/mols_65_5_31_cF-cF-COC/Gau-77258.inp" -scrdir="/mnt/gpfs2_4m/scratch/rdu230/ondemand/projects/dihedral_energies/7trial/wtuning/mols_65_5_31_cF-cF-COC/"
 Entering Link 1 = /opt/ohpc/pub/libs/gaussian/g16-A.03/sandybridge/g16/l1.exe PID=     77259.
  
 Copyright (c) 1988,1990,1992,1993,1995,1998,2003,2009,2016,
            Gaussian, Inc.  All Rights Reserved.
  
 This is part of the Gaussian(R) 16 program.  It is based on
 the Gaussian(R) 09 system (copyright 2009, Gaussian, Inc.),
 the Gaussian(R) 03 system (copyright 2003, Gaussian, Inc.),
 the Gaussian(R) 98 system (copyright 1998, Gaussian, Inc.),
 the Gaussian(R) 94 system (copyright 1995, Gaussian, Inc.),
 the Gaussian 92(TM) system (copyright 1992, Gaussian, Inc.),
 the Gaussian 90(TM) system (copyright 1990, Gaussian, Inc.),
 the Gaussian 88(TM) system (copyright 1988, Gaussian, Inc.),
 the Gaussian 86(TM) system (copyright 1986, Carnegie Mellon
 University), and the Gaussian 82(TM) system (copyright 1983,
 Carnegie Mellon University). Gaussian is a federally registered
 trademark of Gaussian, Inc.
  
 This software contains proprietary and confidential information,
 including trade secrets, belonging to Gaussian, Inc.
  
 This software is provided under written license and may be
 used, copied, transmitted, or stored only in accord with that
 written license.
  
 The following legend is applicable only to US Government
 contracts under FAR:
  
                    RESTRICTED RIGHTS LEGEND
  
 Use, reproduction and disclosure by the US Government is
 subject to restrictions as set forth in subparagraphs (a)
 and (c) of the Commercial Computer Software - Restricted
 Rights clause in FAR 52.227-19.
  
 Gaussian, Inc.
 340 Quinnipiac St., Bldg. 40, Wallingford CT 06492
  
  
 ---------------------------------------------------------------
 Warning -- This program may not be used in any manner that
 competes with the business of Gaussian, Inc. or will provide
 assistance to any competitor of Gaussian, Inc.  The licensee
 of this program is prohibited from giving any competitor of
 Gaussian, Inc. access to this program.  By using this program,
 the user acknowledges that Gaussian, Inc. is engaged in the
 business of creating and licensing software in the field of
 computational chemistry and represents and warrants to the
 licensee that it is not a competitor of Gaussian, Inc. and that
 it will not use this program in any manner prohibited above.
 ---------------------------------------------------------------
  

 Cite this work as:
 Gaussian 16, Revision A.03,
 M. J. Frisch, G. W. Trucks, H. B. Schlegel, G. E. Scuseria, 
 M. A. Robb, J. R. Cheeseman, G. Scalmani, V. Barone, 
 G. A. Petersson, H. Nakatsuji, X. Li, M. Caricato, A. V. Marenich, 
 J. Bloino, B. G. Janesko, R. Gomperts, B. Mennucci, H. P. Hratchian, 
 J. V. Ortiz, A. F. Izmaylov, J. L. Sonnenberg, D. Williams-Young, 
 F. Ding, F. Lipparini, F. Egidi, J. Goings, B. Peng, A. Petrone, 
 T. Henderson, D. Ranasinghe, V. G. Zakrzewski, J. Gao, N. Rega, 
 G. Zheng, W. Liang, M. Hada, M. Ehara, K. Toyota, R. Fukuda, 
 J. Hasegawa, M. Ishida, T. Nakajima, Y. Honda, O. Kitao, H. Nakai, 
 T. Vreven, K. Throssell, J. A. Montgomery, Jr., J. E. Peralta, 
 F. Ogliaro, M. J. Bearpark, J. J. Heyd, E. N. Brothers, K. N. Kudin, 
 V. N. Staroverov, T. A. Keith, R. Kobayashi, J. Normand, 
 K. Raghavachari, A. P. Rendell, J. C. Burant, S. S. Iyengar, 
 J. Tomasi, M. Cossi, J. M. Millam, M. Klene, C. Adamo, R. Cammi, 
 J. W. Ochterski, R. L. Martin, K. Morokuma, O. Farkas, 
 J. B. Foresman, and D. J. Fox, Gaussian, Inc., Wallingford CT, 2016.
 
 ******************************************
 Gaussian 16:  EM64L-G16RevA.03 25-Dec-2016
                25-Jul-2020 
 ******************************************
 %mem=30GB
 %nproc=8
 Will use up to    8 processors via shared memory.
 ---------------------------------------------------------------
 #P uLC-wPBE/cc-pVDZ iop(3/107=0467200000, 3/108=0467200000) opt
 ---------------------------------------------------------------
 1/18=20,19=15,26=3,38=1/1,3;
 2/9=110,12=2,17=6,18=5,40=1/2;
 3/5=16,11=2,25=1,30=1,71=1,74=-41,107=467200000,108=467200000,116=2/1,2,3;
 4//1;
 5/5=2,38=5/2;
 6/7=2,8=2,9=2,10=2,28=1/1;
 7//1,2,3,16;
 1/18=20,19=15,26=3/3(2);
 2/9=110/2;
 99//99;
 2/9=110/2;
 3/5=16,11=2,25=1,30=1,71=1,74=-41,107=467200000,108=467200000,116=2/1,2,3;
 4/5=5,16=3,69=1/1;
 5/5=2,38=5/2;
 7//1,2,3,16;
 1/18=20,19=15,26=3/3(-5);
 2/9=110/2;
 6/7=2,8=2,9=2,10=2,19=2,28=1/1;
 99/9=1/99;
 Leave Link    1 at Sat Jul 25 14:12:39 2020, MaxMem=  4026531840 cpu:               1.0 elap:               0.1
 (Enter /opt/ohpc/pub/libs/gaussian/g16-A.03/sandybridge/g16/l101.exe)
 -----------------
 H32 C55 S5 O5 F10
 -----------------
 Symbolic Z-matrix:
 Charge =  0 Multiplicity = 1
 C                     19.02362  -1.88836   0.10516 
 C                     18.25496  -1.52619   1.22756 
 C                     16.90916  -1.58119   1.17603 
 F                     16.22711  -1.18954   2.30427 
 C                     16.20352  -1.9505    0.00428 
 C                     16.99293  -2.24189  -1.11595 
 F                     16.42209  -2.66222  -2.20906 
 C                     18.41852  -2.2575   -1.0492 
 C                     14.80139  -1.98957   0.01381 
 C                     13.91741  -3.10101  -0.21189 
 O                     14.47577  -4.30619  -0.28155 
 C                     13.67496  -5.30936  -0.91555 
 C                     12.59423  -2.8047   -0.18651 
 C                     12.32127  -1.42012  -0.0587 
 S                     13.81073  -0.60486   0.14579 
 C                     11.12153  -0.70259   0.01781 
 C                     10.12225  -0.84459  -0.99273 
 C                     8.90741  -0.10717  -1.0351 
 F                     8.08621  -0.28939  -2.00703 
 C                     8.61044   0.76866  -0.035 
 C                     9.52387   0.90169   1.01007 
 F                     9.27895   1.75714   2.09783 
 C                     10.7859   0.168     1.01665 
 C                     7.38684   1.58635  -0.00083 
 C                     7.23412   2.88812  -0.04332 
 O                     8.33664   3.6717   -0.05028 
 C                     8.10699   5.08019   0.21213 
 C                     5.84063   3.31482   0.03901 
 C                     5.02449   2.15728   0.0128 
 S                     5.83283   0.73313   0.03106 
 C                     3.53245   2.20087   0.00701 
 C                     2.76796   3.05175   0.77863 
 C                     1.45465   3.07641   0.73488 
 F                     0.78475   3.93616   1.50777 
 C                     0.65935   2.31732  -0.1487 
 C                     1.38297   1.40594  -0.90722 
 F                     0.79624   0.56615  -1.7988 
 C                     2.84971   1.37885  -0.90779 
 C                    -0.79861   2.3703   -0.24402 
 C                    -1.58996   3.41941  -0.57641 
 O                    -0.92476   4.6195   -0.94916 
 C                    -1.83892   5.63583  -1.33501 
 C                    -2.95562   3.18469  -0.46777 
 C                    -3.22631   1.8279   -0.07642 
 S                    -1.69818   0.99949   0.20347 
 C                    -4.43215   1.17988   0.10101 
 C                    -5.4704    1.81336   0.81288 
 C                    -6.77112   1.25887   1.0072 
 F                    -7.66973   1.82462   1.74872 
 C                    -7.00467  -0.02203   0.38083 
 C                    -6.00244  -0.58762  -0.30375 
 F                    -6.27766  -1.84519  -0.90713 
 C                    -4.77208  -0.0696   -0.50941 
 C                    -8.30287  -0.62374   0.59794 
 C                    -8.67417  -1.80149   1.11749 
 O                    -7.6632   -2.61724   1.75004 
 C                    -8.05316  -3.86568   2.07869 
 C                    -10.10355  -2.1453    1.01975 
 C                    -10.7996  -1.13491   0.45903 
 S                    -9.71268   0.11899  -0.03531 
 C                    -12.25552  -1.0426    0.11692 
 C                    -12.99022   0.10121   0.3978 
 C                    -14.30042   0.15158   0.11817 
 F                    -15.06232   1.23878   0.35684 
 C                    -15.03167  -1.01027  -0.41553 
 C                    -14.23142  -2.12309  -0.5647 
 F                    -14.85131  -3.30278  -1.03468 
 C                    -12.82374  -2.20011  -0.34048 
 C                    -16.46787  -1.04939  -0.61963 
 C                    -17.44168  -1.6883    0.10736 
 O                    -17.11886  -2.44593   1.18692 
 C                    -18.25358  -2.96637   1.79559 
 C                    -18.73267  -1.42298  -0.56552 
 C                    -18.70248  -0.65907  -1.62653 
 S                    -17.08814  -0.12471  -2.00059 
 H                     20.14678  -1.82927   0.21169 
 H                     18.74584  -1.20452   2.22022 
 H                     18.97963  -2.48025  -1.89887 
 H                     13.30634  -4.99347  -1.79679 
 H                     12.86388  -5.6315   -0.19196 
 H                     14.27384  -6.21711  -1.07999 
 H                     11.77564  -3.50707  -0.248 
 H                     10.38055  -1.53507  -1.83078 
 H                     11.4099   0.31272   1.90332 
 H                     7.44188   5.53552  -0.653 
 H                     7.65047   5.23847   1.19451 
 H                     8.98713   5.6016    0.19824 
 H                     5.50418   4.28601   0.02387 
 H                     3.27878   3.71709   1.46133 
 H                     3.28469   0.69149  -1.60493 
 H                    -2.44523   5.29678  -2.26906 
 H                    -2.46969   6.00208  -0.5629 
 H                    -1.2293    6.46961  -1.74109 
 H                    -3.7797    3.84374  -0.71833 
 H                    -5.33255   2.82014   1.32609 
 H                    -4.05963  -0.58326  -1.05595 
 H                    -8.85508  -3.86353   2.80583 
 H                    -8.43608  -4.48104   1.22293 
 H                    -7.213    -4.42869   2.54615 
 H                    -10.56766  -3.04561   1.39849 
 H                    -12.46483   1.03401   0.76517 
 H                    -12.33069  -3.08306  -0.50733 
 H                    -18.95039  -2.21901   2.23069 
 H                    -18.71172  -3.67664   1.21198 
 H                    -17.86253  -3.46489   2.68158 
 H                    -19.6665  -1.92914  -0.18266 
 H                    -19.44873  -0.28285  -2.28357 
 
 ITRead=  0  0  0  0  0  0  0  0  0  0  0  0  0  0  0  0  0  0  0  0
 ITRead=  0  0  0  0  0  0  0  0  0  0  0  0  0  0  0  0  0  0  0  0
 ITRead=  0  0  0  0  0  0  0  0  0  0  0  0  0  0  0  0  0  0  0  0
 ITRead=  0  0  0  0  0  0  0  0  0  0  0  0  0  0  0  0  0  0  0  0
 ITRead=  0  0  0  0  0  0  0  0  0  0  0  0  0  0  0  0  0  0  0  0
 ITRead=  0  0  0  0  0  0  0
 MicOpt= -1 -1 -1 -1 -1 -1 -1 -1 -1 -1 -1 -1 -1 -1 -1 -1 -1 -1 -1 -1
 MicOpt= -1 -1 -1 -1 -1 -1 -1 -1 -1 -1 -1 -1 -1 -1 -1 -1 -1 -1 -1 -1
 MicOpt= -1 -1 -1 -1 -1 -1 -1 -1 -1 -1 -1 -1 -1 -1 -1 -1 -1 -1 -1 -1
 MicOpt= -1 -1 -1 -1 -1 -1 -1 -1 -1 -1 -1 -1 -1 -1 -1 -1 -1 -1 -1 -1
 MicOpt= -1 -1 -1 -1 -1 -1 -1 -1 -1 -1 -1 -1 -1 -1 -1 -1 -1 -1 -1 -1
 MicOpt= -1 -1 -1 -1 -1 -1 -1
 NAtoms=    107 NQM=      107 NQMF=       0 NMMI=      0 NMMIF=      0
                NMic=       0 NMicF=      0.
                    Isotopes and Nuclear Properties:
 (Nuclear quadrupole moments (NQMom) in fm**2, nuclear magnetic moments (NMagM)
  in nuclear magnetons)

  Atom         1           2           3           4           5           6           7           8           9          10
 IAtWgt=          12          12          12          19          12          12          19          12          12          12
 AtmWgt=  12.0000000  12.0000000  12.0000000  18.9984033  12.0000000  12.0000000  18.9984033  12.0000000  12.0000000  12.0000000
 NucSpn=           0           0           0           1           0           0           1           0           0           0
 AtZEff=  -0.0000000  -0.0000000  -0.0000000  -0.0000000  -0.0000000  -0.0000000  -0.0000000  -0.0000000  -0.0000000  -0.0000000
 NQMom=    0.0000000   0.0000000   0.0000000   0.0000000   0.0000000   0.0000000   0.0000000   0.0000000   0.0000000   0.0000000
 NMagM=    0.0000000   0.0000000   0.0000000   2.6288670   0.0000000   0.0000000   2.6288670   0.0000000   0.0000000   0.0000000
 AtZNuc=   6.0000000   6.0000000   6.0000000   9.0000000   6.0000000   6.0000000   9.0000000   6.0000000   6.0000000   6.0000000

  Atom        11          12          13          14          15          16          17          18          19          20
 IAtWgt=          16          12          12          12          32          12          12          12          19          12
 AtmWgt=  15.9949146  12.0000000  12.0000000  12.0000000  31.9720718  12.0000000  12.0000000  12.0000000  18.9984033  12.0000000
 NucSpn=           0           0           0           0           0           0           0           0           1           0
 AtZEff=  -0.0000000  -0.0000000  -0.0000000  -0.0000000  -0.0000000  -0.0000000  -0.0000000  -0.0000000  -0.0000000  -0.0000000
 NQMom=    0.0000000   0.0000000   0.0000000   0.0000000   0.0000000   0.0000000   0.0000000   0.0000000   0.0000000   0.0000000
 NMagM=    0.0000000   0.0000000   0.0000000   0.0000000   0.0000000   0.0000000   0.0000000   0.0000000   2.6288670   0.0000000
 AtZNuc=   8.0000000   6.0000000   6.0000000   6.0000000  16.0000000   6.0000000   6.0000000   6.0000000   9.0000000   6.0000000

  Atom        21          22          23          24          25          26          27          28          29          30
 IAtWgt=          12          19          12          12          12          16          12          12          12          32
 AtmWgt=  12.0000000  18.9984033  12.0000000  12.0000000  12.0000000  15.9949146  12.0000000  12.0000000  12.0000000  31.9720718
 NucSpn=           0           1           0           0           0           0           0           0           0           0
 AtZEff=  -0.0000000  -0.0000000  -0.0000000  -0.0000000  -0.0000000  -0.0000000  -0.0000000  -0.0000000  -0.0000000  -0.0000000
 NQMom=    0.0000000   0.0000000   0.0000000   0.0000000   0.0000000   0.0000000   0.0000000   0.0000000   0.0000000   0.0000000
 NMagM=    0.0000000   2.6288670   0.0000000   0.0000000   0.0000000   0.0000000   0.0000000   0.0000000   0.0000000   0.0000000
 AtZNuc=   6.0000000   9.0000000   6.0000000   6.0000000   6.0000000   8.0000000   6.0000000   6.0000000   6.0000000  16.0000000

  Atom        31          32          33          34          35          36          37          38          39          40
 IAtWgt=          12          12          12          19          12          12          19          12          12          12
 AtmWgt=  12.0000000  12.0000000  12.0000000  18.9984033  12.0000000  12.0000000  18.9984033  12.0000000  12.0000000  12.0000000
 NucSpn=           0           0           0           1           0           0           1           0           0           0
 AtZEff=  -0.0000000  -0.0000000  -0.0000000  -0.0000000  -0.0000000  -0.0000000  -0.0000000  -0.0000000  -0.0000000  -0.0000000
 NQMom=    0.0000000   0.0000000   0.0000000   0.0000000   0.0000000   0.0000000   0.0000000   0.0000000   0.0000000   0.0000000
 NMagM=    0.0000000   0.0000000   0.0000000   2.6288670   0.0000000   0.0000000   2.6288670   0.0000000   0.0000000   0.0000000
 AtZNuc=   6.0000000   6.0000000   6.0000000   9.0000000   6.0000000   6.0000000   9.0000000   6.0000000   6.0000000   6.0000000

  Atom        41          42          43          44          45          46          47          48          49          50
 IAtWgt=          16          12          12          12          32          12          12          12          19          12
 AtmWgt=  15.9949146  12.0000000  12.0000000  12.0000000  31.9720718  12.0000000  12.0000000  12.0000000  18.9984033  12.0000000
 NucSpn=           0           0           0           0           0           0           0           0           1           0
 AtZEff=  -0.0000000  -0.0000000  -0.0000000  -0.0000000  -0.0000000  -0.0000000  -0.0000000  -0.0000000  -0.0000000  -0.0000000
 NQMom=    0.0000000   0.0000000   0.0000000   0.0000000   0.0000000   0.0000000   0.0000000   0.0000000   0.0000000   0.0000000
 NMagM=    0.0000000   0.0000000   0.0000000   0.0000000   0.0000000   0.0000000   0.0000000   0.0000000   2.6288670   0.0000000
 AtZNuc=   8.0000000   6.0000000   6.0000000   6.0000000  16.0000000   6.0000000   6.0000000   6.0000000   9.0000000   6.0000000

  Atom        51          52          53          54          55          56          57          58          59          60
 IAtWgt=          12          19          12          12          12          16          12          12          12          32
 AtmWgt=  12.0000000  18.9984033  12.0000000  12.0000000  12.0000000  15.9949146  12.0000000  12.0000000  12.0000000  31.9720718
 NucSpn=           0           1           0           0           0           0           0           0           0           0
 AtZEff=  -0.0000000  -0.0000000  -0.0000000  -0.0000000  -0.0000000  -0.0000000  -0.0000000  -0.0000000  -0.0000000  -0.0000000
 NQMom=    0.0000000   0.0000000   0.0000000   0.0000000   0.0000000   0.0000000   0.0000000   0.0000000   0.0000000   0.0000000
 NMagM=    0.0000000   2.6288670   0.0000000   0.0000000   0.0000000   0.0000000   0.0000000   0.0000000   0.0000000   0.0000000
 AtZNuc=   6.0000000   9.0000000   6.0000000   6.0000000   6.0000000   8.0000000   6.0000000   6.0000000   6.0000000  16.0000000

  Atom        61          62          63          64          65          66          67          68          69          70
 IAtWgt=          12          12          12          19          12          12          19          12          12          12
 AtmWgt=  12.0000000  12.0000000  12.0000000  18.9984033  12.0000000  12.0000000  18.9984033  12.0000000  12.0000000  12.0000000
 NucSpn=           0           0           0           1           0           0           1           0           0           0
 AtZEff=  -0.0000000  -0.0000000  -0.0000000  -0.0000000  -0.0000000  -0.0000000  -0.0000000  -0.0000000  -0.0000000  -0.0000000
 NQMom=    0.0000000   0.0000000   0.0000000   0.0000000   0.0000000   0.0000000   0.0000000   0.0000000   0.0000000   0.0000000
 NMagM=    0.0000000   0.0000000   0.0000000   2.6288670   0.0000000   0.0000000   2.6288670   0.0000000   0.0000000   0.0000000
 AtZNuc=   6.0000000   6.0000000   6.0000000   9.0000000   6.0000000   6.0000000   9.0000000   6.0000000   6.0000000   6.0000000

  Atom        71          72          73          74          75          76          77          78          79          80
 IAtWgt=          16          12          12          12          32           1           1           1           1           1
 AtmWgt=  15.9949146  12.0000000  12.0000000  12.0000000  31.9720718   1.0078250   1.0078250   1.0078250   1.0078250   1.0078250
 NucSpn=           0           0           0           0           0           1           1           1           1           1
 AtZEff=  -0.0000000  -0.0000000  -0.0000000  -0.0000000  -0.0000000  -0.0000000  -0.0000000  -0.0000000  -0.0000000  -0.0000000
 NQMom=    0.0000000   0.0000000   0.0000000   0.0000000   0.0000000   0.0000000   0.0000000   0.0000000   0.0000000   0.0000000
 NMagM=    0.0000000   0.0000000   0.0000000   0.0000000   0.0000000   2.7928460   2.7928460   2.7928460   2.7928460   2.7928460
 AtZNuc=   8.0000000   6.0000000   6.0000000   6.0000000  16.0000000   1.0000000   1.0000000   1.0000000   1.0000000   1.0000000

  Atom        81          82          83          84          85          86          87          88          89          90
 IAtWgt=           1           1           1           1           1           1           1           1           1           1
 AtmWgt=   1.0078250   1.0078250   1.0078250   1.0078250   1.0078250   1.0078250   1.0078250   1.0078250   1.0078250   1.0078250
 NucSpn=           1           1           1           1           1           1           1           1           1           1
 AtZEff=  -0.0000000  -0.0000000  -0.0000000  -0.0000000  -0.0000000  -0.0000000  -0.0000000  -0.0000000  -0.0000000  -0.0000000
 NQMom=    0.0000000   0.0000000   0.0000000   0.0000000   0.0000000   0.0000000   0.0000000   0.0000000   0.0000000   0.0000000
 NMagM=    2.7928460   2.7928460   2.7928460   2.7928460   2.7928460   2.7928460   2.7928460   2.7928460   2.7928460   2.7928460
 AtZNuc=   1.0000000   1.0000000   1.0000000   1.0000000   1.0000000   1.0000000   1.0000000   1.0000000   1.0000000   1.0000000

  Atom        91          92          93          94          95          96          97          98          99         100
 IAtWgt=           1           1           1           1           1           1           1           1           1           1
 AtmWgt=   1.0078250   1.0078250   1.0078250   1.0078250   1.0078250   1.0078250   1.0078250   1.0078250   1.0078250   1.0078250
 NucSpn=           1           1           1           1           1           1           1           1           1           1
 AtZEff=  -0.0000000  -0.0000000  -0.0000000  -0.0000000  -0.0000000  -0.0000000  -0.0000000  -0.0000000  -0.0000000  -0.0000000
 NQMom=    0.0000000   0.0000000   0.0000000   0.0000000   0.0000000   0.0000000   0.0000000   0.0000000   0.0000000   0.0000000
 NMagM=    2.7928460   2.7928460   2.7928460   2.7928460   2.7928460   2.7928460   2.7928460   2.7928460   2.7928460   2.7928460
 AtZNuc=   1.0000000   1.0000000   1.0000000   1.0000000   1.0000000   1.0000000   1.0000000   1.0000000   1.0000000   1.0000000

  Atom       101         102         103         104         105         106         107
 IAtWgt=           1           1           1           1           1           1           1
 AtmWgt=   1.0078250   1.0078250   1.0078250   1.0078250   1.0078250   1.0078250   1.0078250
 NucSpn=           1           1           1           1           1           1           1
 AtZEff=  -0.0000000  -0.0000000  -0.0000000  -0.0000000  -0.0000000  -0.0000000  -0.0000000
 NQMom=    0.0000000   0.0000000   0.0000000   0.0000000   0.0000000   0.0000000   0.0000000
 NMagM=    2.7928460   2.7928460   2.7928460   2.7928460   2.7928460   2.7928460   2.7928460
 AtZNuc=   1.0000000   1.0000000   1.0000000   1.0000000   1.0000000   1.0000000   1.0000000
 Leave Link  101 at Sat Jul 25 14:12:40 2020, MaxMem=  4026531840 cpu:               3.1 elap:               0.4
 (Enter /opt/ohpc/pub/libs/gaussian/g16-A.03/sandybridge/g16/l103.exe)

 GradGradGradGradGradGradGradGradGradGradGradGradGradGradGradGradGradGrad
 Berny optimization.
 Initialization pass.
                           ----------------------------
                           !    Initial Parameters    !
                           ! (Angstroms and Degrees)  !
 --------------------------                            --------------------------
 ! Name  Definition              Value          Derivative Info.                !
 --------------------------------------------------------------------------------
 ! R1    R(1,2)                  1.4078         estimate D2E/DX2                !
 ! R2    R(1,8)                  1.3546         estimate D2E/DX2                !
 ! R3    R(1,76)                 1.1297         estimate D2E/DX2                !
 ! R4    R(2,3)                  1.3479         estimate D2E/DX2                !
 ! R5    R(2,77)                 1.1532         estimate D2E/DX2                !
 ! R6    R(3,4)                  1.3753         estimate D2E/DX2                !
 ! R7    R(3,5)                  1.4168         estimate D2E/DX2                !
 ! R8    R(5,6)                  1.4011         estimate D2E/DX2                !
 ! R9    R(5,9)                  1.4027         estimate D2E/DX2                !
 ! R10   R(6,7)                  1.3028         estimate D2E/DX2                !
 ! R11   R(6,8)                  1.4272         estimate D2E/DX2                !
 ! R12   R(8,78)                 1.0423         estimate D2E/DX2                !
 ! R13   R(9,10)                 1.4379         estimate D2E/DX2                !
 ! R14   R(9,15)                 1.7077         estimate D2E/DX2                !
 ! R15   R(10,11)                1.3301         estimate D2E/DX2                !
 ! R16   R(10,13)                1.3562         estimate D2E/DX2                !
 ! R17   R(11,12)                1.4316         estimate D2E/DX2                !
 ! R18   R(12,79)                1.0061         estimate D2E/DX2                !
 ! R19   R(12,80)                1.1337         estimate D2E/DX2                !
 ! R20   R(12,81)                1.0999         estimate D2E/DX2                !
 ! R21   R(13,14)                1.417          estimate D2E/DX2                !
 ! R22   R(13,82)                1.0804         estimate D2E/DX2                !
 ! R23   R(14,15)                1.7103         estimate D2E/DX2                !
 ! R24   R(14,16)                1.4            estimate D2E/DX2                !
 ! R25   R(16,17)                1.4283         estimate D2E/DX2                !
 ! R26   R(16,23)                1.3668         estimate D2E/DX2                !
 ! R27   R(17,18)                1.4218         estimate D2E/DX2                !
 ! R28   R(17,83)                1.1162         estimate D2E/DX2                !
 ! R29   R(18,19)                1.2854         estimate D2E/DX2                !
 ! R30   R(18,20)                1.3622         estimate D2E/DX2                !
 ! R31   R(20,21)                1.3944         estimate D2E/DX2                !
 ! R32   R(20,24)                1.4721         estimate D2E/DX2                !
 ! R33   R(21,22)                1.4053         estimate D2E/DX2                !
 ! R34   R(21,23)                1.4598         estimate D2E/DX2                !
 ! R35   R(23,84)                1.0939         estimate D2E/DX2                !
 ! R36   R(24,25)                1.3114         estimate D2E/DX2                !
 ! R37   R(24,30)                1.7731         estimate D2E/DX2                !
 ! R38   R(25,26)                1.3526         estimate D2E/DX2                !
 ! R39   R(25,28)                1.4597         estimate D2E/DX2                !
 ! R40   R(26,27)                1.451          estimate D2E/DX2                !
 ! R41   R(27,85)                1.1824         estimate D2E/DX2                !
 ! R42   R(27,86)                1.0948         estimate D2E/DX2                !
 ! R43   R(27,87)                1.0231         estimate D2E/DX2                !
 ! R44   R(28,29)                1.4166         estimate D2E/DX2                !
 ! R45   R(28,88)                1.0279         estimate D2E/DX2                !
 ! R46   R(29,30)                1.6377         estimate D2E/DX2                !
 ! R47   R(29,31)                1.4927         estimate D2E/DX2                !
 ! R48   R(31,32)                1.3798         estimate D2E/DX2                !
 ! R49   R(31,38)                1.4067         estimate D2E/DX2                !
 ! R50   R(32,33)                1.3143         estimate D2E/DX2                !
 ! R51   R(32,89)                1.0815         estimate D2E/DX2                !
 ! R52   R(33,34)                1.3361         estimate D2E/DX2                !
 ! R53   R(33,35)                1.4105         estimate D2E/DX2                !
 ! R54   R(35,36)                1.3891         estimate D2E/DX2                !
 ! R55   R(35,39)                1.462          estimate D2E/DX2                !
 ! R56   R(36,37)                1.3581         estimate D2E/DX2                !
 ! R57   R(36,38)                1.467          estimate D2E/DX2                !
 ! R58   R(38,90)                1.0713         estimate D2E/DX2                !
 ! R59   R(39,40)                1.3555         estimate D2E/DX2                !
 ! R60   R(39,45)                1.6996         estimate D2E/DX2                !
 ! R61   R(40,41)                1.4218         estimate D2E/DX2                !
 ! R62   R(40,43)                1.3899         estimate D2E/DX2                !
 ! R63   R(41,42)                1.4204         estimate D2E/DX2                !
 ! R64   R(42,91)                1.164          estimate D2E/DX2                !
 ! R65   R(42,92)                1.0622         estimate D2E/DX2                !
 ! R66   R(42,93)                1.1098         estimate D2E/DX2                !
 ! R67   R(43,44)                1.4378         estimate D2E/DX2                !
 ! R68   R(43,94)                1.0845         estimate D2E/DX2                !
 ! R69   R(44,45)                1.7606         estimate D2E/DX2                !
 ! R70   R(44,46)                1.3804         estimate D2E/DX2                !
 ! R71   R(46,47)                1.4093         estimate D2E/DX2                !
 ! R72   R(46,53)                1.4316         estimate D2E/DX2                !
 ! R73   R(47,48)                1.4273         estimate D2E/DX2                !
 ! R74   R(47,95)                1.1384         estimate D2E/DX2                !
 ! R75   R(48,49)                1.2951         estimate D2E/DX2                !
 ! R76   R(48,50)                1.4448         estimate D2E/DX2                !
 ! R77   R(50,51)                1.339          estimate D2E/DX2                !
 ! R78   R(50,54)                1.4472         estimate D2E/DX2                !
 ! R79   R(51,52)                1.4217         estimate D2E/DX2                !
 ! R80   R(51,53)                1.3507         estimate D2E/DX2                !
 ! R81   R(53,96)                1.0345         estimate D2E/DX2                !
 ! R82   R(54,55)                1.3397         estimate D2E/DX2                !
 ! R83   R(54,60)                1.7147         estimate D2E/DX2                !
 ! R84   R(55,56)                1.4449         estimate D2E/DX2                !
 ! R85   R(55,58)                1.4734         estimate D2E/DX2                !
 ! R86   R(56,57)                1.3486         estimate D2E/DX2                !
 ! R87   R(57,97)                1.0825         estimate D2E/DX2                !
 ! R88   R(57,98)                1.1214         estimate D2E/DX2                !
 ! R89   R(57,99)                1.1142         estimate D2E/DX2                !
 ! R90   R(58,59)                1.349          estimate D2E/DX2                !
 ! R91   R(58,100)               1.0814         estimate D2E/DX2                !
 ! R92   R(59,60)                1.7315         estimate D2E/DX2                !
 ! R93   R(59,61)                1.4984         estimate D2E/DX2                !
 ! R94   R(61,62)                1.3882         estimate D2E/DX2                !
 ! R95   R(61,68)                1.3682         estimate D2E/DX2                !
 ! R96   R(62,63)                1.3407         estimate D2E/DX2                !
 ! R97   R(62,101)               1.1319         estimate D2E/DX2                !
 ! R98   R(63,64)                1.3489         estimate D2E/DX2                !
 ! R99   R(63,65)                1.4729         estimate D2E/DX2                !
 ! R100  R(65,66)                1.3788         estimate D2E/DX2                !
 ! R101  R(65,69)                1.4512         estimate D2E/DX2                !
 ! R102  R(66,67)                1.4131         estimate D2E/DX2                !
 ! R103  R(66,68)                1.4275         estimate D2E/DX2                !
 ! R104  R(68,102)               1.025          estimate D2E/DX2                !
 ! R105  R(69,70)                1.373          estimate D2E/DX2                !
 ! R106  R(69,75)                1.7739         estimate D2E/DX2                !
 ! R107  R(70,71)                1.3578         estimate D2E/DX2                !
 ! R108  R(70,73)                1.4798         estimate D2E/DX2                !
 ! R109  R(71,72)                1.3889         estimate D2E/DX2                !
 ! R110  R(72,103)               1.1106         estimate D2E/DX2                !
 ! R111  R(72,104)               1.0271         estimate D2E/DX2                !
 ! R112  R(72,105)               1.0892         estimate D2E/DX2                !
 ! R113  R(73,74)                1.3077         estimate D2E/DX2                !
 ! R114  R(73,106)               1.1291         estimate D2E/DX2                !
 ! R115  R(74,75)                1.7411         estimate D2E/DX2                !
 ! R116  R(74,107)               1.0631         estimate D2E/DX2                !
 ! A1    A(2,1,8)              120.3738         estimate D2E/DX2                !
 ! A2    A(2,1,76)             117.0136         estimate D2E/DX2                !
 ! A3    A(8,1,76)             122.5949         estimate D2E/DX2                !
 ! A4    A(1,2,3)              120.2769         estimate D2E/DX2                !
 ! A5    A(1,2,77)             121.7122         estimate D2E/DX2                !
 ! A6    A(3,2,77)             117.9893         estimate D2E/DX2                !
 ! A7    A(2,3,4)              116.8823         estimate D2E/DX2                !
 ! A8    A(2,3,5)              122.6518         estimate D2E/DX2                !
 ! A9    A(4,3,5)              120.3775         estimate D2E/DX2                !
 ! A10   A(3,5,6)              115.7762         estimate D2E/DX2                !
 ! A11   A(3,5,9)              119.9661         estimate D2E/DX2                !
 ! A12   A(6,5,9)              124.2527         estimate D2E/DX2                !
 ! A13   A(5,6,7)              119.4109         estimate D2E/DX2                !
 ! A14   A(5,6,8)              121.8474         estimate D2E/DX2                !
 ! A15   A(7,6,8)              118.2524         estimate D2E/DX2                !
 ! A16   A(1,8,6)              118.8855         estimate D2E/DX2                !
 ! A17   A(1,8,78)             120.8267         estimate D2E/DX2                !
 ! A18   A(6,8,78)             120.1272         estimate D2E/DX2                !
 ! A19   A(5,9,10)             129.4173         estimate D2E/DX2                !
 ! A20   A(5,9,15)             123.9048         estimate D2E/DX2                !
 ! A21   A(10,9,15)            106.3947         estimate D2E/DX2                !
 ! A22   A(9,10,11)            116.7769         estimate D2E/DX2                !
 ! A23   A(9,10,13)            115.3395         estimate D2E/DX2                !
 ! A24   A(11,10,13)           127.483          estimate D2E/DX2                !
 ! A25   A(10,11,12)           115.0429         estimate D2E/DX2                !
 ! A26   A(11,12,79)           111.8898         estimate D2E/DX2                !
 ! A27   A(11,12,80)           108.4608         estimate D2E/DX2                !
 ! A28   A(11,12,81)           109.8738         estimate D2E/DX2                !
 ! A29   A(79,12,80)           112.7152         estimate D2E/DX2                !
 ! A30   A(79,12,81)           109.1275         estimate D2E/DX2                !
 ! A31   A(80,12,81)           104.5048         estimate D2E/DX2                !
 ! A32   A(10,13,14)           113.7729         estimate D2E/DX2                !
 ! A33   A(10,13,82)           126.5947         estimate D2E/DX2                !
 ! A34   A(14,13,82)           119.6317         estimate D2E/DX2                !
 ! A35   A(13,14,15)           107.9873         estimate D2E/DX2                !
 ! A36   A(13,14,16)           132.1273         estimate D2E/DX2                !
 ! A37   A(15,14,16)           119.7008         estimate D2E/DX2                !
 ! A38   A(9,15,14)             96.2835         estimate D2E/DX2                !
 ! A39   A(14,16,17)           120.6597         estimate D2E/DX2                !
 ! A40   A(14,16,23)           125.2257         estimate D2E/DX2                !
 ! A41   A(17,16,23)           114.1145         estimate D2E/DX2                !
 ! A42   A(16,17,18)           124.5652         estimate D2E/DX2                !
 ! A43   A(16,17,83)           115.5208         estimate D2E/DX2                !
 ! A44   A(18,17,83)           119.7496         estimate D2E/DX2                !
 ! A45   A(17,18,19)           119.6634         estimate D2E/DX2                !
 ! A46   A(17,18,20)           119.8607         estimate D2E/DX2                !
 ! A47   A(19,18,20)           120.4654         estimate D2E/DX2                !
 ! A48   A(18,20,21)           117.9571         estimate D2E/DX2                !
 ! A49   A(18,20,24)           123.7392         estimate D2E/DX2                !
 ! A50   A(21,20,24)           118.3024         estimate D2E/DX2                !
 ! A51   A(20,21,22)           121.6032         estimate D2E/DX2                !
 ! A52   A(20,21,23)           121.4503         estimate D2E/DX2                !
 ! A53   A(22,21,23)           116.9435         estimate D2E/DX2                !
 ! A54   A(16,23,21)           121.9454         estimate D2E/DX2                !
 ! A55   A(16,23,84)           122.4486         estimate D2E/DX2                !
 ! A56   A(21,23,84)           115.4885         estimate D2E/DX2                !
 ! A57   A(20,24,25)           130.3489         estimate D2E/DX2                !
 ! A58   A(20,24,30)           117.4918         estimate D2E/DX2                !
 ! A59   A(25,24,30)           112.0981         estimate D2E/DX2                !
 ! A60   A(24,25,26)           118.705          estimate D2E/DX2                !
 ! A61   A(24,25,28)           113.5485         estimate D2E/DX2                !
 ! A62   A(26,25,28)           127.5232         estimate D2E/DX2                !
 ! A63   A(25,26,27)           115.6194         estimate D2E/DX2                !
 ! A64   A(26,27,85)           109.2989         estimate D2E/DX2                !
 ! A65   A(26,27,86)           111.6301         estimate D2E/DX2                !
 ! A66   A(26,27,87)           110.8606         estimate D2E/DX2                !
 ! A67   A(85,27,86)           111.4882         estimate D2E/DX2                !
 ! A68   A(85,27,87)           106.124          estimate D2E/DX2                !
 ! A69   A(86,27,87)           107.2919         estimate D2E/DX2                !
 ! A70   A(25,28,29)           108.0653         estimate D2E/DX2                !
 ! A71   A(25,28,88)           126.0028         estimate D2E/DX2                !
 ! A72   A(29,28,88)           125.6752         estimate D2E/DX2                !
 ! A73   A(28,29,30)           115.2154         estimate D2E/DX2                !
 ! A74   A(28,29,31)           123.5113         estimate D2E/DX2                !
 ! A75   A(30,29,31)           121.2525         estimate D2E/DX2                !
 ! A76   A(24,30,29)            90.7982         estimate D2E/DX2                !
 ! A77   A(29,31,32)           124.7258         estimate D2E/DX2                !
 ! A78   A(29,31,38)           118.074          estimate D2E/DX2                !
 ! A79   A(32,31,38)           117.0737         estimate D2E/DX2                !
 ! A80   A(31,32,33)           123.1344         estimate D2E/DX2                !
 ! A81   A(31,32,89)           118.0789         estimate D2E/DX2                !
 ! A82   A(33,32,89)           118.7796         estimate D2E/DX2                !
 ! A83   A(32,33,34)           119.5917         estimate D2E/DX2                !
 ! A84   A(32,33,35)           125.0435         estimate D2E/DX2                !
 ! A85   A(34,33,35)           115.2115         estimate D2E/DX2                !
 ! A86   A(33,35,36)           113.6683         estimate D2E/DX2                !
 ! A87   A(33,35,39)           125.7056         estimate D2E/DX2                !
 ! A88   A(36,35,39)           120.5077         estimate D2E/DX2                !
 ! A89   A(35,36,37)           122.6244         estimate D2E/DX2                !
 ! A90   A(35,36,38)           122.2197         estimate D2E/DX2                !
 ! A91   A(37,36,38)           114.8521         estimate D2E/DX2                !
 ! A92   A(31,38,36)           118.3094         estimate D2E/DX2                !
 ! A93   A(31,38,90)           126.9471         estimate D2E/DX2                !
 ! A94   A(36,38,90)           114.712          estimate D2E/DX2                !
 ! A95   A(35,39,40)           128.7717         estimate D2E/DX2                !
 ! A96   A(35,39,45)           118.7783         estimate D2E/DX2                !
 ! A97   A(40,39,45)           112.3219         estimate D2E/DX2                !
 ! A98   A(39,40,41)           116.386          estimate D2E/DX2                !
 ! A99   A(39,40,43)           115.0713         estimate D2E/DX2                !
 ! A100  A(41,40,43)           128.5132         estimate D2E/DX2                !
 ! A101  A(40,41,42)           111.9655         estimate D2E/DX2                !
 ! A102  A(41,42,91)           110.1687         estimate D2E/DX2                !
 ! A103  A(41,42,92)           115.5606         estimate D2E/DX2                !
 ! A104  A(41,42,93)           106.4649         estimate D2E/DX2                !
 ! A105  A(91,42,92)           111.9882         estimate D2E/DX2                !
 ! A106  A(91,42,93)           102.2001         estimate D2E/DX2                !
 ! A107  A(92,42,93)           109.4591         estimate D2E/DX2                !
 ! A108  A(40,43,44)           111.445          estimate D2E/DX2                !
 ! A109  A(40,43,94)           128.7478         estimate D2E/DX2                !
 ! A110  A(44,43,94)           119.555          estimate D2E/DX2                !
 ! A111  A(43,44,45)           108.8973         estimate D2E/DX2                !
 ! A112  A(43,44,46)           129.9744         estimate D2E/DX2                !
 ! A113  A(45,44,46)           121.1229         estimate D2E/DX2                !
 ! A114  A(39,45,44)            92.1799         estimate D2E/DX2                !
 ! A115  A(44,46,47)           119.8332         estimate D2E/DX2                !
 ! A116  A(44,46,53)           124.2198         estimate D2E/DX2                !
 ! A117  A(47,46,53)           115.6444         estimate D2E/DX2                !
 ! A118  A(46,47,48)           124.4407         estimate D2E/DX2                !
 ! A119  A(46,47,95)           122.4148         estimate D2E/DX2                !
 ! A120  A(48,47,95)           113.1131         estimate D2E/DX2                !
 ! A121  A(47,48,49)           122.7217         estimate D2E/DX2                !
 ! A122  A(47,48,50)           115.6387         estimate D2E/DX2                !
 ! A123  A(49,48,50)           121.5545         estimate D2E/DX2                !
 ! A124  A(48,50,51)           118.3669         estimate D2E/DX2                !
 ! A125  A(48,50,54)           116.6503         estimate D2E/DX2                !
 ! A126  A(51,50,54)           124.9228         estimate D2E/DX2                !
 ! A127  A(50,51,52)           116.4684         estimate D2E/DX2                !
 ! A128  A(50,51,53)           126.7003         estimate D2E/DX2                !
 ! A129  A(52,51,53)           116.8047         estimate D2E/DX2                !
 ! A130  A(46,53,51)           119.0856         estimate D2E/DX2                !
 ! A131  A(46,53,96)           119.6781         estimate D2E/DX2                !
 ! A132  A(51,53,96)           121.1546         estimate D2E/DX2                !
 ! A133  A(50,54,55)           132.2424         estimate D2E/DX2                !
 ! A134  A(50,54,60)           120.1342         estimate D2E/DX2                !
 ! A135  A(55,54,60)           107.2257         estimate D2E/DX2                !
 ! A136  A(54,55,56)           118.1765         estimate D2E/DX2                !
 ! A137  A(54,55,58)           116.6329         estimate D2E/DX2                !
 ! A138  A(56,55,58)           125.176          estimate D2E/DX2                !
 ! A139  A(55,56,57)           115.2791         estimate D2E/DX2                !
 ! A140  A(56,57,97)           112.0907         estimate D2E/DX2                !
 ! A141  A(56,57,98)           114.8816         estimate D2E/DX2                !
 ! A142  A(56,57,99)           110.6091         estimate D2E/DX2                !
 ! A143  A(97,57,98)           105.1133         estimate D2E/DX2                !
 ! A144  A(97,57,99)           106.1287         estimate D2E/DX2                !
 ! A145  A(98,57,99)           107.4793         estimate D2E/DX2                !
 ! A146  A(55,58,59)           110.6928         estimate D2E/DX2                !
 ! A147  A(55,58,100)          125.9727         estimate D2E/DX2                !
 ! A148  A(59,58,100)          123.2101         estimate D2E/DX2                !
 ! A149  A(58,59,60)           109.7049         estimate D2E/DX2                !
 ! A150  A(58,59,61)           129.97           estimate D2E/DX2                !
 ! A151  A(60,59,61)           120.009          estimate D2E/DX2                !
 ! A152  A(54,60,59)            95.5668         estimate D2E/DX2                !
 ! A153  A(59,61,62)           121.253          estimate D2E/DX2                !
 ! A154  A(59,61,68)           115.3242         estimate D2E/DX2                !
 ! A155  A(62,61,68)           123.0204         estimate D2E/DX2                !
 ! A156  A(61,62,63)           120.3975         estimate D2E/DX2                !
 ! A157  A(61,62,101)          119.9379         estimate D2E/DX2                !
 ! A158  A(63,62,101)          119.3651         estimate D2E/DX2                !
 ! A159  A(62,63,64)           123.0513         estimate D2E/DX2                !
 ! A160  A(62,63,65)           122.0816         estimate D2E/DX2                !
 ! A161  A(64,63,65)           114.8016         estimate D2E/DX2                !
 ! A162  A(63,65,66)           112.8122         estimate D2E/DX2                !
 ! A163  A(63,65,69)           124.3035         estimate D2E/DX2                !
 ! A164  A(66,65,69)           122.5099         estimate D2E/DX2                !
 ! A165  A(65,66,67)           117.0762         estimate D2E/DX2                !
 ! A166  A(65,66,68)           126.7911         estimate D2E/DX2                !
 ! A167  A(67,66,68)           116.0899         estimate D2E/DX2                !
 ! A168  A(61,68,66)           114.6078         estimate D2E/DX2                !
 ! A169  A(61,68,102)          125.693          estimate D2E/DX2                !
 ! A170  A(66,68,102)          119.6881         estimate D2E/DX2                !
 ! A171  A(65,69,70)           129.7951         estimate D2E/DX2                !
 ! A172  A(65,69,75)           116.1987         estimate D2E/DX2                !
 ! A173  A(70,69,75)           114.0023         estimate D2E/DX2                !
 ! A174  A(69,70,71)           120.7985         estimate D2E/DX2                !
 ! A175  A(69,70,73)           107.132          estimate D2E/DX2                !
 ! A176  A(71,70,73)           131.9883         estimate D2E/DX2                !
 ! A177  A(70,71,72)           111.3023         estimate D2E/DX2                !
 ! A178  A(71,72,103)          115.6035         estimate D2E/DX2                !
 ! A179  A(71,72,104)          111.9957         estimate D2E/DX2                !
 ! A180  A(71,72,105)          103.572          estimate D2E/DX2                !
 ! A181  A(103,72,104)         114.0854         estimate D2E/DX2                !
 ! A182  A(103,72,105)         102.39           estimate D2E/DX2                !
 ! A183  A(104,72,105)         107.8083         estimate D2E/DX2                !
 ! A184  A(70,73,74)           116.9691         estimate D2E/DX2                !
 ! A185  A(70,73,106)          119.1423         estimate D2E/DX2                !
 ! A186  A(74,73,106)          123.7845         estimate D2E/DX2                !
 ! A187  A(73,74,75)           112.0231         estimate D2E/DX2                !
 ! A188  A(73,74,107)          133.7856         estimate D2E/DX2                !
 ! A189  A(75,74,107)          114.171          estimate D2E/DX2                !
 ! A190  A(69,75,74)            89.8263         estimate D2E/DX2                !
 ! D1    D(8,1,2,3)              1.9535         estimate D2E/DX2                !
 ! D2    D(8,1,2,77)          -179.7685         estimate D2E/DX2                !
 ! D3    D(76,1,2,3)          -179.5412         estimate D2E/DX2                !
 ! D4    D(76,1,2,77)           -1.2632         estimate D2E/DX2                !
 ! D5    D(2,1,8,6)              1.4681         estimate D2E/DX2                !
 ! D6    D(2,1,8,78)           176.8673         estimate D2E/DX2                !
 ! D7    D(76,1,8,6)          -176.9513         estimate D2E/DX2                !
 ! D8    D(76,1,8,78)           -1.5521         estimate D2E/DX2                !
 ! D9    D(1,2,3,4)           -178.8916         estimate D2E/DX2                !
 ! D10   D(1,2,3,5)             -2.3035         estimate D2E/DX2                !
 ! D11   D(77,2,3,4)             2.7673         estimate D2E/DX2                !
 ! D12   D(77,2,3,5)           179.3555         estimate D2E/DX2                !
 ! D13   D(2,3,5,6)             -0.8057         estimate D2E/DX2                !
 ! D14   D(2,3,5,9)            179.9743         estimate D2E/DX2                !
 ! D15   D(4,3,5,6)            175.6667         estimate D2E/DX2                !
 ! D16   D(4,3,5,9)             -3.5533         estimate D2E/DX2                !
 ! D17   D(3,5,6,7)            176.1461         estimate D2E/DX2                !
 ! D18   D(3,5,6,8)              4.3131         estimate D2E/DX2                !
 ! D19   D(9,5,6,7)             -4.6714         estimate D2E/DX2                !
 ! D20   D(9,5,6,8)           -176.5044         estimate D2E/DX2                !
 ! D21   D(3,5,9,10)          -118.5942         estimate D2E/DX2                !
 ! D22   D(3,5,9,15)            68.3754         estimate D2E/DX2                !
 ! D23   D(6,5,9,10)            62.2556         estimate D2E/DX2                !
 ! D24   D(6,5,9,15)          -110.7748         estimate D2E/DX2                !
 ! D25   D(5,6,8,1)             -4.7264         estimate D2E/DX2                !
 ! D26   D(5,6,8,78)           179.8414         estimate D2E/DX2                !
 ! D27   D(7,6,8,1)           -176.6504         estimate D2E/DX2                !
 ! D28   D(7,6,8,78)             7.9173         estimate D2E/DX2                !
 ! D29   D(5,9,10,11)            9.2124         estimate D2E/DX2                !
 ! D30   D(5,9,10,13)         -177.5008         estimate D2E/DX2                !
 ! D31   D(15,9,10,11)        -176.8136         estimate D2E/DX2                !
 ! D32   D(15,9,10,13)          -3.5267         estimate D2E/DX2                !
 ! D33   D(5,9,15,14)          175.0926         estimate D2E/DX2                !
 ! D34   D(10,9,15,14)           0.7003         estimate D2E/DX2                !
 ! D35   D(9,10,11,12)        -160.895          estimate D2E/DX2                !
 ! D36   D(13,10,11,12)         26.7561         estimate D2E/DX2                !
 ! D37   D(9,10,13,14)           5.3362         estimate D2E/DX2                !
 ! D38   D(9,10,13,82)        -174.3451         estimate D2E/DX2                !
 ! D39   D(11,10,13,14)        177.7789         estimate D2E/DX2                !
 ! D40   D(11,10,13,82)         -1.9024         estimate D2E/DX2                !
 ! D41   D(10,11,12,79)         49.1171         estimate D2E/DX2                !
 ! D42   D(10,11,12,80)        -75.833          estimate D2E/DX2                !
 ! D43   D(10,11,12,81)        170.4985         estimate D2E/DX2                !
 ! D44   D(10,13,14,15)         -4.4467         estimate D2E/DX2                !
 ! D45   D(10,13,14,16)       -179.3442         estimate D2E/DX2                !
 ! D46   D(82,13,14,15)        175.259          estimate D2E/DX2                !
 ! D47   D(82,13,14,16)          0.3615         estimate D2E/DX2                !
 ! D48   D(13,14,15,9)           2.0201         estimate D2E/DX2                !
 ! D49   D(16,14,15,9)         177.665          estimate D2E/DX2                !
 ! D50   D(13,14,16,17)        -54.7459         estimate D2E/DX2                !
 ! D51   D(13,14,16,23)        125.1354         estimate D2E/DX2                !
 ! D52   D(15,14,16,17)        130.8426         estimate D2E/DX2                !
 ! D53   D(15,14,16,23)        -49.276          estimate D2E/DX2                !
 ! D54   D(14,16,17,18)       -176.574          estimate D2E/DX2                !
 ! D55   D(14,16,17,83)         -1.2638         estimate D2E/DX2                !
 ! D56   D(23,16,17,18)          3.5322         estimate D2E/DX2                !
 ! D57   D(23,16,17,83)        178.8423         estimate D2E/DX2                !
 ! D58   D(14,16,23,21)        178.6615         estimate D2E/DX2                !
 ! D59   D(14,16,23,84)         -5.4581         estimate D2E/DX2                !
 ! D60   D(17,16,23,21)         -1.4503         estimate D2E/DX2                !
 ! D61   D(17,16,23,84)        174.4301         estimate D2E/DX2                !
 ! D62   D(16,17,18,19)        178.4356         estimate D2E/DX2                !
 ! D63   D(16,17,18,20)         -2.7397         estimate D2E/DX2                !
 ! D64   D(83,17,18,19)          3.3108         estimate D2E/DX2                !
 ! D65   D(83,17,18,20)       -177.8645         estimate D2E/DX2                !
 ! D66   D(17,18,20,21)         -0.3402         estimate D2E/DX2                !
 ! D67   D(17,18,20,24)        179.2455         estimate D2E/DX2                !
 ! D68   D(19,18,20,21)        178.475          estimate D2E/DX2                !
 ! D69   D(19,18,20,24)         -1.9393         estimate D2E/DX2                !
 ! D70   D(18,20,21,22)       -178.3501         estimate D2E/DX2                !
 ! D71   D(18,20,21,23)          2.2992         estimate D2E/DX2                !
 ! D72   D(24,20,21,22)          2.0412         estimate D2E/DX2                !
 ! D73   D(24,20,21,23)       -177.3095         estimate D2E/DX2                !
 ! D74   D(18,20,24,25)       -116.2466         estimate D2E/DX2                !
 ! D75   D(18,20,24,30)         60.6544         estimate D2E/DX2                !
 ! D76   D(21,20,24,25)         63.3378         estimate D2E/DX2                !
 ! D77   D(21,20,24,30)       -119.7613         estimate D2E/DX2                !
 ! D78   D(20,21,23,16)         -1.3747         estimate D2E/DX2                !
 ! D79   D(20,21,23,84)       -177.5238         estimate D2E/DX2                !
 ! D80   D(22,21,23,16)        179.2457         estimate D2E/DX2                !
 ! D81   D(22,21,23,84)          3.0966         estimate D2E/DX2                !
 ! D82   D(20,24,25,26)         -4.0064         estimate D2E/DX2                !
 ! D83   D(20,24,25,28)       -178.9853         estimate D2E/DX2                !
 ! D84   D(30,24,25,26)        178.9605         estimate D2E/DX2                !
 ! D85   D(30,24,25,28)          3.9816         estimate D2E/DX2                !
 ! D86   D(20,24,30,29)       -178.3836         estimate D2E/DX2                !
 ! D87   D(25,24,30,29)         -0.9323         estimate D2E/DX2                !
 ! D88   D(24,25,26,27)       -166.3303         estimate D2E/DX2                !
 ! D89   D(28,25,26,27)          7.8635         estimate D2E/DX2                !
 ! D90   D(24,25,28,29)         -5.6134         estimate D2E/DX2                !
 ! D91   D(24,25,28,88)        179.9578         estimate D2E/DX2                !
 ! D92   D(26,25,28,29)        179.941          estimate D2E/DX2                !
 ! D93   D(26,25,28,88)          5.5122         estimate D2E/DX2                !
 ! D94   D(25,26,27,85)        -63.8882         estimate D2E/DX2                !
 ! D95   D(25,26,27,86)         59.9174         estimate D2E/DX2                !
 ! D96   D(25,26,27,87)        179.4748         estimate D2E/DX2                !
 ! D97   D(25,28,29,30)          4.9532         estimate D2E/DX2                !
 ! D98   D(25,28,29,31)       -176.687          estimate D2E/DX2                !
 ! D99   D(88,28,29,30)        179.405          estimate D2E/DX2                !
 ! D100  D(88,28,29,31)         -2.2351         estimate D2E/DX2                !
 ! D101  D(28,29,30,24)         -2.512          estimate D2E/DX2                !
 ! D102  D(31,29,30,24)        179.0876         estimate D2E/DX2                !
 ! D103  D(28,29,31,32)        -41.9641         estimate D2E/DX2                !
 ! D104  D(28,29,31,38)        133.8176         estimate D2E/DX2                !
 ! D105  D(30,29,31,32)        136.3001         estimate D2E/DX2                !
 ! D106  D(30,29,31,38)        -47.9182         estimate D2E/DX2                !
 ! D107  D(29,31,32,33)        179.0176         estimate D2E/DX2                !
 ! D108  D(29,31,32,89)         -1.9626         estimate D2E/DX2                !
 ! D109  D(38,31,32,33)          3.1976         estimate D2E/DX2                !
 ! D110  D(38,31,32,89)       -177.7826         estimate D2E/DX2                !
 ! D111  D(29,31,38,36)        179.298          estimate D2E/DX2                !
 ! D112  D(29,31,38,90)          1.4548         estimate D2E/DX2                !
 ! D113  D(32,31,38,36)         -4.5951         estimate D2E/DX2                !
 ! D114  D(32,31,38,90)        177.5617         estimate D2E/DX2                !
 ! D115  D(31,32,33,34)       -179.5708         estimate D2E/DX2                !
 ! D116  D(31,32,33,35)         -4.2953         estimate D2E/DX2                !
 ! D117  D(89,32,33,34)          1.4159         estimate D2E/DX2                !
 ! D118  D(89,32,33,35)        176.6914         estimate D2E/DX2                !
 ! D119  D(32,33,35,36)          6.393          estimate D2E/DX2                !
 ! D120  D(32,33,35,39)       -177.5716         estimate D2E/DX2                !
 ! D121  D(34,33,35,36)       -178.1474         estimate D2E/DX2                !
 ! D122  D(34,33,35,39)         -2.112          estimate D2E/DX2                !
 ! D123  D(33,35,36,37)        178.8211         estimate D2E/DX2                !
 ! D124  D(33,35,36,38)         -7.8365         estimate D2E/DX2                !
 ! D125  D(39,35,36,37)          2.5574         estimate D2E/DX2                !
 ! D126  D(39,35,36,38)        175.8999         estimate D2E/DX2                !
 ! D127  D(33,35,39,40)         61.7954         estimate D2E/DX2                !
 ! D128  D(33,35,39,45)       -113.7468         estimate D2E/DX2                !
 ! D129  D(36,35,39,40)       -122.4196         estimate D2E/DX2                !
 ! D130  D(36,35,39,45)         62.0381         estimate D2E/DX2                !
 ! D131  D(35,36,38,31)          7.4559         estimate D2E/DX2                !
 ! D132  D(35,36,38,90)       -174.4415         estimate D2E/DX2                !
 ! D133  D(37,36,38,31)       -178.7216         estimate D2E/DX2                !
 ! D134  D(37,36,38,90)         -0.6189         estimate D2E/DX2                !
 ! D135  D(35,39,40,41)          3.4454         estimate D2E/DX2                !
 ! D136  D(35,39,40,43)       -174.747          estimate D2E/DX2                !
 ! D137  D(45,39,40,41)        179.2221         estimate D2E/DX2                !
 ! D138  D(45,39,40,43)          1.0298         estimate D2E/DX2                !
 ! D139  D(35,39,45,44)        176.9748         estimate D2E/DX2                !
 ! D140  D(40,39,45,44)          0.7307         estimate D2E/DX2                !
 ! D141  D(39,40,41,42)        177.3784         estimate D2E/DX2                !
 ! D142  D(43,40,41,42)         -4.7143         estimate D2E/DX2                !
 ! D143  D(39,40,43,44)         -2.733          estimate D2E/DX2                !
 ! D144  D(39,40,43,94)       -176.8489         estimate D2E/DX2                !
 ! D145  D(41,40,43,44)        179.3367         estimate D2E/DX2                !
 ! D146  D(41,40,43,94)          5.2207         estimate D2E/DX2                !
 ! D147  D(40,41,42,91)        -62.0421         estimate D2E/DX2                !
 ! D148  D(40,41,42,92)         66.1151         estimate D2E/DX2                !
 ! D149  D(40,41,42,93)       -172.1211         estimate D2E/DX2                !
 ! D150  D(40,43,44,45)          3.0958         estimate D2E/DX2                !
 ! D151  D(40,43,44,46)       -177.7639         estimate D2E/DX2                !
 ! D152  D(94,43,44,45)        177.8221         estimate D2E/DX2                !
 ! D153  D(94,43,44,46)         -3.0375         estimate D2E/DX2                !
 ! D154  D(43,44,45,39)         -2.1764         estimate D2E/DX2                !
 ! D155  D(46,44,45,39)        178.5931         estimate D2E/DX2                !
 ! D156  D(43,44,46,47)        -45.3007         estimate D2E/DX2                !
 ! D157  D(43,44,46,53)        128.0983         estimate D2E/DX2                !
 ! D158  D(45,44,46,47)        133.7492         estimate D2E/DX2                !
 ! D159  D(45,44,46,53)        -52.8518         estimate D2E/DX2                !
 ! D160  D(44,46,47,48)        177.3103         estimate D2E/DX2                !
 ! D161  D(44,46,47,95)         -4.8694         estimate D2E/DX2                !
 ! D162  D(53,46,47,48)          3.3629         estimate D2E/DX2                !
 ! D163  D(53,46,47,95)       -178.8168         estimate D2E/DX2                !
 ! D164  D(44,46,53,51)       -177.5527         estimate D2E/DX2                !
 ! D165  D(44,46,53,96)          5.6964         estimate D2E/DX2                !
 ! D166  D(47,46,53,51)         -3.9036         estimate D2E/DX2                !
 ! D167  D(47,46,53,96)        179.3455         estimate D2E/DX2                !
 ! D168  D(46,47,48,49)        174.8303         estimate D2E/DX2                !
 ! D169  D(46,47,48,50)         -1.8582         estimate D2E/DX2                !
 ! D170  D(95,47,48,49)         -3.1691         estimate D2E/DX2                !
 ! D171  D(95,47,48,50)       -179.8576         estimate D2E/DX2                !
 ! D172  D(47,48,50,51)          0.84           estimate D2E/DX2                !
 ! D173  D(47,48,50,54)        178.1624         estimate D2E/DX2                !
 ! D174  D(49,48,50,51)       -175.8907         estimate D2E/DX2                !
 ! D175  D(49,48,50,54)          1.4317         estimate D2E/DX2                !
 ! D176  D(48,50,51,52)       -179.7994         estimate D2E/DX2                !
 ! D177  D(48,50,51,53)         -1.7468         estimate D2E/DX2                !
 ! D178  D(54,50,51,52)          3.1196         estimate D2E/DX2                !
 ! D179  D(54,50,51,53)       -178.8279         estimate D2E/DX2                !
 ! D180  D(48,50,54,55)       -122.3933         estimate D2E/DX2                !
 ! D181  D(48,50,54,60)         65.8549         estimate D2E/DX2                !
 ! D182  D(51,50,54,55)         54.733          estimate D2E/DX2                !
 ! D183  D(51,50,54,60)       -117.0188         estimate D2E/DX2                !
 ! D184  D(50,51,53,46)          3.3783         estimate D2E/DX2                !
 ! D185  D(50,51,53,96)       -179.9205         estimate D2E/DX2                !
 ! D186  D(52,51,53,46)       -178.5749         estimate D2E/DX2                !
 ! D187  D(52,51,53,96)         -1.8737         estimate D2E/DX2                !
 ! D188  D(50,54,55,56)          8.9302         estimate D2E/DX2                !
 ! D189  D(50,54,55,58)       -172.3882         estimate D2E/DX2                !
 ! D190  D(60,54,55,56)       -178.5337         estimate D2E/DX2                !
 ! D191  D(60,54,55,58)          0.148          estimate D2E/DX2                !
 ! D192  D(50,54,60,59)        175.6629         estimate D2E/DX2                !
 ! D193  D(55,54,60,59)          2.047          estimate D2E/DX2                !
 ! D194  D(54,55,56,57)       -170.7948         estimate D2E/DX2                !
 ! D195  D(58,55,56,57)         10.647          estimate D2E/DX2                !
 ! D196  D(54,55,58,59)         -3.0669         estimate D2E/DX2                !
 ! D197  D(54,55,58,100)      -179.0989         estimate D2E/DX2                !
 ! D198  D(56,55,58,59)        175.5113         estimate D2E/DX2                !
 ! D199  D(56,55,58,100)        -0.5207         estimate D2E/DX2                !
 ! D200  D(55,56,57,97)        -62.5692         estimate D2E/DX2                !
 ! D201  D(55,56,57,98)         57.3259         estimate D2E/DX2                !
 ! D202  D(55,56,57,99)        179.206          estimate D2E/DX2                !
 ! D203  D(55,58,59,60)          4.342          estimate D2E/DX2                !
 ! D204  D(55,58,59,61)        177.7508         estimate D2E/DX2                !
 ! D205  D(100,58,59,60)      -179.496          estimate D2E/DX2                !
 ! D206  D(100,58,59,61)        -6.0872         estimate D2E/DX2                !
 ! D207  D(58,59,60,54)         -3.8636         estimate D2E/DX2                !
 ! D208  D(61,59,60,54)       -178.033          estimate D2E/DX2                !
 ! D209  D(58,59,61,62)        136.1982         estimate D2E/DX2                !
 ! D210  D(58,59,61,68)        -36.7312         estimate D2E/DX2                !
 ! D211  D(60,59,61,62)        -50.9706         estimate D2E/DX2                !
 ! D212  D(60,59,61,68)        136.1001         estimate D2E/DX2                !
 ! D213  D(59,61,62,63)       -178.1408         estimate D2E/DX2                !
 ! D214  D(59,61,62,101)         8.1833         estimate D2E/DX2                !
 ! D215  D(68,61,62,63)         -5.7663         estimate D2E/DX2                !
 ! D216  D(68,61,62,101)      -179.4422         estimate D2E/DX2                !
 ! D217  D(59,61,68,66)        175.4464         estimate D2E/DX2                !
 ! D218  D(59,61,68,102)        -3.3314         estimate D2E/DX2                !
 ! D219  D(62,61,68,66)          2.6561         estimate D2E/DX2                !
 ! D220  D(62,61,68,102)      -176.1216         estimate D2E/DX2                !
 ! D221  D(61,62,63,64)       -179.3641         estimate D2E/DX2                !
 ! D222  D(61,62,63,65)          3.7333         estimate D2E/DX2                !
 ! D223  D(101,62,63,64)        -5.6521         estimate D2E/DX2                !
 ! D224  D(101,62,63,65)       177.4452         estimate D2E/DX2                !
 ! D225  D(62,63,65,66)          0.9841         estimate D2E/DX2                !
 ! D226  D(62,63,65,69)        174.0941         estimate D2E/DX2                !
 ! D227  D(64,63,65,66)       -176.1561         estimate D2E/DX2                !
 ! D228  D(64,63,65,69)         -3.0461         estimate D2E/DX2                !
 ! D229  D(63,65,66,67)        178.2039         estimate D2E/DX2                !
 ! D230  D(63,65,66,68)         -4.2837         estimate D2E/DX2                !
 ! D231  D(69,65,66,67)          4.9524         estimate D2E/DX2                !
 ! D232  D(69,65,66,68)       -177.5352         estimate D2E/DX2                !
 ! D233  D(63,65,69,70)       -105.2208         estimate D2E/DX2                !
 ! D234  D(63,65,69,75)         73.9983         estimate D2E/DX2                !
 ! D235  D(66,65,69,70)         67.2444         estimate D2E/DX2                !
 ! D236  D(66,65,69,75)       -113.5364         estimate D2E/DX2                !
 ! D237  D(65,66,68,61)          2.6096         estimate D2E/DX2                !
 ! D238  D(65,66,68,102)      -178.533          estimate D2E/DX2                !
 ! D239  D(67,66,68,61)       -179.8566         estimate D2E/DX2                !
 ! D240  D(67,66,68,102)        -0.9992         estimate D2E/DX2                !
 ! D241  D(65,69,70,71)         -1.3937         estimate D2E/DX2                !
 ! D242  D(65,69,70,73)       -178.4918         estimate D2E/DX2                !
 ! D243  D(75,69,70,71)        179.3733         estimate D2E/DX2                !
 ! D244  D(75,69,70,73)          2.2752         estimate D2E/DX2                !
 ! D245  D(65,69,75,74)        178.6543         estimate D2E/DX2                !
 ! D246  D(70,69,75,74)         -2.0024         estimate D2E/DX2                !
 ! D247  D(69,70,71,72)        178.2574         estimate D2E/DX2                !
 ! D248  D(73,70,71,72)         -5.4746         estimate D2E/DX2                !
 ! D249  D(69,70,73,74)         -1.5463         estimate D2E/DX2                !
 ! D250  D(69,70,73,106)       174.8861         estimate D2E/DX2                !
 ! D251  D(71,70,73,74)       -178.1922         estimate D2E/DX2                !
 ! D252  D(71,70,73,106)        -1.7598         estimate D2E/DX2                !
 ! D253  D(70,71,72,103)       -63.8601         estimate D2E/DX2                !
 ! D254  D(70,71,72,104)        69.1106         estimate D2E/DX2                !
 ! D255  D(70,71,72,105)      -174.9876         estimate D2E/DX2                !
 ! D256  D(70,73,74,75)          0.0914         estimate D2E/DX2                !
 ! D257  D(70,73,74,107)      -178.1281         estimate D2E/DX2                !
 ! D258  D(106,73,74,75)      -176.1593         estimate D2E/DX2                !
 ! D259  D(106,73,74,107)        5.6212         estimate D2E/DX2                !
 ! D260  D(73,74,75,69)          1.0264         estimate D2E/DX2                !
 ! D261  D(107,74,75,69)       179.6176         estimate D2E/DX2                !
 --------------------------------------------------------------------------------
 Trust Radius=3.00D-01 FncErr=1.00D-07 GrdErr=1.00D-06 EigMax=2.50D+02 EigMin=1.00D-04
 Number of steps in this run=    577 maximum allowed number of steps=    642.
 GradGradGradGradGradGradGradGradGradGradGradGradGradGradGradGradGradGrad

 Leave Link  103 at Sat Jul 25 14:12:40 2020, MaxMem=  4026531840 cpu:               0.2 elap:               0.0
 (Enter /opt/ohpc/pub/libs/gaussian/g16-A.03/sandybridge/g16/l202.exe)
 Stoichiometry    C55H32F10O5S5
 Framework group  C1[X(C55H32F10O5S5)]
 Deg. of freedom   315
 Full point group                 C1      NOp   1
 Largest Abelian subgroup         C1      NOp   1
 Largest concise Abelian subgroup C1      NOp   1
                         Standard orientation:                         
 ---------------------------------------------------------------------
 Center     Atomic      Atomic             Coordinates (Angstroms)
 Number     Number       Type             X           Y           Z
 ---------------------------------------------------------------------
      1          6           0       19.028303   -1.881407    0.115134
      2          6           0       18.259293   -1.517388    1.236697
      3          6           0       16.913513   -1.572539    1.184853
      4          9           0       16.231110   -1.179021    2.312229
      5          6           0       16.208237   -1.943850    0.013513
      6          6           0       16.997991   -2.237091   -1.105990
      7          9           0       16.427500   -2.659277   -2.198556
      8          6           0       18.423566   -2.252517   -1.038782
      9          6           0       14.806106   -1.982968    0.022696
     10          6           0       13.922245   -3.094827   -0.201394
     11          8           0       14.480678   -4.300103   -0.268870
     12          6           0       13.680106   -5.304367   -0.901414
     13          6           0       12.599042   -2.798541   -0.176910
     14          6           0       12.325983   -1.413753   -0.051509
     15         16           0       13.815345   -0.598081    0.152052
     16          6           0       11.126187   -0.696159    0.023444
     17          6           0       10.127215   -0.839899   -0.987151
     18          6           0        8.912353   -0.102614   -1.031122
     19          9           0        8.091445   -0.286499   -2.002989
     20          6           0        8.615046    0.774886   -0.032592
     21          6           0        9.528152    0.909710    1.012532
     22          9           0        9.282871    1.766984    2.098775
     23          6           0       10.790220    0.176097    1.020712
     24          6           0        7.391389    1.592576   -0.000159
     25          6           0        7.238627    2.894262   -0.044878
     26          8           0        8.341112    3.677878   -0.052827
     27          6           0        8.111320    5.086805    0.207147
     28          6           0        5.845094    3.321033    0.036315
     29          6           0        5.029017    2.163418    0.011816
     30         16           0        5.837415    0.739333    0.032704
     31          6           0        3.536972    2.206923    0.005501
     32          6           0        2.772217    3.059065    0.775469
     33          6           0        1.458912    3.083590    0.731285
     34          9           0        0.788745    3.944604    1.502528
     35          6           0        0.663911    2.322979   -0.151253
     36          6           0        1.387799    1.410363   -0.908027
     37          9           0        0.801371    0.569041   -1.798369
     38          6           0        2.854548    1.383340   -0.908114
     39          6           0       -0.794019    2.375732   -0.247093
     40          6           0       -1.585317    3.424245   -0.581482
     41          8           0       -0.920063    4.623734   -0.956054
     42          6           0       -1.834157    5.639377   -1.343882
     43          6           0       -2.950998    3.189645   -0.472851
     44          6           0       -3.221744    1.833505   -0.079308
     45         16           0       -1.693663    1.005634    0.202425
     46          6           0       -4.427606    1.185720    0.098851
     47          6           0       -5.466101    1.820352    0.809346
     48          6           0       -6.766854    1.266129    1.004220
     49          9           0       -7.665709    1.833078    1.744517
     50          6           0       -7.000152   -0.015832    0.379929
     51          6           0       -5.997696   -0.582525   -0.303404
     52          9           0       -6.272675   -1.841119   -0.904744
     53          6           0       -4.767301   -0.064793   -0.509564
     54          6           0       -8.298393   -0.617238    0.597659
     55          6           0       -8.669789   -1.794126    1.119086
     56          8           0       -7.658972   -2.608774    1.753299
     57          6           0       -8.048974   -3.856674    2.083936
     58          6           0      -10.099130   -2.138176    1.021499
     59          6           0      -10.795060   -1.128758    0.458874
     60         16           0       -9.708044    0.124356   -0.037255
     61          6           0      -12.250879   -1.037088    0.116172
     62          6           0      -12.985715    0.107155    0.394909
     63          6           0      -14.295835    0.156995    0.114805
     64          9           0      -15.057854    1.244554    0.351422
     65          6           0      -15.026868   -1.005783   -0.417156
     66          6           0      -14.226530   -2.118814   -0.564216
     67          9           0      -14.846224   -3.299320   -1.032395
     68          6           0      -12.818913   -2.195395   -0.339453
     69          6           0      -16.463013   -1.045318   -0.621612
     70          6           0      -17.437005   -1.683047    0.106153
     71          8           0      -17.114475   -2.438852    1.187084
     72          6           0      -18.249346   -2.958321    1.796289
     73          6           0      -18.727804   -1.418917   -0.567552
     74          6           0      -18.697335   -0.656792   -1.629834
     75         16           0      -17.082909   -0.122985   -2.004312
     76          1           0       20.151425   -1.822090    0.221891
     77          1           0       18.749862   -1.194031    2.228958
     78          1           0       18.984940   -2.476663   -1.887913
     79          1           0       13.311733   -4.989976   -1.783299
     80          1           0       12.868828   -5.625334   -0.177526
     81          1           0       14.279080   -6.212370   -1.064149
     82          1           0       11.780501   -3.501050   -0.237456
     83          1           0       10.385790   -1.531777   -1.823971
     84          1           0       11.413948    0.322330    1.907330
     85          1           0        7.446443    5.540642   -0.658947
     86          1           0        7.654502    5.246711    1.189127
     87          1           0        8.991440    5.608228    0.192637
     88          1           0        5.508601    4.292185    0.019444
     89          1           0        3.282801    3.725572    1.457195
     90          1           0        3.289761    0.694831   -1.603971
     91          1           0       -2.440170    5.298726   -2.277537
     92          1           0       -2.465174    6.006895   -0.572575
     93          1           0       -1.224454    6.472501   -1.751186
     94          1           0       -3.775034    3.848230   -0.724770
     95          1           0       -5.328450    2.827996    1.320905
     96          1           0       -4.054663   -0.579341   -1.055035
     97          1           0       -8.851106   -3.853337    2.810833
     98          1           0       -8.431609   -4.473488    1.229100
     99          1           0       -7.208929   -4.418854    2.552585
    100          1           0      -10.563306   -3.037866    1.401612
    101          1           0      -12.460474    1.040595    0.760875
    102          1           0      -12.325771   -3.078604   -0.504664
    103          1           0      -18.946320   -2.210256    2.229928
    104          1           0      -18.707280   -3.669584    1.213739
    105          1           0      -17.858540   -3.455326    2.683238
    106          1           0      -19.661731   -1.924481   -0.184120
    107          1           0      -19.443408   -0.281717   -2.287727
 ---------------------------------------------------------------------
 Rotational constants (GHZ):           0.0710464           0.0035252           0.0034146
 Leave Link  202 at Sat Jul 25 14:12:40 2020, MaxMem=  4026531840 cpu:               0.1 elap:               0.0
 (Enter /opt/ohpc/pub/libs/gaussian/g16-A.03/sandybridge/g16/l301.exe)
 Standard basis: CC-pVDZ (5D, 7F)
 Ernie: Thresh=  0.10000D-02 Tol=  0.10000D-05 Strict=F.
 Ernie:  190 primitive shells out of 1950 were deleted.
 There are  1305 symmetry adapted cartesian basis functions of A   symmetry.
 There are  1230 symmetry adapted basis functions of A   symmetry.
  1230 basis functions,  2889 primitive gaussians,  1305 cartesian basis functions
   286 alpha electrons      286 beta electrons
       nuclear repulsion energy     11115.4790705334 Hartrees.
 IExCor=32609 DFT=T Ex+Corr=LC-wPBE ExCW=0 ScaHFX=  1.000000
 ScaDFX=  1.000000  0.000000  1.000000  1.000000 ScalE2=  1.000000  1.000000
 IRadAn=      5 IRanWt=     -1 IRanGd=            0 ICorTp=0 IEmpDi=  4
 HFx  wShort=  0.000000 wLong=  0.467200 cFull=  0.000000 cShort=  0.000000 cLong=  1.000000
 DFx  wShort=  0.000000 wLong=  0.467200 cFull=  0.000000 cShort=  0.000000 cLong=  1.000000
 NAtoms=  107 NActive=  107 NUniq=  107 SFac= 1.00D+00 NAtFMM=   60 NAOKFM=T Big=T
 Integral buffers will be    131072 words long.
[...]
  Beta virt. eigenvalues --    1.70879   1.71567   1.72292   1.72384   1.72548
  Beta virt. eigenvalues --    1.72669   1.72706   1.72907   1.72968   1.73081
  Beta virt. eigenvalues --    1.73152   1.73580   1.73752   1.73884   1.73976
  Beta virt. eigenvalues --    1.74378   1.74458   1.74613   1.74914   1.75173
  Beta virt. eigenvalues --    1.75299   1.75724   1.75823   1.76593   1.76953
  Beta virt. eigenvalues --    1.77089   1.77378   1.77875   1.78239   1.78564
  Beta virt. eigenvalues --    1.78862   1.79034   1.79141   1.79496   1.79588
  Beta virt. eigenvalues --    1.79810   1.79928   1.80080   1.80155   1.80403
  Beta virt. eigenvalues --    1.80623   1.80798   1.80859   1.81144   1.81288
  Beta virt. eigenvalues --    1.81461   1.81658   1.81891   1.82175   1.82447
  Beta virt. eigenvalues --    1.82783   1.82837   1.83052   1.83152   1.83402
  Beta virt. eigenvalues --    1.83620   1.83939   1.84470   1.84581   1.84766
  Beta virt. eigenvalues --    1.84801   1.85021   1.85504   1.85958   1.85983
  Beta virt. eigenvalues --    1.86388   1.86697   1.86990   1.87265   1.87453
  Beta virt. eigenvalues --    1.87916   1.88098   1.88352   1.88745   1.89148
  Beta virt. eigenvalues --    1.89311   1.89934   1.90438   1.90928   1.91214
  Beta virt. eigenvalues --    1.91395   1.91668   1.91767   1.92031   1.92443
  Beta virt. eigenvalues --    1.92727   1.93339   1.93860   1.93876   1.94065
  Beta virt. eigenvalues --    1.95083   1.95742   1.96154   1.96324   1.96347
  Beta virt. eigenvalues --    1.96512   1.96870   1.97123   1.97250   1.98029
  Beta virt. eigenvalues --    1.98517   1.98666   1.99250   1.99406   1.99580
  Beta virt. eigenvalues --    1.99663   1.99905   2.00276   2.00381   2.00799
  Beta virt. eigenvalues --    2.00875   2.01213   2.01482   2.01753   2.01999
  Beta virt. eigenvalues --    2.02490   2.02821   2.03346   2.03564   2.03762
  Beta virt. eigenvalues --    2.04134   2.04337   2.04896   2.05485   2.05638
  Beta virt. eigenvalues --    2.05902   2.06269   2.06762   2.06823   2.07126
  Beta virt. eigenvalues --    2.07769   2.08033   2.08372   2.08731   2.08884
  Beta virt. eigenvalues --    2.09224   2.09852   2.10513   2.11299   2.11601
  Beta virt. eigenvalues --    2.11804   2.12358   2.12748   2.12957   2.13291
  Beta virt. eigenvalues --    2.13678   2.14090   2.14781   2.17645   2.18068
  Beta virt. eigenvalues --    2.18349   2.18684   2.18770   2.19248   2.19879
  Beta virt. eigenvalues --    2.20192   2.20536   2.20880   2.20948   2.21152
  Beta virt. eigenvalues --    2.21278   2.21453   2.21549   2.21873   2.22764
  Beta virt. eigenvalues --    2.22823   2.23003   2.23678   2.23867   2.24211
  Beta virt. eigenvalues --    2.24373   2.25409   2.25889   2.26301   2.26815
  Beta virt. eigenvalues --    2.27202   2.27605   2.27774   2.27858   2.29735
  Beta virt. eigenvalues --    2.29933   2.30166   2.30328   2.32283   2.32340
  Beta virt. eigenvalues --    2.32477   2.32866   2.33565   2.34086   2.34225
  Beta virt. eigenvalues --    2.34535   2.34863   2.35123   2.36187   2.36619
  Beta virt. eigenvalues --    2.37028   2.37445   2.37777   2.38226   2.39007
  Beta virt. eigenvalues --    2.39801   2.40584   2.40879   2.41490   2.41875
  Beta virt. eigenvalues --    2.42631   2.43214   2.44455   2.45140   2.46303
  Beta virt. eigenvalues --    2.46874   2.47215   2.47534   2.47803   2.47998
  Beta virt. eigenvalues --    2.48901   2.49251   2.52513   2.52642   2.53128
  Beta virt. eigenvalues --    2.53229   2.53421   2.53515   2.53595   2.53918
  Beta virt. eigenvalues --    2.54048   2.54874   2.56435   2.56755   2.56913
  Beta virt. eigenvalues --    2.57807   2.57914   2.58098   2.58889   2.59620
  Beta virt. eigenvalues --    2.60127   2.60581   2.60892   2.60956   2.61069
  Beta virt. eigenvalues --    2.61161   2.61295   2.61606   2.63587   2.64555
  Beta virt. eigenvalues --    2.64951   2.65116   2.65236   2.65374   2.65449
  Beta virt. eigenvalues --    2.65784   2.66029   2.66743   2.67030   2.67418
  Beta virt. eigenvalues --    2.67523   2.67879   2.67932   2.69678   2.70057
  Beta virt. eigenvalues --    2.71288   2.71597   2.71892   2.72099   2.73110
  Beta virt. eigenvalues --    2.73825   2.74648   2.75501   2.76426   2.80578
  Beta virt. eigenvalues --    2.83229   2.83622   2.83733   2.84005   2.84787
  Beta virt. eigenvalues --    2.84838   2.84928   2.84977   2.90748   2.92458
  Beta virt. eigenvalues --    2.94755   2.95395   2.96160   2.96676   3.04278
  Beta virt. eigenvalues --    3.04445   3.04455   3.04495   3.04615   3.10651
  Beta virt. eigenvalues --    3.10703   3.11734   3.11817   3.14227   3.17581
  Beta virt. eigenvalues --    3.17662   3.17768   3.17798   3.17973   3.19917
  Beta virt. eigenvalues --    3.19958   3.20083   3.20167   3.20237   3.40475
  Beta virt. eigenvalues --    3.40867   3.41288   3.41623   3.49076   3.51860
  Beta virt. eigenvalues --    3.51883   3.51992   3.52059   3.52081   3.59772
  Beta virt. eigenvalues --    3.59848   3.59917   3.59977   3.60043   3.69736
  Beta virt. eigenvalues --    3.69765   3.69778   3.69984   3.70028   3.71456
  Beta virt. eigenvalues --    3.71555   3.71590   3.71625   3.71745   3.74001
  Beta virt. eigenvalues --    3.74030   3.74087   3.74153   3.74300   3.75321
  Beta virt. eigenvalues --    3.75431   3.75481   3.75591   3.75913   3.89318
  Beta virt. eigenvalues --    3.89331   3.89363   3.89493   3.89591   3.92196
  Beta virt. eigenvalues --    3.92250   3.92288   3.92433   3.92465   4.13586
  Beta virt. eigenvalues --    4.13739   4.13792   4.13857   4.14069   4.15375
  Beta virt. eigenvalues --    4.15436   4.15571   4.15613   4.15702   4.26397
  Beta virt. eigenvalues --    4.26620   4.26697   4.26743   4.26908   4.39811
  Beta virt. eigenvalues --    4.39894   4.39932   4.40101   4.40604
          Condensed to atoms (all electrons):
          Atomic-Atomic Spin Densities.
 Mulliken charges and spin densities:
               1          2
     1  C    0.017013  -0.000000
     2  C   -0.025352  -0.000000
     3  C    0.136599   0.000000
     4  F   -0.123343  -0.000000
     5  C   -0.110145  -0.000000
     6  C    0.140921   0.000000
     7  F   -0.119765   0.000000
     8  C   -0.026444   0.000000
     9  C   -0.204260  -0.000000
    10  C    0.199311   0.000000
    11  O   -0.254068  -0.000000
    12  C    0.030975  -0.000000
    13  C   -0.027015  -0.000000
    14  C   -0.157811  -0.000000
    15  S    0.204896   0.000000
    16  C    0.052649  -0.000000
    17  C   -0.030757   0.000000
    18  C    0.148070  -0.000000
    19  F   -0.121512  -0.000000
    20  C   -0.104581   0.000000
    21  C    0.148120  -0.000000
    22  F   -0.116352   0.000000
    23  C   -0.024640   0.000000
    24  C   -0.207544  -0.000000
    25  C    0.197541   0.000000
    26  O   -0.253611   0.000000
    27  C    0.030852   0.000000
    28  C   -0.025818   0.000000
    29  C   -0.157356  -0.000000
    30  S    0.204286  -0.000000
    31  C    0.052275   0.000000
    32  C   -0.031502   0.000000
    33  C    0.152317   0.000000
    34  F   -0.117715  -0.000000
    35  C   -0.104083  -0.000000
    36  C    0.143926   0.000000
    37  F   -0.119862  -0.000000
    38  C   -0.023815  -0.000000
    39  C   -0.207877  -0.000000
    40  C    0.196921   0.000000
    41  O   -0.254546  -0.000000
    42  C    0.030950  -0.000000
    43  C   -0.026012   0.000000
    44  C   -0.157473  -0.000000
    45  S    0.206477  -0.000000
    46  C    0.051671   0.000000
    47  C   -0.030564  -0.000000
    48  C    0.147962  -0.000000
    49  F   -0.121364   0.000000
    50  C   -0.103860   0.000000
    51  C    0.148054  -0.000000
    52  F   -0.116065   0.000000
    53  C   -0.024345  -0.000000
    54  C   -0.208070  -0.000000
    55  C    0.197355  -0.000000
    56  O   -0.253822  -0.000000
    57  C    0.030914  -0.000000
    58  C   -0.025866   0.000000
    59  C   -0.156450  -0.000000
    60  S    0.203698  -0.000000
    61  C    0.051579   0.000000
    62  C   -0.025541   0.000000
    63  C    0.144964  -0.000000
    64  F   -0.119993   0.000000
    65  C   -0.098918  -0.000000
    66  C    0.153671   0.000000
    67  F   -0.118413  -0.000000
    68  C   -0.032885  -0.000000
    69  C   -0.215918   0.000000
    70  C    0.179610  -0.000000
    71  O   -0.254850  -0.000000
    72  C    0.030448   0.000000
    73  C   -0.019275   0.000000
    74  C   -0.141535  -0.000000
    75  S    0.191735   0.000000
    76  H    0.029478  -0.000000
    77  H    0.031225   0.000000
    78  H    0.030565   0.000000
    79  H    0.053965  -0.000000
    80  H    0.054321   0.000000
    81  H    0.069530   0.000000
    82  H    0.023649  -0.000000
    83  H    0.022838   0.000000
    84  H    0.033536  -0.000000
    85  H    0.054299  -0.000000
    86  H    0.054173  -0.000000
    87  H    0.070578  -0.000000
    88  H    0.023904  -0.000000
    89  H    0.022310   0.000000
    90  H    0.034076  -0.000000
    91  H    0.055067   0.000000
    92  H    0.054331  -0.000000
    93  H    0.069239   0.000000
    94  H    0.023975   0.000000
    95  H    0.022693  -0.000000
    96  H    0.033611   0.000000
    97  H    0.054280   0.000000
    98  H    0.054203   0.000000
    99  H    0.070442  -0.000000
   100  H    0.023764   0.000000
   101  H    0.033234  -0.000000
   102  H    0.021462   0.000000
   103  H    0.052673   0.000000
   104  H    0.054070  -0.000000
   105  H    0.067461  -0.000000
   106  H    0.024076  -0.000000
   107  H    0.052210   0.000000
 Sum of Mulliken charges =  -0.00000  -0.00000
 Mulliken charges and spin densities with hydrogens summed into heavy atoms:
               1          2
     1  C    0.046491  -0.000000
     2  C    0.005872  -0.000000
     3  C    0.136599   0.000000
     4  F   -0.123343  -0.000000
     5  C   -0.110145  -0.000000
     6  C    0.140921   0.000000
     7  F   -0.119765   0.000000
     8  C    0.004121   0.000000
     9  C   -0.204260  -0.000000
    10  C    0.199311   0.000000
    11  O   -0.254068  -0.000000
    12  C    0.208791  -0.000000
    13  C   -0.003366  -0.000000
    14  C   -0.157811  -0.000000
    15  S    0.204896   0.000000
    16  C    0.052649  -0.000000
    17  C   -0.007920   0.000000
    18  C    0.148070  -0.000000
    19  F   -0.121512  -0.000000
    20  C   -0.104581   0.000000
    21  C    0.148120  -0.000000
    22  F   -0.116352   0.000000
    23  C    0.008896   0.000000
    24  C   -0.207544  -0.000000
    25  C    0.197541   0.000000
    26  O   -0.253611   0.000000
    27  C    0.209902   0.000000
    28  C   -0.001915  -0.000000
    29  C   -0.157356  -0.000000
    30  S    0.204286  -0.000000
    31  C    0.052275   0.000000
    32  C   -0.009192   0.000000
    33  C    0.152317   0.000000
    34  F   -0.117715  -0.000000
    35  C   -0.104083  -0.000000
    36  C    0.143926   0.000000
    37  F   -0.119862  -0.000000
    38  C    0.010260  -0.000000
    39  C   -0.207877  -0.000000
    40  C    0.196921   0.000000
    41  O   -0.254546  -0.000000
    42  C    0.209587  -0.000000
    43  C   -0.002037   0.000000
    44  C   -0.157473  -0.000000
    45  S    0.206477  -0.000000
    46  C    0.051671   0.000000
    47  C   -0.007871  -0.000000
    48  C    0.147962  -0.000000
    49  F   -0.121364   0.000000
    50  C   -0.103860   0.000000
    51  C    0.148054  -0.000000
    52  F   -0.116065   0.000000
    53  C    0.009267  -0.000000
    54  C   -0.208070  -0.000000
    55  C    0.197355  -0.000000
    56  O   -0.253822  -0.000000
    57  C    0.209839  -0.000000
    58  C   -0.002102   0.000000
    59  C   -0.156450  -0.000000
    60  S    0.203698  -0.000000
    61  C    0.051579   0.000000
    62  C    0.007693   0.000000
    63  C    0.144964  -0.000000
    64  F   -0.119993   0.000000
    65  C   -0.098918  -0.000000
    66  C    0.153671   0.000000
    67  F   -0.118413  -0.000000
    68  C   -0.011423  -0.000000
    69  C   -0.215918   0.000000
    70  C    0.179610  -0.000000
    71  O   -0.254850  -0.000000
    72  C    0.204652   0.000000
    73  C    0.004801   0.000000
    74  C   -0.089325   0.000000
    75  S    0.191735   0.000000
 Electronic spatial extent (au):  <R**2>=         275148.8159
 Charge=             -0.0000 electrons
 Dipole moment (field-independent basis, Debye):
    X=             -0.3564    Y=             -0.7792    Z=              1.0415  Tot=              1.3487
 Quadrupole moment (field-independent basis, Debye-Ang):
   XX=           -336.8633   YY=           -389.0865   ZZ=           -450.4765
   XY=             22.5053   XZ=            -26.8514   YZ=             -6.2572
 Traceless Quadrupole moment (field-independent basis, Debye-Ang):
   XX=             55.2788   YY=              3.0556   ZZ=            -58.3344
   XY=             22.5053   XZ=            -26.8514   YZ=             -6.2572
 Octapole moment (field-independent basis, Debye-Ang**2):
  XXX=           -612.4262  YYY=            114.1032  ZZZ=             18.5772  XYY=             68.5596
  XXY=           -938.3676  XXZ=            317.6039  XZZ=            -39.8326  YZZ=            -45.4079
  YYZ=              3.0090  XYZ=            289.3066
 Hexadecapole moment (field-independent basis, Debye-Ang**3):
 XXXX=        -262913.3987 YYYY=         -12938.1786 ZZZZ=          -3062.7597 XXXY=           6088.4583
 XXXZ=          -3413.0746 YYYX=            403.2944 YYYZ=             20.2170 ZZZX=           -273.8532
 ZZZY=             19.9410 XXYY=         -54880.1676 XXZZ=         -56446.9230 YYZZ=          -2860.4664
 XXYZ=          -1147.4746 YYXZ=          -1070.2098 ZZXY=             53.1074
 N-N= 1.116029230920D+04 E-N=-3.522320845190D+04  KE= 5.453089444245D+03
 Leave Link  601 at Sat Jul 25 20:19:24 2020, MaxMem=  4026531840 cpu:              10.5 elap:               1.5
 (Enter /opt/ohpc/pub/libs/gaussian/g16-A.03/sandybridge/g16/l9999.exe)

 Test job not archived.
 1\1\GINC-SKYLAKE032\FOpt\ULC-wPBE\CC-pVDZ\C55H32F10O5S5\RDU230\25-Jul-
 2020\0\\#P uLC-wPBE/cc-pVDZ iop(3/107=0467200000, 3/108=0467200000) op
 t\\H32 C55 S5 O5 F10\\0,1\C,18.9426487968,-2.3115307898,0.8500867198\C
 ,18.0709482018,-1.9978624917,1.878997803\C,16.7230824048,-1.9109581516
 ,1.599155704\F,15.882677232,-1.6103069854,2.59260973\C,16.1928230318,-
 2.1194817359,0.3315928423\C,17.1127353037,-2.4196390019,-0.6674861142\
 F,16.667013932,-2.6004061833,-1.9095749903\C,18.4685723655,-2.52481855
 84,-0.4330381585\C,14.7553993834,-2.0353783078,0.0531890277\C,13.98537
 51583,-2.9833139673,-0.5616325831\O,14.5174519301,-4.1623453993,-0.930
 3726459\C,13.6966585072,-5.0396708843,-1.6576356986\C,12.6283547561,-2
 .5835123271,-0.7161423821\C,12.3924499102,-1.3405172092,-0.2086954182\
 S,13.81467299,-0.6525378776,0.4489750368\C,11.1137366185,-0.6168557497
 ,-0.1838284262\C,10.1835704465,-0.8131354849,-1.1998388169\C,8.9864697
 52,-0.1339160476,-1.1587093863\F,8.1120189174,-0.3350622938,-2.1474189
 825\C,8.6429631047,0.7573512506,-0.1492318764\C,9.5973429507,0.9186208
 485,0.849259768\F,9.3213972073,1.7288077491,1.868538077\C,10.809013877
 8,0.2619360515,0.8504188154\C,7.3721385527,1.4863043337,-0.1311311051\
 C,7.2073673578,2.8368899713,0.0083050684\O,8.274769571,3.650518701,0.0
 885714033\C,8.0313833103,5.0100830889,0.3438643869\C,5.8404667409,3.23
 21159237,0.0219214863\C,4.9925490089,2.1736440427,-0.1155116415\S,5.84
 90407434,0.6985373752,-0.2535209873\C,3.5240667192,2.2096674375,-0.155
 7378627\C,2.832471557,3.1788414315,0.5641019425\C,1.4561915255,3.21065
 28136,0.5123723844\F,0.8219311372,4.1307913907,1.236150914\C,0.6997663
 177,2.3149251759,-0.2361956738\C,1.4302804226,1.3577556223,-0.92949061
 7\F,0.7629959823,0.4645879336,-1.6629966239\C,2.8058089554,1.285769313
 4,-0.9076687887\C,-0.7628533202,2.3869704695,-0.2831789138\C,-1.517569
 2654,3.4897477461,-0.5748079729\O,-0.9292226757,4.6503525978,-0.914787
 971\C,-1.7635157804,5.764848956,-1.1010493308\C,-2.9167374061,3.241146
 0568,-0.5032862983\C,-3.1980410004,1.9507153087,-0.1656472393\S,-1.769
 4584941,1.0395493462,0.0727263107\C,-4.5259578195,1.3406333826,-0.0107
 346742\C,-5.5954708013,2.1088177902,0.4385699023\C,-6.8357714842,1.525
 6068389,0.5715267257\F,-7.8451700994,2.2818411784,1.0093916795\C,-7.09
 17914293,0.1901760461,0.2842117316\C,-5.9976294524,-0.5390108973,-0.16
 86257338\F,-6.1763384517,-1.8155744579,-0.4996989906\C,-4.7378581615,0
 .0003095954,-0.316051456\C,-8.414132437,-0.4187170178,0.449111592\C,-8
 .706464335,-1.5620085402,1.1405133038\O,-7.7436046842,-2.2217904795,1.
 8080013365\C,-8.0929276198,-3.4468012187,2.3997359732\C,-10.0852101915
 ,-1.9096420233,1.0834309766\C,-10.8157660855,-1.0184413423,0.355350668
 7\S,-9.8330820123,0.236751781,-0.2671265119\C,-12.2619208402,-1.054221
 185,0.096199115\C,-12.9911358628,0.1206346606,-0.0534795753\C,-14.3475
 257607,0.0478065693,-0.2844096998\F,-15.0264847053,1.1889138706,-0.417
 4745369\C,-15.0479752301,-1.1482161488,-0.3778385263\C,-14.2788661167,
 -2.297984685,-0.2339518924\F,-14.8756402752,-3.4826841486,-0.350463465
 \C,-12.9211231303,-2.2755109681,-0.0006132212\C,-16.4942687964,-1.2077
 850889,-0.6085921275\C,-17.4105152626,-1.8900622777,0.1426550733\O,-17
 .027405133,-2.5627103214,1.2440727048\C,-18.0060179486,-3.3213507103,1
 .905593036\C,-18.7402570298,-1.7745915323,-0.3605839996\C,-18.78909554
 75,-1.0042490975,-1.4769839623\S,-17.2606365614,-0.4136924558,-1.92858
 6839\H,20.0093094595,-2.3876393913,1.0509161851\H,18.411971833,-1.8244
 489548,2.8960100515\H,19.1294442846,-2.7640863077,-1.2617775429\H,13.3
 369523762,-4.5769838287,-2.5870392634\H,12.8374313259,-5.3775586161,-1
 .0615605287\H,14.3147292343,-5.9052006083,-1.9080585743\H,11.848395371
 3,-3.200828083,-1.1500126393\H,10.3866188821,-1.4655451259,-2.04433568
 35\H,11.4906454606,0.4268226753,1.6811527373\H,7.4724811382,5.48163090
 87,-0.4764589043\H,7.4849862455,5.1507511854,1.2866489565\H,9.01000992
 1,5.4890115783,0.4256312862\H,5.4950698011,4.2584514667,0.0922437979\H
 ,3.3473595781,3.8960365776,1.1970943011\H,3.2993253572,0.5210142126,-1
 .5021704463\H,-2.4489485031,5.6197409892,-1.9476415546\H,-2.3438743714
 ,5.9889106303,-0.1954148432\H,-1.1062551728,6.6098572487,-1.3197201022
 \H,-3.6862790192,3.9725643318,-0.7278488963\H,-5.4744556316,3.15146193
 05,0.7183868155\H,-3.9409345646,-0.6331163703,-0.6976841454\H,-8.84093
 33653,-3.313446525,3.1936833533\H,-8.4736179619,-4.1591595174,1.654908
 1399\H,-7.1776713868,-3.8489686945,2.8406076803\H,-10.5289394286,-2.76
 10653445,1.5891666928\H,-12.5267982143,1.0998707301,0.0323440691\H,-12
 .3881227127,-3.2195181153,0.0699851563\H,-18.8081982394,-2.6860274078,
 2.306620775\H,-18.4411670079,-4.0831088949,1.2439318654\H,-17.50169160
 13,-3.8197873925,2.7370599714\H,-19.6158856034,-2.234987751,0.08515192
 17\H,-19.6688149573,-0.7481001426,-2.0583891544\\Version=EM64L-G16RevA
 .03\State=1-A\HF=-5477.9197109\S2=0.\S2-1=0.\S2A=0.\RMSD=4.845e-09\RMS
 F=2.580e-06\Dipole=-0.141292,-0.2966115,0.4166692\Quadrupole=41.205369
 2,1.9939517,-43.1993209,16.2264084,-20.2030137,-5.6806348\PG=C01 [X(C5
 5H32F10O5S5)]\\@


 THE ENLIGHTENED ONE, BECAUSE HE SAW MANKIND DROWNING  
 IN THE GREAT SEA OF BIRTH, DEATH, AND SORROW, LONGED TO SAVE 
 THEM, FOR THIS HE WAS MOVED TO PITY.                         
 BECAUSE HE SAW MEN OF THE WORLD STRAYING IN FALSE PATHS, AND 
 NONE TO GUIDE THEM, FOR THIS HE WAS MOVED TO PITY.           
                     ..................                       
 BECAUSE HE SAW THE MEN OF THE WORLD PLOUGHING THEIR FIELDS,  
 SOWING THE SEED, TRAFFICKING, HUCKSTERING, BUYING, SELLING,  
 AND AT THE END WINNOWING NOTHING BUT BITTERNESS,             
 FOR THIS HE WAS MOVED TO PITY......                   
                   BUDAH'S PITY - UPSAKA SILA SUTRA           
 Job cpu time:       2 days  0 hours  4 minutes 11.3 seconds.
 Elapsed time:       0 days  6 hours  6 minutes 42.4 seconds.
 File lengths (MBytes):  RWF=   1704 Int=      0 D2E=      0 Chk=    152 Scr=      8
 Normal termination of Gaussian 16 at Sat Jul 25 20:19:24 2020.
