 Entering Gaussian System, Link 0=g16
 Input=mols_65_5_11_c-cF-COC_opt_0.gjf
 Output=mols_65_5_11_c-cF-COC_opt_0.log
 Initial command:
 /opt/ohpc/pub/libs/gaussian/g16-A.03/sandybridge/g16/l1.exe "/mnt/gpfs2_4m/scratch/rdu230/ondemand/projects/dihedral_energies/7trial/wtuning/mols_65_5_11_c-cF-COC/Gau-34366.inp" -scrdir="/mnt/gpfs2_4m/scratch/rdu230/ondemand/projects/dihedral_energies/7trial/wtuning/mols_65_5_11_c-cF-COC/"
 Entering Link 1 = /opt/ohpc/pub/libs/gaussian/g16-A.03/sandybridge/g16/l1.exe PID=     34367.
  
 Copyright (c) 1988,1990,1992,1993,1995,1998,2003,2009,2016,
            Gaussian, Inc.  All Rights Reserved.
  
 This is part of the Gaussian(R) 16 program.  It is based on
 the Gaussian(R) 09 system (copyright 2009, Gaussian, Inc.),
 the Gaussian(R) 03 system (copyright 2003, Gaussian, Inc.),
 the Gaussian(R) 98 system (copyright 1998, Gaussian, Inc.),
 the Gaussian(R) 94 system (copyright 1995, Gaussian, Inc.),
 the Gaussian 92(TM) system (copyright 1992, Gaussian, Inc.),
 the Gaussian 90(TM) system (copyright 1990, Gaussian, Inc.),
 the Gaussian 88(TM) system (copyright 1988, Gaussian, Inc.),
 the Gaussian 86(TM) system (copyright 1986, Carnegie Mellon
 University), and the Gaussian 82(TM) system (copyright 1983,
 Carnegie Mellon University). Gaussian is a federally registered
 trademark of Gaussian, Inc.
  
 This software contains proprietary and confidential information,
 including trade secrets, belonging to Gaussian, Inc.
  
 This software is provided under written license and may be
 used, copied, transmitted, or stored only in accord with that
 written license.
  
 The following legend is applicable only to US Government
 contracts under FAR:
  
                    RESTRICTED RIGHTS LEGEND
  
 Use, reproduction and disclosure by the US Government is
 subject to restrictions as set forth in subparagraphs (a)
 and (c) of the Commercial Computer Software - Restricted
 Rights clause in FAR 52.227-19.
  
 Gaussian, Inc.
 340 Quinnipiac St., Bldg. 40, Wallingford CT 06492
  
  
 ---------------------------------------------------------------
 Warning -- This program may not be used in any manner that
 competes with the business of Gaussian, Inc. or will provide
 assistance to any competitor of Gaussian, Inc.  The licensee
 of this program is prohibited from giving any competitor of
 Gaussian, Inc. access to this program.  By using this program,
 the user acknowledges that Gaussian, Inc. is engaged in the
 business of creating and licensing software in the field of
 computational chemistry and represents and warrants to the
 licensee that it is not a competitor of Gaussian, Inc. and that
 it will not use this program in any manner prohibited above.
 ---------------------------------------------------------------
  

 Cite this work as:
 Gaussian 16, Revision A.03,
 M. J. Frisch, G. W. Trucks, H. B. Schlegel, G. E. Scuseria, 
 M. A. Robb, J. R. Cheeseman, G. Scalmani, V. Barone, 
 G. A. Petersson, H. Nakatsuji, X. Li, M. Caricato, A. V. Marenich, 
 J. Bloino, B. G. Janesko, R. Gomperts, B. Mennucci, H. P. Hratchian, 
 J. V. Ortiz, A. F. Izmaylov, J. L. Sonnenberg, D. Williams-Young, 
 F. Ding, F. Lipparini, F. Egidi, J. Goings, B. Peng, A. Petrone, 
 T. Henderson, D. Ranasinghe, V. G. Zakrzewski, J. Gao, N. Rega, 
 G. Zheng, W. Liang, M. Hada, M. Ehara, K. Toyota, R. Fukuda, 
 J. Hasegawa, M. Ishida, T. Nakajima, Y. Honda, O. Kitao, H. Nakai, 
 T. Vreven, K. Throssell, J. A. Montgomery, Jr., J. E. Peralta, 
 F. Ogliaro, M. J. Bearpark, J. J. Heyd, E. N. Brothers, K. N. Kudin, 
 V. N. Staroverov, T. A. Keith, R. Kobayashi, J. Normand, 
 K. Raghavachari, A. P. Rendell, J. C. Burant, S. S. Iyengar, 
 J. Tomasi, M. Cossi, J. M. Millam, M. Klene, C. Adamo, R. Cammi, 
 J. W. Ochterski, R. L. Martin, K. Morokuma, O. Farkas, 
 J. B. Foresman, and D. J. Fox, Gaussian, Inc., Wallingford CT, 2016.
 
 ******************************************
 Gaussian 16:  EM64L-G16RevA.03 25-Dec-2016
                23-Jul-2020 
 ******************************************
 %mem=30GB
 %nproc=8
 Will use up to    8 processors via shared memory.
 ---------------------------------------------------------------
 #P uLC-wPBE/cc-pVDZ iop(3/107=0299000000, 3/108=0299000000) opt
 ---------------------------------------------------------------
 1/18=20,19=15,26=3,38=1/1,3;
 2/9=110,12=2,17=6,18=5,40=1/2;
 3/5=16,11=2,25=1,30=1,71=1,74=-41,107=299000000,108=299000000,116=2/1,2,3;
 4//1;
 5/5=2,38=5/2;
 6/7=2,8=2,9=2,10=2,28=1/1;
 7//1,2,3,16;
 1/18=20,19=15,26=3/3(2);
 2/9=110/2;
 99//99;
 2/9=110/2;
 3/5=16,11=2,25=1,30=1,71=1,74=-41,107=299000000,108=299000000,116=2/1,2,3;
 4/5=5,16=3,69=1/1;
 5/5=2,38=5/2;
 7//1,2,3,16;
 1/18=20,19=15,26=3/3(-5);
 2/9=110/2;
 6/7=2,8=2,9=2,10=2,19=2,28=1/1;
 99/9=1/99;
 Leave Link    1 at Thu Jul 23 15:13:44 2020, MaxMem=  4026531840 cpu:               3.4 elap:               0.5
 (Enter /opt/ohpc/pub/libs/gaussian/g16-A.03/sandybridge/g16/l101.exe)
 ----------------
 H37 C55 S5 O5 F5
 ----------------
 Symbolic Z-matrix:
 Charge =  0 Multiplicity = 1
 C                    -19.28672  -1.97238  -0.24847 
 C                    -18.40987  -2.33038  -1.23556 
 C                    -17.02126  -1.81678  -1.22764 
 C                    -16.60214  -0.95147  -0.19419 
 C                    -17.53188  -0.68876   0.84406 
 F                    -17.15311   0.12439   1.77864 
 C                    -18.80518  -1.11936   0.80784 
 C                    -15.31065  -0.42462  -0.24759 
 C                    -14.91395   0.89088  -0.23073 
 O                    -15.82346   1.87291  -0.22257 
 C                    -15.3588   3.13301   0.30413 
 C                    -13.42116   0.99483  -0.19333 
 C                    -12.82601  -0.15147  -0.19281 
 S                    -13.92347  -1.49076  -0.27923 
 C                    -11.341   -0.42547  -0.12094 
 C                    -10.69162  -1.31015  -1.11898 
 C                    -9.32573  -1.52426  -1.00339 
 C                    -8.50625  -0.83844  -0.06757 
 C                    -9.20651  -0.02616   0.90474 
 F                    -8.46818   0.59678   1.86242 
 C                    -10.58123   0.14154   0.80584 
 C                    -7.09582  -1.15691  -0.01433 
 C                    -6.45864  -2.32573   0.05634 
 O                    -7.14125  -3.48426   0.03479 
 C                    -6.26629  -4.63169   0.09007 
 C                    -5.01227  -2.09654   0.14641 
 C                    -4.61741  -0.73781   0.04541 
 S                    -6.01372   0.19168  -0.1016 
 C                    -3.27806  -0.17363   0.06013 
 C                    -2.96991   0.86441   0.94158 
 C                    -1.68095   1.38902   1.01674 
 C                    -0.73519   0.95636   0.08712 
 C                    -1.02316  -0.06548  -0.69358 
 F                    -0.11635  -0.51731  -1.58892 
 C                    -2.29449  -0.62224  -0.79075 
 C                     0.57298   1.58778   0.10413 
 C                     0.8855    2.94068  -0.03185 
 O                    -0.09484   3.87118  -0.14975 
 C                     0.33203   5.24969  -0.18125 
 C                     2.35606   3.21799  -0.01976 
 C                     3.04805   2.07404   0.15146 
 S                     2.07405   0.66356   0.24438 
 C                     4.49129   1.94505   0.1245 
 C                     5.29572   2.80981   0.91914 
 C                     6.66387   2.64795   0.88299 
 C                     7.35267   1.76625   0.10197 
 C                     6.50945   0.87289  -0.6778 
 F                     7.12499  -0.03086  -1.48104 
 C                     5.15543   0.9836   -0.71265 
 C                     8.83301   1.7347   -0.02119 
 C                     9.70814   2.78035  -0.2572 
 O                     9.25001   3.9486   -0.52305 
 C                     10.21126   4.94707  -0.97835 
 C                     11.03212   2.32146  -0.21517 
 C                     11.13953   0.97125  -0.00136 
 S                     9.6925    0.22824   0.31593 
 C                     12.38154   0.17002   0.03075 
 C                     12.4199  -1.14701  -0.58537 
 C                     13.67994  -1.83609  -0.64983 
 C                     14.8564  -1.35109  -0.01199 
 C                     14.7639  -0.09428   0.68776 
 F                     15.83285   0.40692   1.24578 
 C                     13.52221   0.65236   0.67043 
 C                     16.07482  -2.15048  -0.10029 
 C                     16.32005  -3.34676   0.42687 
 O                     15.43224  -3.99489   1.20742 
 C                     15.82091  -5.32671   1.49974 
 C                     17.69107  -3.79822   0.12241 
 C                     18.33721  -2.89121  -0.69193 
 S                     17.41627  -1.45354  -0.97108 
 H                    -20.23944  -2.39086  -0.18905 
 H                    -18.74027  -2.95924  -2.0635 
 H                    -16.38034  -2.10087  -2.12851 
 H                    -19.44978  -0.87625   1.64512 
 H                    -14.97326   3.05632   1.25844 
 H                    -16.24758   3.75868   0.32696 
 H                    -14.61224   3.54686  -0.40088 
 H                    -12.95314   1.97036  -0.18691 
 H                    -11.29929  -1.81822  -1.89998 
 H                    -8.90443  -2.1373   -1.80993 
 H                    -11.05427   0.80252   1.55757 
 H                    -5.65028  -4.75269  -0.79751 
 H                    -6.97256  -5.4697    0.04892 
 H                    -5.71603  -4.7504    0.98641 
 H                    -4.24748  -2.94349   0.18731 
 H                    -3.70508   1.23128   1.71767 
 H                    -1.45361   2.22834   1.69558 
 H                    -2.54602  -1.44918  -1.49506 
 H                    -0.54164   5.86735  -0.26799 
 H                     0.84943   5.41807  -1.16053 
 H                     0.89032   5.50867   0.64682 
 H                     2.81317   4.17612  -0.14096 
 H                     4.8716    3.49919   1.55486 
 H                     7.23432   3.40732   1.4832 
 H                     4.55289   0.25193  -1.33149 
 H                     10.65045   4.64333  -1.87232 
 H                     10.95566   5.10506  -0.1296 
 H                     9.71181   5.87163  -1.17244 
 H                     11.9141   2.88639  -0.42493 
 H                     11.57538  -1.56091  -1.14235 
 H                     13.71543  -2.78471  -1.12028 
 H                     13.49936   1.57727   1.17443 
 H                     15.02314  -5.72148   2.15901 
 H                     15.91594  -5.9518    0.62894 
 H                     16.69777  -5.39039   2.12138 
 H                     18.18493  -4.72732   0.38682 
 H                     19.34868  -2.93822  -1.13641 
 
 ITRead=  0  0  0  0  0  0  0  0  0  0  0  0  0  0  0  0  0  0  0  0
 ITRead=  0  0  0  0  0  0  0  0  0  0  0  0  0  0  0  0  0  0  0  0
 ITRead=  0  0  0  0  0  0  0  0  0  0  0  0  0  0  0  0  0  0  0  0
 ITRead=  0  0  0  0  0  0  0  0  0  0  0  0  0  0  0  0  0  0  0  0
 ITRead=  0  0  0  0  0  0  0  0  0  0  0  0  0  0  0  0  0  0  0  0
 ITRead=  0  0  0  0  0  0  0
 MicOpt= -1 -1 -1 -1 -1 -1 -1 -1 -1 -1 -1 -1 -1 -1 -1 -1 -1 -1 -1 -1
 MicOpt= -1 -1 -1 -1 -1 -1 -1 -1 -1 -1 -1 -1 -1 -1 -1 -1 -1 -1 -1 -1
 MicOpt= -1 -1 -1 -1 -1 -1 -1 -1 -1 -1 -1 -1 -1 -1 -1 -1 -1 -1 -1 -1
 MicOpt= -1 -1 -1 -1 -1 -1 -1 -1 -1 -1 -1 -1 -1 -1 -1 -1 -1 -1 -1 -1
 MicOpt= -1 -1 -1 -1 -1 -1 -1 -1 -1 -1 -1 -1 -1 -1 -1 -1 -1 -1 -1 -1
 MicOpt= -1 -1 -1 -1 -1 -1 -1
 NAtoms=    107 NQM=      107 NQMF=       0 NMMI=      0 NMMIF=      0
                NMic=       0 NMicF=      0.
                    Isotopes and Nuclear Properties:
 (Nuclear quadrupole moments (NQMom) in fm**2, nuclear magnetic moments (NMagM)
  in nuclear magnetons)

  Atom         1           2           3           4           5           6           7           8           9          10
 IAtWgt=          12          12          12          12          12          19          12          12          12          16
 AtmWgt=  12.0000000  12.0000000  12.0000000  12.0000000  12.0000000  18.9984033  12.0000000  12.0000000  12.0000000  15.9949146
 NucSpn=           0           0           0           0           0           1           0           0           0           0
 AtZEff=  -0.0000000  -0.0000000  -0.0000000  -0.0000000  -0.0000000  -0.0000000  -0.0000000  -0.0000000  -0.0000000  -0.0000000
 NQMom=    0.0000000   0.0000000   0.0000000   0.0000000   0.0000000   0.0000000   0.0000000   0.0000000   0.0000000   0.0000000
 NMagM=    0.0000000   0.0000000   0.0000000   0.0000000   0.0000000   2.6288670   0.0000000   0.0000000   0.0000000   0.0000000
 AtZNuc=   6.0000000   6.0000000   6.0000000   6.0000000   6.0000000   9.0000000   6.0000000   6.0000000   6.0000000   8.0000000

  Atom        11          12          13          14          15          16          17          18          19          20
 IAtWgt=          12          12          12          32          12          12          12          12          12          19
 AtmWgt=  12.0000000  12.0000000  12.0000000  31.9720718  12.0000000  12.0000000  12.0000000  12.0000000  12.0000000  18.9984033
 NucSpn=           0           0           0           0           0           0           0           0           0           1
 AtZEff=  -0.0000000  -0.0000000  -0.0000000  -0.0000000  -0.0000000  -0.0000000  -0.0000000  -0.0000000  -0.0000000  -0.0000000
 NQMom=    0.0000000   0.0000000   0.0000000   0.0000000   0.0000000   0.0000000   0.0000000   0.0000000   0.0000000   0.0000000
 NMagM=    0.0000000   0.0000000   0.0000000   0.0000000   0.0000000   0.0000000   0.0000000   0.0000000   0.0000000   2.6288670
 AtZNuc=   6.0000000   6.0000000   6.0000000  16.0000000   6.0000000   6.0000000   6.0000000   6.0000000   6.0000000   9.0000000

  Atom        21          22          23          24          25          26          27          28          29          30
 IAtWgt=          12          12          12          16          12          12          12          32          12          12
 AtmWgt=  12.0000000  12.0000000  12.0000000  15.9949146  12.0000000  12.0000000  12.0000000  31.9720718  12.0000000  12.0000000
 NucSpn=           0           0           0           0           0           0           0           0           0           0
 AtZEff=  -0.0000000  -0.0000000  -0.0000000  -0.0000000  -0.0000000  -0.0000000  -0.0000000  -0.0000000  -0.0000000  -0.0000000
 NQMom=    0.0000000   0.0000000   0.0000000   0.0000000   0.0000000   0.0000000   0.0000000   0.0000000   0.0000000   0.0000000
 NMagM=    0.0000000   0.0000000   0.0000000   0.0000000   0.0000000   0.0000000   0.0000000   0.0000000   0.0000000   0.0000000
 AtZNuc=   6.0000000   6.0000000   6.0000000   8.0000000   6.0000000   6.0000000   6.0000000  16.0000000   6.0000000   6.0000000

  Atom        31          32          33          34          35          36          37          38          39          40
 IAtWgt=          12          12          12          19          12          12          12          16          12          12
 AtmWgt=  12.0000000  12.0000000  12.0000000  18.9984033  12.0000000  12.0000000  12.0000000  15.9949146  12.0000000  12.0000000
 NucSpn=           0           0           0           1           0           0           0           0           0           0
 AtZEff=  -0.0000000  -0.0000000  -0.0000000  -0.0000000  -0.0000000  -0.0000000  -0.0000000  -0.0000000  -0.0000000  -0.0000000
 NQMom=    0.0000000   0.0000000   0.0000000   0.0000000   0.0000000   0.0000000   0.0000000   0.0000000   0.0000000   0.0000000
 NMagM=    0.0000000   0.0000000   0.0000000   2.6288670   0.0000000   0.0000000   0.0000000   0.0000000   0.0000000   0.0000000
 AtZNuc=   6.0000000   6.0000000   6.0000000   9.0000000   6.0000000   6.0000000   6.0000000   8.0000000   6.0000000   6.0000000

  Atom        41          42          43          44          45          46          47          48          49          50
 IAtWgt=          12          32          12          12          12          12          12          19          12          12
 AtmWgt=  12.0000000  31.9720718  12.0000000  12.0000000  12.0000000  12.0000000  12.0000000  18.9984033  12.0000000  12.0000000
 NucSpn=           0           0           0           0           0           0           0           1           0           0
 AtZEff=  -0.0000000  -0.0000000  -0.0000000  -0.0000000  -0.0000000  -0.0000000  -0.0000000  -0.0000000  -0.0000000  -0.0000000
 NQMom=    0.0000000   0.0000000   0.0000000   0.0000000   0.0000000   0.0000000   0.0000000   0.0000000   0.0000000   0.0000000
 NMagM=    0.0000000   0.0000000   0.0000000   0.0000000   0.0000000   0.0000000   0.0000000   2.6288670   0.0000000   0.0000000
 AtZNuc=   6.0000000  16.0000000   6.0000000   6.0000000   6.0000000   6.0000000   6.0000000   9.0000000   6.0000000   6.0000000

  Atom        51          52          53          54          55          56          57          58          59          60
 IAtWgt=          12          16          12          12          12          32          12          12          12          12
 AtmWgt=  12.0000000  15.9949146  12.0000000  12.0000000  12.0000000  31.9720718  12.0000000  12.0000000  12.0000000  12.0000000
 NucSpn=           0           0           0           0           0           0           0           0           0           0
 AtZEff=  -0.0000000  -0.0000000  -0.0000000  -0.0000000  -0.0000000  -0.0000000  -0.0000000  -0.0000000  -0.0000000  -0.0000000
 NQMom=    0.0000000   0.0000000   0.0000000   0.0000000   0.0000000   0.0000000   0.0000000   0.0000000   0.0000000   0.0000000
 NMagM=    0.0000000   0.0000000   0.0000000   0.0000000   0.0000000   0.0000000   0.0000000   0.0000000   0.0000000   0.0000000
 AtZNuc=   6.0000000   8.0000000   6.0000000   6.0000000   6.0000000  16.0000000   6.0000000   6.0000000   6.0000000   6.0000000

  Atom        61          62          63          64          65          66          67          68          69          70
 IAtWgt=          12          19          12          12          12          16          12          12          12          32
 AtmWgt=  12.0000000  18.9984033  12.0000000  12.0000000  12.0000000  15.9949146  12.0000000  12.0000000  12.0000000  31.9720718
 NucSpn=           0           1           0           0           0           0           0           0           0           0
 AtZEff=  -0.0000000  -0.0000000  -0.0000000  -0.0000000  -0.0000000  -0.0000000  -0.0000000  -0.0000000  -0.0000000  -0.0000000
 NQMom=    0.0000000   0.0000000   0.0000000   0.0000000   0.0000000   0.0000000   0.0000000   0.0000000   0.0000000   0.0000000
 NMagM=    0.0000000   2.6288670   0.0000000   0.0000000   0.0000000   0.0000000   0.0000000   0.0000000   0.0000000   0.0000000
 AtZNuc=   6.0000000   9.0000000   6.0000000   6.0000000   6.0000000   8.0000000   6.0000000   6.0000000   6.0000000  16.0000000

  Atom        71          72          73          74          75          76          77          78          79          80
 IAtWgt=           1           1           1           1           1           1           1           1           1           1
 AtmWgt=   1.0078250   1.0078250   1.0078250   1.0078250   1.0078250   1.0078250   1.0078250   1.0078250   1.0078250   1.0078250
 NucSpn=           1           1           1           1           1           1           1           1           1           1
 AtZEff=  -0.0000000  -0.0000000  -0.0000000  -0.0000000  -0.0000000  -0.0000000  -0.0000000  -0.0000000  -0.0000000  -0.0000000
 NQMom=    0.0000000   0.0000000   0.0000000   0.0000000   0.0000000   0.0000000   0.0000000   0.0000000   0.0000000   0.0000000
 NMagM=    2.7928460   2.7928460   2.7928460   2.7928460   2.7928460   2.7928460   2.7928460   2.7928460   2.7928460   2.7928460
 AtZNuc=   1.0000000   1.0000000   1.0000000   1.0000000   1.0000000   1.0000000   1.0000000   1.0000000   1.0000000   1.0000000

  Atom        81          82          83          84          85          86          87          88          89          90
 IAtWgt=           1           1           1           1           1           1           1           1           1           1
 AtmWgt=   1.0078250   1.0078250   1.0078250   1.0078250   1.0078250   1.0078250   1.0078250   1.0078250   1.0078250   1.0078250
 NucSpn=           1           1           1           1           1           1           1           1           1           1
 AtZEff=  -0.0000000  -0.0000000  -0.0000000  -0.0000000  -0.0000000  -0.0000000  -0.0000000  -0.0000000  -0.0000000  -0.0000000
 NQMom=    0.0000000   0.0000000   0.0000000   0.0000000   0.0000000   0.0000000   0.0000000   0.0000000   0.0000000   0.0000000
 NMagM=    2.7928460   2.7928460   2.7928460   2.7928460   2.7928460   2.7928460   2.7928460   2.7928460   2.7928460   2.7928460
 AtZNuc=   1.0000000   1.0000000   1.0000000   1.0000000   1.0000000   1.0000000   1.0000000   1.0000000   1.0000000   1.0000000

  Atom        91          92          93          94          95          96          97          98          99         100
 IAtWgt=           1           1           1           1           1           1           1           1           1           1
 AtmWgt=   1.0078250   1.0078250   1.0078250   1.0078250   1.0078250   1.0078250   1.0078250   1.0078250   1.0078250   1.0078250
 NucSpn=           1           1           1           1           1           1           1           1           1           1
 AtZEff=  -0.0000000  -0.0000000  -0.0000000  -0.0000000  -0.0000000  -0.0000000  -0.0000000  -0.0000000  -0.0000000  -0.0000000
 NQMom=    0.0000000   0.0000000   0.0000000   0.0000000   0.0000000   0.0000000   0.0000000   0.0000000   0.0000000   0.0000000
 NMagM=    2.7928460   2.7928460   2.7928460   2.7928460   2.7928460   2.7928460   2.7928460   2.7928460   2.7928460   2.7928460
 AtZNuc=   1.0000000   1.0000000   1.0000000   1.0000000   1.0000000   1.0000000   1.0000000   1.0000000   1.0000000   1.0000000

  Atom       101         102         103         104         105         106         107
 IAtWgt=           1           1           1           1           1           1           1
 AtmWgt=   1.0078250   1.0078250   1.0078250   1.0078250   1.0078250   1.0078250   1.0078250
 NucSpn=           1           1           1           1           1           1           1
 AtZEff=  -0.0000000  -0.0000000  -0.0000000  -0.0000000  -0.0000000  -0.0000000  -0.0000000
 NQMom=    0.0000000   0.0000000   0.0000000   0.0000000   0.0000000   0.0000000   0.0000000
 NMagM=    2.7928460   2.7928460   2.7928460   2.7928460   2.7928460   2.7928460   2.7928460
 AtZNuc=   1.0000000   1.0000000   1.0000000   1.0000000   1.0000000   1.0000000   1.0000000
 Leave Link  101 at Thu Jul 23 15:13:45 2020, MaxMem=  4026531840 cpu:               3.4 elap:               0.4
 (Enter /opt/ohpc/pub/libs/gaussian/g16-A.03/sandybridge/g16/l103.exe)

 GradGradGradGradGradGradGradGradGradGradGradGradGradGradGradGradGradGrad
 Berny optimization.
 Initialization pass.
                           ----------------------------
                           !    Initial Parameters    !
                           ! (Angstroms and Degrees)  !
 --------------------------                            --------------------------
 ! Name  Definition              Value          Derivative Info.                !
 --------------------------------------------------------------------------------
 ! R1    R(1,2)                  1.368          estimate D2E/DX2                !
 ! R2    R(1,7)                  1.4406         estimate D2E/DX2                !
 ! R3    R(1,71)                 1.0423         estimate D2E/DX2                !
 ! R4    R(2,3)                  1.4806         estimate D2E/DX2                !
 ! R5    R(2,72)                 1.0909         estimate D2E/DX2                !
 ! R6    R(3,4)                  1.4115         estimate D2E/DX2                !
 ! R7    R(3,73)                 1.1415         estimate D2E/DX2                !
 ! R8    R(4,5)                  1.4182         estimate D2E/DX2                !
 ! R9    R(4,8)                  1.3958         estimate D2E/DX2                !
 ! R10   R(5,6)                  1.2954         estimate D2E/DX2                !
 ! R11   R(5,7)                  1.3446         estimate D2E/DX2                !
 ! R12   R(7,74)                 1.0843         estimate D2E/DX2                !
 ! R13   R(8,9)                  1.3741         estimate D2E/DX2                !
 ! R14   R(8,14)                 1.7498         estimate D2E/DX2                !
 ! R15   R(9,10)                 1.3385         estimate D2E/DX2                !
 ! R16   R(9,12)                 1.4969         estimate D2E/DX2                !
 ! R17   R(10,11)                1.4426         estimate D2E/DX2                !
 ! R18   R(11,75)                1.0321         estimate D2E/DX2                !
 ! R19   R(11,76)                1.0872         estimate D2E/DX2                !
 ! R20   R(11,77)                1.1071         estimate D2E/DX2                !
 ! R21   R(12,13)                1.2916         estimate D2E/DX2                !
 ! R22   R(12,78)                1.082          estimate D2E/DX2                !
 ! R23   R(13,14)                1.7337         estimate D2E/DX2                !
 ! R24   R(13,15)                1.5118         estimate D2E/DX2                !
 ! R25   R(15,16)                1.4834         estimate D2E/DX2                !
 ! R26   R(15,21)                1.3258         estimate D2E/DX2                !
 ! R27   R(16,17)                1.3874         estimate D2E/DX2                !
 ! R28   R(16,79)                1.1124         estimate D2E/DX2                !
 ! R29   R(17,18)                1.4204         estimate D2E/DX2                !
 ! R30   R(17,80)                1.0972         estimate D2E/DX2                !
 ! R31   R(18,19)                1.4476         estimate D2E/DX2                !
 ! R32   R(18,22)                1.4469         estimate D2E/DX2                !
 ! R33   R(19,20)                1.3603         estimate D2E/DX2                !
 ! R34   R(19,21)                1.3884         estimate D2E/DX2                !
 ! R35   R(21,81)                1.1071         estimate D2E/DX2                !
 ! R36   R(22,23)                1.3331         estimate D2E/DX2                !
 ! R37   R(22,28)                1.7313         estimate D2E/DX2                !
 ! R38   R(23,24)                1.3448         estimate D2E/DX2                !
 ! R39   R(23,26)                1.4672         estimate D2E/DX2                !
 ! R40   R(24,25)                1.444          estimate D2E/DX2                !
 ! R41   R(25,82)                1.0871         estimate D2E/DX2                !
 ! R42   R(25,83)                1.0967         estimate D2E/DX2                !
 ! R43   R(25,84)                1.0584         estimate D2E/DX2                !
 ! R44   R(26,27)                1.4185         estimate D2E/DX2                !
 ! R45   R(26,85)                1.1419         estimate D2E/DX2                !
 ! R46   R(27,28)                1.6838         estimate D2E/DX2                !
 ! R47   R(27,29)                1.4534         estimate D2E/DX2                !
 ! R48   R(29,30)                1.3962         estimate D2E/DX2                !
 ! R49   R(29,35)                1.3757         estimate D2E/DX2                !
 ! R50   R(30,31)                1.3937         estimate D2E/DX2                !
 ! R51   R(30,86)                1.1302         estimate D2E/DX2                !
 ! R52   R(31,32)                1.3949         estimate D2E/DX2                !
 ! R53   R(31,87)                1.1032         estimate D2E/DX2                !
 ! R54   R(32,33)                1.3178         estimate D2E/DX2                !
 ! R55   R(32,36)                1.4527         estimate D2E/DX2                !
 ! R56   R(33,34)                1.3521         estimate D2E/DX2                !
 ! R57   R(33,35)                1.3913         estimate D2E/DX2                !
 ! R58   R(35,88)                1.115          estimate D2E/DX2                !
 ! R59   R(36,37)                1.3952         estimate D2E/DX2                !
 ! R60   R(36,42)                1.7684         estimate D2E/DX2                !
 ! R61   R(37,38)                1.3568         estimate D2E/DX2                !
 ! R62   R(37,40)                1.4965         estimate D2E/DX2                !
 ! R63   R(38,39)                1.4434         estimate D2E/DX2                !
 ! R64   R(39,89)                1.0735         estimate D2E/DX2                !
 ! R65   R(39,90)                1.1203         estimate D2E/DX2                !
 ! R66   R(39,91)                1.0317         estimate D2E/DX2                !
 ! R67   R(40,41)                1.3479         estimate D2E/DX2                !
 ! R68   R(40,92)                1.0685         estimate D2E/DX2                !
 ! R69   R(41,42)                1.7166         estimate D2E/DX2                !
 ! R70   R(41,43)                1.4492         estimate D2E/DX2                !
 ! R71   R(43,44)                1.4235         estimate D2E/DX2                !
 ! R72   R(43,49)                1.4375         estimate D2E/DX2                !
 ! R73   R(44,45)                1.3782         estimate D2E/DX2                !
 ! R74   R(44,93)                1.0292         estimate D2E/DX2                !
 ! R75   R(45,46)                1.3645         estimate D2E/DX2                !
 ! R76   R(45,94)                1.1235         estimate D2E/DX2                !
 ! R77   R(46,47)                1.4551         estimate D2E/DX2                !
 ! R78   R(46,50)                1.4858         estimate D2E/DX2                !
 ! R79   R(47,48)                1.3568         estimate D2E/DX2                !
 ! R80   R(47,49)                1.359          estimate D2E/DX2                !
 ! R81   R(49,95)                1.132          estimate D2E/DX2                !
 ! R82   R(50,51)                1.3838         estimate D2E/DX2                !
 ! R83   R(50,56)                1.7669         estimate D2E/DX2                !
 ! R84   R(51,52)                1.2827         estimate D2E/DX2                !
 ! R85   R(51,54)                1.4019         estimate D2E/DX2                !
 ! R86   R(52,53)                1.4588         estimate D2E/DX2                !
 ! R87   R(53,96)                1.0413         estimate D2E/DX2                !
 ! R88   R(53,97)                1.1399         estimate D2E/DX2                !
 ! R89   R(53,98)                1.0686         estimate D2E/DX2                !
 ! R90   R(54,55)                1.3712         estimate D2E/DX2                !
 ! R91   R(54,99)                1.0682         estimate D2E/DX2                !
 ! R92   R(55,56)                1.6573         estimate D2E/DX2                !
 ! R93   R(55,57)                1.4784         estimate D2E/DX2                !
 ! R94   R(57,58)                1.4545         estimate D2E/DX2                !
 ! R95   R(57,63)                1.3939         estimate D2E/DX2                !
 ! R96   R(58,59)                1.4376         estimate D2E/DX2                !
 ! R97   R(58,100)               1.0931         estimate D2E/DX2                !
 ! R98   R(59,60)                1.4234         estimate D2E/DX2                !
 ! R99   R(59,101)               1.0595         estimate D2E/DX2                !
 ! R100  R(60,61)                1.4415         estimate D2E/DX2                !
 ! R101  R(60,64)                1.4599         estimate D2E/DX2                !
 ! R102  R(61,62)                1.3059         estimate D2E/DX2                !
 ! R103  R(61,63)                1.449          estimate D2E/DX2                !
 ! R104  R(63,102)               1.0536         estimate D2E/DX2                !
 ! R105  R(64,65)                1.3301         estimate D2E/DX2                !
 ! R106  R(64,70)                1.7445         estimate D2E/DX2                !
 ! R107  R(65,66)                1.3482         estimate D2E/DX2                !
 ! R108  R(65,68)                1.4752         estimate D2E/DX2                !
 ! R109  R(66,67)                1.4178         estimate D2E/DX2                !
 ! R110  R(67,103)               1.1077         estimate D2E/DX2                !
 ! R111  R(67,104)               1.0761         estimate D2E/DX2                !
 ! R112  R(67,105)               1.0767         estimate D2E/DX2                !
 ! R113  R(68,69)                1.3796         estimate D2E/DX2                !
 ! R114  R(68,106)               1.0849         estimate D2E/DX2                !
 ! R115  R(69,70)                1.73           estimate D2E/DX2                !
 ! R116  R(69,107)               1.1058         estimate D2E/DX2                !
 ! A1    A(2,1,7)              118.0207         estimate D2E/DX2                !
 ! A2    A(2,1,71)             121.4645         estimate D2E/DX2                !
 ! A3    A(7,1,71)             120.0982         estimate D2E/DX2                !
 ! A4    A(1,2,3)              120.433          estimate D2E/DX2                !
 ! A5    A(1,2,72)             120.2886         estimate D2E/DX2                !
 ! A6    A(3,2,72)             119.2136         estimate D2E/DX2                !
 ! A7    A(2,3,4)              119.6728         estimate D2E/DX2                !
 ! A8    A(2,3,73)             115.852          estimate D2E/DX2                !
 ! A9    A(4,3,73)             124.3086         estimate D2E/DX2                !
 ! A10   A(3,4,5)              117.0577         estimate D2E/DX2                !
 ! A11   A(3,4,8)              118.5613         estimate D2E/DX2                !
 ! A12   A(5,4,8)              124.3774         estimate D2E/DX2                !
 ! A13   A(4,5,6)              116.9198         estimate D2E/DX2                !
 ! A14   A(4,5,7)              122.8024         estimate D2E/DX2                !
 ! A15   A(6,5,7)              119.8239         estimate D2E/DX2                !
 ! A16   A(1,7,5)              121.7294         estimate D2E/DX2                !
 ! A17   A(1,7,74)             120.0172         estimate D2E/DX2                !
 ! A18   A(5,7,74)             118.0576         estimate D2E/DX2                !
 ! A19   A(4,8,9)              128.9013         estimate D2E/DX2                !
 ! A20   A(4,8,14)             120.2788         estimate D2E/DX2                !
 ! A21   A(9,8,14)             110.7722         estimate D2E/DX2                !
 ! A22   A(8,9,10)             120.4165         estimate D2E/DX2                !
 ! A23   A(8,9,12)             110.7745         estimate D2E/DX2                !
 ! A24   A(10,9,12)            128.7948         estimate D2E/DX2                !
 ! A25   A(9,10,11)            115.1005         estimate D2E/DX2                !
 ! A26   A(10,11,75)           113.1407         estimate D2E/DX2                !
 ! A27   A(10,11,76)           104.3029         estimate D2E/DX2                !
 ! A28   A(10,11,77)           108.1325         estimate D2E/DX2                !
 ! A29   A(75,11,76)           109.1919         estimate D2E/DX2                !
 ! A30   A(75,11,77)           111.3882         estimate D2E/DX2                !
 ! A31   A(76,11,77)           110.459          estimate D2E/DX2                !
 ! A32   A(9,12,13)            113.4476         estimate D2E/DX2                !
 ! A33   A(9,12,78)            119.6122         estimate D2E/DX2                !
 ! A34   A(13,12,78)           126.9312         estimate D2E/DX2                !
 ! A35   A(12,13,14)           113.1983         estimate D2E/DX2                !
 ! A36   A(12,13,15)           127.8432         estimate D2E/DX2                !
 ! A37   A(14,13,15)           118.9578         estimate D2E/DX2                !
 ! A38   A(8,14,13)             91.733          estimate D2E/DX2                !
 ! A39   A(13,15,16)           120.406          estimate D2E/DX2                !
 ! A40   A(13,15,21)           121.2409         estimate D2E/DX2                !
 ! A41   A(16,15,21)           118.3285         estimate D2E/DX2                !
 ! A42   A(15,16,17)           117.8373         estimate D2E/DX2                !
 ! A43   A(15,16,79)           120.3742         estimate D2E/DX2                !
 ! A44   A(17,16,79)           121.7239         estimate D2E/DX2                !
 ! A45   A(16,17,18)           123.2544         estimate D2E/DX2                !
 ! A46   A(16,17,80)           113.7666         estimate D2E/DX2                !
 ! A47   A(18,17,80)           122.1774         estimate D2E/DX2                !
 ! A48   A(17,18,19)           115.7444         estimate D2E/DX2                !
 ! A49   A(17,18,22)           118.7075         estimate D2E/DX2                !
 ! A50   A(19,18,22)           124.7732         estimate D2E/DX2                !
 ! A51   A(18,19,20)           117.8584         estimate D2E/DX2                !
 ! A52   A(18,19,21)           119.9263         estimate D2E/DX2                !
 ! A53   A(20,19,21)           122.1579         estimate D2E/DX2                !
 ! A54   A(15,21,19)           124.4406         estimate D2E/DX2                !
 ! A55   A(15,21,81)           119.0208         estimate D2E/DX2                !
 ! A56   A(19,21,81)           116.5374         estimate D2E/DX2                !
 ! A57   A(18,22,23)           131.3651         estimate D2E/DX2                !
 ! A58   A(18,22,28)           115.8466         estimate D2E/DX2                !
 ! A59   A(23,22,28)           112.7615         estimate D2E/DX2                !
 ! A60   A(22,23,24)           120.787          estimate D2E/DX2                !
 ! A61   A(22,23,26)           109.724          estimate D2E/DX2                !
 ! A62   A(24,23,26)           129.4885         estimate D2E/DX2                !
 ! A63   A(23,24,25)           112.1082         estimate D2E/DX2                !
 ! A64   A(24,25,82)           113.6106         estimate D2E/DX2                !
 ! A65   A(24,25,83)           102.4462         estimate D2E/DX2                !
 ! A66   A(24,25,84)           115.8834         estimate D2E/DX2                !
 ! A67   A(82,25,83)           104.4314         estimate D2E/DX2                !
 ! A68   A(82,25,84)           112.6023         estimate D2E/DX2                !
 ! A69   A(83,25,84)           106.3119         estimate D2E/DX2                !
 ! A70   A(23,26,27)           114.8129         estimate D2E/DX2                !
 ! A71   A(23,26,85)           123.1339         estimate D2E/DX2                !
 ! A72   A(27,26,85)           121.7733         estimate D2E/DX2                !
 ! A73   A(26,27,28)           107.7054         estimate D2E/DX2                !
 ! A74   A(26,27,29)           128.8735         estimate D2E/DX2                !
 ! A75   A(28,27,29)           123.4211         estimate D2E/DX2                !
 ! A76   A(22,28,27)            94.8138         estimate D2E/DX2                !
 ! A77   A(27,29,30)           119.8925         estimate D2E/DX2                !
 ! A78   A(27,29,35)           121.7351         estimate D2E/DX2                !
 ! A79   A(30,29,35)           118.3661         estimate D2E/DX2                !
 ! A80   A(29,30,31)           121.2001         estimate D2E/DX2                !
 ! A81   A(29,30,86)           122.0919         estimate D2E/DX2                !
 ! A82   A(31,30,86)           116.2557         estimate D2E/DX2                !
 ! A83   A(30,31,32)           118.3182         estimate D2E/DX2                !
 ! A84   A(30,31,87)           120.6759         estimate D2E/DX2                !
 ! A85   A(32,31,87)           120.4211         estimate D2E/DX2                !
 ! A86   A(31,32,33)           119.1538         estimate D2E/DX2                !
 ! A87   A(31,32,36)           117.8997         estimate D2E/DX2                !
 ! A88   A(33,32,36)           122.7361         estimate D2E/DX2                !
 ! A89   A(32,33,34)           120.3228         estimate D2E/DX2                !
 ! A90   A(32,33,35)           123.4605         estimate D2E/DX2                !
 ! A91   A(34,33,35)           115.6502         estimate D2E/DX2                !
 ! A92   A(29,35,33)           118.6596         estimate D2E/DX2                !
 ! A93   A(29,35,88)           118.116          estimate D2E/DX2                !
 ! A94   A(33,35,88)           123.1652         estimate D2E/DX2                !
 ! A95   A(32,36,37)           128.4674         estimate D2E/DX2                !
 ! A96   A(32,36,42)           122.5584         estimate D2E/DX2                !
 ! A97   A(37,36,42)           108.9291         estimate D2E/DX2                !
 ! A98   A(36,37,38)           120.7743         estimate D2E/DX2                !
 ! A99   A(36,37,40)           113.5167         estimate D2E/DX2                !
 ! A100  A(38,37,40)           125.7072         estimate D2E/DX2                !
 ! A101  A(37,38,39)           116.3074         estimate D2E/DX2                !
 ! A102  A(38,39,89)           108.0945         estimate D2E/DX2                !
 ! A103  A(38,39,90)           107.4097         estimate D2E/DX2                !
 ! A104  A(38,39,91)           112.472          estimate D2E/DX2                !
 ! A105  A(89,39,90)           102.637          estimate D2E/DX2                !
 ! A106  A(89,39,91)           111.1514         estimate D2E/DX2                !
 ! A107  A(90,39,91)           114.4524         estimate D2E/DX2                !
 ! A108  A(37,40,41)           110.3797         estimate D2E/DX2                !
 ! A109  A(37,40,92)           125.8485         estimate D2E/DX2                !
 ! A110  A(41,40,92)           123.7671         estimate D2E/DX2                !
 ! A111  A(40,41,42)           114.3892         estimate D2E/DX2                !
 ! A112  A(40,41,43)           125.7634         estimate D2E/DX2                !
 ! A113  A(42,41,43)           119.5323         estimate D2E/DX2                !
 ! A114  A(36,42,41)            92.7453         estimate D2E/DX2                !
 ! A115  A(41,43,44)           119.8882         estimate D2E/DX2                !
 ! A116  A(41,43,49)           122.0378         estimate D2E/DX2                !
 ! A117  A(44,43,49)           118.0555         estimate D2E/DX2                !
 ! A118  A(43,44,45)           118.3601         estimate D2E/DX2                !
 ! A119  A(43,44,93)           121.2543         estimate D2E/DX2                !
 ! A120  A(45,44,93)           120.2623         estimate D2E/DX2                !
 ! A121  A(44,45,46)           126.3018         estimate D2E/DX2                !
 ! A122  A(44,45,94)           114.2457         estimate D2E/DX2                !
 ! A123  A(46,45,94)           119.0923         estimate D2E/DX2                !
 ! A124  A(45,46,47)           114.2642         estimate D2E/DX2                !
 ! A125  A(45,46,50)           124.3411         estimate D2E/DX2                !
 ! A126  A(47,46,50)           121.3275         estimate D2E/DX2                !
 ! A127  A(46,47,48)           117.6017         estimate D2E/DX2                !
 ! A128  A(46,47,49)           122.7599         estimate D2E/DX2                !
 ! A129  A(48,47,49)           119.4134         estimate D2E/DX2                !
 ! A130  A(43,49,47)           119.9929         estimate D2E/DX2                !
 ! A131  A(43,49,95)           120.317          estimate D2E/DX2                !
 ! A132  A(47,49,95)           119.4525         estimate D2E/DX2                !
 ! A133  A(46,50,51)           128.9159         estimate D2E/DX2                !
 ! A134  A(46,50,56)           119.1405         estimate D2E/DX2                !
 ! A135  A(51,50,56)           111.6647         estimate D2E/DX2                !
 ! A136  A(50,51,52)           119.8467         estimate D2E/DX2                !
 ! A137  A(50,51,54)           110.17           estimate D2E/DX2                !
 ! A138  A(52,51,54)           129.9146         estimate D2E/DX2                !
 ! A139  A(51,52,53)           116.9168         estimate D2E/DX2                !
 ! A140  A(52,53,96)           110.2552         estimate D2E/DX2                !
 ! A141  A(52,53,97)           107.0236         estimate D2E/DX2                !
 ! A142  A(52,53,98)           109.9303         estimate D2E/DX2                !
 ! A143  A(96,53,97)           113.8419         estimate D2E/DX2                !
 ! A144  A(96,53,98)           107.0717         estimate D2E/DX2                !
 ! A145  A(97,53,98)           108.6947         estimate D2E/DX2                !
 ! A146  A(51,54,55)           113.6388         estimate D2E/DX2                !
 ! A147  A(51,54,99)           126.9269         estimate D2E/DX2                !
 ! A148  A(55,54,99)           119.1231         estimate D2E/DX2                !
 ! A149  A(54,55,56)           113.7598         estimate D2E/DX2                !
 ! A150  A(54,55,57)           127.0746         estimate D2E/DX2                !
 ! A151  A(56,55,57)           119.1036         estimate D2E/DX2                !
 ! A152  A(50,56,55)            90.3409         estimate D2E/DX2                !
 ! A153  A(55,57,58)           120.2451         estimate D2E/DX2                !
 ! A154  A(55,57,63)           120.658          estimate D2E/DX2                !
 ! A155  A(58,57,63)           119.0867         estimate D2E/DX2                !
 ! A156  A(57,58,59)           118.4328         estimate D2E/DX2                !
 ! A157  A(57,58,100)          122.5704         estimate D2E/DX2                !
 ! A158  A(59,58,100)          118.2196         estimate D2E/DX2                !
 ! A159  A(58,59,60)           122.7525         estimate D2E/DX2                !
 ! A160  A(58,59,101)          118.5843         estimate D2E/DX2                !
 ! A161  A(60,59,101)          118.4486         estimate D2E/DX2                !
 ! A162  A(59,60,61)           117.4887         estimate D2E/DX2                !
 ! A163  A(59,60,64)           118.4322         estimate D2E/DX2                !
 ! A164  A(61,60,64)           124.0789         estimate D2E/DX2                !
 ! A165  A(60,61,62)           119.3117         estimate D2E/DX2                !
 ! A166  A(60,61,63)           119.8988         estimate D2E/DX2                !
 ! A167  A(62,61,63)           120.5845         estimate D2E/DX2                !
 ! A168  A(57,63,61)           121.8995         estimate D2E/DX2                !
 ! A169  A(57,63,102)          120.3685         estimate D2E/DX2                !
 ! A170  A(61,63,102)          117.7254         estimate D2E/DX2                !
 ! A171  A(60,64,65)           128.4893         estimate D2E/DX2                !
 ! A172  A(60,64,70)           116.9482         estimate D2E/DX2                !
 ! A173  A(65,64,70)           114.5426         estimate D2E/DX2                !
 ! A174  A(64,65,66)           122.7141         estimate D2E/DX2                !
 ! A175  A(64,65,68)           111.3949         estimate D2E/DX2                !
 ! A176  A(66,65,68)           125.7603         estimate D2E/DX2                !
 ! A177  A(65,66,67)           112.9816         estimate D2E/DX2                !
 ! A178  A(66,67,103)          105.0734         estimate D2E/DX2                !
 ! A179  A(66,67,104)          113.7661         estimate D2E/DX2                !
 ! A180  A(66,67,105)          113.4418         estimate D2E/DX2                !
 ! A181  A(103,67,104)         109.768          estimate D2E/DX2                !
 ! A182  A(103,67,105)         102.8161         estimate D2E/DX2                !
 ! A183  A(104,67,105)         111.1559         estimate D2E/DX2                !
 ! A184  A(65,68,69)           110.8491         estimate D2E/DX2                !
 ! A185  A(65,68,106)          129.4082         estimate D2E/DX2                !
 ! A186  A(69,68,106)          119.5826         estimate D2E/DX2                !
 ! A187  A(68,69,70)           113.0955         estimate D2E/DX2                !
 ! A188  A(68,69,107)          129.6207         estimate D2E/DX2                !
 ! A189  A(70,69,107)          117.2182         estimate D2E/DX2                !
 ! A190  A(64,70,69)            89.8167         estimate D2E/DX2                !
 ! D1    D(7,1,2,3)             -1.7661         estimate D2E/DX2                !
 ! D2    D(7,1,2,72)          -178.8155         estimate D2E/DX2                !
 ! D3    D(71,1,2,3)          -174.3622         estimate D2E/DX2                !
 ! D4    D(71,1,2,72)            8.5884         estimate D2E/DX2                !
 ! D5    D(2,1,7,5)             -0.5886         estimate D2E/DX2                !
 ! D6    D(2,1,7,74)          -175.4042         estimate D2E/DX2                !
 ! D7    D(71,1,7,5)           172.1124         estimate D2E/DX2                !
 ! D8    D(71,1,7,74)           -2.7031         estimate D2E/DX2                !
 ! D9    D(1,2,3,4)             -0.0435         estimate D2E/DX2                !
 ! D10   D(1,2,3,73)          -175.5539         estimate D2E/DX2                !
 ! D11   D(72,2,3,4)           177.0374         estimate D2E/DX2                !
 ! D12   D(72,2,3,73)            1.527          estimate D2E/DX2                !
 ! D13   D(2,3,4,5)              4.0211         estimate D2E/DX2                !
 ! D14   D(2,3,4,8)           -176.6437         estimate D2E/DX2                !
 ! D15   D(73,3,4,5)           179.1287         estimate D2E/DX2                !
 ! D16   D(73,3,4,8)            -1.536          estimate D2E/DX2                !
 ! D17   D(3,4,5,6)           -178.8063         estimate D2E/DX2                !
 ! D18   D(3,4,5,7)             -6.5624         estimate D2E/DX2                !
 ! D19   D(8,4,5,6)              1.9012         estimate D2E/DX2                !
 ! D20   D(8,4,5,7)            174.145          estimate D2E/DX2                !
 ! D21   D(3,4,8,9)            123.9117         estimate D2E/DX2                !
 ! D22   D(3,4,8,14)           -58.8435         estimate D2E/DX2                !
 ! D23   D(5,4,8,9)            -56.8056         estimate D2E/DX2                !
 ! D24   D(5,4,8,14)           120.4392         estimate D2E/DX2                !
 ! D25   D(4,5,7,1)              4.9507         estimate D2E/DX2                !
 ! D26   D(4,5,7,74)           179.864          estimate D2E/DX2                !
 ! D27   D(6,5,7,1)            176.9778         estimate D2E/DX2                !
 ! D28   D(6,5,7,74)            -8.1088         estimate D2E/DX2                !
 ! D29   D(4,8,9,10)            -3.3941         estimate D2E/DX2                !
 ! D30   D(4,8,9,12)           175.3497         estimate D2E/DX2                !
 ! D31   D(14,8,9,10)          179.1504         estimate D2E/DX2                !
 ! D32   D(14,8,9,12)           -2.1058         estimate D2E/DX2                !
 ! D33   D(4,8,14,13)         -175.1755         estimate D2E/DX2                !
 ! D34   D(9,8,14,13)            2.5316         estimate D2E/DX2                !
 ! D35   D(8,9,10,11)          157.0122         estimate D2E/DX2                !
 ! D36   D(12,9,10,11)         -21.4808         estimate D2E/DX2                !
 ! D37   D(8,9,12,13)            0.3863         estimate D2E/DX2                !
 ! D38   D(8,9,12,78)          179.3683         estimate D2E/DX2                !
 ! D39   D(10,9,12,13)         178.9964         estimate D2E/DX2                !
 ! D40   D(10,9,12,78)          -2.0216         estimate D2E/DX2                !
 ! D41   D(9,10,11,75)         -55.6862         estimate D2E/DX2                !
 ! D42   D(9,10,11,76)        -174.234          estimate D2E/DX2                !
 ! D43   D(9,10,11,77)          68.1814         estimate D2E/DX2                !
 ! D44   D(9,12,13,14)           1.569          estimate D2E/DX2                !
 ! D45   D(9,12,13,15)        -178.1174         estimate D2E/DX2                !
 ! D46   D(78,12,13,14)       -177.3238         estimate D2E/DX2                !
 ! D47   D(78,12,13,15)          2.9898         estimate D2E/DX2                !
 ! D48   D(12,13,14,8)          -2.3757         estimate D2E/DX2                !
 ! D49   D(15,13,14,8)         177.3413         estimate D2E/DX2                !
 ! D50   D(12,13,15,16)       -128.0987         estimate D2E/DX2                !
 ! D51   D(12,13,15,21)         50.0651         estimate D2E/DX2                !
 ! D52   D(14,13,15,16)         52.2307         estimate D2E/DX2                !
 ! D53   D(14,13,15,21)       -129.6055         estimate D2E/DX2                !
 ! D54   D(13,15,16,17)        179.9578         estimate D2E/DX2                !
 ! D55   D(13,15,16,79)         -2.9168         estimate D2E/DX2                !
 ! D56   D(21,15,16,17)          1.7414         estimate D2E/DX2                !
 ! D57   D(21,15,16,79)        178.8668         estimate D2E/DX2                !
 ! D58   D(13,15,21,19)       -177.6752         estimate D2E/DX2                !
 ! D59   D(13,15,21,81)          1.9093         estimate D2E/DX2                !
 ! D60   D(16,15,21,19)          0.5257         estimate D2E/DX2                !
 ! D61   D(16,15,21,81)       -179.8898         estimate D2E/DX2                !
 ! D62   D(15,16,17,18)         -6.4974         estimate D2E/DX2                !
 ! D63   D(15,16,17,80)       -176.428          estimate D2E/DX2                !
 ! D64   D(79,16,17,18)        176.4183         estimate D2E/DX2                !
 ! D65   D(79,16,17,80)          6.4877         estimate D2E/DX2                !
 ! D66   D(16,17,18,19)          8.454          estimate D2E/DX2                !
 ! D67   D(16,17,18,22)        178.8572         estimate D2E/DX2                !
 ! D68   D(80,17,18,19)        177.5566         estimate D2E/DX2                !
 ! D69   D(80,17,18,22)        -12.0402         estimate D2E/DX2                !
 ! D70   D(17,18,19,20)        176.8104         estimate D2E/DX2                !
 ! D71   D(17,18,19,21)         -5.8866         estimate D2E/DX2                !
 ! D72   D(22,18,19,20)          7.0644         estimate D2E/DX2                !
 ! D73   D(22,18,19,21)       -175.6326         estimate D2E/DX2                !
 ! D74   D(17,18,22,23)        -49.2048         estimate D2E/DX2                !
 ! D75   D(17,18,22,28)        128.7512         estimate D2E/DX2                !
 ! D76   D(19,18,22,23)        120.2615         estimate D2E/DX2                !
 ! D77   D(19,18,22,28)        -61.7825         estimate D2E/DX2                !
 ! D78   D(18,19,21,15)          1.6862         estimate D2E/DX2                !
 ! D79   D(18,19,21,81)       -177.9077         estimate D2E/DX2                !
 ! D80   D(20,19,21,15)        178.8695         estimate D2E/DX2                !
 ! D81   D(20,19,21,81)         -0.7243         estimate D2E/DX2                !
 ! D82   D(18,22,23,24)          2.749          estimate D2E/DX2                !
 ! D83   D(18,22,23,26)       -177.4822         estimate D2E/DX2                !
 ! D84   D(28,22,23,24)       -175.2561         estimate D2E/DX2                !
 ! D85   D(28,22,23,26)          4.5127         estimate D2E/DX2                !
 ! D86   D(18,22,28,27)        178.4715         estimate D2E/DX2                !
 ! D87   D(23,22,28,27)         -3.1921         estimate D2E/DX2                !
 ! D88   D(22,23,24,25)        178.655          estimate D2E/DX2                !
 ! D89   D(26,23,24,25)         -1.0631         estimate D2E/DX2                !
 ! D90   D(22,23,26,27)         -4.1739         estimate D2E/DX2                !
 ! D91   D(22,23,26,85)       -178.1855         estimate D2E/DX2                !
 ! D92   D(24,23,26,27)        175.5687         estimate D2E/DX2                !
 ! D93   D(24,23,26,85)          1.5572         estimate D2E/DX2                !
 ! D94   D(23,24,25,82)        -67.17           estimate D2E/DX2                !
 ! D95   D(23,24,25,83)       -179.1948         estimate D2E/DX2                !
 ! D96   D(23,24,25,84)         65.5413         estimate D2E/DX2                !
 ! D97   D(23,26,27,28)          1.8236         estimate D2E/DX2                !
 ! D98   D(23,26,27,29)       -178.2616         estimate D2E/DX2                !
 ! D99   D(85,26,27,28)        175.9253         estimate D2E/DX2                !
 ! D100  D(85,26,27,29)         -4.16           estimate D2E/DX2                !
 ! D101  D(26,27,28,22)          0.6377         estimate D2E/DX2                !
 ! D102  D(29,27,28,22)       -179.2828         estimate D2E/DX2                !
 ! D103  D(26,27,29,30)       -128.0297         estimate D2E/DX2                !
 ! D104  D(26,27,29,35)         52.8993         estimate D2E/DX2                !
 ! D105  D(28,27,29,30)         51.873          estimate D2E/DX2                !
 ! D106  D(28,27,29,35)       -127.198          estimate D2E/DX2                !
 ! D107  D(27,29,30,31)        177.3825         estimate D2E/DX2                !
 ! D108  D(27,29,30,86)          5.3904         estimate D2E/DX2                !
 ! D109  D(35,29,30,31)         -3.5154         estimate D2E/DX2                !
 ! D110  D(35,29,30,86)       -175.5075         estimate D2E/DX2                !
 ! D111  D(27,29,35,33)       -178.0221         estimate D2E/DX2                !
 ! D112  D(27,29,35,88)         -0.7292         estimate D2E/DX2                !
 ! D113  D(30,29,35,33)          2.8932         estimate D2E/DX2                !
 ! D114  D(30,29,35,88)       -179.8139         estimate D2E/DX2                !
 ! D115  D(29,30,31,32)          6.9821         estimate D2E/DX2                !
 ! D116  D(29,30,31,87)        178.2499         estimate D2E/DX2                !
 ! D117  D(86,30,31,32)        179.4199         estimate D2E/DX2                !
 ! D118  D(86,30,31,87)         -9.3122         estimate D2E/DX2                !
 ! D119  D(30,31,32,33)        -10.0364         estimate D2E/DX2                !
 ! D120  D(30,31,32,36)        175.0882         estimate D2E/DX2                !
 ! D121  D(87,31,32,33)        178.6728         estimate D2E/DX2                !
 ! D122  D(87,31,32,36)          3.7973         estimate D2E/DX2                !
 ! D123  D(31,32,33,34)       -178.9954         estimate D2E/DX2                !
 ! D124  D(31,32,33,35)         10.0171         estimate D2E/DX2                !
 ! D125  D(36,32,33,34)         -4.3802         estimate D2E/DX2                !
 ! D126  D(36,32,33,35)       -175.3677         estimate D2E/DX2                !
 ! D127  D(31,32,36,37)        -57.1817         estimate D2E/DX2                !
 ! D128  D(31,32,36,42)        125.5376         estimate D2E/DX2                !
 ! D129  D(33,32,36,37)        128.1393         estimate D2E/DX2                !
 ! D130  D(33,32,36,42)        -49.1414         estimate D2E/DX2                !
 ! D131  D(32,33,35,29)         -6.4176         estimate D2E/DX2                !
 ! D132  D(32,33,35,88)        176.4349         estimate D2E/DX2                !
 ! D133  D(34,33,35,29)       -177.7906         estimate D2E/DX2                !
 ! D134  D(34,33,35,88)          5.0619         estimate D2E/DX2                !
 ! D135  D(32,36,37,38)          2.8445         estimate D2E/DX2                !
 ! D136  D(32,36,37,40)       -177.6235         estimate D2E/DX2                !
 ! D137  D(42,36,37,38)       -179.5783         estimate D2E/DX2                !
 ! D138  D(42,36,37,40)         -0.0463         estimate D2E/DX2                !
 ! D139  D(32,36,42,41)        178.7775         estimate D2E/DX2                !
 ! D140  D(37,36,42,41)          1.0281         estimate D2E/DX2                !
 ! D141  D(36,37,38,39)        175.3791         estimate D2E/DX2                !
 ! D142  D(40,37,38,39)         -4.0924         estimate D2E/DX2                !
 ! D143  D(36,37,40,41)         -1.3106         estimate D2E/DX2                !
 ! D144  D(36,37,40,92)        177.9216         estimate D2E/DX2                !
 ! D145  D(38,37,40,41)        178.1942         estimate D2E/DX2                !
 ! D146  D(38,37,40,92)         -2.5736         estimate D2E/DX2                !
 ! D147  D(37,38,39,89)       -179.5241         estimate D2E/DX2                !
 ! D148  D(37,38,39,90)         70.3758         estimate D2E/DX2                !
 ! D149  D(37,38,39,91)        -56.4341         estimate D2E/DX2                !
 ! D150  D(37,40,41,42)          2.1228         estimate D2E/DX2                !
 ! D151  D(37,40,41,43)        175.6043         estimate D2E/DX2                !
 ! D152  D(92,40,41,42)       -177.1286         estimate D2E/DX2                !
 ! D153  D(92,40,41,43)         -3.6471         estimate D2E/DX2                !
 ! D154  D(40,41,42,36)         -1.8995         estimate D2E/DX2                !
 ! D155  D(43,41,42,36)       -175.8221         estimate D2E/DX2                !
 ! D156  D(40,41,43,44)         50.6813         estimate D2E/DX2                !
 ! D157  D(40,41,43,49)       -127.7214         estimate D2E/DX2                !
 ! D158  D(42,41,43,44)       -136.1434         estimate D2E/DX2                !
 ! D159  D(42,41,43,49)         45.4539         estimate D2E/DX2                !
 ! D160  D(41,43,44,45)        179.1565         estimate D2E/DX2                !
 ! D161  D(41,43,44,93)          3.1831         estimate D2E/DX2                !
 ! D162  D(49,43,44,45)         -2.3778         estimate D2E/DX2                !
 ! D163  D(49,43,44,93)       -178.3512         estimate D2E/DX2                !
 ! D164  D(41,43,49,47)       -178.1794         estimate D2E/DX2                !
 ! D165  D(41,43,49,95)         -3.8097         estimate D2E/DX2                !
 ! D166  D(44,43,49,47)          3.3898         estimate D2E/DX2                !
 ! D167  D(44,43,49,95)        177.7595         estimate D2E/DX2                !
 ! D168  D(43,44,45,46)          3.2787         estimate D2E/DX2                !
 ! D169  D(43,44,45,94)        176.274          estimate D2E/DX2                !
 ! D170  D(93,44,45,46)        179.2935         estimate D2E/DX2                !
 ! D171  D(93,44,45,94)         -7.7112         estimate D2E/DX2                !
 ! D172  D(44,45,46,47)         -4.5187         estimate D2E/DX2                !
 ! D173  D(44,45,46,50)        172.5253         estimate D2E/DX2                !
 ! D174  D(94,45,46,47)       -177.2081         estimate D2E/DX2                !
 ! D175  D(94,45,46,50)         -0.164          estimate D2E/DX2                !
 ! D176  D(45,46,47,48)        179.8795         estimate D2E/DX2                !
 ! D177  D(45,46,47,49)          5.3691         estimate D2E/DX2                !
 ! D178  D(50,46,47,48)          2.7367         estimate D2E/DX2                !
 ! D179  D(50,46,47,49)       -171.7737         estimate D2E/DX2                !
 ! D180  D(45,46,50,51)        -48.4909         estimate D2E/DX2                !
 ! D181  D(45,46,50,56)        124.8967         estimate D2E/DX2                !
 ! D182  D(47,46,50,51)        128.3542         estimate D2E/DX2                !
 ! D183  D(47,46,50,56)        -58.2582         estimate D2E/DX2                !
 ! D184  D(46,47,49,43)         -5.0415         estimate D2E/DX2                !
 ! D185  D(46,47,49,95)       -179.46           estimate D2E/DX2                !
 ! D186  D(48,47,49,43)       -179.4565         estimate D2E/DX2                !
 ! D187  D(48,47,49,95)          6.125          estimate D2E/DX2                !
 ! D188  D(46,50,51,52)         -6.4199         estimate D2E/DX2                !
 ! D189  D(46,50,51,54)        176.3034         estimate D2E/DX2                !
 ! D190  D(56,50,51,52)        179.7929         estimate D2E/DX2                !
 ! D191  D(56,50,51,54)          2.5162         estimate D2E/DX2                !
 ! D192  D(46,50,56,55)       -179.4819         estimate D2E/DX2                !
 ! D193  D(51,50,56,55)         -5.0142         estimate D2E/DX2                !
 ! D194  D(50,51,52,53)       -170.0654         estimate D2E/DX2                !
 ! D195  D(54,51,52,53)          6.6011         estimate D2E/DX2                !
 ! D196  D(50,51,54,55)          2.0739         estimate D2E/DX2                !
 ! D197  D(50,51,54,99)        175.553          estimate D2E/DX2                !
 ! D198  D(52,51,54,55)       -174.8461         estimate D2E/DX2                !
 ! D199  D(52,51,54,99)         -1.367          estimate D2E/DX2                !
 ! D200  D(51,52,53,96)         61.8161         estimate D2E/DX2                !
 ! D201  D(51,52,53,97)        -62.4884         estimate D2E/DX2                !
 ! D202  D(51,52,53,98)        179.6338         estimate D2E/DX2                !
 ! D203  D(51,54,55,56)         -6.1187         estimate D2E/DX2                !
 ! D204  D(51,54,55,57)        176.7982         estimate D2E/DX2                !
 ! D205  D(99,54,55,56)        179.8464         estimate D2E/DX2                !
 ! D206  D(99,54,55,57)          2.7634         estimate D2E/DX2                !
 ! D207  D(54,55,56,50)          6.2457         estimate D2E/DX2                !
 ! D208  D(57,55,56,50)       -176.4177         estimate D2E/DX2                !
 ! D209  D(54,55,57,58)       -139.4782         estimate D2E/DX2                !
 ! D210  D(54,55,57,63)         41.6966         estimate D2E/DX2                !
 ! D211  D(56,55,57,58)         43.5775         estimate D2E/DX2                !
 ! D212  D(56,55,57,63)       -135.2478         estimate D2E/DX2                !
 ! D213  D(55,57,58,59)        173.8739         estimate D2E/DX2                !
 ! D214  D(55,57,58,100)         4.1593         estimate D2E/DX2                !
 ! D215  D(63,57,58,59)         -7.2825         estimate D2E/DX2                !
 ! D216  D(63,57,58,100)      -176.9971         estimate D2E/DX2                !
 ! D217  D(55,57,63,61)       -178.3297         estimate D2E/DX2                !
 ! D218  D(55,57,63,102)         2.6206         estimate D2E/DX2                !
 ! D219  D(58,57,63,61)          2.8316         estimate D2E/DX2                !
 ! D220  D(58,57,63,102)      -176.2182         estimate D2E/DX2                !
 ! D221  D(57,58,59,60)          6.9591         estimate D2E/DX2                !
 ! D222  D(57,58,59,101)      -178.4512         estimate D2E/DX2                !
 ! D223  D(100,58,59,60)       177.1267         estimate D2E/DX2                !
 ! D224  D(100,58,59,101)       -8.2836         estimate D2E/DX2                !
 ! D225  D(58,59,60,61)         -1.894          estimate D2E/DX2                !
 ! D226  D(58,59,60,64)        177.9223         estimate D2E/DX2                !
 ! D227  D(101,59,60,61)      -176.4907         estimate D2E/DX2                !
 ! D228  D(101,59,60,64)         3.3256         estimate D2E/DX2                !
 ! D229  D(59,60,61,62)       -177.6162         estimate D2E/DX2                !
 ! D230  D(59,60,61,63)         -2.7861         estimate D2E/DX2                !
 ! D231  D(64,60,61,62)          2.5789         estimate D2E/DX2                !
 ! D232  D(64,60,61,63)        177.4089         estimate D2E/DX2                !
 ! D233  D(59,60,64,65)        -66.6518         estimate D2E/DX2                !
 ! D234  D(59,60,64,70)        115.0741         estimate D2E/DX2                !
 ! D235  D(61,60,64,65)        113.1514         estimate D2E/DX2                !
 ! D236  D(61,60,64,70)        -65.1227         estimate D2E/DX2                !
 ! D237  D(60,61,63,57)          2.3162         estimate D2E/DX2                !
 ! D238  D(60,61,63,102)      -178.6101         estimate D2E/DX2                !
 ! D239  D(62,61,63,57)        177.0794         estimate D2E/DX2                !
 ! D240  D(62,61,63,102)        -3.8468         estimate D2E/DX2                !
 ! D241  D(60,64,65,66)         -2.8743         estimate D2E/DX2                !
 ! D242  D(60,64,65,68)       -178.937          estimate D2E/DX2                !
 ! D243  D(70,64,65,66)        175.4344         estimate D2E/DX2                !
 ! D244  D(70,64,65,68)         -0.6283         estimate D2E/DX2                !
 ! D245  D(60,64,70,69)       -178.2355         estimate D2E/DX2                !
 ! D246  D(65,64,70,69)          3.2495         estimate D2E/DX2                !
 ! D247  D(64,65,66,67)        171.4969         estimate D2E/DX2                !
 ! D248  D(68,65,66,67)        -13.0219         estimate D2E/DX2                !
 ! D249  D(64,65,68,69)         -3.239          estimate D2E/DX2                !
 ! D250  D(64,65,68,106)      -178.5383         estimate D2E/DX2                !
 ! D251  D(66,65,68,69)       -179.1564         estimate D2E/DX2                !
 ! D252  D(66,65,68,106)         5.5444         estimate D2E/DX2                !
 ! D253  D(65,66,67,103)       178.6232         estimate D2E/DX2                !
 ! D254  D(65,66,67,104)       -61.2898         estimate D2E/DX2                !
 ! D255  D(65,66,67,105)        67.0818         estimate D2E/DX2                !
 ! D256  D(65,68,69,70)          5.7044         estimate D2E/DX2                !
 ! D257  D(65,68,69,107)      -177.3666         estimate D2E/DX2                !
 ! D258  D(106,68,69,70)      -178.4711         estimate D2E/DX2                !
 ! D259  D(106,68,69,107)       -1.5421         estimate D2E/DX2                !
 ! D260  D(68,69,70,64)         -5.1373         estimate D2E/DX2                !
 ! D261  D(107,69,70,64)       177.5224         estimate D2E/DX2                !
 --------------------------------------------------------------------------------
 Trust Radius=3.00D-01 FncErr=1.00D-07 GrdErr=1.00D-06 EigMax=2.50D+02 EigMin=1.00D-04
 Number of steps in this run=    577 maximum allowed number of steps=    642.
 GradGradGradGradGradGradGradGradGradGradGradGradGradGradGradGradGradGrad

 Leave Link  103 at Thu Jul 23 15:13:45 2020, MaxMem=  4026531840 cpu:               0.2 elap:               0.0
 (Enter /opt/ohpc/pub/libs/gaussian/g16-A.03/sandybridge/g16/l202.exe)
 Stoichiometry    C55H37F5O5S5
 Framework group  C1[X(C55H37F5O5S5)]
 Deg. of freedom   315
 Full point group                 C1      NOp   1
 Largest Abelian subgroup         C1      NOp   1
 Largest concise Abelian subgroup C1      NOp   1
                         Standard orientation:                         
 ---------------------------------------------------------------------
 Center     Atomic      Atomic             Coordinates (Angstroms)
 Number     Number       Type             X           Y           Z
 ---------------------------------------------------------------------
      1          6           0      -19.290935   -1.968766   -0.250643
      2          6           0      -18.414015   -2.327798   -1.237287
      3          6           0      -17.025225   -1.814673   -1.229474
      4          6           0      -16.606019   -0.948735   -0.196580
      5          6           0      -17.535875   -0.684942    0.841292
      6          9           0      -17.157010    0.128768    1.775342
      7          6           0      -18.809316   -1.115133    0.805133
      8          6           0      -15.314332   -0.422370   -0.250107
      9          6           0      -14.917188    0.893007   -0.234136
     10          8           0      -15.826359    1.875352   -0.226890
     11          6           0      -15.361375    3.135685    0.298969
     12          6           0      -13.424365    0.996466   -0.196519
     13          6           0      -12.829615   -0.150031   -0.195026
     14         16           0      -13.927509   -1.489016   -0.280684
     15          6           0      -11.344705   -0.424495   -0.122663
     16          6           0      -10.695437   -1.310131   -1.119915
     17          6           0       -9.329642   -1.524624   -1.003890
     18          6           0       -8.510114   -0.838394   -0.068415
     19          6           0       -9.210285   -0.025158    0.903154
     20          9           0       -8.471940    0.598234    1.860519
     21          6           0      -10.584930    0.142943    0.803849
     22          6           0       -7.099807   -1.157316   -0.014658
     23          6           0       -6.463040   -2.326298    0.057005
     24          8           0       -7.146043   -3.484612    0.036179
     25          6           0       -6.271486   -4.632296    0.092479
     26          6           0       -5.016604   -2.097543    0.147199
     27          6           0       -4.621258   -0.739016    0.045278
     28         16           0       -6.017227    0.190838   -0.102700
     29          6           0       -3.281716   -0.175284    0.059848
     30          6           0       -2.973387    0.863296    0.940587
     31          6           0       -1.684261    1.387515    1.015619
     32          6           0       -0.738462    0.953843    0.086507
     33          6           0       -1.026631   -0.068470   -0.693494
     34          9           0       -0.119797   -0.521276   -1.588314
     35          6           0       -2.298130   -0.624862   -0.790506
     36          6           0        0.569919    1.584833    0.103315
     37          6           0        0.882932    2.937525   -0.033600
     38          8           0       -0.097068    3.868269   -0.152389
     39          6           0        0.330280    5.246612   -0.184823
     40          6           0        2.353582    3.214338   -0.021419
     41          6           0        3.045141    2.070278    0.150789
     42         16           0        2.070643    0.660194    0.244547
     43          6           0        4.488341    1.940768    0.124208
     44          6           0        5.292916    2.805838    0.918374
     45          6           0        6.661018    2.643483    0.882617
     46          6           0        7.349669    1.760970    0.102386
     47          6           0        6.506295    0.867316   -0.676894
     48          9           0        7.121690   -0.037238   -1.479342
     49          6           0        5.152317    0.978467   -0.712093
     50          6           0        8.830023    1.728821   -0.020455
     51          6           0        9.705555    2.773988   -0.257062
     52          8           0        9.247883    3.942205   -0.523863
     53          6           0       10.209568    4.940002   -0.979707
     54          6           0       11.029369    2.314681   -0.214425
     55          6           0       11.136279    0.964593    0.000410
     56         16           0        9.688924    0.222313    0.317956
     57          6           0       12.377999    0.162954    0.033358
     58          6           0       12.416035   -1.154540   -0.581782
     59          6           0       13.675850   -1.844102   -0.645474
     60          6           0       14.852348   -1.359038   -0.007760
     61          6           0       14.760136   -0.101678    0.691047
     62          9           0       15.829153    0.399574    1.248911
     63          6           0       13.518713    0.645381    0.672916
     64          6           0       16.070515   -2.158904   -0.095224
     65          6           0       16.315222   -3.354880    0.432873
     66          8           0       15.427034   -4.002130    1.213718
     67          6           0       15.815184   -5.333868    1.507102
     68          6           0       17.686147   -3.807034    0.129019
     69          6           0       18.332765   -2.900857   -0.685856
     70         16           0       17.412371   -1.463073   -0.966254
     71          1           0      -20.243809   -2.386877   -0.191100
     72          1           0      -18.744458   -2.957158   -2.064831
     73          1           0      -16.384222   -2.099644   -2.129997
     74          1           0      -19.453999   -0.871180    1.642099
     75          1           0      -14.976046    3.059565    1.253415
     76          1           0      -16.249941    3.761677    0.321163
     77          1           0      -14.614528    3.548748   -0.406196
     78          1           0      -12.956008    1.971837   -0.190725
     79          1           0      -11.303120   -1.818567   -1.900662
     80          1           0       -8.908390   -2.138406   -1.809894
     81          1           0      -11.057890    0.804635    1.554998
     82          1           0       -5.655345   -4.754165   -0.794884
     83          1           0       -6.978039   -5.470094    0.051806
     84          1           0       -5.721452   -4.750537    0.989017
     85          1           0       -4.252118   -2.944722    0.188882
     86          1           0       -3.708585    1.230997    1.716259
     87          1           0       -1.456770    2.227261    1.693883
     88          1           0       -2.549801   -1.452239   -1.494257
     89          1           0       -0.543152    5.864504   -0.272195
     90          1           0        0.847938    5.414092   -1.164121
     91          1           0        0.888500    5.506008    0.643174
     92          1           0        2.811049    4.172212   -0.143236
     93          1           0        4.868903    3.495839    1.553501
     94          1           0        7.231605    3.403096    1.482378
     95          1           0        4.549657    0.246545   -1.330514
     96          1           0       10.648832    4.635450   -1.873366
     97          1           0       10.953848    5.098368   -0.130927
     98          1           0        9.710470    5.864590   -1.174580
     99          1           0       11.911587    2.879147   -0.424423
    100          1           0       11.571480   -1.568560   -1.138626
    101          1           0       13.711111   -2.793081   -1.115221
    102          1           0       13.496073    1.570669    1.176226
    103          1           0       15.017153   -5.727872    2.166506
    104          1           0       15.910181   -5.959637    0.636784
    105          1           0       16.691901   -5.397382    2.128969
    106          1           0       18.179639   -4.736114    0.394220
    107          1           0       19.344310   -2.948539   -1.130096
 ---------------------------------------------------------------------
 Rotational constants (GHZ):           0.0927555           0.0037791           0.0036634
 Leave Link  202 at Thu Jul 23 15:13:45 2020, MaxMem=  4026531840 cpu:               0.1 elap:               0.0
 (Enter /opt/ohpc/pub/libs/gaussian/g16-A.03/sandybridge/g16/l301.exe)
 Standard basis: CC-pVDZ (5D, 7F)
 Ernie: Thresh=  0.10000D-02 Tol=  0.10000D-05 Strict=F.
 Ernie:  180 primitive shells out of 1865 were deleted.
 There are  1255 symmetry adapted cartesian basis functions of A   symmetry.
 There are  1185 symmetry adapted basis functions of A   symmetry.
  1185 basis functions,  2759 primitive gaussians,  1255 cartesian basis functions
   266 alpha electrons      266 beta electrons
       nuclear repulsion energy      9698.7204433062 Hartrees.
 IExCor=32609 DFT=T Ex+Corr=LC-wPBE ExCW=0 ScaHFX=  1.000000
 ScaDFX=  1.000000  0.000000  1.000000  1.000000 ScalE2=  1.000000  1.000000
 IRadAn=      5 IRanWt=     -1 IRanGd=            0 ICorTp=0 IEmpDi=  4
 HFx  wShort=  0.000000 wLong=  0.299000 cFull=  0.000000 cShort=  0.000000 cLong=  1.000000
 DFx  wShort=  0.000000 wLong=  0.299000 cFull=  0.000000 cShort=  0.000000 cLong=  1.000000
 NAtoms=  107 NActive=  107 NUniq=  107 SFac= 1.00D+00 NAtFMM=   60 NAOKFM=T Big=T
 Integral buffers will be    131072 words long.
[...]
  Beta virt. eigenvalues --    1.44831   1.45183   1.45245   1.45424   1.45671
  Beta virt. eigenvalues --    1.46003   1.46139   1.46482   1.46782   1.46828
  Beta virt. eigenvalues --    1.47015   1.47208   1.47316   1.47377   1.47627
  Beta virt. eigenvalues --    1.47644   1.47957   1.48196   1.48355   1.48954
  Beta virt. eigenvalues --    1.49012   1.51628   1.51850   1.52994   1.53222
  Beta virt. eigenvalues --    1.53417   1.53725   1.54060   1.54340   1.54609
  Beta virt. eigenvalues --    1.54716   1.54907   1.55089   1.55215   1.55697
  Beta virt. eigenvalues --    1.56230   1.56344   1.56521   1.56920   1.57589
  Beta virt. eigenvalues --    1.57846   1.57991   1.58072   1.58393   1.58631
  Beta virt. eigenvalues --    1.58959   1.59221   1.59433   1.59704   1.59870
  Beta virt. eigenvalues --    1.60116   1.60408   1.60858   1.60991   1.61195
  Beta virt. eigenvalues --    1.61344   1.61492   1.61659   1.62056   1.62230
  Beta virt. eigenvalues --    1.62627   1.62852   1.63209   1.63597   1.63980
  Beta virt. eigenvalues --    1.64383   1.64696   1.65052   1.65391   1.65405
  Beta virt. eigenvalues --    1.65712   1.66367   1.66474   1.66942   1.67164
  Beta virt. eigenvalues --    1.67470   1.67549   1.67639   1.67863   1.68065
  Beta virt. eigenvalues --    1.68524   1.68751   1.69051   1.69315   1.69814
  Beta virt. eigenvalues --    1.69887   1.69940   1.70422   1.70572   1.70843
  Beta virt. eigenvalues --    1.70854   1.71221   1.71488   1.71546   1.71689
  Beta virt. eigenvalues --    1.71864   1.72209   1.72403   1.72556   1.72759
  Beta virt. eigenvalues --    1.72884   1.72949   1.73142   1.73305   1.73320
  Beta virt. eigenvalues --    1.73471   1.73522   1.73662   1.74036   1.74161
  Beta virt. eigenvalues --    1.74179   1.74365   1.74453   1.74571   1.74722
  Beta virt. eigenvalues --    1.74827   1.75129   1.75574   1.75717   1.76365
  Beta virt. eigenvalues --    1.77148   1.77259   1.77413   1.77746   1.77840
  Beta virt. eigenvalues --    1.77975   1.78262   1.78755   1.78861   1.79052
  Beta virt. eigenvalues --    1.79541   1.79930   1.80027   1.80375   1.80721
  Beta virt. eigenvalues --    1.81118   1.81310   1.81865   1.82149   1.82413
  Beta virt. eigenvalues --    1.82743   1.83061   1.83422   1.83453   1.83949
  Beta virt. eigenvalues --    1.84354   1.84926   1.84987   1.85234   1.85496
  Beta virt. eigenvalues --    1.85838   1.86005   1.86377   1.86813   1.86974
  Beta virt. eigenvalues --    1.87050   1.87207   1.87424   1.87824   1.88264
  Beta virt. eigenvalues --    1.88827   1.89298   1.89728   1.89957   1.90870
  Beta virt. eigenvalues --    1.91261   1.91365   1.91770   1.92163   1.92557
  Beta virt. eigenvalues --    1.92733   1.93194   1.93284   1.93713   1.93922
  Beta virt. eigenvalues --    1.94426   1.94574   1.94874   1.94916   1.95238
  Beta virt. eigenvalues --    1.95380   1.95854   1.96025   1.96175   1.96537
  Beta virt. eigenvalues --    1.97144   1.97336   1.97544   1.98102   1.98295
  Beta virt. eigenvalues --    1.98635   1.98913   1.98980   1.99105   1.99590
  Beta virt. eigenvalues --    1.99703   1.99807   2.00157   2.00302   2.00476
  Beta virt. eigenvalues --    2.00881   2.01343   2.01614   2.02226   2.02291
  Beta virt. eigenvalues --    2.03389   2.03690   2.04363   2.05207   2.05603
  Beta virt. eigenvalues --    2.05703   2.06049   2.06609   2.07070   2.07567
  Beta virt. eigenvalues --    2.07783   2.08091   2.08269   2.08402   2.09995
  Beta virt. eigenvalues --    2.10382   2.10418   2.10739   2.11045   2.11409
  Beta virt. eigenvalues --    2.11708   2.11907   2.12020   2.12071   2.12312
  Beta virt. eigenvalues --    2.13227   2.13648   2.13757   2.13989   2.14171
  Beta virt. eigenvalues --    2.14539   2.14733   2.14818   2.15268   2.15819
  Beta virt. eigenvalues --    2.16305   2.16448   2.16633   2.16916   2.17839
  Beta virt. eigenvalues --    2.18087   2.18297   2.18740   2.19278   2.19894
  Beta virt. eigenvalues --    2.20159   2.20648   2.20701   2.21274   2.21412
  Beta virt. eigenvalues --    2.21585   2.21798   2.22100   2.26284   2.26634
  Beta virt. eigenvalues --    2.26946   2.27283   2.27695   2.28770   2.29227
  Beta virt. eigenvalues --    2.29439   2.29601   2.30212   2.30791   2.31709
  Beta virt. eigenvalues --    2.31815   2.31920   2.32711   2.33280   2.33392
  Beta virt. eigenvalues --    2.33514   2.33812   2.34938   2.35884   2.36498
  Beta virt. eigenvalues --    2.36979   2.37285   2.39729   2.42030   2.42244
  Beta virt. eigenvalues --    2.42609   2.43071   2.43397   2.44072   2.45344
  Beta virt. eigenvalues --    2.45632   2.45683   2.45746   2.45813   2.46099
  Beta virt. eigenvalues --    2.46138   2.46523   2.46615   2.46848   2.47372
  Beta virt. eigenvalues --    2.47972   2.48326   2.48692   2.50069   2.50191
  Beta virt. eigenvalues --    2.50415   2.50916   2.50940   2.51675   2.52759
  Beta virt. eigenvalues --    2.53079   2.53356   2.53701   2.53756   2.54046
  Beta virt. eigenvalues --    2.54135   2.54276   2.54350   2.55423   2.57656
  Beta virt. eigenvalues --    2.58026   2.58363   2.58708   2.58951   2.59151
  Beta virt. eigenvalues --    2.59198   2.59646   2.59720   2.61712   2.62170
  Beta virt. eigenvalues --    2.62628   2.63067   2.63363   2.63635   2.68129
  Beta virt. eigenvalues --    2.69998   2.71204   2.72033   2.72635   2.73532
  Beta virt. eigenvalues --    2.75555   2.76092   2.77178   2.77687   2.78681
  Beta virt. eigenvalues --    2.79585   2.79627   2.80304   2.80696   2.84212
  Beta virt. eigenvalues --    2.84889   2.85257   2.86171   2.86203   2.89981
  Beta virt. eigenvalues --    2.90210   2.90913   2.91549   2.92674   2.94858
  Beta virt. eigenvalues --    2.94899   2.95168   2.95243   2.97327   3.01702
  Beta virt. eigenvalues --    3.03138   3.03368   3.05320   3.06873   3.07699
  Beta virt. eigenvalues --    3.07746   3.07814   3.07897   3.09373   3.11147
  Beta virt. eigenvalues --    3.11732   3.11956   3.12009   3.12064   3.39245
  Beta virt. eigenvalues --    3.39537   3.39783   3.40100   3.42823   3.44385
  Beta virt. eigenvalues --    3.44628   3.44835   3.45035   3.50239   3.50785
  Beta virt. eigenvalues --    3.51306   3.51678   3.52291   3.52545   3.62952
  Beta virt. eigenvalues --    3.63033   3.63070   3.63122   3.64859   3.67438
  Beta virt. eigenvalues --    3.67538   3.67595   3.67633   3.68662   3.81651
  Beta virt. eigenvalues --    3.81655   3.81708   3.81724   3.83563   4.03921
  Beta virt. eigenvalues --    4.03929   4.04021   4.04033   4.05883   4.24911
  Beta virt. eigenvalues --    4.24950   4.25044   4.25073   4.26809
          Condensed to atoms (all electrons):
          Atomic-Atomic Spin Densities.
 Mulliken charges and spin densities:
               1          2
     1  C    0.021307   0.000000
     2  C    0.017881  -0.000000
     3  C    0.021102  -0.000000
     4  C   -0.023329   0.000000
     5  C    0.107492  -0.000000
     6  F   -0.119097   0.000000
     7  C    0.003785   0.000000
     8  C   -0.213755   0.000000
     9  C    0.179567  -0.000000
    10  O   -0.237469   0.000000
    11  C    0.053912  -0.000000
    12  C   -0.011260  -0.000000
    13  C   -0.151833   0.000000
    14  S    0.174531  -0.000000
    15  C    0.066765  -0.000000
    16  C    0.010720   0.000000
    17  C    0.008695   0.000000
    18  C    0.019711   0.000000
    19  C    0.086498  -0.000000
    20  F   -0.130177  -0.000000
    21  C    0.000417   0.000000
    22  C   -0.181937  -0.000000
    23  C    0.152021  -0.000000
    24  O   -0.257543   0.000000
    25  C    0.057661  -0.000000
    26  C    0.001424   0.000000
    27  C   -0.153537  -0.000000
    28  S    0.181482   0.000000
    29  C    0.064023   0.000000
    30  C    0.010605  -0.000000
    31  C    0.008635   0.000000
    32  C    0.020699  -0.000000
    33  C    0.086166   0.000000
    34  F   -0.129739   0.000000
    35  C    0.000692   0.000000
    36  C   -0.182204   0.000000
    37  C    0.151415  -0.000000
    38  O   -0.257321   0.000000
    39  C    0.057832  -0.000000
    40  C    0.001725   0.000000
    41  C   -0.152314  -0.000000
    42  S    0.182259   0.000000
    43  C    0.061914   0.000000
    44  C    0.008263  -0.000000
    45  C    0.010566   0.000000
    46  C    0.021263  -0.000000
    47  C    0.082696   0.000000
    48  F   -0.128369  -0.000000
    49  C    0.006362  -0.000000
    50  C   -0.182624  -0.000000
    51  C    0.151257   0.000000
    52  O   -0.258263  -0.000000
    53  C    0.057882  -0.000000
    54  C    0.001243  -0.000000
    55  C   -0.153127  -0.000000
    56  S    0.183871   0.000000
    57  C    0.063247   0.000000
    58  C    0.009352  -0.000000
    59  C    0.011130   0.000000
    60  C    0.022959  -0.000000
    61  C    0.088988   0.000000
    62  F   -0.130165   0.000000
    63  C   -0.001183   0.000000
    64  C   -0.193921  -0.000000
    65  C    0.137337   0.000000
    66  O   -0.255313   0.000000
    67  C    0.055161  -0.000000
    68  C    0.015423  -0.000000
    69  C   -0.128084   0.000000
    70  S    0.180761  -0.000000
    71  H   -0.001621  -0.000000
    72  H   -0.006105  -0.000000
    73  H   -0.008127  -0.000000
    74  H    0.005670  -0.000000
    75  H    0.044523  -0.000000
    76  H    0.055217  -0.000000
    77  H    0.044379   0.000000
    78  H   -0.001142  -0.000000
    79  H   -0.010413   0.000000
    80  H   -0.002522  -0.000000
    81  H   -0.003410   0.000000
    82  H    0.047012   0.000000
    83  H    0.056010  -0.000000
    84  H    0.050232  -0.000000
    85  H   -0.001937  -0.000000
    86  H   -0.006243   0.000000
    87  H   -0.002073   0.000000
    88  H   -0.004089  -0.000000
    89  H    0.056300   0.000000
    90  H    0.049874   0.000000
    91  H    0.046470   0.000000
    92  H   -0.002616   0.000000
    93  H   -0.019343  -0.000000
    94  H   -0.003216   0.000000
    95  H    0.008251  -0.000000
    96  H    0.050183  -0.000000
    97  H    0.047379   0.000000
    98  H    0.054817   0.000000
    99  H   -0.002217   0.000000
   100  H   -0.005723  -0.000000
   101  H   -0.001318   0.000000
   102  H   -0.004508   0.000000
   103  H    0.056608   0.000000
   104  H    0.047175   0.000000
   105  H    0.048146   0.000000
   106  H    0.000983  -0.000000
   107  H    0.031260  -0.000000
 Sum of Mulliken charges =  -0.00000  -0.00000
 Mulliken charges and spin densities with hydrogens summed into heavy atoms:
               1          2
     1  C    0.019686   0.000000
     2  C    0.011776  -0.000000
     3  C    0.012976  -0.000000
     4  C   -0.023329   0.000000
     5  C    0.107492  -0.000000
     6  F   -0.119097   0.000000
     7  C    0.009455   0.000000
     8  C   -0.213755   0.000000
     9  C    0.179567  -0.000000
    10  O   -0.237469   0.000000
    11  C    0.198031  -0.000000
    12  C   -0.012402  -0.000000
    13  C   -0.151833   0.000000
    14  S    0.174531  -0.000000
    15  C    0.066765  -0.000000
    16  C    0.000307   0.000000
    17  C    0.006172   0.000000
    18  C    0.019711   0.000000
    19  C    0.086498  -0.000000
    20  F   -0.130177  -0.000000
    21  C   -0.002993   0.000000
    22  C   -0.181937  -0.000000
    23  C    0.152021  -0.000000
    24  O   -0.257543   0.000000
    25  C    0.210916  -0.000000
    26  C   -0.000513   0.000000
    27  C   -0.153537  -0.000000
    28  S    0.181482   0.000000
    29  C    0.064023   0.000000
    30  C    0.004362  -0.000000
    31  C    0.006562   0.000000
    32  C    0.020699  -0.000000
    33  C    0.086166   0.000000
    34  F   -0.129739   0.000000
    35  C   -0.003396  -0.000000
    36  C   -0.182204   0.000000
    37  C    0.151415  -0.000000
    38  O   -0.257321   0.000000
    39  C    0.210476  -0.000000
    40  C   -0.000891   0.000000
    41  C   -0.152314  -0.000000
    42  S    0.182259   0.000000
    43  C    0.061914   0.000000
    44  C   -0.011080  -0.000000
    45  C    0.007350   0.000000
    46  C    0.021263  -0.000000
    47  C    0.082696   0.000000
    48  F   -0.128369  -0.000000
    49  C    0.014613  -0.000000
    50  C   -0.182624  -0.000000
    51  C    0.151257   0.000000
    52  O   -0.258263  -0.000000
    53  C    0.210261  -0.000000
    54  C   -0.000974  -0.000000
    55  C   -0.153127  -0.000000
    56  S    0.183871   0.000000
    57  C    0.063247   0.000000
    58  C    0.003629  -0.000000
    59  C    0.009812   0.000000
    60  C    0.022959  -0.000000
    61  C    0.088988   0.000000
    62  F   -0.130165   0.000000
    63  C   -0.005691   0.000000
    64  C   -0.193921  -0.000000
    65  C    0.137337   0.000000
    66  O   -0.255313   0.000000
    67  C    0.207089  -0.000000
    68  C    0.016406  -0.000000
    69  C   -0.096824   0.000000
    70  S    0.180761  -0.000000
 Electronic spatial extent (au):  <R**2>=         260731.9503
 Charge=              0.0000 electrons
 Dipole moment (field-independent basis, Debye):
    X=              3.9109    Y=              0.5129    Z=             -0.9952  Tot=              4.0680
 Quadrupole moment (field-independent basis, Debye-Ang):
   XX=           -373.6995   YY=           -337.7354   ZZ=           -440.1290
   XY=            -11.9425   XZ=              4.7166   YZ=              1.2867
 Traceless Quadrupole moment (field-independent basis, Debye-Ang):
   XX=             10.1552   YY=             46.1192   ZZ=            -56.2744
   XY=            -11.9425   XZ=              4.7166   YZ=              1.2867
 Octapole moment (field-independent basis, Debye-Ang**2):
  XXX=            964.8135  YYY=             19.1975  ZZZ=              1.8094  XYY=            353.0612
  XXY=           -552.9183  XXZ=           -325.1526  XZZ=            -17.2083  YZZ=              7.9444
  YYZ=            -21.5494  XYZ=            140.3844
 Hexadecapole moment (field-independent basis, Debye-Ang**3):
 XXXX=        -298411.0684 YYYY=         -11773.2476 ZZZZ=          -1220.8375 XXXY=         -10125.5191
 XXXZ=            -35.2038 YYYX=          -1452.0005 YYYZ=             84.2157 ZZZX=            -24.7419
 ZZZY=            -14.0586 XXYY=         -46058.1789 XXZZ=         -57769.2918 YYZZ=          -2629.0777
 XXYZ=            789.0276 YYXZ=            -55.7058 ZZXY=           -247.8909
 N-N= 9.678710246332D+03 E-N=-3.107598951677D+04  KE= 4.958156408856D+03
 Leave Link  601 at Fri Jul 24 00:04:12 2020, MaxMem=  4026531840 cpu:              16.2 elap:               2.2
 (Enter /opt/ohpc/pub/libs/gaussian/g16-A.03/sandybridge/g16/l9999.exe)

 Test job not archived.
 1\1\GINC-SKYLAKE052\FOpt\ULC-wPBE\CC-pVDZ\C55H37F5O5S5\RDU230\24-Jul-2
 020\0\\#P uLC-wPBE/cc-pVDZ iop(3/107=0299000000, 3/108=0299000000) opt
 \\H37 C55 S5 O5 F5\\0,1\C,-19.3057762684,-2.4405110986,0.1407979818\C,
 -18.2938265872,-3.1554680577,-0.4994047858\C,-17.0234334963,-2.5989463
 333,-0.6242676925\C,-16.7264791837,-1.3276197413,-0.1114714062\C,-17.7
 620816878,-0.6472952693,0.5392982033\F,-17.5155777482,0.5573847667,1.0
 851494574\C,-19.0392562471,-1.1774723736,0.6642531128\C,-15.3809403077
 ,-0.7397432971,-0.2269029701\C,-15.0294876728,0.512781149,-0.687184136
 2\O,-15.9836162361,1.3721151049,-1.1219724859\C,-15.5533694168,2.66646
 95998,-1.4963037033\C,-13.6188972815,0.7360206372,-0.6869899519\C,-12.
 9083681116,-0.3513466362,-0.2367521193\S,-13.9667866758,-1.6431688381,
 0.2034481933\C,-11.4472658812,-0.4821290152,-0.1005762505\C,-10.798471
 1393,-1.7170927987,-0.2349200122\C,-9.4185726515,-1.8221048256,-0.1115
 586815\C,-8.605015342,-0.7042033359,0.1490431955\C,-9.2852938723,0.515
 7848208,0.2699495592\F,-8.5776005115,1.6431259579,0.5159139816\C,-10.6
 586539845,0.6446217817,0.1582402394\C,-7.1444158945,-0.8162486904,0.28
 38113114\C,-6.3965004492,-1.9525177638,0.5588235169\O,-7.0001480982,-3
 .1485406935,0.7953304307\C,-6.1638100108,-4.22589274,1.1773853244\C,-4
 .9903655438,-1.7235810038,0.5723211746\C,-4.6654551541,-0.4155550101,0
 .3039713032\S,-6.076400172,0.5351705787,0.0396840639\C,-3.3209188088,0
 .1833186152,0.241450291\C,-3.0906149471,1.5243245035,0.5776014845\C,-1
 .8147670361,2.0711965539,0.5187610736\C,-0.6953484928,1.3153470729,0.1
 247132603\C,-0.9603165034,-0.0234144246,-0.1969973463\F,0.0615012237,-
 0.8235397405,-0.581184558\C,-2.2223670866,-0.5892921422,-0.1520688409\
 C,0.6544436278,1.896175861,0.0574495264\C,1.0048573707,3.2369653929,-0
 .0179745052\O,0.053569013,4.2066913658,-0.0918404954\C,0.5042894257,5.
 536344379,-0.2778271051\C,2.4116607843,3.4627051197,-0.018964173\C,3.1
 336708747,2.2961741271,0.0599238538\S,2.0956804848,0.9243060739,0.1307
 776488\C,4.5993590133,2.1475551368,0.0759846437\C,5.4162296326,3.13911
 50654,0.6369897087\C,6.799426801,3.011478955,0.6444644774\C,7.44866113
 02,1.8884951494,0.0986565388\C,6.6014511993,0.9105367198,-0.4408692873
 \F,7.1438340326,-0.206675321,-0.9774893786\C,5.2215771732,1.0172437792
 ,-0.4653874225\C,8.9137358293,1.7565737718,0.1019086627\C,9.8616056789
 ,2.7598265831,0.2475835061\O,9.4904134961,4.064158437,0.3607792737\C,1
 0.5293022739,5.026015843,0.3982827637\C,11.2041674379,2.28334605,0.253
 457895\C,11.2805976493,0.9180387744,0.1165530441\S,9.7144189927,0.2171
 694376,-0.0234992011\C,12.4946328405,0.0842638031,0.0734375299\C,12.54
 45888933,-1.1140537188,-0.651526916\C,13.7002952616,-1.8847871643,-0.6
 862432999\C,14.8707152793,-1.5062718418,-0.004482346\C,14.7886799947,-
 0.2995485242,0.7038091181\F,15.8732213156,0.1407444241,1.3830213644\C,
 13.6480598144,0.482424869,0.7587883464\C,16.0925288775,-2.3267811935,-
 0.0373820327\C,16.2016512741,-3.6782625146,-0.3310606747\O,15.09832286
 35,-4.4295906584,-0.5955614694\C,15.2960058692,-5.8214551127,-0.765406
 8114\C,17.5469079785,-4.1591726794,-0.3220122186\C,18.4394176243,-3.16
 54798508,-0.0290169133\S,17.6753632453,-1.6635210446,0.2519522842\H,-2
 0.3094923082,-2.8670380051,0.2376193789\H,-18.4962564999,-4.1485684797
 ,-0.9125139434\H,-16.2308262286,-3.1501633668,-1.1417383892\H,-19.8031
 885856,-0.5913511485,1.183398294\H,-15.0492805392,3.1866318924,-0.6599
 589719\H,-16.461011226,3.2241199144,-1.7698068591\H,-14.874109151,2.63
 62172926,-2.3695795555\H,-13.1360631069,1.6484200311,-1.0414377383\H,-
 11.3827220115,-2.6149646115,-0.4617196089\H,-8.9420940028,-2.796799383
 1,-0.2249615646\H,-11.098291228,1.6355188643,0.301228639\H,-5.44804492
 66,-4.4908455424,0.3766356927\H,-6.8307656765,-5.0812299468,1.35918075
 55\H,-5.6072898808,-3.9979255657,2.1053734673\H,-4.2417059459,-2.48253
 82941,0.8040517315\H,-3.9235424912,2.1505611446,0.9135051925\H,-1.6664
 835693,3.1170717732,0.7907490412\H,-2.3305244625,-1.6348511806,-0.4533
 696009\H,-0.3997642093,6.15838468,-0.3501574106\H,1.0895571764,5.63945
 9746,-1.2104187642\H,1.1136163182,5.8841333873,0.5774694788\H,2.882095
 4528,4.4427591432,-0.1095534241\H,4.9591808552,4.0182107899,1.10153452
 98\H,7.4092238553,3.7976464608,1.091826066\H,4.6486414778,0.2106828343
 ,-0.9327844126\H,11.1523768182,4.9860085834,-0.5144440295\H,11.1740451
 655,4.8961186337,1.2877356604\H,10.0359441814,6.007378507,0.4538244328
 \H,12.087195935,2.9203915667,0.3213322901\H,11.6678084608,-1.442369298
 3,-1.2192039919\H,13.7105470523,-2.811290179,-1.2621683922\H,13.673675
 5839,1.39161947,1.3657609842\H,14.2972946869,-6.2560314487,-0.91809198
 27\H,15.9228801943,-6.0401793862,-1.650340969\H,15.7556855727,-6.27828
 64123,0.1307495287\H,17.8418912286,-5.1903828772,-0.5212565367\H,19.52
 42462584,-3.2515473953,0.050442828\\Version=EM64L-G16RevA.03\State=1-A
 \HF=-4981.6134875\S2=0.\S2-1=0.\S2A=0.\RMSD=9.255e-09\RMSF=1.596e-06\D
 ipole=1.5395529,0.2110828,-0.3830675\Quadrupole=7.5349942,34.1992906,-
 41.7342848,-8.9669173,3.4077005,2.7495086\PG=C01 [X(C55H37F5O5S5)]\\@


 IF IT'S NOT TRUE, IT'S WELL INVENTED -- DANTE
 Job cpu time:       2 days 21 hours 45 minutes 12.3 seconds.
 Elapsed time:       0 days  8 hours 50 minutes 21.7 seconds.
 File lengths (MBytes):  RWF=   1588 Int=      0 D2E=      0 Chk=    144 Scr=      8
 Normal termination of Gaussian 16 at Fri Jul 24 00:04:12 2020.
