 Entering Gaussian System, Link 0=g16
 Input=mols_65_7_04_c-n-C_opt_0.gjf
 Output=mols_65_7_04_c-n-C_opt_0.log
 Initial command:
 /opt/ohpc/pub/libs/gaussian/g16-A.03/sandybridge/g16/l1.exe "/mnt/gpfs2_4m/scratch/rdu230/ondemand/projects/dihedral_energies/7trial/wtuning/mols_65_7_04_c-n-C/Gau-10673.inp" -scrdir="/mnt/gpfs2_4m/scratch/rdu230/ondemand/projects/dihedral_energies/7trial/wtuning/mols_65_7_04_c-n-C/"
 Entering Link 1 = /opt/ohpc/pub/libs/gaussian/g16-A.03/sandybridge/g16/l1.exe PID=     10675.
  
 Copyright (c) 1988,1990,1992,1993,1995,1998,2003,2009,2016,
            Gaussian, Inc.  All Rights Reserved.
  
 This is part of the Gaussian(R) 16 program.  It is based on
 the Gaussian(R) 09 system (copyright 2009, Gaussian, Inc.),
 the Gaussian(R) 03 system (copyright 2003, Gaussian, Inc.),
 the Gaussian(R) 98 system (copyright 1998, Gaussian, Inc.),
 the Gaussian(R) 94 system (copyright 1995, Gaussian, Inc.),
 the Gaussian 92(TM) system (copyright 1992, Gaussian, Inc.),
 the Gaussian 90(TM) system (copyright 1990, Gaussian, Inc.),
 the Gaussian 88(TM) system (copyright 1988, Gaussian, Inc.),
 the Gaussian 86(TM) system (copyright 1986, Carnegie Mellon
 University), and the Gaussian 82(TM) system (copyright 1983,
 Carnegie Mellon University). Gaussian is a federally registered
 trademark of Gaussian, Inc.
  
 This software contains proprietary and confidential information,
 including trade secrets, belonging to Gaussian, Inc.
  
 This software is provided under written license and may be
 used, copied, transmitted, or stored only in accord with that
 written license.
  
 The following legend is applicable only to US Government
 contracts under FAR:
  
                    RESTRICTED RIGHTS LEGEND
  
 Use, reproduction and disclosure by the US Government is
 subject to restrictions as set forth in subparagraphs (a)
 and (c) of the Commercial Computer Software - Restricted
 Rights clause in FAR 52.227-19.
  
 Gaussian, Inc.
 340 Quinnipiac St., Bldg. 40, Wallingford CT 06492
  
  
 ---------------------------------------------------------------
 Warning -- This program may not be used in any manner that
 competes with the business of Gaussian, Inc. or will provide
 assistance to any competitor of Gaussian, Inc.  The licensee
 of this program is prohibited from giving any competitor of
 Gaussian, Inc. access to this program.  By using this program,
 the user acknowledges that Gaussian, Inc. is engaged in the
 business of creating and licensing software in the field of
 computational chemistry and represents and warrants to the
 licensee that it is not a competitor of Gaussian, Inc. and that
 it will not use this program in any manner prohibited above.
 ---------------------------------------------------------------
  

 Cite this work as:
 Gaussian 16, Revision A.03,
 M. J. Frisch, G. W. Trucks, H. B. Schlegel, G. E. Scuseria, 
 M. A. Robb, J. R. Cheeseman, G. Scalmani, V. Barone, 
 G. A. Petersson, H. Nakatsuji, X. Li, M. Caricato, A. V. Marenich, 
 J. Bloino, B. G. Janesko, R. Gomperts, B. Mennucci, H. P. Hratchian, 
 J. V. Ortiz, A. F. Izmaylov, J. L. Sonnenberg, D. Williams-Young, 
 F. Ding, F. Lipparini, F. Egidi, J. Goings, B. Peng, A. Petrone, 
 T. Henderson, D. Ranasinghe, V. G. Zakrzewski, J. Gao, N. Rega, 
 G. Zheng, W. Liang, M. Hada, M. Ehara, K. Toyota, R. Fukuda, 
 J. Hasegawa, M. Ishida, T. Nakajima, Y. Honda, O. Kitao, H. Nakai, 
 T. Vreven, K. Throssell, J. A. Montgomery, Jr., J. E. Peralta, 
 F. Ogliaro, M. J. Bearpark, J. J. Heyd, E. N. Brothers, K. N. Kudin, 
 V. N. Staroverov, T. A. Keith, R. Kobayashi, J. Normand, 
 K. Raghavachari, A. P. Rendell, J. C. Burant, S. S. Iyengar, 
 J. Tomasi, M. Cossi, J. M. Millam, M. Klene, C. Adamo, R. Cammi, 
 J. W. Ochterski, R. L. Martin, K. Morokuma, O. Farkas, 
 J. B. Foresman, and D. J. Fox, Gaussian, Inc., Wallingford CT, 2016.
 
 ******************************************
 Gaussian 16:  EM64L-G16RevA.03 25-Dec-2016
                23-Jul-2020 
 ******************************************
 %mem=30GB
 %nproc=8
 Will use up to    8 processors via shared memory.
 ---------------------------------------------------------------
 #P uLC-wPBE/cc-pVDZ iop(3/107=0420000000, 3/108=0420000000) opt
 ---------------------------------------------------------------
 1/18=20,19=15,26=3,38=1/1,3;
 2/9=110,12=2,17=6,18=5,40=1/2;
 3/5=16,11=2,25=1,30=1,71=1,74=-41,107=420000000,108=420000000,116=2/1,2,3;
 4//1;
 5/5=2,38=5/2;
 6/7=2,8=2,9=2,10=2,28=1/1;
 7//1,2,3,16;
 1/18=20,19=15,26=3/3(2);
 2/9=110/2;
 99//99;
 2/9=110/2;
 3/5=16,11=2,25=1,30=1,71=1,74=-41,107=420000000,108=420000000,116=2/1,2,3;
 4/5=5,16=3,69=1/1;
 5/5=2,38=5/2;
 7//1,2,3,16;
 1/18=20,19=15,26=3/3(-5);
 2/9=110/2;
 6/7=2,8=2,9=2,10=2,19=2,28=1/1;
 99/9=1/99;
 Leave Link    1 at Thu Jul 23 15:37:56 2020, MaxMem=  4026531840 cpu:               2.0 elap:               0.3
 (Enter /opt/ohpc/pub/libs/gaussian/g16-A.03/sandybridge/g16/l101.exe)
 -------------
 H37 C63 S7 N7
 -------------
 Symbolic Z-matrix:
 Charge =  0 Multiplicity = 1
 C                     26.08293   4.70269  -0.94112 
 C                     25.4316   5.35463   0.05446 
 C                     24.16693   4.97563   0.53979 
 C                     23.55001   3.9515   -0.13197 
 N                     24.10468   3.19633  -1.16876 
 C                     25.38762   3.67079  -1.50181 
 C                     22.2043   3.44397   0.2488 
 C                     21.58589   3.56953   1.53269 
 C                     20.29678   2.91843   1.56229 
 C                     19.99707   2.18888   0.38125 
 S                     21.195    2.51282  -0.83554 
 C                     18.7697   1.40744   0.03444 
 C                     18.83007   0.26984  -0.80825 
 C                     17.76124  -0.49234  -0.99099 
 C                     16.5241  -0.10861  -0.34344 
 N                     16.49535   0.97844   0.39963 
 C                     17.56287   1.76268   0.5829 
 C                     15.28377  -0.93005  -0.5069 
 C                     15.06382  -2.18273  -1.06187 
 C                     13.76483  -2.56083  -1.00651 
 C                     12.94429  -1.65643  -0.41982 
 S                     13.79792  -0.21558  -0.01665 
 C                     11.45867  -1.73285  -0.25814 
 C                     10.64278  -2.36594  -1.18218 
 C                     9.19932  -2.40322  -0.95408 
 C                     8.73833  -1.98198   0.32223 
 N                     9.56801  -1.37462   1.25403 
 C                     10.91448  -1.34355   0.96551 
 C                     7.3343   -1.9803    0.71992 
 C                     6.74657  -1.51286   1.84474 
 C                     5.34806  -1.69292   1.95314 
 C                     4.82556  -2.29577   0.74018 
 S                     6.1268   -2.63491  -0.32845 
 C                     3.48744  -2.61977   0.48767 
 C                     3.02466  -3.89597   0.00532 
 C                     1.68952  -4.12604  -0.27372 
 C                     0.75113  -3.22003   0.12345 
 N                     1.10844  -1.94618   0.60859 
 C                     2.39614  -1.74627   0.79445 
 C                    -0.70472  -3.47547  -0.03131 
 C                    -1.3705   -4.54928  -0.38966 
 C                    -2.83031  -4.41681  -0.37578 
 C                    -3.24041  -3.19118  -0.0145 
 S                    -1.82699  -2.22224   0.27048 
 C                    -4.57386  -2.58342   0.12032 
 C                    -5.55408  -3.05231  -0.75397 
 C                    -6.89613  -2.54092  -0.58178 
 C                    -7.15801  -1.62243   0.45651 
 N                    -6.10963  -1.22031   1.27047 
 C                    -4.86171  -1.73896   1.14758 
 C                    -8.41383  -0.99759   0.69967 
 C                    -8.74528   0.0173    1.67424 
 C                    -10.09878   0.42179   1.58575 
 C                    -10.82214  -0.27445   0.64783 
 S                    -9.84891  -1.30853  -0.15736 
 C                    -12.19851  -0.05997   0.3395 
 C                    -12.81145   1.18009   0.46799 
 C                    -14.21262   1.36743   0.12975 
 C                    -14.91602   0.20125  -0.2152 
 N                    -14.36131  -1.03363  -0.2684 
 C                    -13.07161  -1.09513  -0.05631 
 C                    -16.37029   0.20242  -0.49971 
 C                    -17.13312  -0.77145  -1.10687 
 C                    -18.55561  -0.41503  -1.16413 
 C                    -18.8538   0.87832  -0.65934 
 S                    -17.35119   1.55657   0.02137 
 C                    -20.06757   1.53187  -0.50285 
 C                    -20.28909   2.92604  -0.59037 
 C                    -21.51106   3.49794  -0.52472 
 C                    -22.63824   2.75738  -0.24243 
 N                    -22.54     1.41101  -0.21651 
 C                    -21.30346   0.87067  -0.31085 
 C                    -23.95181   3.25657  -0.10783 
 C                    -24.3405   4.60414   0.31937 
 C                    -25.7593   4.8138    0.32989 
 C                    -26.41454   3.61916  -0.12552 
 S                    -25.35699   2.34596  -0.5516 
 H                     26.98117   4.97745  -1.27011 
 H                     25.90017   6.23409   0.52244 
 H                     23.60081   5.52237   1.32647 
 H                     25.75587   3.10523  -2.35364 
 H                     21.97041   4.08239   2.38312 
 H                     19.64973   2.83743   2.45365 
 H                     19.77081  -0.0592   -1.24365 
 H                     17.81476  -1.37174  -1.66952 
 H                     17.41868   2.53518   1.22225 
 H                     15.89926  -2.72957  -1.44038 
 H                     13.40408  -3.62504  -1.36764 
 H                     10.96495  -2.71473  -2.14613 
 H                     8.59665  -2.89775  -1.65892 
 H                     11.40801  -0.87069   1.77646 
 H                     7.34146  -1.14404   2.62064 
 H                     4.69822  -1.48734   2.78378 
 H                     3.78263  -4.62821  -0.30139 
 H                     1.45294  -5.12573  -0.59374 
 H                     2.59618  -0.73773   1.13443 
 H                    -0.87809  -5.48723  -0.73437 
 H                    -3.48624  -5.27742  -0.65747 
 H                    -5.3579   -3.70511  -1.51903 
 H                    -7.61555  -2.80247  -1.30482 
 H                    -4.14779  -1.40494   1.88753 
 H                    -7.98752   0.41697   2.27217 
 H                    -10.45724   1.22517   2.24745 
 H                    -12.28762   2.09303   0.75855 
 H                    -14.63279   2.2823    0.20856 
 H                    -12.67093  -2.10717  -0.07889 
 H                    -16.7852  -1.62905  -1.48711 
 H                    -19.31538  -1.03213  -1.62431 
 H                    -19.42294   3.56728  -0.81231 
 H                    -21.61526   4.59435  -0.6069 
 H                    -21.30476  -0.23264  -0.24425 
 H                    -23.57622   5.2756    0.69583 
 H                    -26.18265   5.70585   0.67857 
 H                    -27.44819   3.547    -0.2684 
 
 ITRead=  0  0  0  0  0  0  0  0  0  0  0  0  0  0  0  0  0  0  0  0
 ITRead=  0  0  0  0  0  0  0  0  0  0  0  0  0  0  0  0  0  0  0  0
 ITRead=  0  0  0  0  0  0  0  0  0  0  0  0  0  0  0  0  0  0  0  0
 ITRead=  0  0  0  0  0  0  0  0  0  0  0  0  0  0  0  0  0  0  0  0
 ITRead=  0  0  0  0  0  0  0  0  0  0  0  0  0  0  0  0  0  0  0  0
 ITRead=  0  0  0  0  0  0  0  0  0  0  0  0  0  0
 MicOpt= -1 -1 -1 -1 -1 -1 -1 -1 -1 -1 -1 -1 -1 -1 -1 -1 -1 -1 -1 -1
 MicOpt= -1 -1 -1 -1 -1 -1 -1 -1 -1 -1 -1 -1 -1 -1 -1 -1 -1 -1 -1 -1
 MicOpt= -1 -1 -1 -1 -1 -1 -1 -1 -1 -1 -1 -1 -1 -1 -1 -1 -1 -1 -1 -1
 MicOpt= -1 -1 -1 -1 -1 -1 -1 -1 -1 -1 -1 -1 -1 -1 -1 -1 -1 -1 -1 -1
 MicOpt= -1 -1 -1 -1 -1 -1 -1 -1 -1 -1 -1 -1 -1 -1 -1 -1 -1 -1 -1 -1
 MicOpt= -1 -1 -1 -1 -1 -1 -1 -1 -1 -1 -1 -1 -1 -1
 NAtoms=    114 NQM=      114 NQMF=       0 NMMI=      0 NMMIF=      0
                NMic=       0 NMicF=      0.
                    Isotopes and Nuclear Properties:
 (Nuclear quadrupole moments (NQMom) in fm**2, nuclear magnetic moments (NMagM)
  in nuclear magnetons)

  Atom         1           2           3           4           5           6           7           8           9          10
 IAtWgt=          12          12          12          12          14          12          12          12          12          12
 AtmWgt=  12.0000000  12.0000000  12.0000000  12.0000000  14.0030740  12.0000000  12.0000000  12.0000000  12.0000000  12.0000000
 NucSpn=           0           0           0           0           2           0           0           0           0           0
 AtZEff=  -0.0000000  -0.0000000  -0.0000000  -0.0000000  -0.0000000  -0.0000000  -0.0000000  -0.0000000  -0.0000000  -0.0000000
 NQMom=    0.0000000   0.0000000   0.0000000   0.0000000   2.0440000   0.0000000   0.0000000   0.0000000   0.0000000   0.0000000
 NMagM=    0.0000000   0.0000000   0.0000000   0.0000000   0.4037610   0.0000000   0.0000000   0.0000000   0.0000000   0.0000000
 AtZNuc=   6.0000000   6.0000000   6.0000000   6.0000000   7.0000000   6.0000000   6.0000000   6.0000000   6.0000000   6.0000000

  Atom        11          12          13          14          15          16          17          18          19          20
 IAtWgt=          32          12          12          12          12          14          12          12          12          12
 AtmWgt=  31.9720718  12.0000000  12.0000000  12.0000000  12.0000000  14.0030740  12.0000000  12.0000000  12.0000000  12.0000000
 NucSpn=           0           0           0           0           0           2           0           0           0           0
 AtZEff=  -0.0000000  -0.0000000  -0.0000000  -0.0000000  -0.0000000  -0.0000000  -0.0000000  -0.0000000  -0.0000000  -0.0000000
 NQMom=    0.0000000   0.0000000   0.0000000   0.0000000   0.0000000   2.0440000   0.0000000   0.0000000   0.0000000   0.0000000
 NMagM=    0.0000000   0.0000000   0.0000000   0.0000000   0.0000000   0.4037610   0.0000000   0.0000000   0.0000000   0.0000000
 AtZNuc=  16.0000000   6.0000000   6.0000000   6.0000000   6.0000000   7.0000000   6.0000000   6.0000000   6.0000000   6.0000000

  Atom        21          22          23          24          25          26          27          28          29          30
 IAtWgt=          12          32          12          12          12          12          14          12          12          12
 AtmWgt=  12.0000000  31.9720718  12.0000000  12.0000000  12.0000000  12.0000000  14.0030740  12.0000000  12.0000000  12.0000000
 NucSpn=           0           0           0           0           0           0           2           0           0           0
 AtZEff=  -0.0000000  -0.0000000  -0.0000000  -0.0000000  -0.0000000  -0.0000000  -0.0000000  -0.0000000  -0.0000000  -0.0000000
 NQMom=    0.0000000   0.0000000   0.0000000   0.0000000   0.0000000   0.0000000   2.0440000   0.0000000   0.0000000   0.0000000
 NMagM=    0.0000000   0.0000000   0.0000000   0.0000000   0.0000000   0.0000000   0.4037610   0.0000000   0.0000000   0.0000000
 AtZNuc=   6.0000000  16.0000000   6.0000000   6.0000000   6.0000000   6.0000000   7.0000000   6.0000000   6.0000000   6.0000000

  Atom        31          32          33          34          35          36          37          38          39          40
 IAtWgt=          12          12          32          12          12          12          12          14          12          12
 AtmWgt=  12.0000000  12.0000000  31.9720718  12.0000000  12.0000000  12.0000000  12.0000000  14.0030740  12.0000000  12.0000000
 NucSpn=           0           0           0           0           0           0           0           2           0           0
 AtZEff=  -0.0000000  -0.0000000  -0.0000000  -0.0000000  -0.0000000  -0.0000000  -0.0000000  -0.0000000  -0.0000000  -0.0000000
 NQMom=    0.0000000   0.0000000   0.0000000   0.0000000   0.0000000   0.0000000   0.0000000   2.0440000   0.0000000   0.0000000
 NMagM=    0.0000000   0.0000000   0.0000000   0.0000000   0.0000000   0.0000000   0.0000000   0.4037610   0.0000000   0.0000000
 AtZNuc=   6.0000000   6.0000000  16.0000000   6.0000000   6.0000000   6.0000000   6.0000000   7.0000000   6.0000000   6.0000000

  Atom        41          42          43          44          45          46          47          48          49          50
 IAtWgt=          12          12          12          32          12          12          12          12          14          12
 AtmWgt=  12.0000000  12.0000000  12.0000000  31.9720718  12.0000000  12.0000000  12.0000000  12.0000000  14.0030740  12.0000000
 NucSpn=           0           0           0           0           0           0           0           0           2           0
 AtZEff=  -0.0000000  -0.0000000  -0.0000000  -0.0000000  -0.0000000  -0.0000000  -0.0000000  -0.0000000  -0.0000000  -0.0000000
 NQMom=    0.0000000   0.0000000   0.0000000   0.0000000   0.0000000   0.0000000   0.0000000   0.0000000   2.0440000   0.0000000
 NMagM=    0.0000000   0.0000000   0.0000000   0.0000000   0.0000000   0.0000000   0.0000000   0.0000000   0.4037610   0.0000000
 AtZNuc=   6.0000000   6.0000000   6.0000000  16.0000000   6.0000000   6.0000000   6.0000000   6.0000000   7.0000000   6.0000000

  Atom        51          52          53          54          55          56          57          58          59          60
 IAtWgt=          12          12          12          12          32          12          12          12          12          14
 AtmWgt=  12.0000000  12.0000000  12.0000000  12.0000000  31.9720718  12.0000000  12.0000000  12.0000000  12.0000000  14.0030740
 NucSpn=           0           0           0           0           0           0           0           0           0           2
 AtZEff=  -0.0000000  -0.0000000  -0.0000000  -0.0000000  -0.0000000  -0.0000000  -0.0000000  -0.0000000  -0.0000000  -0.0000000
 NQMom=    0.0000000   0.0000000   0.0000000   0.0000000   0.0000000   0.0000000   0.0000000   0.0000000   0.0000000   2.0440000
 NMagM=    0.0000000   0.0000000   0.0000000   0.0000000   0.0000000   0.0000000   0.0000000   0.0000000   0.0000000   0.4037610
 AtZNuc=   6.0000000   6.0000000   6.0000000   6.0000000  16.0000000   6.0000000   6.0000000   6.0000000   6.0000000   7.0000000

  Atom        61          62          63          64          65          66          67          68          69          70
 IAtWgt=          12          12          12          12          12          32          12          12          12          12
 AtmWgt=  12.0000000  12.0000000  12.0000000  12.0000000  12.0000000  31.9720718  12.0000000  12.0000000  12.0000000  12.0000000
 NucSpn=           0           0           0           0           0           0           0           0           0           0
 AtZEff=  -0.0000000  -0.0000000  -0.0000000  -0.0000000  -0.0000000  -0.0000000  -0.0000000  -0.0000000  -0.0000000  -0.0000000
 NQMom=    0.0000000   0.0000000   0.0000000   0.0000000   0.0000000   0.0000000   0.0000000   0.0000000   0.0000000   0.0000000
 NMagM=    0.0000000   0.0000000   0.0000000   0.0000000   0.0000000   0.0000000   0.0000000   0.0000000   0.0000000   0.0000000
 AtZNuc=   6.0000000   6.0000000   6.0000000   6.0000000   6.0000000  16.0000000   6.0000000   6.0000000   6.0000000   6.0000000

  Atom        71          72          73          74          75          76          77          78          79          80
 IAtWgt=          14          12          12          12          12          12          32           1           1           1
 AtmWgt=  14.0030740  12.0000000  12.0000000  12.0000000  12.0000000  12.0000000  31.9720718   1.0078250   1.0078250   1.0078250
 NucSpn=           2           0           0           0           0           0           0           1           1           1
 AtZEff=  -0.0000000  -0.0000000  -0.0000000  -0.0000000  -0.0000000  -0.0000000  -0.0000000  -0.0000000  -0.0000000  -0.0000000
 NQMom=    2.0440000   0.0000000   0.0000000   0.0000000   0.0000000   0.0000000   0.0000000   0.0000000   0.0000000   0.0000000
 NMagM=    0.4037610   0.0000000   0.0000000   0.0000000   0.0000000   0.0000000   0.0000000   2.7928460   2.7928460   2.7928460
 AtZNuc=   7.0000000   6.0000000   6.0000000   6.0000000   6.0000000   6.0000000  16.0000000   1.0000000   1.0000000   1.0000000

  Atom        81          82          83          84          85          86          87          88          89          90
 IAtWgt=           1           1           1           1           1           1           1           1           1           1
 AtmWgt=   1.0078250   1.0078250   1.0078250   1.0078250   1.0078250   1.0078250   1.0078250   1.0078250   1.0078250   1.0078250
 NucSpn=           1           1           1           1           1           1           1           1           1           1
 AtZEff=  -0.0000000  -0.0000000  -0.0000000  -0.0000000  -0.0000000  -0.0000000  -0.0000000  -0.0000000  -0.0000000  -0.0000000
 NQMom=    0.0000000   0.0000000   0.0000000   0.0000000   0.0000000   0.0000000   0.0000000   0.0000000   0.0000000   0.0000000
 NMagM=    2.7928460   2.7928460   2.7928460   2.7928460   2.7928460   2.7928460   2.7928460   2.7928460   2.7928460   2.7928460
 AtZNuc=   1.0000000   1.0000000   1.0000000   1.0000000   1.0000000   1.0000000   1.0000000   1.0000000   1.0000000   1.0000000

  Atom        91          92          93          94          95          96          97          98          99         100
 IAtWgt=           1           1           1           1           1           1           1           1           1           1
 AtmWgt=   1.0078250   1.0078250   1.0078250   1.0078250   1.0078250   1.0078250   1.0078250   1.0078250   1.0078250   1.0078250
 NucSpn=           1           1           1           1           1           1           1           1           1           1
 AtZEff=  -0.0000000  -0.0000000  -0.0000000  -0.0000000  -0.0000000  -0.0000000  -0.0000000  -0.0000000  -0.0000000  -0.0000000
 NQMom=    0.0000000   0.0000000   0.0000000   0.0000000   0.0000000   0.0000000   0.0000000   0.0000000   0.0000000   0.0000000
 NMagM=    2.7928460   2.7928460   2.7928460   2.7928460   2.7928460   2.7928460   2.7928460   2.7928460   2.7928460   2.7928460
 AtZNuc=   1.0000000   1.0000000   1.0000000   1.0000000   1.0000000   1.0000000   1.0000000   1.0000000   1.0000000   1.0000000

  Atom       101         102         103         104         105         106         107         108         109         110
 IAtWgt=           1           1           1           1           1           1           1           1           1           1
 AtmWgt=   1.0078250   1.0078250   1.0078250   1.0078250   1.0078250   1.0078250   1.0078250   1.0078250   1.0078250   1.0078250
 NucSpn=           1           1           1           1           1           1           1           1           1           1
 AtZEff=  -0.0000000  -0.0000000  -0.0000000  -0.0000000  -0.0000000  -0.0000000  -0.0000000  -0.0000000  -0.0000000  -0.0000000
 NQMom=    0.0000000   0.0000000   0.0000000   0.0000000   0.0000000   0.0000000   0.0000000   0.0000000   0.0000000   0.0000000
 NMagM=    2.7928460   2.7928460   2.7928460   2.7928460   2.7928460   2.7928460   2.7928460   2.7928460   2.7928460   2.7928460
 AtZNuc=   1.0000000   1.0000000   1.0000000   1.0000000   1.0000000   1.0000000   1.0000000   1.0000000   1.0000000   1.0000000

  Atom       111         112         113         114
 IAtWgt=           1           1           1           1
 AtmWgt=   1.0078250   1.0078250   1.0078250   1.0078250
 NucSpn=           1           1           1           1
 AtZEff=  -0.0000000  -0.0000000  -0.0000000  -0.0000000
 NQMom=    0.0000000   0.0000000   0.0000000   0.0000000
 NMagM=    2.7928460   2.7928460   2.7928460   2.7928460
 AtZNuc=   1.0000000   1.0000000   1.0000000   1.0000000
 Leave Link  101 at Thu Jul 23 15:37:56 2020, MaxMem=  4026531840 cpu:               3.8 elap:               0.5
 (Enter /opt/ohpc/pub/libs/gaussian/g16-A.03/sandybridge/g16/l103.exe)

 GradGradGradGradGradGradGradGradGradGradGradGradGradGradGradGradGradGrad
 Berny optimization.
 Initialization pass.
                           ----------------------------
                           !    Initial Parameters    !
                           ! (Angstroms and Degrees)  !
 --------------------------                            --------------------------
 ! Name  Definition              Value          Derivative Info.                !
 --------------------------------------------------------------------------------
 ! R1    R(1,2)                  1.3566         estimate D2E/DX2                !
 ! R2    R(1,6)                  1.3648         estimate D2E/DX2                !
 ! R3    R(1,78)                 0.9953         estimate D2E/DX2                !
 ! R4    R(2,3)                  1.4066         estimate D2E/DX2                !
 ! R5    R(2,79)                 1.1009         estimate D2E/DX2                !
 ! R6    R(3,4)                  1.3714         estimate D2E/DX2                !
 ! R7    R(3,80)                 1.1128         estimate D2E/DX2                !
 ! R8    R(4,5)                  1.3975         estimate D2E/DX2                !
 ! R9    R(4,7)                  1.4878         estimate D2E/DX2                !
 ! R10   R(5,6)                  1.4078         estimate D2E/DX2                !
 ! R11   R(6,81)                 1.0868         estimate D2E/DX2                !
 ! R12   R(7,8)                  1.4306         estimate D2E/DX2                !
 ! R13   R(7,11)                 1.7497         estimate D2E/DX2                !
 ! R14   R(8,9)                  1.4445         estimate D2E/DX2                !
 ! R15   R(8,82)                 1.0649         estimate D2E/DX2                !
 ! R16   R(9,10)                 1.4202         estimate D2E/DX2                !
 ! R17   R(9,83)                 1.1044         estimate D2E/DX2                !
 ! R18   R(10,11)                1.738          estimate D2E/DX2                !
 ! R19   R(10,12)                1.4958         estimate D2E/DX2                !
 ! R20   R(12,13)                1.417          estimate D2E/DX2                !
 ! R21   R(12,17)                1.3724         estimate D2E/DX2                !
 ! R22   R(13,14)                1.3254         estimate D2E/DX2                !
 ! R23   R(13,84)                1.0876         estimate D2E/DX2                !
 ! R24   R(14,15)                1.4481         estimate D2E/DX2                !
 ! R25   R(14,85)                1.112          estimate D2E/DX2                !
 ! R26   R(15,16)                1.3171         estimate D2E/DX2                !
 ! R27   R(15,18)                1.4966         estimate D2E/DX2                !
 ! R28   R(16,17)                1.3372         estimate D2E/DX2                !
 ! R29   R(17,86)                1.0131         estimate D2E/DX2                !
 ! R30   R(18,19)                1.3876         estimate D2E/DX2                !
 ! R31   R(18,22)                1.72           estimate D2E/DX2                !
 ! R32   R(19,20)                1.354          estimate D2E/DX2                !
 ! R33   R(19,87)                1.0678         estimate D2E/DX2                !
 ! R34   R(20,21)                1.3548         estimate D2E/DX2                !
 ! R35   R(20,88)                1.1803         estimate D2E/DX2                !
 ! R36   R(21,22)                1.7226         estimate D2E/DX2                !
 ! R37   R(21,23)                1.4963         estimate D2E/DX2                !
 ! R38   R(23,24)                1.3858         estimate D2E/DX2                !
 ! R39   R(23,28)                1.3946         estimate D2E/DX2                !
 ! R40   R(24,25)                1.4619         estimate D2E/DX2                !
 ! R41   R(24,89)                1.0745         estimate D2E/DX2                !
 ! R42   R(25,26)                1.4209         estimate D2E/DX2                !
 ! R43   R(25,90)                1.051          estimate D2E/DX2                !
 ! R44   R(26,27)                1.3876         estimate D2E/DX2                !
 ! R45   R(26,29)                1.4593         estimate D2E/DX2                !
 ! R46   R(27,28)                1.3774         estimate D2E/DX2                !
 ! R47   R(28,91)                1.0606         estimate D2E/DX2                !
 ! R48   R(29,30)                1.3525         estimate D2E/DX2                !
 ! R49   R(29,33)                1.7279         estimate D2E/DX2                !
 ! R50   R(30,31)                1.4142         estimate D2E/DX2                !
 ! R51   R(30,92)                1.045          estimate D2E/DX2                !
 ! R52   R(31,32)                1.4518         estimate D2E/DX2                !
 ! R53   R(31,93)                1.0745         estimate D2E/DX2                !
 ! R54   R(32,33)                1.7176         estimate D2E/DX2                !
 ! R55   R(32,34)                1.3997         estimate D2E/DX2                !
 ! R56   R(34,35)                1.4407         estimate D2E/DX2                !
 ! R57   R(34,39)                1.4311         estimate D2E/DX2                !
 ! R58   R(35,36)                1.3833         estimate D2E/DX2                !
 ! R59   R(35,94)                1.0976         estimate D2E/DX2                !
 ! R60   R(36,37)                1.3635         estimate D2E/DX2                !
 ! R61   R(36,95)                1.076          estimate D2E/DX2                !
 ! R62   R(37,38)                1.4092         estimate D2E/DX2                !
 ! R63   R(37,40)                1.4862         estimate D2E/DX2                !
 ! R64   R(38,39)                1.3163         estimate D2E/DX2                !
 ! R65   R(39,96)                1.0829         estimate D2E/DX2                !
 ! R66   R(40,41)                1.3133         estimate D2E/DX2                !
 ! R67   R(40,44)                1.7091         estimate D2E/DX2                !
 ! R68   R(41,42)                1.4659         estimate D2E/DX2                !
 ! R69   R(41,97)                1.114          estimate D2E/DX2                !
 ! R70   R(42,43)                1.342          estimate D2E/DX2                !
 ! R71   R(42,98)                1.1181         estimate D2E/DX2                !
 ! R72   R(43,44)                1.7372         estimate D2E/DX2                !
 ! R73   R(43,45)                1.4716         estimate D2E/DX2                !
 ! R74   R(45,46)                1.3947         estimate D2E/DX2                !
 ! R75   R(45,50)                1.3606         estimate D2E/DX2                !
 ! R76   R(46,47)                1.4465         estimate D2E/DX2                !
 ! R77   R(46,99)                1.0247         estimate D2E/DX2                !
 ! R78   R(47,48)                1.4108         estimate D2E/DX2                !
 ! R79   R(47,100)               1.053          estimate D2E/DX2                !
 ! R80   R(48,49)                1.3868         estimate D2E/DX2                !
 ! R81   R(48,51)                1.4236         estimate D2E/DX2                !
 ! R82   R(49,50)                1.357          estimate D2E/DX2                !
 ! R83   R(50,101)               1.0811         estimate D2E/DX2                !
 ! R84   R(51,52)                1.4456         estimate D2E/DX2                !
 ! R85   R(51,55)                1.7002         estimate D2E/DX2                !
 ! R86   R(52,53)                1.4154         estimate D2E/DX2                !
 ! R87   R(52,102)               1.0447         estimate D2E/DX2                !
 ! R88   R(53,54)                1.3739         estimate D2E/DX2                !
 ! R89   R(53,103)               1.1008         estimate D2E/DX2                !
 ! R90   R(54,55)                1.6324         estimate D2E/DX2                !
 ! R91   R(54,56)                1.4267         estimate D2E/DX2                !
 ! R92   R(56,57)                1.3892         estimate D2E/DX2                !
 ! R93   R(56,61)                1.4109         estimate D2E/DX2                !
 ! R94   R(57,58)                1.4535         estimate D2E/DX2                !
 ! R95   R(57,104)               1.0919         estimate D2E/DX2                !
 ! R96   R(58,59)                1.4049         estimate D2E/DX2                !
 ! R97   R(58,105)               1.0098         estimate D2E/DX2                !
 ! R98   R(59,60)                1.3548         estimate D2E/DX2                !
 ! R99   R(59,62)                1.4818         estimate D2E/DX2                !
 ! R100  R(60,61)                1.3085         estimate D2E/DX2                !
 ! R101  R(61,106)               1.0887         estimate D2E/DX2                !
 ! R102  R(62,63)                1.378          estimate D2E/DX2                !
 ! R103  R(62,66)                1.7514         estimate D2E/DX2                !
 ! R104  R(63,64)                1.4676         estimate D2E/DX2                !
 ! R105  R(63,107)               1.0005         estimate D2E/DX2                !
 ! R106  R(64,65)                1.42           estimate D2E/DX2                !
 ! R107  R(64,108)               1.0816         estimate D2E/DX2                !
 ! R108  R(65,66)                1.7836         estimate D2E/DX2                !
 ! R109  R(65,67)                1.3874         estimate D2E/DX2                !
 ! R110  R(67,68)                1.4144         estimate D2E/DX2                !
 ! R111  R(67,72)                1.4147         estimate D2E/DX2                !
 ! R112  R(68,69)                1.3508         estimate D2E/DX2                !
 ! R113  R(68,109)               1.1003         estimate D2E/DX2                !
 ! R114  R(69,70)                1.3779         estimate D2E/DX2                !
 ! R115  R(69,110)               1.1044         estimate D2E/DX2                !
 ! R116  R(70,71)                1.3502         estimate D2E/DX2                !
 ! R117  R(70,73)                1.4117         estimate D2E/DX2                !
 ! R118  R(71,72)                1.3527         estimate D2E/DX2                !
 ! R119  R(72,111)               1.1053         estimate D2E/DX2                !
 ! R120  R(73,74)                1.4661         estimate D2E/DX2                !
 ! R121  R(73,77)                1.7322         estimate D2E/DX2                !
 ! R122  R(74,75)                1.4342         estimate D2E/DX2                !
 ! R123  R(74,112)               1.0848         estimate D2E/DX2                !
 ! R124  R(75,76)                1.4366         estimate D2E/DX2                !
 ! R125  R(75,113)               1.0472         estimate D2E/DX2                !
 ! R126  R(76,77)                1.7091         estimate D2E/DX2                !
 ! R127  R(76,114)               1.046          estimate D2E/DX2                !
 ! A1    A(2,1,6)              114.8493         estimate D2E/DX2                !
 ! A2    A(2,1,78)             122.9028         estimate D2E/DX2                !
 ! A3    A(6,1,78)             122.1903         estimate D2E/DX2                !
 ! A4    A(1,2,3)              123.7375         estimate D2E/DX2                !
 ! A5    A(1,2,79)             119.4393         estimate D2E/DX2                !
 ! A6    A(3,2,79)             116.8231         estimate D2E/DX2                !
 ! A7    A(2,3,4)              115.8905         estimate D2E/DX2                !
 ! A8    A(2,3,80)             124.677          estimate D2E/DX2                !
 ! A9    A(4,3,80)             118.9697         estimate D2E/DX2                !
 ! A10   A(3,4,5)              126.0455         estimate D2E/DX2                !
 ! A11   A(3,4,7)              122.4304         estimate D2E/DX2                !
 ! A12   A(5,4,7)              111.3796         estimate D2E/DX2                !
 ! A13   A(4,5,6)              110.7995         estimate D2E/DX2                !
 ! A14   A(1,6,5)              128.4548         estimate D2E/DX2                !
 ! A15   A(1,6,81)             122.8776         estimate D2E/DX2                !
 ! A16   A(5,6,81)             108.5924         estimate D2E/DX2                !
 ! A17   A(4,7,8)              126.2099         estimate D2E/DX2                !
 ! A18   A(4,7,11)             123.003          estimate D2E/DX2                !
 ! A19   A(8,7,11)             110.7034         estimate D2E/DX2                !
 ! A20   A(7,8,9)              111.3833         estimate D2E/DX2                !
 ! A21   A(7,8,82)             127.0753         estimate D2E/DX2                !
 ! A22   A(9,8,82)             121.5289         estimate D2E/DX2                !
 ! A23   A(8,9,10)             113.7555         estimate D2E/DX2                !
 ! A24   A(8,9,83)             124.9208         estimate D2E/DX2                !
 ! A25   A(10,9,83)            120.6544         estimate D2E/DX2                !
 ! A26   A(9,10,11)            109.9389         estimate D2E/DX2                !
 ! A27   A(9,10,12)            129.3721         estimate D2E/DX2                !
 ! A28   A(11,10,12)           120.0417         estimate D2E/DX2                !
 ! A29   A(7,11,10)             93.6067         estimate D2E/DX2                !
 ! A30   A(10,12,13)           121.4894         estimate D2E/DX2                !
 ! A31   A(10,12,17)           119.5826         estimate D2E/DX2                !
 ! A32   A(13,12,17)           118.8776         estimate D2E/DX2                !
 ! A33   A(12,13,14)           120.6173         estimate D2E/DX2                !
 ! A34   A(12,13,84)           121.1861         estimate D2E/DX2                !
 ! A35   A(14,13,84)           117.928          estimate D2E/DX2                !
 ! A36   A(13,14,15)           118.352          estimate D2E/DX2                !
 ! A37   A(13,14,85)           120.0049         estimate D2E/DX2                !
 ! A38   A(15,14,85)           121.5681         estimate D2E/DX2                !
 ! A39   A(14,15,16)           119.3172         estimate D2E/DX2                !
 ! A40   A(14,15,18)           120.9122         estimate D2E/DX2                !
 ! A41   A(16,15,18)           119.7706         estimate D2E/DX2                !
 ! A42   A(15,16,17)           122.9516         estimate D2E/DX2                !
 ! A43   A(12,17,16)           119.6976         estimate D2E/DX2                !
 ! A44   A(12,17,86)           125.0821         estimate D2E/DX2                !
 ! A45   A(16,17,86)           114.839          estimate D2E/DX2                !
 ! A46   A(15,18,19)           132.1064         estimate D2E/DX2                !
 ! A47   A(15,18,22)           117.1805         estimate D2E/DX2                !
 ! A48   A(19,18,22)           110.6127         estimate D2E/DX2                !
 ! A49   A(18,19,20)           112.8167         estimate D2E/DX2                !
 ! A50   A(18,19,87)           118.6893         estimate D2E/DX2                !
 ! A51   A(20,19,87)           128.4663         estimate D2E/DX2                !
 ! A52   A(19,20,21)           114.352          estimate D2E/DX2                !
 ! A53   A(19,20,88)           122.1735         estimate D2E/DX2                !
 ! A54   A(21,20,88)           123.318          estimate D2E/DX2                !
 ! A55   A(20,21,22)           111.0751         estimate D2E/DX2                !
 ! A56   A(20,21,23)           127.881          estimate D2E/DX2                !
 ! A57   A(22,21,23)           120.6263         estimate D2E/DX2                !
 ! A58   A(18,22,21)            90.7983         estimate D2E/DX2                !
 ! A59   A(21,23,24)           122.4001         estimate D2E/DX2                !
 ! A60   A(21,23,28)           117.9016         estimate D2E/DX2                !
 ! A61   A(24,23,28)           118.8715         estimate D2E/DX2                !
 ! A62   A(23,24,25)           119.2728         estimate D2E/DX2                !
 ! A63   A(23,24,89)           124.7467         estimate D2E/DX2                !
 ! A64   A(25,24,89)           115.3247         estimate D2E/DX2                !
 ! A65   A(24,25,26)           116.9333         estimate D2E/DX2                !
 ! A66   A(24,25,90)           118.2667         estimate D2E/DX2                !
 ! A67   A(26,25,90)           123.7702         estimate D2E/DX2                !
 ! A68   A(25,26,27)           122.6124         estimate D2E/DX2                !
 ! A69   A(25,26,29)           123.8687         estimate D2E/DX2                !
 ! A70   A(27,26,29)           113.0653         estimate D2E/DX2                !
 ! A71   A(26,27,28)           116.9821         estimate D2E/DX2                !
 ! A72   A(23,28,27)           123.982          estimate D2E/DX2                !
 ! A73   A(23,28,91)           127.8626         estimate D2E/DX2                !
 ! A74   A(27,28,91)           107.7454         estimate D2E/DX2                !
 ! A75   A(26,29,30)           130.1783         estimate D2E/DX2                !
 ! A76   A(26,29,33)           120.4371         estimate D2E/DX2                !
 ! A77   A(30,29,33)           109.3814         estimate D2E/DX2                !
 ! A78   A(29,30,31)           116.7104         estimate D2E/DX2                !
 ! A79   A(29,30,92)           119.4803         estimate D2E/DX2                !
 ! A80   A(31,30,92)           123.4361         estimate D2E/DX2                !
 ! A81   A(30,31,32)           110.1659         estimate D2E/DX2                !
 ! A82   A(30,31,93)           129.2693         estimate D2E/DX2                !
 ! A83   A(32,31,93)           120.5084         estimate D2E/DX2                !
 ! A84   A(31,32,33)           109.2164         estimate D2E/DX2                !
 ! A85   A(31,32,34)           126.2205         estimate D2E/DX2                !
 ! A86   A(33,32,34)           124.4918         estimate D2E/DX2                !
 ! A87   A(29,33,32)            94.4242         estimate D2E/DX2                !
 ! A88   A(32,34,35)           124.9266         estimate D2E/DX2                !
 ! A89   A(32,34,39)           123.3004         estimate D2E/DX2                !
 ! A90   A(35,34,39)           111.5621         estimate D2E/DX2                !
 ! A91   A(34,35,36)           121.6632         estimate D2E/DX2                !
 ! A92   A(34,35,94)           117.5612         estimate D2E/DX2                !
 ! A93   A(36,35,94)           119.9478         estimate D2E/DX2                !
 ! A94   A(35,36,37)           119.6701         estimate D2E/DX2                !
 ! A95   A(35,36,95)           115.2612         estimate D2E/DX2                !
 ! A96   A(37,36,95)           123.5496         estimate D2E/DX2                !
 ! A97   A(36,37,38)           121.765          estimate D2E/DX2                !
 ! A98   A(36,37,40)           121.9812         estimate D2E/DX2                !
 ! A99   A(38,37,40)           116.0792         estimate D2E/DX2                !
 ! A100  A(37,38,39)           115.7186         estimate D2E/DX2                !
 ! A101  A(34,39,38)           128.5367         estimate D2E/DX2                !
 ! A102  A(34,39,96)           119.6618         estimate D2E/DX2                !
 ! A103  A(38,39,96)           111.4978         estimate D2E/DX2                !
 ! A104  A(37,40,41)           131.7248         estimate D2E/DX2                !
 ! A105  A(37,40,44)           119.922          estimate D2E/DX2                !
 ! A106  A(41,40,44)           108.3515         estimate D2E/DX2                !
 ! A107  A(40,41,42)           115.3648         estimate D2E/DX2                !
 ! A108  A(40,41,97)           123.2833         estimate D2E/DX2                !
 ! A109  A(42,41,97)           121.278          estimate D2E/DX2                !
 ! A110  A(41,42,43)           112.9179         estimate D2E/DX2                !
 ! A111  A(41,42,98)           120.8139         estimate D2E/DX2                !
 ! A112  A(43,42,98)           126.2646         estimate D2E/DX2                !
 ! A113  A(42,43,44)           107.7542         estimate D2E/DX2                !
 ! A114  A(42,43,45)           132.7463         estimate D2E/DX2                !
 ! A115  A(44,43,45)           119.4632         estimate D2E/DX2                !
 ! A116  A(40,44,43)            95.5265         estimate D2E/DX2                !
 ! A117  A(43,45,46)           116.1407         estimate D2E/DX2                !
 ! A118  A(43,45,50)           121.1441         estimate D2E/DX2                !
 ! A119  A(46,45,50)           122.2266         estimate D2E/DX2                !
 ! A120  A(45,46,47)           117.2981         estimate D2E/DX2                !
 ! A121  A(45,46,99)           123.2082         estimate D2E/DX2                !
 ! A122  A(47,46,99)           119.4555         estimate D2E/DX2                !
 ! A123  A(46,47,48)           119.3415         estimate D2E/DX2                !
 ! A124  A(46,47,100)          117.668          estimate D2E/DX2                !
 ! A125  A(48,47,100)          122.7015         estimate D2E/DX2                !
 ! A126  A(47,48,49)           118.7122         estimate D2E/DX2                !
 ! A127  A(47,48,51)           125.1151         estimate D2E/DX2                !
 ! A128  A(49,48,51)           116.0617         estimate D2E/DX2                !
 ! A129  A(48,49,50)           122.0874         estimate D2E/DX2                !
 ! A130  A(45,50,49)           120.0102         estimate D2E/DX2                !
 ! A131  A(45,50,101)          124.6672         estimate D2E/DX2                !
 ! A132  A(49,50,101)          115.2909         estimate D2E/DX2                !
 ! A133  A(48,51,52)           128.7243         estimate D2E/DX2                !
 ! A134  A(48,51,55)           125.3256         estimate D2E/DX2                !
 ! A135  A(52,51,55)           105.9441         estimate D2E/DX2                !
 ! A136  A(51,52,53)           112.194          estimate D2E/DX2                !
 ! A137  A(51,52,102)          119.2175         estimate D2E/DX2                !
 ! A138  A(53,52,102)          128.3198         estimate D2E/DX2                !
 ! A139  A(52,53,54)           113.661          estimate D2E/DX2                !
 ! A140  A(52,53,103)          118.8403         estimate D2E/DX2                !
 ! A141  A(54,53,103)          127.4982         estimate D2E/DX2                !
 ! A142  A(53,54,55)           110.1104         estimate D2E/DX2                !
 ! A143  A(53,54,56)           125.3989         estimate D2E/DX2                !
 ! A144  A(55,54,56)           124.3186         estimate D2E/DX2                !
 ! A145  A(51,55,54)            97.9751         estimate D2E/DX2                !
 ! A146  A(54,56,57)           122.6734         estimate D2E/DX2                !
 ! A147  A(54,56,61)           123.1851         estimate D2E/DX2                !
 ! A148  A(57,56,61)           114.0686         estimate D2E/DX2                !
 ! A149  A(56,57,58)           121.2539         estimate D2E/DX2                !
 ! A150  A(56,57,104)          124.0049         estimate D2E/DX2                !
 ! A151  A(58,57,104)          114.6211         estimate D2E/DX2                !
 ! A152  A(57,58,59)           115.6449         estimate D2E/DX2                !
 ! A153  A(57,58,105)          119.9798         estimate D2E/DX2                !
 ! A154  A(59,58,105)          124.2545         estimate D2E/DX2                !
 ! A155  A(58,59,60)           124.1424         estimate D2E/DX2                !
 ! A156  A(58,59,62)           122.5372         estimate D2E/DX2                !
 ! A157  A(60,59,62)           113.2666         estimate D2E/DX2                !
 ! A158  A(59,60,61)           116.1067         estimate D2E/DX2                !
 ! A159  A(56,61,60)           128.3866         estimate D2E/DX2                !
 ! A160  A(56,61,106)          117.3933         estimate D2E/DX2                !
 ! A161  A(60,61,106)          113.771          estimate D2E/DX2                !
 ! A162  A(59,62,63)           128.8513         estimate D2E/DX2                !
 ! A163  A(59,62,66)           119.5467         estimate D2E/DX2                !
 ! A164  A(63,62,66)           111.5597         estimate D2E/DX2                !
 ! A165  A(62,63,64)           112.4647         estimate D2E/DX2                !
 ! A166  A(62,63,107)          125.4989         estimate D2E/DX2                !
 ! A167  A(64,63,107)          122.0313         estimate D2E/DX2                !
 ! A168  A(63,64,65)           114.2588         estimate D2E/DX2                !
 ! A169  A(63,64,108)          123.9807         estimate D2E/DX2                !
 ! A170  A(65,64,108)          121.5599         estimate D2E/DX2                !
 ! A171  A(64,65,66)           107.7651         estimate D2E/DX2                !
 ! A172  A(64,65,67)           130.7563         estimate D2E/DX2                !
 ! A173  A(66,65,67)           120.9875         estimate D2E/DX2                !
 ! A174  A(62,66,65)            93.6845         estimate D2E/DX2                !
 ! A175  A(65,67,68)           126.4688         estimate D2E/DX2                !
 ! A176  A(65,67,72)           124.015          estimate D2E/DX2                !
 ! A177  A(68,67,72)           109.4061         estimate D2E/DX2                !
 ! A178  A(67,68,69)           123.7815         estimate D2E/DX2                !
 ! A179  A(67,68,109)          117.6227         estimate D2E/DX2                !
 ! A180  A(69,68,109)          118.3715         estimate D2E/DX2                !
 ! A181  A(68,69,70)           121.4956         estimate D2E/DX2                !
 ! A182  A(68,69,110)          120.1361         estimate D2E/DX2                !
 ! A183  A(70,69,110)          118.1396         estimate D2E/DX2                !
 ! A184  A(69,70,71)           118.7076         estimate D2E/DX2                !
 ! A185  A(69,70,73)           126.205          estimate D2E/DX2                !
 ! A186  A(71,70,73)           114.7392         estimate D2E/DX2                !
 ! A187  A(70,71,72)           117.6116         estimate D2E/DX2                !
 ! A188  A(67,72,71)           128.4131         estimate D2E/DX2                !
 ! A189  A(67,72,111)          118.4066         estimate D2E/DX2                !
 ! A190  A(71,72,111)          113.1682         estimate D2E/DX2                !
 ! A191  A(70,73,74)           126.834          estimate D2E/DX2                !
 ! A192  A(70,73,77)           122.9912         estimate D2E/DX2                !
 ! A193  A(74,73,77)           110.0452         estimate D2E/DX2                !
 ! A194  A(73,74,75)           113.5003         estimate D2E/DX2                !
 ! A195  A(73,74,112)          118.8992         estimate D2E/DX2                !
 ! A196  A(75,74,112)          127.1532         estimate D2E/DX2                !
 ! A197  A(74,75,76)           109.1051         estimate D2E/DX2                !
 ! A198  A(74,75,113)          121.7959         estimate D2E/DX2                !
 ! A199  A(76,75,113)          129.0164         estimate D2E/DX2                !
 ! A200  A(75,76,77)           114.6003         estimate D2E/DX2                !
 ! A201  A(75,76,114)          123.4629         estimate D2E/DX2                !
 ! A202  A(77,76,114)          121.738          estimate D2E/DX2                !
 ! A203  A(73,77,76)            92.6633         estimate D2E/DX2                !
 ! D1    D(6,1,2,3)              3.2088         estimate D2E/DX2                !
 ! D2    D(6,1,2,79)          -176.6827         estimate D2E/DX2                !
 ! D3    D(78,1,2,3)          -179.4997         estimate D2E/DX2                !
 ! D4    D(78,1,2,79)            0.6088         estimate D2E/DX2                !
 ! D5    D(2,1,6,5)             -0.8498         estimate D2E/DX2                !
 ! D6    D(2,1,6,81)           175.6274         estimate D2E/DX2                !
 ! D7    D(78,1,6,5)          -178.1628         estimate D2E/DX2                !
 ! D8    D(78,1,6,81)           -1.6855         estimate D2E/DX2                !
 ! D9    D(1,2,3,4)             -5.3323         estimate D2E/DX2                !
 ! D10   D(1,2,3,80)          -177.415          estimate D2E/DX2                !
 ! D11   D(79,2,3,4)           174.5618         estimate D2E/DX2                !
 ! D12   D(79,2,3,80)            2.4791         estimate D2E/DX2                !
 ! D13   D(2,3,4,5)              5.3888         estimate D2E/DX2                !
 ! D14   D(2,3,4,7)           -179.3632         estimate D2E/DX2                !
 ! D15   D(80,3,4,5)           177.9495         estimate D2E/DX2                !
 ! D16   D(80,3,4,7)            -6.8026         estimate D2E/DX2                !
 ! D17   D(3,4,5,6)             -3.1819         estimate D2E/DX2                !
 ! D18   D(7,4,5,6)           -178.8754         estimate D2E/DX2                !
 ! D19   D(3,4,7,8)            -22.8673         estimate D2E/DX2                !
 ! D20   D(3,4,7,11)           160.7749         estimate D2E/DX2                !
 ! D21   D(5,4,7,8)            153.0076         estimate D2E/DX2                !
 ! D22   D(5,4,7,11)           -23.3502         estimate D2E/DX2                !
 ! D23   D(4,5,6,1)              0.7501         estimate D2E/DX2                !
 ! D24   D(4,5,6,81)          -176.1288         estimate D2E/DX2                !
 ! D25   D(4,7,8,9)           -177.9086         estimate D2E/DX2                !
 ! D26   D(4,7,8,82)             3.3703         estimate D2E/DX2                !
 ! D27   D(11,7,8,9)            -1.1736         estimate D2E/DX2                !
 ! D28   D(11,7,8,82)         -179.8947         estimate D2E/DX2                !
 ! D29   D(4,7,11,10)          173.714          estimate D2E/DX2                !
 ! D30   D(8,7,11,10)           -3.1449         estimate D2E/DX2                !
 ! D31   D(7,8,9,10)             6.3291         estimate D2E/DX2                !
 ! D32   D(7,8,9,83)           176.9592         estimate D2E/DX2                !
 ! D33   D(82,8,9,10)         -174.868          estimate D2E/DX2                !
 ! D34   D(82,8,9,83)           -4.2378         estimate D2E/DX2                !
 ! D35   D(8,9,10,11)           -8.5465         estimate D2E/DX2                !
 ! D36   D(8,9,10,12)         -179.1515         estimate D2E/DX2                !
 ! D37   D(83,9,10,11)        -179.6194         estimate D2E/DX2                !
 ! D38   D(83,9,10,12)           9.7756         estimate D2E/DX2                !
 ! D39   D(9,10,11,7)            6.6253         estimate D2E/DX2                !
 ! D40   D(12,10,11,7)         178.2432         estimate D2E/DX2                !
 ! D41   D(9,10,12,13)        -149.2667         estimate D2E/DX2                !
 ! D42   D(9,10,12,17)          28.1226         estimate D2E/DX2                !
 ! D43   D(11,10,12,13)         40.9441         estimate D2E/DX2                !
 ! D44   D(11,10,12,17)       -141.6667         estimate D2E/DX2                !
 ! D45   D(10,12,13,14)        172.8012         estimate D2E/DX2                !
 ! D46   D(10,12,13,84)         -1.1226         estimate D2E/DX2                !
 ! D47   D(17,12,13,14)         -4.606          estimate D2E/DX2                !
 ! D48   D(17,12,13,84)       -178.5297         estimate D2E/DX2                !
 ! D49   D(10,12,17,16)       -172.3124         estimate D2E/DX2                !
 ! D50   D(10,12,17,86)          0.2197         estimate D2E/DX2                !
 ! D51   D(13,12,17,16)          5.1452         estimate D2E/DX2                !
 ! D52   D(13,12,17,86)        177.6773         estimate D2E/DX2                !
 ! D53   D(12,13,14,15)          1.9498         estimate D2E/DX2                !
 ! D54   D(12,13,14,85)        178.8502         estimate D2E/DX2                !
 ! D55   D(84,13,14,15)        176.0671         estimate D2E/DX2                !
 ! D56   D(84,13,14,85)         -7.0325         estimate D2E/DX2                !
 ! D57   D(13,14,15,16)          0.1444         estimate D2E/DX2                !
 ! D58   D(13,14,15,18)       -179.7914         estimate D2E/DX2                !
 ! D59   D(85,14,15,16)       -176.7051         estimate D2E/DX2                !
 ! D60   D(85,14,15,18)          3.3591         estimate D2E/DX2                !
 ! D61   D(14,15,16,17)          0.4552         estimate D2E/DX2                !
 ! D62   D(18,15,16,17)       -179.6083         estimate D2E/DX2                !
 ! D63   D(14,15,18,19)          9.8695         estimate D2E/DX2                !
 ! D64   D(14,15,18,22)       -166.0909         estimate D2E/DX2                !
 ! D65   D(16,15,18,19)       -170.066          estimate D2E/DX2                !
 ! D66   D(16,15,18,22)         13.9736         estimate D2E/DX2                !
 ! D67   D(15,16,17,12)         -3.1777         estimate D2E/DX2                !
 ! D68   D(15,16,17,86)       -176.4471         estimate D2E/DX2                !
 ! D69   D(15,18,19,20)       -179.8953         estimate D2E/DX2                !
 ! D70   D(15,18,19,87)          1.859          estimate D2E/DX2                !
 ! D71   D(22,18,19,20)         -3.7343         estimate D2E/DX2                !
 ! D72   D(22,18,19,87)        178.02           estimate D2E/DX2                !
 ! D73   D(15,18,22,21)       -178.073          estimate D2E/DX2                !
 ! D74   D(19,18,22,21)          5.128          estimate D2E/DX2                !
 ! D75   D(18,19,20,21)         -0.3701         estimate D2E/DX2                !
 ! D76   D(18,19,20,88)       -175.9626         estimate D2E/DX2                !
 ! D77   D(87,19,20,21)        177.6643         estimate D2E/DX2                !
 ! D78   D(87,19,20,88)          2.0717         estimate D2E/DX2                !
 ! D79   D(19,20,21,22)          4.308          estimate D2E/DX2                !
 ! D80   D(19,20,21,23)        176.833          estimate D2E/DX2                !
 ! D81   D(88,20,21,22)        179.8435         estimate D2E/DX2                !
 ! D82   D(88,20,21,23)         -7.6315         estimate D2E/DX2                !
 ! D83   D(20,21,22,18)         -5.367          estimate D2E/DX2                !
 ! D84   D(23,21,22,18)       -178.5138         estimate D2E/DX2                !
 ! D85   D(20,21,23,24)        -31.8378         estimate D2E/DX2                !
 ! D86   D(20,21,23,28)        137.6243         estimate D2E/DX2                !
 ! D87   D(22,21,23,24)        140.0524         estimate D2E/DX2                !
 ! D88   D(22,21,23,28)        -50.4854         estimate D2E/DX2                !
 ! D89   D(21,23,24,25)        179.8273         estimate D2E/DX2                !
 ! D90   D(21,23,24,89)         -9.9065         estimate D2E/DX2                !
 ! D91   D(28,23,24,25)         10.4632         estimate D2E/DX2                !
 ! D92   D(28,23,24,89)       -179.2707         estimate D2E/DX2                !
 ! D93   D(21,23,28,27)       -179.4031         estimate D2E/DX2                !
 ! D94   D(21,23,28,91)          8.8666         estimate D2E/DX2                !
 ! D95   D(24,23,28,27)         -9.5592         estimate D2E/DX2                !
 ! D96   D(24,23,28,91)        178.7104         estimate D2E/DX2                !
 ! D97   D(23,24,25,26)        -10.418          estimate D2E/DX2                !
 ! D98   D(23,24,25,90)       -179.2574         estimate D2E/DX2                !
 ! D99   D(89,24,25,26)        178.423          estimate D2E/DX2                !
 ! D100  D(89,24,25,90)          9.5836         estimate D2E/DX2                !
 ! D101  D(24,25,26,27)          9.3934         estimate D2E/DX2                !
 ! D102  D(24,25,26,29)       -178.8763         estimate D2E/DX2                !
 ! D103  D(90,25,26,27)        177.5592         estimate D2E/DX2                !
 ! D104  D(90,25,26,29)        -10.7106         estimate D2E/DX2                !
 ! D105  D(25,26,27,28)         -8.1041         estimate D2E/DX2                !
 ! D106  D(29,26,27,28)        179.3541         estimate D2E/DX2                !
 ! D107  D(25,26,29,30)       -174.0392         estimate D2E/DX2                !
 ! D108  D(25,26,29,33)          5.2372         estimate D2E/DX2                !
 ! D109  D(27,26,29,30)         -1.6061         estimate D2E/DX2                !
 ! D110  D(27,26,29,33)        177.6703         estimate D2E/DX2                !
 ! D111  D(26,27,28,23)          8.0666         estimate D2E/DX2                !
 ! D112  D(26,27,28,91)       -178.7808         estimate D2E/DX2                !
 ! D113  D(26,29,30,31)       -178.3159         estimate D2E/DX2                !
 ! D114  D(26,29,30,92)         -5.0881         estimate D2E/DX2                !
 ! D115  D(33,29,30,31)          2.3454         estimate D2E/DX2                !
 ! D116  D(33,29,30,92)        175.5732         estimate D2E/DX2                !
 ! D117  D(26,29,33,32)       -179.7819         estimate D2E/DX2                !
 ! D118  D(30,29,33,32)         -0.368          estimate D2E/DX2                !
 ! D119  D(29,30,31,32)         -3.5376         estimate D2E/DX2                !
 ! D120  D(29,30,31,93)        173.6955         estimate D2E/DX2                !
 ! D121  D(92,30,31,32)       -176.4715         estimate D2E/DX2                !
 ! D122  D(92,30,31,93)          0.7615         estimate D2E/DX2                !
 ! D123  D(30,31,32,33)          2.9949         estimate D2E/DX2                !
 ! D124  D(30,31,32,34)       -179.9771         estimate D2E/DX2                !
 ! D125  D(93,31,32,33)       -174.5189         estimate D2E/DX2                !
 ! D126  D(93,31,32,34)          2.509          estimate D2E/DX2                !
 ! D127  D(31,32,33,29)         -1.545          estimate D2E/DX2                !
 ! D128  D(34,32,33,29)       -178.636          estimate D2E/DX2                !
 ! D129  D(31,32,34,35)       -129.9671         estimate D2E/DX2                !
 ! D130  D(31,32,34,39)         44.3062         estimate D2E/DX2                !
 ! D131  D(33,32,34,35)         46.6273         estimate D2E/DX2                !
 ! D132  D(33,32,34,39)       -139.0993         estimate D2E/DX2                !
 ! D133  D(32,34,35,36)       -177.3069         estimate D2E/DX2                !
 ! D134  D(32,34,35,94)         -7.736          estimate D2E/DX2                !
 ! D135  D(39,34,35,36)          7.838          estimate D2E/DX2                !
 ! D136  D(39,34,35,94)        177.4089         estimate D2E/DX2                !
 ! D137  D(32,34,39,38)       -179.6605         estimate D2E/DX2                !
 ! D138  D(32,34,39,96)          7.2415         estimate D2E/DX2                !
 ! D139  D(35,34,39,38)         -4.7071         estimate D2E/DX2                !
 ! D140  D(35,34,39,96)       -177.8051         estimate D2E/DX2                !
 ! D141  D(34,35,36,37)        -11.4238         estimate D2E/DX2                !
 ! D142  D(34,35,36,95)       -177.8652         estimate D2E/DX2                !
 ! D143  D(94,35,36,37)        179.2492         estimate D2E/DX2                !
 ! D144  D(94,35,36,95)         12.8079         estimate D2E/DX2                !
 ! D145  D(35,36,37,38)         11.0151         estimate D2E/DX2                !
 ! D146  D(35,36,37,40)       -173.9774         estimate D2E/DX2                !
 ! D147  D(95,36,37,38)        176.2769         estimate D2E/DX2                !
 ! D148  D(95,36,37,40)         -8.7156         estimate D2E/DX2                !
 ! D149  D(36,37,38,39)         -7.3688         estimate D2E/DX2                !
 ! D150  D(40,37,38,39)        177.3453         estimate D2E/DX2                !
 ! D151  D(36,37,40,41)          8.3296         estimate D2E/DX2                !
 ! D152  D(36,37,40,44)       -171.1271         estimate D2E/DX2                !
 ! D153  D(38,37,40,41)       -176.3956         estimate D2E/DX2                !
 ! D154  D(38,37,40,44)          4.1477         estimate D2E/DX2                !
 ! D155  D(37,38,39,34)          4.4824         estimate D2E/DX2                !
 ! D156  D(37,38,39,96)        178.0385         estimate D2E/DX2                !
 ! D157  D(37,40,41,42)        177.8367         estimate D2E/DX2                !
 ! D158  D(37,40,41,97)         -5.2583         estimate D2E/DX2                !
 ! D159  D(44,40,41,42)         -2.6595         estimate D2E/DX2                !
 ! D160  D(44,40,41,97)        174.2456         estimate D2E/DX2                !
 ! D161  D(37,40,44,43)       -177.6288         estimate D2E/DX2                !
 ! D162  D(41,40,44,43)          2.7985         estimate D2E/DX2                !
 ! D163  D(40,41,42,43)          1.0912         estimate D2E/DX2                !
 ! D164  D(40,41,42,98)       -179.5504         estimate D2E/DX2                !
 ! D165  D(97,41,42,43)       -175.8816         estimate D2E/DX2                !
 ! D166  D(97,41,42,98)          3.4768         estimate D2E/DX2                !
 ! D167  D(41,42,43,44)          1.0452         estimate D2E/DX2                !
 ! D168  D(41,42,43,45)        178.77           estimate D2E/DX2                !
 ! D169  D(98,42,43,44)       -178.2714         estimate D2E/DX2                !
 ! D170  D(98,42,43,45)         -0.5467         estimate D2E/DX2                !
 ! D171  D(42,43,44,40)         -2.1932         estimate D2E/DX2                !
 ! D172  D(45,43,44,40)        179.7257         estimate D2E/DX2                !
 ! D173  D(42,43,45,46)        -31.8348         estimate D2E/DX2                !
 ! D174  D(42,43,45,50)        140.3183         estimate D2E/DX2                !
 ! D175  D(44,43,45,46)        145.6763         estimate D2E/DX2                !
 ! D176  D(44,43,45,50)        -42.1705         estimate D2E/DX2                !
 ! D177  D(43,45,46,47)        175.7689         estimate D2E/DX2                !
 ! D178  D(43,45,46,99)         -6.4938         estimate D2E/DX2                !
 ! D179  D(50,45,46,47)          3.7084         estimate D2E/DX2                !
 ! D180  D(50,45,46,99)       -178.5543         estimate D2E/DX2                !
 ! D181  D(43,45,50,49)       -178.1906         estimate D2E/DX2                !
 ! D182  D(43,45,50,101)         3.9602         estimate D2E/DX2                !
 ! D183  D(46,45,50,49)         -6.521          estimate D2E/DX2                !
 ! D184  D(46,45,50,101)       175.6298         estimate D2E/DX2                !
 ! D185  D(45,46,47,48)         -0.963          estimate D2E/DX2                !
 ! D186  D(45,46,47,100)       173.0311         estimate D2E/DX2                !
 ! D187  D(99,46,47,48)       -178.7889         estimate D2E/DX2                !
 ! D188  D(99,46,47,100)        -4.7947         estimate D2E/DX2                !
 ! D189  D(46,47,48,49)          1.0257         estimate D2E/DX2                !
 ! D190  D(46,47,48,51)        177.0352         estimate D2E/DX2                !
 ! D191  D(100,47,48,49)      -172.652          estimate D2E/DX2                !
 ! D192  D(100,47,48,51)         3.3575         estimate D2E/DX2                !
 ! D193  D(47,48,49,50)         -3.8344         estimate D2E/DX2                !
 ! D194  D(51,48,49,50)        179.7988         estimate D2E/DX2                !
 ! D195  D(47,48,51,52)       -175.2622         estimate D2E/DX2                !
 ! D196  D(47,48,51,55)          3.7196         estimate D2E/DX2                !
 ! D197  D(49,48,51,52)          0.842          estimate D2E/DX2                !
 ! D198  D(49,48,51,55)        179.8237         estimate D2E/DX2                !
 ! D199  D(48,49,50,45)          6.5659         estimate D2E/DX2                !
 ! D200  D(48,49,50,101)      -175.3905         estimate D2E/DX2                !
 ! D201  D(48,51,52,53)        178.183          estimate D2E/DX2                !
 ! D202  D(48,51,52,102)         3.648          estimate D2E/DX2                !
 ! D203  D(55,51,52,53)         -0.953          estimate D2E/DX2                !
 ! D204  D(55,51,52,102)      -175.488          estimate D2E/DX2                !
 ! D205  D(48,51,55,54)        179.8169         estimate D2E/DX2                !
 ! D206  D(52,51,55,54)         -1.0093         estimate D2E/DX2                !
 ! D207  D(51,52,53,54)          3.0369         estimate D2E/DX2                !
 ! D208  D(51,52,53,103)      -177.19           estimate D2E/DX2                !
 ! D209  D(102,52,53,54)       176.9552         estimate D2E/DX2                !
 ! D210  D(102,52,53,103)       -3.2717         estimate D2E/DX2                !
 ! D211  D(52,53,54,55)         -3.7172         estimate D2E/DX2                !
 ! D212  D(52,53,54,56)       -179.1052         estimate D2E/DX2                !
 ! D213  D(103,53,54,55)       176.5334         estimate D2E/DX2                !
 ! D214  D(103,53,54,56)         1.1454         estimate D2E/DX2                !
 ! D215  D(53,54,55,51)          2.74           estimate D2E/DX2                !
 ! D216  D(56,54,55,51)        178.1883         estimate D2E/DX2                !
 ! D217  D(53,54,56,57)         29.719          estimate D2E/DX2                !
 ! D218  D(53,54,56,61)       -146.9908         estimate D2E/DX2                !
 ! D219  D(55,54,56,57)       -145.0357         estimate D2E/DX2                !
 ! D220  D(55,54,56,61)         38.2545         estimate D2E/DX2                !
 ! D221  D(54,56,57,58)        179.2531         estimate D2E/DX2                !
 ! D222  D(54,56,57,104)         3.4542         estimate D2E/DX2                !
 ! D223  D(61,56,57,58)         -3.7625         estimate D2E/DX2                !
 ! D224  D(61,56,57,104)      -179.5614         estimate D2E/DX2                !
 ! D225  D(54,56,61,60)        174.6104         estimate D2E/DX2                !
 ! D226  D(54,56,61,106)         2.8372         estimate D2E/DX2                !
 ! D227  D(57,56,61,60)         -2.3566         estimate D2E/DX2                !
 ! D228  D(57,56,61,106)      -174.1297         estimate D2E/DX2                !
 ! D229  D(56,57,58,59)          5.3525         estimate D2E/DX2                !
 ! D230  D(56,57,58,105)      -178.476          estimate D2E/DX2                !
 ! D231  D(104,57,58,59)      -178.4778         estimate D2E/DX2                !
 ! D232  D(104,57,58,105)       -2.3064         estimate D2E/DX2                !
 ! D233  D(57,58,59,60)         -1.264          estimate D2E/DX2                !
 ! D234  D(57,58,59,62)        175.8871         estimate D2E/DX2                !
 ! D235  D(105,58,59,60)      -177.2514         estimate D2E/DX2                !
 ! D236  D(105,58,59,62)        -0.1003         estimate D2E/DX2                !
 ! D237  D(58,59,60,61)         -4.1478         estimate D2E/DX2                !
 ! D238  D(62,59,60,61)        178.4664         estimate D2E/DX2                !
 ! D239  D(58,59,62,63)        165.1365         estimate D2E/DX2                !
 ! D240  D(58,59,62,66)        -17.4455         estimate D2E/DX2                !
 ! D241  D(60,59,62,63)        -17.4299         estimate D2E/DX2                !
 ! D242  D(60,59,62,66)        159.9881         estimate D2E/DX2                !
 ! D243  D(59,60,61,56)          6.2795         estimate D2E/DX2                !
 ! D244  D(59,60,61,106)       178.2996         estimate D2E/DX2                !
 ! D245  D(59,62,63,64)        177.9634         estimate D2E/DX2                !
 ! D246  D(59,62,63,107)        -2.8495         estimate D2E/DX2                !
 ! D247  D(66,62,63,64)          0.3785         estimate D2E/DX2                !
 ! D248  D(66,62,63,107)       179.5656         estimate D2E/DX2                !
 ! D249  D(59,62,66,65)        179.1921         estimate D2E/DX2                !
 ! D250  D(63,62,66,65)         -2.9698         estimate D2E/DX2                !
 ! D251  D(62,63,64,65)          3.3847         estimate D2E/DX2                !
 ! D252  D(62,63,64,108)       178.2969         estimate D2E/DX2                !
 ! D253  D(107,63,64,65)      -175.8347         estimate D2E/DX2                !
 ! D254  D(107,63,64,108)       -0.9225         estimate D2E/DX2                !
 ! D255  D(63,64,65,66)         -5.3302         estimate D2E/DX2                !
 ! D256  D(63,64,65,67)       -177.1556         estimate D2E/DX2                !
 ! D257  D(108,64,65,66)       179.6207         estimate D2E/DX2                !
 ! D258  D(108,64,65,67)         7.7953         estimate D2E/DX2                !
 ! D259  D(64,65,66,62)          4.6782         estimate D2E/DX2                !
 ! D260  D(67,65,66,62)        177.4606         estimate D2E/DX2                !
 ! D261  D(64,65,67,68)       -148.7244         estimate D2E/DX2                !
 ! D262  D(64,65,67,72)         27.0495         estimate D2E/DX2                !
 ! D263  D(66,65,67,68)         40.3637         estimate D2E/DX2                !
 ! D264  D(66,65,67,72)       -143.8624         estimate D2E/DX2                !
 ! D265  D(65,67,68,69)        175.0028         estimate D2E/DX2                !
 ! D266  D(65,67,68,109)         0.5431         estimate D2E/DX2                !
 ! D267  D(72,67,68,69)         -1.284          estimate D2E/DX2                !
 ! D268  D(72,67,68,109)      -175.7437         estimate D2E/DX2                !
 ! D269  D(65,67,72,71)       -176.3505         estimate D2E/DX2                !
 ! D270  D(65,67,72,111)         2.2899         estimate D2E/DX2                !
 ! D271  D(68,67,72,71)          0.0471         estimate D2E/DX2                !
 ! D272  D(68,67,72,111)       178.6875         estimate D2E/DX2                !
 ! D273  D(67,68,69,70)          6.0183         estimate D2E/DX2                !
 ! D274  D(67,68,69,110)      -179.5785         estimate D2E/DX2                !
 ! D275  D(109,68,69,70)      -179.5608         estimate D2E/DX2                !
 ! D276  D(109,68,69,110)       -5.1576         estimate D2E/DX2                !
 ! D277  D(68,69,70,71)         -9.3084         estimate D2E/DX2                !
 ! D278  D(68,69,70,73)        177.8473         estimate D2E/DX2                !
 ! D279  D(110,69,70,71)       176.1804         estimate D2E/DX2                !
 ! D280  D(110,69,70,73)         3.3361         estimate D2E/DX2                !
 ! D281  D(69,70,71,72)          7.7988         estimate D2E/DX2                !
 ! D282  D(73,70,71,72)       -178.5552         estimate D2E/DX2                !
 ! D283  D(69,70,73,74)        -27.7536         estimate D2E/DX2                !
 ! D284  D(69,70,73,77)        147.6879         estimate D2E/DX2                !
 ! D285  D(71,70,73,74)        159.1556         estimate D2E/DX2                !
 ! D286  D(71,70,73,77)        -25.4029         estimate D2E/DX2                !
 ! D287  D(70,71,72,67)         -3.446          estimate D2E/DX2                !
 ! D288  D(70,71,72,111)       177.8548         estimate D2E/DX2                !
 ! D289  D(70,73,74,75)        178.8197         estimate D2E/DX2                !
 ! D290  D(70,73,74,112)        -8.3083         estimate D2E/DX2                !
 ! D291  D(77,73,74,75)          2.8888         estimate D2E/DX2                !
 ! D292  D(77,73,74,112)       175.7608         estimate D2E/DX2                !
 ! D293  D(70,73,77,76)       -178.8576         estimate D2E/DX2                !
 ! D294  D(74,73,77,76)         -2.7402         estimate D2E/DX2                !
 ! D295  D(73,74,75,76)         -1.4232         estimate D2E/DX2                !
 ! D296  D(73,74,75,113)       175.5515         estimate D2E/DX2                !
 ! D297  D(112,74,75,76)      -173.5894         estimate D2E/DX2                !
 ! D298  D(112,74,75,113)        3.3853         estimate D2E/DX2                !
 ! D299  D(74,75,76,77)         -0.6996         estimate D2E/DX2                !
 ! D300  D(74,75,76,114)      -175.6462         estimate D2E/DX2                !
 ! D301  D(113,75,76,77)      -177.3899         estimate D2E/DX2                !
 ! D302  D(113,75,76,114)        7.6635         estimate D2E/DX2                !
 ! D303  D(75,76,77,73)          2.0552         estimate D2E/DX2                !
 ! D304  D(114,76,77,73)       177.0985         estimate D2E/DX2                !
 --------------------------------------------------------------------------------
 Trust Radius=3.00D-01 FncErr=1.00D-07 GrdErr=1.00D-06 EigMax=2.50D+02 EigMin=1.00D-04
 Number of steps in this run=    644 maximum allowed number of steps=    684.
 GradGradGradGradGradGradGradGradGradGradGradGradGradGradGradGradGradGrad

 Leave Link  103 at Thu Jul 23 15:37:57 2020, MaxMem=  4026531840 cpu:               0.2 elap:               0.0
 (Enter /opt/ohpc/pub/libs/gaussian/g16-A.03/sandybridge/g16/l202.exe)
 Stoichiometry    C63H37N7S7
 Framework group  C1[X(C63H37N7S7)]
 Deg. of freedom   336
 Full point group                 C1      NOp   1
 Largest Abelian subgroup         C1      NOp   1
 Largest concise Abelian subgroup C1      NOp   1
                         Standard orientation:                         
 ---------------------------------------------------------------------
 Center     Atomic      Atomic             Coordinates (Angstroms)
 Number     Number       Type             X           Y           Z
 ---------------------------------------------------------------------
      1          6           0       26.080256    4.697760   -0.946161
      2          6           0       25.429254    5.349057    0.050058
      3          6           0       24.164592    4.969959    0.535326
      4          6           0       23.547320    3.946497   -0.137134
      5          7           0       24.101623    3.192025   -1.174625
      6          6           0       25.384606    3.666460   -1.507537
      7          6           0       22.201561    3.438968    0.243487
      8          6           0       21.583422    3.563644    1.527588
      9          6           0       20.294178    2.912807    1.556918
     10          6           0       19.994084    2.184265    0.375355
     11         16           0       21.191859    2.508898   -0.841396
     12          6           0       18.766469    1.403370    0.028153
     13          6           0       18.826433    0.266417   -0.815440
     14          6           0       17.757403   -0.495374   -0.998590
     15          6           0       16.520468   -0.111879   -0.350505
     16          7           0       16.492090    0.974584    0.393428
     17          6           0       17.559823    1.758441    0.577124
     18          6           0       15.279917   -0.932917   -0.514382
     19          6           0       15.059595   -2.185107   -1.070302
     20          6           0       13.760529   -2.562963   -1.015000
     21          6           0       12.940292   -1.658845   -0.427444
     22         16           0       13.794327   -0.218509   -0.023287
     23          6           0       11.454694   -1.735067   -0.265541
     24          6           0       10.638486   -2.367238   -1.189939
     25          6           0        9.195057   -2.404386   -0.961596
     26          6           0        8.734399   -1.984048    0.315136
     27          7           0        9.564390   -1.377612    1.247256
     28          6           0       10.910819   -1.346610    0.958511
     29          6           0        7.330449   -1.982371    0.713082
     30          6           0        6.743027   -1.515692    1.838388
     31          6           0        5.344506   -1.695528    1.946900
     32          6           0        4.821641   -2.297301    0.733564
[...]
  Beta virt. eigenvalues --    1.68156   1.68203   1.68689   1.68705   1.68922
  Beta virt. eigenvalues --    1.69107   1.69383   1.69726   1.70155   1.70432
  Beta virt. eigenvalues --    1.71043   1.71162   1.71340   1.71766   1.71905
  Beta virt. eigenvalues --    1.72147   1.72336   1.72825   1.72985   1.73188
  Beta virt. eigenvalues --    1.73525   1.73697   1.73932   1.74051   1.74182
  Beta virt. eigenvalues --    1.74288   1.74434   1.74632   1.74796   1.74873
  Beta virt. eigenvalues --    1.75187   1.75379   1.75546   1.75649   1.75754
  Beta virt. eigenvalues --    1.76004   1.76157   1.76623   1.76755   1.77363
  Beta virt. eigenvalues --    1.77391   1.77615   1.77776   1.78030   1.78122
  Beta virt. eigenvalues --    1.78187   1.78369   1.78600   1.78948   1.79004
  Beta virt. eigenvalues --    1.79105   1.79196   1.79441   1.79570   1.79901
  Beta virt. eigenvalues --    1.80022   1.80321   1.80498   1.81088   1.81213
  Beta virt. eigenvalues --    1.81308   1.81475   1.81880   1.81978   1.82060
  Beta virt. eigenvalues --    1.82265   1.82469   1.82543   1.82595   1.82709
  Beta virt. eigenvalues --    1.82874   1.83076   1.83890   1.83988   1.84395
  Beta virt. eigenvalues --    1.84528   1.84843   1.85493   1.85870   1.86384
  Beta virt. eigenvalues --    1.86439   1.86594   1.86815   1.87073   1.87245
  Beta virt. eigenvalues --    1.87848   1.88351   1.88396   1.88628   1.89023
  Beta virt. eigenvalues --    1.89306   1.89865   1.89994   1.90212   1.90382
  Beta virt. eigenvalues --    1.90794   1.91037   1.91102   1.91566   1.92132
  Beta virt. eigenvalues --    1.92236   1.92380   1.92775   1.93057   1.93249
  Beta virt. eigenvalues --    1.93349   1.93798   1.94142   1.94389   1.94758
  Beta virt. eigenvalues --    1.94906   1.95409   1.95758   1.96194   1.96377
  Beta virt. eigenvalues --    1.96703   1.96861   1.97051   1.97297   1.97682
  Beta virt. eigenvalues --    1.97985   1.98314   1.98381   1.98673   1.98770
  Beta virt. eigenvalues --    1.98819   1.98941   1.99109   1.99476   1.99656
  Beta virt. eigenvalues --    1.99847   1.99987   2.00220   2.00281   2.00682
  Beta virt. eigenvalues --    2.01064   2.01145   2.01452   2.01646   2.01798
  Beta virt. eigenvalues --    2.02058   2.02483   2.02695   2.03029   2.03132
  Beta virt. eigenvalues --    2.03224   2.03606   2.04450   2.04519   2.05651
  Beta virt. eigenvalues --    2.05812   2.06419   2.07105   2.07182   2.07492
  Beta virt. eigenvalues --    2.07578   2.07983   2.08200   2.08344   2.08515
  Beta virt. eigenvalues --    2.08973   2.09117   2.09200   2.09407   2.09544
  Beta virt. eigenvalues --    2.09639   2.10400   2.10641   2.10822   2.10958
  Beta virt. eigenvalues --    2.11099   2.11722   2.11911   2.11985   2.12433
  Beta virt. eigenvalues --    2.12633   2.12803   2.12999   2.13544   2.14165
  Beta virt. eigenvalues --    2.14908   2.15252   2.15474   2.15640   2.16130
  Beta virt. eigenvalues --    2.16212   2.16382   2.16671   2.17289   2.17925
  Beta virt. eigenvalues --    2.18109   2.18331   2.18534   2.18601   2.18797
  Beta virt. eigenvalues --    2.19191   2.19524   2.19813   2.19937   2.20072
  Beta virt. eigenvalues --    2.20812   2.21014   2.21391   2.21418   2.23650
  Beta virt. eigenvalues --    2.23770   2.24582   2.25290   2.25633   2.26027
  Beta virt. eigenvalues --    2.26389   2.26890   2.27481   2.28221   2.28242
  Beta virt. eigenvalues --    2.28530   2.28633   2.28951   2.29219   2.29429
  Beta virt. eigenvalues --    2.29805   2.29967   2.30373   2.30712   2.33701
  Beta virt. eigenvalues --    2.34027   2.34527   2.35151   2.35601   2.35772
  Beta virt. eigenvalues --    2.38018   2.38327   2.39117   2.41091   2.41385
  Beta virt. eigenvalues --    2.41544   2.42239   2.43464   2.44038   2.44771
  Beta virt. eigenvalues --    2.45090   2.45244   2.45421   2.45559   2.45766
  Beta virt. eigenvalues --    2.46292   2.46778   2.46821   2.47251   2.47701
  Beta virt. eigenvalues --    2.47922   2.48729   2.49230   2.49774   2.49963
  Beta virt. eigenvalues --    2.50418   2.50459   2.50691   2.50904   2.52732
  Beta virt. eigenvalues --    2.53046   2.53723   2.53990   2.55276   2.55423
  Beta virt. eigenvalues --    2.55532   2.56117   2.56831   2.56965   2.58091
  Beta virt. eigenvalues --    2.58779   2.59538   2.59595   2.60368   2.60626
  Beta virt. eigenvalues --    2.60950   2.61059   2.61256   2.61361   2.61437
  Beta virt. eigenvalues --    2.61781   2.62341   2.65362   2.65639   2.66023
  Beta virt. eigenvalues --    2.66220   2.66719   2.67070   2.67425   2.67625
  Beta virt. eigenvalues --    2.68098   2.68862   2.68915   2.69223   2.69528
  Beta virt. eigenvalues --    2.71256   2.71554   2.72094   2.72780   2.73932
  Beta virt. eigenvalues --    2.74161   2.74794   2.75006   2.75584   2.75911
  Beta virt. eigenvalues --    2.76059   2.76921   2.77344   2.80539   2.84275
  Beta virt. eigenvalues --    2.85500   2.85605   2.85811   2.87167   2.88215
  Beta virt. eigenvalues --    2.88368   2.88689   2.88883   2.88950   2.89242
  Beta virt. eigenvalues --    2.90184   2.91100   2.91498   2.97164   2.97423
  Beta virt. eigenvalues --    2.97518   2.97594   2.97693   2.97768   2.99639
  Beta virt. eigenvalues --    3.01724   3.01804   3.02047   3.02198   3.02323
  Beta virt. eigenvalues --    3.02402   3.03253   3.08702   3.09147   3.10028
  Beta virt. eigenvalues --    3.10339   3.11344   3.11763   3.12127   3.27337
  Beta virt. eigenvalues --    3.27984   3.29214   3.30096   3.31192   3.31827
  Beta virt. eigenvalues --    3.33204   3.55934   3.56479   3.57233   3.57999
  Beta virt. eigenvalues --    3.58561   3.59022   3.64728
          Condensed to atoms (all electrons):
          Atomic-Atomic Spin Densities.
 Mulliken charges and spin densities:
               1          2
     1  C   -0.067759  -0.000000
     2  C    0.061327   0.000000
     3  C   -0.034068  -0.000000
     4  C    0.136714   0.000000
     5  N   -0.221308   0.000000
     6  C    0.090653  -0.000000
     7  C   -0.155475  -0.000000
     8  C   -0.007435   0.000000
     9  C    0.022369  -0.000000
    10  C   -0.170198   0.000000
    11  S    0.210372  -0.000000
    12  C   -0.041171  -0.000000
    13  C    0.062804   0.000000
    14  C   -0.013715   0.000000
    15  C    0.143842  -0.000000
    16  N   -0.218994   0.000000
    17  C    0.099735   0.000000
    18  C   -0.160496   0.000000
    19  C   -0.012090   0.000000
    20  C    0.022291   0.000000
    21  C   -0.172089  -0.000000
    22  S    0.218099   0.000000
    23  C   -0.038012   0.000000
    24  C    0.057193  -0.000000
    25  C   -0.019731   0.000000
    26  C    0.115883  -0.000000
    27  N   -0.203864  -0.000000
    28  C    0.096479  -0.000000
    29  C   -0.175605   0.000000
    30  C    0.058531   0.000000
    31  C    0.024509  -0.000000
    32  C   -0.163670  -0.000000
    33  S    0.146577  -0.000000
    34  C   -0.037401   0.000000
    35  C    0.060740   0.000000
    36  C   -0.013110   0.000000
    37  C    0.144224   0.000000
    38  N   -0.218428  -0.000000
    39  C    0.100959  -0.000000
    40  C   -0.160973  -0.000000
    41  C   -0.012034   0.000000
    42  C    0.022434  -0.000000
    43  C   -0.171777   0.000000
    44  S    0.218725  -0.000000
    45  C   -0.038210  -0.000000
    46  C    0.057100   0.000000
    47  C   -0.019533  -0.000000
    48  C    0.115893   0.000000
    49  N   -0.204066  -0.000000
    50  C    0.096376   0.000000
    51  C   -0.176407   0.000000
    52  C    0.058794  -0.000000
    53  C    0.022021  -0.000000
    54  C   -0.164229   0.000000
    55  S    0.152634   0.000000
    56  C   -0.033137  -0.000000
    57  C    0.057420   0.000000
    58  C   -0.019077  -0.000000
    59  C    0.116019   0.000000
    60  N   -0.203775  -0.000000
    61  C    0.094113   0.000000
    62  C   -0.176352  -0.000000
    63  C    0.058122  -0.000000
    64  C    0.024580   0.000000
    65  C   -0.162488  -0.000000
    66  S    0.147366   0.000000
    67  C   -0.039349  -0.000000
    68  C    0.059774   0.000000
    69  C   -0.012699  -0.000000
    70  C    0.149504   0.000000
    71  N   -0.217899  -0.000000
    72  C    0.099095   0.000000
    73  C   -0.159922  -0.000000
    74  C   -0.042954   0.000000
    75  C    0.047571  -0.000000
    76  C   -0.151869   0.000000
    77  S    0.202830  -0.000000
    78  H    0.017943   0.000000
    79  H    0.021100  -0.000000
    80  H    0.012730   0.000000
    81  H    0.027087   0.000000
    82  H    0.009087   0.000000
    83  H    0.009690   0.000000
    84  H    0.020853   0.000000
    85  H    0.011986   0.000000
    86  H    0.023275  -0.000000
    87  H    0.008175  -0.000000
    88  H    0.005946  -0.000000
    89  H    0.011148  -0.000000
    90  H    0.023473  -0.000000
    91  H    0.029772   0.000000
    92  H    0.018287  -0.000000
    93  H    0.013879  -0.000000
    94  H    0.018120   0.000000
    95  H    0.012077  -0.000000
    96  H    0.025130   0.000000
    97  H    0.008032  -0.000000
    98  H    0.006553   0.000000
    99  H    0.011323   0.000000
   100  H    0.024778  -0.000000
   101  H    0.029640  -0.000000
   102  H    0.017531   0.000000
   103  H    0.010379  -0.000000
   104  H    0.012668   0.000000
   105  H    0.024530  -0.000000
   106  H    0.026939  -0.000000
   107  H    0.017310  -0.000000
   108  H    0.013534   0.000000
   109  H    0.017193  -0.000000
   110  H    0.012312  -0.000000
   111  H    0.023981  -0.000000
   112  H    0.008188   0.000000
   113  H    0.010420  -0.000000
   114  H    0.042628  -0.000000
 Sum of Mulliken charges =  -0.00000  -0.00000
 Mulliken charges and spin densities with hydrogens summed into heavy atoms:
               1          2
     1  C   -0.049816  -0.000000
     2  C    0.082427   0.000000
     3  C   -0.021339  -0.000000
     4  C    0.136714   0.000000
     5  N   -0.221308   0.000000
     6  C    0.117740  -0.000000
     7  C   -0.155475  -0.000000
     8  C    0.001652   0.000000
     9  C    0.032059  -0.000000
    10  C   -0.170198   0.000000
    11  S    0.210372  -0.000000
    12  C   -0.041171  -0.000000
    13  C    0.083657   0.000000
    14  C   -0.001730   0.000000
    15  C    0.143842  -0.000000
    16  N   -0.218994   0.000000
    17  C    0.123010   0.000000
    18  C   -0.160496   0.000000
    19  C   -0.003915   0.000000
    20  C    0.028237   0.000000
    21  C   -0.172089  -0.000000
    22  S    0.218099   0.000000
    23  C   -0.038012   0.000000
    24  C    0.068341  -0.000000
    25  C    0.003743   0.000000
    26  C    0.115883  -0.000000
    27  N   -0.203864  -0.000000
    28  C    0.126251  -0.000000
    29  C   -0.175605   0.000000
    30  C    0.076818  -0.000000
    31  C    0.038388  -0.000000
    32  C   -0.163670  -0.000000
    33  S    0.146577  -0.000000
    34  C   -0.037401   0.000000
    35  C    0.078860   0.000000
    36  C   -0.001033   0.000000
    37  C    0.144224   0.000000
    38  N   -0.218428  -0.000000
    39  C    0.126089  -0.000000
    40  C   -0.160973  -0.000000
    41  C   -0.004002   0.000000
    42  C    0.028987  -0.000000
    43  C   -0.171777   0.000000
    44  S    0.218725  -0.000000
    45  C   -0.038210  -0.000000
    46  C    0.068423   0.000000
    47  C    0.005245  -0.000000
    48  C    0.115893   0.000000
    49  N   -0.204066  -0.000000
    50  C    0.126015   0.000000
    51  C   -0.176407   0.000000
    52  C    0.076325  -0.000000
    53  C    0.032400  -0.000000
    54  C   -0.164229   0.000000
    55  S    0.152634   0.000000
    56  C   -0.033137  -0.000000
    57  C    0.070088   0.000000
    58  C    0.005453  -0.000000
    59  C    0.116019   0.000000
    60  N   -0.203775  -0.000000
    61  C    0.121052   0.000000
    62  C   -0.176352  -0.000000
    63  C    0.075432  -0.000000
    64  C    0.038114   0.000000
    65  C   -0.162488  -0.000000
    66  S    0.147366   0.000000
    67  C   -0.039349  -0.000000
    68  C    0.076968   0.000000
    69  C   -0.000387  -0.000000
    70  C    0.149504   0.000000
    71  N   -0.217899  -0.000000
    72  C    0.123076   0.000000
    73  C   -0.159922  -0.000000
    74  C   -0.034766   0.000000
    75  C    0.057991  -0.000000
    76  C   -0.109241   0.000000
    77  S    0.202830  -0.000000
 Electronic spatial extent (au):  <R**2>=         520825.3888
 Charge=             -0.0000 electrons
 Dipole moment (field-independent basis, Debye):
    X=              8.5527    Y=              0.3687    Z=             -1.5587  Tot=              8.7014
 Quadrupole moment (field-independent basis, Debye-Ang):
   XX=           -342.7079   YY=           -431.9417   ZZ=           -477.4752
   XY=            -16.7912   XZ=              5.2538   YZ=             32.1860
 Traceless Quadrupole moment (field-independent basis, Debye-Ang):
   XX=             74.6671   YY=            -14.5667   ZZ=            -60.1003
   XY=            -16.7912   XZ=              5.2538   YZ=             32.1860
 Octapole moment (field-independent basis, Debye-Ang**2):
  XXX=           6583.7949  YYY=             77.1823  ZZZ=             21.5251  XYY=             54.4134
  XXY=           2137.4457  XXZ=            122.0662  XZZ=            202.5224  YZZ=              2.2352
  YYZ=            -46.6460  XYZ=            215.0296
 Hexadecapole moment (field-independent basis, Debye-Ang**3):
 XXXX=        -558612.5799 YYYY=         -15134.7662 ZZZZ=          -2584.5338 XXXY=          13894.1060
 XXXZ=           5446.9728 YYYX=           -322.7575 YYYZ=            469.8802 ZZZX=           -195.5228
 ZZZY=            111.2791 XXYY=        -102147.4575 XXZZ=        -118839.9501 YYZZ=          -3085.6379
 XXYZ=           5682.1135 YYXZ=            820.4863 ZZXY=            641.2106
 N-N= 9.733521368205D+03 E-N=-3.260002633612D+04  KE= 5.566254331735D+03
 Leave Link  601 at Fri Jul 24 00:14:50 2020, MaxMem=  4026531840 cpu:              16.6 elap:               2.2
 (Enter /opt/ohpc/pub/libs/gaussian/g16-A.03/sandybridge/g16/l9999.exe)

 Test job not archived.
 1\1\GINC-SKYLAKE049\FOpt\ULC-wPBE\CC-pVDZ\C63H37N7S7\RDU230\24-Jul-202
 0\0\\#P uLC-wPBE/cc-pVDZ iop(3/107=0420000000, 3/108=0420000000) opt\\
 H37 C63 S7 N7\\0,1\C,25.9519438177,4.4440263067,-1.0454213364\C,25.499
 0273644,4.9390884872,0.1691062604\C,24.2599656535,4.5414021423,0.63815
 95047\C,23.5079588758,3.6523383457,-0.129748035\N,23.9399937506,3.1744
 985919,-1.2975082965\C,25.1300413312,3.5655747174,-1.7353603039\C,22.1
 822649878,3.1818633601,0.29820538\C,21.4741357483,3.4682080899,1.43075
 30669\C,20.2195157261,2.8093708585,1.4773763341\C,19.990273052,2.03053
 59561,0.3769030124\S,21.3114140785,2.1066259328,-0.7246867874\C,18.805
 8870349,1.2100368749,0.0904817792\C,18.8739875799,0.0147714713,-0.6239
 436532\C,17.7240335613,-0.7159909286,-0.8496640997\C,16.5143555236,-0.
 2408265729,-0.3453629476\N,16.4350142371,0.9045280863,0.33408584\C,17.
 5418880012,1.6013928161,0.5335415273\C,15.2491360616,-0.9633050963,-0.
 5300515892\C,15.0031702895,-2.1512741823,-1.1590749639\C,13.6348007425
 ,-2.5187405688,-1.1238003563\C,12.8574226043,-1.6046307288,-0.46720418
 65\S,13.8015354177,-0.2835927163,0.1048553407\C,11.4073010752,-1.66497
 49704,-0.2398080982\C,10.5497632259,-2.2732895757,-1.153542959\C,9.194
 3929334,-2.3230458728,-0.8908047925\C,8.7107372353,-1.748800882,0.2841
 096719\N,9.5211138736,-1.1584749779,1.1647790367\C,10.8176584144,-1.12
 65367388,0.9058061414\C,7.281740903,-1.7489866769,0.6348603931\C,6.726
 5089203,-1.2111636189,1.7589370798\C,5.3186568059,-1.372267481,1.81253
 49657\C,4.813091467,-2.0315462096,0.7275460103\S,6.0725446024,-2.45173
 79361,-0.372150267\C,3.4132326798,-2.3739524319,0.4458330525\C,3.04366
 71921,-3.5281333281,-0.2432882356\C,1.7073089626,-3.7969889116,-0.4642
 323041\C,0.7518760375,-2.9044782555,0.020069219\N,1.0932436223,-1.7940
 568478,0.6759647331\C,2.3771910286,-1.5413601592,0.8709529113\C,-0.688
 8117958,-3.1229227027,-0.1615294943\C,-1.3476755278,-4.1553709199,-0.7
 677879529\C,-2.7561561358,-4.0013777852,-0.7379948926\C,-3.1503481711,
 -2.8527557379,-0.1083338838\S,-1.7926572901,-1.9505490404,0.4448839553
 \C,-4.5242176755,-2.3787860927,0.1064158025\C,-5.5426415207,-2.6569764
 06,-0.8023401092\C,-6.8245427348,-2.2074906354,-0.5513747633\C,-7.0690
 822651,-1.4700493001,0.6064950874\N,-6.1010485437,-1.1922756981,1.4820
 953726\C,-4.8804184905,-1.6373484002,1.2348056171\C,-8.4021273185,-0.9
 465356386,0.9437971194\C,-8.7292112748,-0.2284678554,2.0568653349\C,-1
 0.0996410003,0.1321118641,2.0986815699\C,-10.8055535417,-0.3147248944,
 1.016957043\S,-9.7791013291,-1.1777077611,-0.0658927938\C,-12.23375690
 75,-0.1290370126,0.7302698688\C,-12.9193970403,1.0082145858,1.15157907
 06\C,-14.2670932799,1.1343095545,0.8765239847\C,-14.9126369961,0.12062
 56744,0.1688780201\N,-14.2655531672,-0.970999052,-0.2442088521\C,-12.9
 777208692,-1.0837389252,0.0344506903\C,-16.3422641914,0.1813379601,-0.
 1725335485\C,-17.0483569447,-0.76104784,-0.8614253465\C,-18.4124582979
 ,-0.4142902546,-1.0341835648\C,-18.7342442392,0.7900790505,-0.47431154
 54\S,-17.3553892716,1.5010721228,0.2773170074\C,-20.0398953521,1.46213
 45101,-0.4566259317\C,-20.1746195298,2.8491726356,-0.4982380885\C,-21.
 4335726884,3.4160615875,-0.4915030103\C,-22.5496948844,2.5807079397,-0
 .4516843985\N,-22.4327875626,1.2525477713,-0.4060449322\C,-21.22087585
 5,0.7214929812,-0.4017740509\C,-23.9217994302,3.1057146054,-0.45460074
 58\C,-24.360188087,4.399479114,-0.5023970621\C,-25.7772185147,4.500851
 0433,-0.4877232728\C,-26.3763633705,3.2797196183,-0.4291769789\S,-25.2
 423777313,2.0027110736,-0.3915132641\H,26.9208638473,4.731173115,-1.45
 20920389\H,26.1084757176,5.6333633388,0.7489548799\H,23.8794899738,4.9
 159803953,1.5869720971\H,25.4448537601,3.1506718253,-2.6965371275\H,21
 .8355627101,4.1242585836,2.2200839167\H,19.5238494388,2.8890981251,2.3
 107680744\H,19.8340665344,-0.3489256902,-0.9935298703\H,17.7679228024,
 -1.6510576323,-1.4052823675\H,17.4224768453,2.5453925577,1.071513002\H
 ,15.7748546462,-2.7572797575,-1.6295361619\H,13.2449000825,-3.44283944
 57,-1.5470368167\H,10.9441371698,-2.6931276979,-2.0794332773\H,8.51521
 44322,-2.7942886237,-1.601322404\H,11.4438229517,-0.647329158,1.664209
 1081\H,7.3350425747,-0.7243925178,2.5170253625\H,4.7005024767,-1.03377
 53664,2.6421218836\H,3.8064672441,-4.2240485793,-0.596209791\H,1.40927
 97879,-4.696463041,-1.0000229002\H,2.6081954377,-0.6073104015,1.389522
 9392\H,-0.8475831778,-5.0106836016,-1.2177328569\H,-3.4539018025,-4.73
 10706441,-1.1451611918\H,-5.3259926028,-3.2126912189,-1.7151958911\H,-
 7.6276263616,-2.4188061455,-1.2574634141\H,-4.1242658049,-1.399777366,
 1.988947097\H,-7.9889260243,0.0151973352,2.8148609041\H,-10.5563501548
 ,0.6838549077,2.9185230149\H,-12.3914218623,1.8018078905,1.6811487555\
 H,-14.8115902044,2.0215353098,1.199743423\H,-12.4948007255,-2.00355849
 02,-0.3089149896\H,-16.5766207871,-1.6681104256,-1.231150618\H,-19.129
 7021454,-1.0250313627,-1.5795405947\H,-19.2892468811,3.4850470564,-0.5
 494557465\H,-21.5488195333,4.4978859241,-0.5264738369\H,-21.1759823947
 ,-0.3688431356,-0.3373339258\H,-23.6966835105,5.2609627055,-0.54762917
 14\H,-26.3224718925,5.4421481448,-0.5194960046\H,-27.4421981603,3.0652
 65978,-0.4059535703\\Version=EM64L-G16RevA.03\State=1-A\HF=-5590.88241
 36\S2=0.\S2-1=0.\S2A=0.\RMSD=7.342e-09\RMSF=3.597e-06\Dipole=3.3643815
 ,0.1433358,-0.6163883\Quadrupole=55.5186611,-10.7054718,-44.8131893,-1
 2.4563865,3.8565462,23.8517225\PG=C01 [X(C63H37N7S7)]\\@


 LAWS OF PROGRAMMING DEFINITION:  A WORKING PROGRAM
                                  IS ONE THAT HAS
                                  ONLY UNOBSERVED
                                  BUGS.
 Job cpu time:       2 days 19 hours 48 minutes 38.8 seconds.
 Elapsed time:       0 days  8 hours 36 minutes 50.0 seconds.
 File lengths (MBytes):  RWF=   1872 Int=      0 D2E=      0 Chk=    168 Scr=      8
 Normal termination of Gaussian 16 at Fri Jul 24 00:14:50 2020.
