 Entering Gaussian System, Link 0=g16
 Input=mols_65_5_02_c-c-CF_opt_0.gjf
 Output=mols_65_5_02_c-c-CF_opt_0.log
 Initial command:
 /opt/ohpc/pub/libs/gaussian/g16-A.03/sandybridge/g16/l1.exe "/mnt/gpfs2_4m/scratch/rdu230/ondemand/projects/dihedral_energies/7trial/wtuning/mols_65_5_02_c-c-CF/Gau-127038.inp" -scrdir="/mnt/gpfs2_4m/scratch/rdu230/ondemand/projects/dihedral_energies/7trial/wtuning/mols_65_5_02_c-c-CF/"
 Entering Link 1 = /opt/ohpc/pub/libs/gaussian/g16-A.03/sandybridge/g16/l1.exe PID=    127048.
  
 Copyright (c) 1988,1990,1992,1993,1995,1998,2003,2009,2016,
            Gaussian, Inc.  All Rights Reserved.
  
 This is part of the Gaussian(R) 16 program.  It is based on
 the Gaussian(R) 09 system (copyright 2009, Gaussian, Inc.),
 the Gaussian(R) 03 system (copyright 2003, Gaussian, Inc.),
 the Gaussian(R) 98 system (copyright 1998, Gaussian, Inc.),
 the Gaussian(R) 94 system (copyright 1995, Gaussian, Inc.),
 the Gaussian 92(TM) system (copyright 1992, Gaussian, Inc.),
 the Gaussian 90(TM) system (copyright 1990, Gaussian, Inc.),
 the Gaussian 88(TM) system (copyright 1988, Gaussian, Inc.),
 the Gaussian 86(TM) system (copyright 1986, Carnegie Mellon
 University), and the Gaussian 82(TM) system (copyright 1983,
 Carnegie Mellon University). Gaussian is a federally registered
 trademark of Gaussian, Inc.
  
 This software contains proprietary and confidential information,
 including trade secrets, belonging to Gaussian, Inc.
  
 This software is provided under written license and may be
 used, copied, transmitted, or stored only in accord with that
 written license.
  
 The following legend is applicable only to US Government
 contracts under FAR:
  
                    RESTRICTED RIGHTS LEGEND
  
 Use, reproduction and disclosure by the US Government is
 subject to restrictions as set forth in subparagraphs (a)
 and (c) of the Commercial Computer Software - Restricted
 Rights clause in FAR 52.227-19.
  
 Gaussian, Inc.
 340 Quinnipiac St., Bldg. 40, Wallingford CT 06492
  
  
 ---------------------------------------------------------------
 Warning -- This program may not be used in any manner that
 competes with the business of Gaussian, Inc. or will provide
 assistance to any competitor of Gaussian, Inc.  The licensee
 of this program is prohibited from giving any competitor of
 Gaussian, Inc. access to this program.  By using this program,
 the user acknowledges that Gaussian, Inc. is engaged in the
 business of creating and licensing software in the field of
 computational chemistry and represents and warrants to the
 licensee that it is not a competitor of Gaussian, Inc. and that
 it will not use this program in any manner prohibited above.
 ---------------------------------------------------------------
  

 Cite this work as:
 Gaussian 16, Revision A.03,
 M. J. Frisch, G. W. Trucks, H. B. Schlegel, G. E. Scuseria, 
 M. A. Robb, J. R. Cheeseman, G. Scalmani, V. Barone, 
 G. A. Petersson, H. Nakatsuji, X. Li, M. Caricato, A. V. Marenich, 
 J. Bloino, B. G. Janesko, R. Gomperts, B. Mennucci, H. P. Hratchian, 
 J. V. Ortiz, A. F. Izmaylov, J. L. Sonnenberg, D. Williams-Young, 
 F. Ding, F. Lipparini, F. Egidi, J. Goings, B. Peng, A. Petrone, 
 T. Henderson, D. Ranasinghe, V. G. Zakrzewski, J. Gao, N. Rega, 
 G. Zheng, W. Liang, M. Hada, M. Ehara, K. Toyota, R. Fukuda, 
 J. Hasegawa, M. Ishida, T. Nakajima, Y. Honda, O. Kitao, H. Nakai, 
 T. Vreven, K. Throssell, J. A. Montgomery, Jr., J. E. Peralta, 
 F. Ogliaro, M. J. Bearpark, J. J. Heyd, E. N. Brothers, K. N. Kudin, 
 V. N. Staroverov, T. A. Keith, R. Kobayashi, J. Normand, 
 K. Raghavachari, A. P. Rendell, J. C. Burant, S. S. Iyengar, 
 J. Tomasi, M. Cossi, J. M. Millam, M. Klene, C. Adamo, R. Cammi, 
 J. W. Ochterski, R. L. Martin, K. Morokuma, O. Farkas, 
 J. B. Foresman, and D. J. Fox, Gaussian, Inc., Wallingford CT, 2016.
 
 ******************************************
 Gaussian 16:  EM64L-G16RevA.03 25-Dec-2016
                23-Jul-2020 
 ******************************************
 %mem=30GB
 %nproc=8
 Will use up to    8 processors via shared memory.
 ---------------------------------------------------------------
 #P uLC-wPBE/cc-pVDZ iop(3/107=0177300000, 3/108=0177300000) opt
 ---------------------------------------------------------------
 1/18=20,19=15,26=3,38=1/1,3;
 2/9=110,12=2,17=6,18=5,40=1/2;
 3/5=16,11=2,25=1,30=1,71=1,74=-41,107=177300000,108=177300000,116=2/1,2,3;
 4//1;
 5/5=2,38=5/2;
 6/7=2,8=2,9=2,10=2,28=1/1;
 7//1,2,3,16;
 1/18=20,19=15,26=3/3(2);
 2/9=110/2;
 99//99;
 2/9=110/2;
 3/5=16,11=2,25=1,30=1,71=1,74=-41,107=177300000,108=177300000,116=2/1,2,3;
 4/5=5,16=3,69=1/1;
 5/5=2,38=5/2;
 7//1,2,3,16;
 1/18=20,19=15,26=3/3(-5);
 2/9=110/2;
 6/7=2,8=2,9=2,10=2,19=2,28=1/1;
 99/9=1/99;
 Leave Link    1 at Thu Jul 23 15:43:23 2020, MaxMem=  4026531840 cpu:               3.4 elap:               0.5
 (Enter /opt/ohpc/pub/libs/gaussian/g16-A.03/sandybridge/g16/l101.exe)
 -------------
 H27 C50 S5 F5
 -------------
 Symbolic Z-matrix:
 Charge =  0 Multiplicity = 1
 C                     18.86852  -1.55533   1.19261 
 C                     17.76641  -1.9833    1.84499 
 C                     16.47376  -1.31809   1.60733 
 C                     16.47016  -0.25341   0.66759 
 C                     17.68766   0.19438   0.05799 
 C                     18.82269  -0.48551   0.31837 
 C                     15.21576   0.51      0.41963 
 C                     15.01313   1.90465   0.2473 
 F                     16.02233   2.80878   0.27329 
 C                     13.67626   2.25308   0.00706 
 C                     12.84288   1.13938   0.15028 
 S                     13.75288  -0.30503   0.3874 
 C                     11.37256   1.13263  -0.10966 
 C                     10.51758   0.2879    0.72262 
 C                     9.18134   0.39362   0.57454 
 C                     8.53708   1.26891  -0.34826 
 C                     9.38161   2.01786  -1.09719 
 C                     10.79854   1.96139  -1.0337 
 C                     7.0779    1.29378  -0.42666 
 C                     6.25006   2.4563   -0.68804 
 F                     6.82927   3.6684   -0.79717 
 C                     4.88606   2.21614  -0.73886 
 C                     4.6037    0.78319  -0.58913 
 S                     6.10592  -0.06721  -0.33604 
 C                     3.25566   0.18879  -0.57283 
 C                     2.25997   0.63999  -1.31951 
 C                     0.99593   0.10687  -1.3118 
 C                     0.75676  -0.99919  -0.55702 
 C                     1.7847   -1.59114   0.23737 
 C                     2.99379  -0.9409    0.20242 
 C                    -0.58756  -1.64281  -0.48948 
 C                    -0.8765   -3.0279   -0.55066 
 F                     0.04613  -3.99913  -0.67449 
 C                    -2.30633  -3.23376  -0.5028 
 C                    -3.05472  -2.07849  -0.44896 
 S                    -2.02675  -0.71519  -0.34135 
 C                    -4.49626  -2.02514  -0.29987 
 C                    -5.21891  -2.87442   0.41263 
 C                    -6.67478  -2.82967   0.5549 
 C                    -7.31888  -1.8409   -0.13015 
 C                    -6.62825  -0.88585  -0.93608 
 C                    -5.23961  -0.92922  -0.94878 
 C                    -8.83228  -1.79995  -0.10745 
 C                    -9.76352  -2.80764  -0.18768 
 F                    -9.33352  -4.08019  -0.40419 
 C                    -11.03077  -2.40635  -0.0665 
 C                    -11.16253  -1.00057   0.10692 
 S                    -9.63504  -0.22961   0.13052 
 C                    -12.44421  -0.23788   0.16761 
 C                    -12.52814   1.0598   -0.31511 
 C                    -13.73739   1.81464  -0.22844 
 C                    -14.86413   1.23772   0.48959 
 C                    -14.70663  -0.04282   1.06137 
 C                    -13.56199  -0.79912   0.9122 
 C                    -16.1354   2.00803   0.57359 
 C                    -16.24323   3.33755   0.74704 
 F                    -15.25207   4.20577   1.02966 
 C                    -17.6141   3.74594   0.81723 
 C                    -18.51707   2.7341    0.50044 
 S                    -17.61677   1.28829   0.28231 
 H                     19.86133  -2.14023   1.32887 
 H                     17.77693  -2.87416   2.49373 
 H                     15.61583  -1.68458   2.09609 
 H                     17.69382   0.97353  -0.64379 
 H                     19.80327  -0.17329  -0.1931 
 H                     13.32886   3.26901  -0.06996 
 H                     10.93123  -0.30161   1.53007 
 H                     8.58004  -0.23047   1.27937 
 H                     8.92521   2.70518  -1.93023 
 H                     11.35096   2.65114  -1.62522 
 H                     4.20289   2.94462  -0.91374 
 H                     2.40906   1.56138  -1.97334 
 H                     0.25025   0.5308   -1.98266 
 H                     1.58208  -2.45853   0.86487 
 H                     3.79073  -1.39551   0.92653 
 H                    -2.70275  -4.3139   -0.54875 
 H                    -4.71183  -3.68311   0.95463 
 H                    -7.17405  -3.53292   1.06809 
 H                    -7.07666  -0.10903  -1.42625 
 H                    -4.66396  -0.25891  -1.6201 
 H                    -11.88551  -3.07945  -0.12032 
 H                    -11.69833   1.48539  -0.93578 
 H                    -13.847    2.78589  -0.6958 
 H                    -15.58588  -0.44798   1.55449 
 H                    -13.46651  -1.78828   1.35355 
 H                    -17.95329   4.73537   0.94408 
 H                    -19.60705   2.70059   0.47814 
 
 ITRead=  0  0  0  0  0  0  0  0  0  0  0  0  0  0  0  0  0  0  0  0
 ITRead=  0  0  0  0  0  0  0  0  0  0  0  0  0  0  0  0  0  0  0  0
 ITRead=  0  0  0  0  0  0  0  0  0  0  0  0  0  0  0  0  0  0  0  0
 ITRead=  0  0  0  0  0  0  0  0  0  0  0  0  0  0  0  0  0  0  0  0
 ITRead=  0  0  0  0  0  0  0
 MicOpt= -1 -1 -1 -1 -1 -1 -1 -1 -1 -1 -1 -1 -1 -1 -1 -1 -1 -1 -1 -1
 MicOpt= -1 -1 -1 -1 -1 -1 -1 -1 -1 -1 -1 -1 -1 -1 -1 -1 -1 -1 -1 -1
 MicOpt= -1 -1 -1 -1 -1 -1 -1 -1 -1 -1 -1 -1 -1 -1 -1 -1 -1 -1 -1 -1
 MicOpt= -1 -1 -1 -1 -1 -1 -1 -1 -1 -1 -1 -1 -1 -1 -1 -1 -1 -1 -1 -1
 MicOpt= -1 -1 -1 -1 -1 -1 -1
 NAtoms=     87 NQM=       87 NQMF=       0 NMMI=      0 NMMIF=      0
                NMic=       0 NMicF=      0.
                    Isotopes and Nuclear Properties:
 (Nuclear quadrupole moments (NQMom) in fm**2, nuclear magnetic moments (NMagM)
  in nuclear magnetons)

  Atom         1           2           3           4           5           6           7           8           9          10
 IAtWgt=          12          12          12          12          12          12          12          12          19          12
 AtmWgt=  12.0000000  12.0000000  12.0000000  12.0000000  12.0000000  12.0000000  12.0000000  12.0000000  18.9984033  12.0000000
 NucSpn=           0           0           0           0           0           0           0           0           1           0
 AtZEff=  -0.0000000  -0.0000000  -0.0000000  -0.0000000  -0.0000000  -0.0000000  -0.0000000  -0.0000000  -0.0000000  -0.0000000
 NQMom=    0.0000000   0.0000000   0.0000000   0.0000000   0.0000000   0.0000000   0.0000000   0.0000000   0.0000000   0.0000000
 NMagM=    0.0000000   0.0000000   0.0000000   0.0000000   0.0000000   0.0000000   0.0000000   0.0000000   2.6288670   0.0000000
 AtZNuc=   6.0000000   6.0000000   6.0000000   6.0000000   6.0000000   6.0000000   6.0000000   6.0000000   9.0000000   6.0000000

  Atom        11          12          13          14          15          16          17          18          19          20
 IAtWgt=          12          32          12          12          12          12          12          12          12          12
 AtmWgt=  12.0000000  31.9720718  12.0000000  12.0000000  12.0000000  12.0000000  12.0000000  12.0000000  12.0000000  12.0000000
 NucSpn=           0           0           0           0           0           0           0           0           0           0
 AtZEff=  -0.0000000  -0.0000000  -0.0000000  -0.0000000  -0.0000000  -0.0000000  -0.0000000  -0.0000000  -0.0000000  -0.0000000
 NQMom=    0.0000000   0.0000000   0.0000000   0.0000000   0.0000000   0.0000000   0.0000000   0.0000000   0.0000000   0.0000000
 NMagM=    0.0000000   0.0000000   0.0000000   0.0000000   0.0000000   0.0000000   0.0000000   0.0000000   0.0000000   0.0000000
 AtZNuc=   6.0000000  16.0000000   6.0000000   6.0000000   6.0000000   6.0000000   6.0000000   6.0000000   6.0000000   6.0000000

  Atom        21          22          23          24          25          26          27          28          29          30
 IAtWgt=          19          12          12          32          12          12          12          12          12          12
 AtmWgt=  18.9984033  12.0000000  12.0000000  31.9720718  12.0000000  12.0000000  12.0000000  12.0000000  12.0000000  12.0000000
 NucSpn=           1           0           0           0           0           0           0           0           0           0
 AtZEff=  -0.0000000  -0.0000000  -0.0000000  -0.0000000  -0.0000000  -0.0000000  -0.0000000  -0.0000000  -0.0000000  -0.0000000
 NQMom=    0.0000000   0.0000000   0.0000000   0.0000000   0.0000000   0.0000000   0.0000000   0.0000000   0.0000000   0.0000000
 NMagM=    2.6288670   0.0000000   0.0000000   0.0000000   0.0000000   0.0000000   0.0000000   0.0000000   0.0000000   0.0000000
 AtZNuc=   9.0000000   6.0000000   6.0000000  16.0000000   6.0000000   6.0000000   6.0000000   6.0000000   6.0000000   6.0000000

  Atom        31          32          33          34          35          36          37          38          39          40
 IAtWgt=          12          12          19          12          12          32          12          12          12          12
 AtmWgt=  12.0000000  12.0000000  18.9984033  12.0000000  12.0000000  31.9720718  12.0000000  12.0000000  12.0000000  12.0000000
 NucSpn=           0           0           1           0           0           0           0           0           0           0
 AtZEff=  -0.0000000  -0.0000000  -0.0000000  -0.0000000  -0.0000000  -0.0000000  -0.0000000  -0.0000000  -0.0000000  -0.0000000
 NQMom=    0.0000000   0.0000000   0.0000000   0.0000000   0.0000000   0.0000000   0.0000000   0.0000000   0.0000000   0.0000000
 NMagM=    0.0000000   0.0000000   2.6288670   0.0000000   0.0000000   0.0000000   0.0000000   0.0000000   0.0000000   0.0000000
 AtZNuc=   6.0000000   6.0000000   9.0000000   6.0000000   6.0000000  16.0000000   6.0000000   6.0000000   6.0000000   6.0000000

  Atom        41          42          43          44          45          46          47          48          49          50
 IAtWgt=          12          12          12          12          19          12          12          32          12          12
 AtmWgt=  12.0000000  12.0000000  12.0000000  12.0000000  18.9984033  12.0000000  12.0000000  31.9720718  12.0000000  12.0000000
 NucSpn=           0           0           0           0           1           0           0           0           0           0
 AtZEff=  -0.0000000  -0.0000000  -0.0000000  -0.0000000  -0.0000000  -0.0000000  -0.0000000  -0.0000000  -0.0000000  -0.0000000
 NQMom=    0.0000000   0.0000000   0.0000000   0.0000000   0.0000000   0.0000000   0.0000000   0.0000000   0.0000000   0.0000000
 NMagM=    0.0000000   0.0000000   0.0000000   0.0000000   2.6288670   0.0000000   0.0000000   0.0000000   0.0000000   0.0000000
 AtZNuc=   6.0000000   6.0000000   6.0000000   6.0000000   9.0000000   6.0000000   6.0000000  16.0000000   6.0000000   6.0000000

  Atom        51          52          53          54          55          56          57          58          59          60
 IAtWgt=          12          12          12          12          12          12          19          12          12          32
 AtmWgt=  12.0000000  12.0000000  12.0000000  12.0000000  12.0000000  12.0000000  18.9984033  12.0000000  12.0000000  31.9720718
 NucSpn=           0           0           0           0           0           0           1           0           0           0
 AtZEff=  -0.0000000  -0.0000000  -0.0000000  -0.0000000  -0.0000000  -0.0000000  -0.0000000  -0.0000000  -0.0000000  -0.0000000
 NQMom=    0.0000000   0.0000000   0.0000000   0.0000000   0.0000000   0.0000000   0.0000000   0.0000000   0.0000000   0.0000000
 NMagM=    0.0000000   0.0000000   0.0000000   0.0000000   0.0000000   0.0000000   2.6288670   0.0000000   0.0000000   0.0000000
 AtZNuc=   6.0000000   6.0000000   6.0000000   6.0000000   6.0000000   6.0000000   9.0000000   6.0000000   6.0000000  16.0000000

  Atom        61          62          63          64          65          66          67          68          69          70
 IAtWgt=           1           1           1           1           1           1           1           1           1           1
 AtmWgt=   1.0078250   1.0078250   1.0078250   1.0078250   1.0078250   1.0078250   1.0078250   1.0078250   1.0078250   1.0078250
 NucSpn=           1           1           1           1           1           1           1           1           1           1
 AtZEff=  -0.0000000  -0.0000000  -0.0000000  -0.0000000  -0.0000000  -0.0000000  -0.0000000  -0.0000000  -0.0000000  -0.0000000
 NQMom=    0.0000000   0.0000000   0.0000000   0.0000000   0.0000000   0.0000000   0.0000000   0.0000000   0.0000000   0.0000000
 NMagM=    2.7928460   2.7928460   2.7928460   2.7928460   2.7928460   2.7928460   2.7928460   2.7928460   2.7928460   2.7928460
 AtZNuc=   1.0000000   1.0000000   1.0000000   1.0000000   1.0000000   1.0000000   1.0000000   1.0000000   1.0000000   1.0000000

  Atom        71          72          73          74          75          76          77          78          79          80
 IAtWgt=           1           1           1           1           1           1           1           1           1           1
 AtmWgt=   1.0078250   1.0078250   1.0078250   1.0078250   1.0078250   1.0078250   1.0078250   1.0078250   1.0078250   1.0078250
 NucSpn=           1           1           1           1           1           1           1           1           1           1
 AtZEff=  -0.0000000  -0.0000000  -0.0000000  -0.0000000  -0.0000000  -0.0000000  -0.0000000  -0.0000000  -0.0000000  -0.0000000
 NQMom=    0.0000000   0.0000000   0.0000000   0.0000000   0.0000000   0.0000000   0.0000000   0.0000000   0.0000000   0.0000000
 NMagM=    2.7928460   2.7928460   2.7928460   2.7928460   2.7928460   2.7928460   2.7928460   2.7928460   2.7928460   2.7928460
 AtZNuc=   1.0000000   1.0000000   1.0000000   1.0000000   1.0000000   1.0000000   1.0000000   1.0000000   1.0000000   1.0000000

  Atom        81          82          83          84          85          86          87
 IAtWgt=           1           1           1           1           1           1           1
 AtmWgt=   1.0078250   1.0078250   1.0078250   1.0078250   1.0078250   1.0078250   1.0078250
 NucSpn=           1           1           1           1           1           1           1
 AtZEff=  -0.0000000  -0.0000000  -0.0000000  -0.0000000  -0.0000000  -0.0000000  -0.0000000
 NQMom=    0.0000000   0.0000000   0.0000000   0.0000000   0.0000000   0.0000000   0.0000000
 NMagM=    2.7928460   2.7928460   2.7928460   2.7928460   2.7928460   2.7928460   2.7928460
 AtZNuc=   1.0000000   1.0000000   1.0000000   1.0000000   1.0000000   1.0000000   1.0000000
 Leave Link  101 at Thu Jul 23 15:43:23 2020, MaxMem=  4026531840 cpu:               2.7 elap:               0.4
 (Enter /opt/ohpc/pub/libs/gaussian/g16-A.03/sandybridge/g16/l103.exe)

 GradGradGradGradGradGradGradGradGradGradGradGradGradGradGradGradGradGrad
 Berny optimization.
 Initialization pass.
                           ----------------------------
                           !    Initial Parameters    !
                           ! (Angstroms and Degrees)  !
 --------------------------                            --------------------------
 ! Name  Definition              Value          Derivative Info.                !
 --------------------------------------------------------------------------------
 ! R1    R(1,2)                  1.3503         estimate D2E/DX2                !
 ! R2    R(1,6)                  1.3823         estimate D2E/DX2                !
 ! R3    R(1,61)                 1.1603         estimate D2E/DX2                !
 ! R4    R(2,3)                  1.4731         estimate D2E/DX2                !
 ! R5    R(2,62)                 1.1021         estimate D2E/DX2                !
 ! R6    R(3,4)                  1.4201         estimate D2E/DX2                !
 ! R7    R(3,63)                 1.0532         estimate D2E/DX2                !
 ! R8    R(4,5)                  1.4333         estimate D2E/DX2                !
 ! R9    R(4,7)                  1.4892         estimate D2E/DX2                !
 ! R10   R(5,6)                  1.3485         estimate D2E/DX2                !
 ! R11   R(5,64)                 1.0486         estimate D2E/DX2                !
 ! R12   R(6,65)                 1.1492         estimate D2E/DX2                !
 ! R13   R(7,8)                  1.4198         estimate D2E/DX2                !
 ! R14   R(7,12)                 1.6749         estimate D2E/DX2                !
 ! R15   R(8,9)                  1.3552         estimate D2E/DX2                !
 ! R16   R(8,10)                 1.4023         estimate D2E/DX2                !
 ! R17   R(10,11)                1.3983         estimate D2E/DX2                !
 ! R18   R(10,66)                1.0764         estimate D2E/DX2                !
 ! R19   R(11,12)                1.7236         estimate D2E/DX2                !
 ! R20   R(11,13)                1.4931         estimate D2E/DX2                !
 ! R21   R(13,14)                1.4619         estimate D2E/DX2                !
 ! R22   R(13,18)                1.3675         estimate D2E/DX2                !
 ! R23   R(14,15)                1.3486         estimate D2E/DX2                !
 ! R24   R(14,67)                1.0819         estimate D2E/DX2                !
 ! R25   R(15,16)                1.4258         estimate D2E/DX2                !
 ! R26   R(15,68)                1.1171         estimate D2E/DX2                !
 ! R27   R(16,17)                1.3546         estimate D2E/DX2                !
 ! R28   R(16,19)                1.4615         estimate D2E/DX2                !
 ! R29   R(17,18)                1.4195         estimate D2E/DX2                !
 ! R30   R(17,69)                1.1725         estimate D2E/DX2                !
 ! R31   R(18,70)                1.0634         estimate D2E/DX2                !
 ! R32   R(19,20)                1.4509         estimate D2E/DX2                !
 ! R33   R(19,24)                1.6749         estimate D2E/DX2                !
 ! R34   R(20,21)                1.3478         estimate D2E/DX2                !
 ! R35   R(20,22)                1.3859         estimate D2E/DX2                !
 ! R36   R(22,23)                1.4682         estimate D2E/DX2                !
 ! R37   R(22,71)                1.0139         estimate D2E/DX2                !
 ! R38   R(23,24)                1.7447         estimate D2E/DX2                !
 ! R39   R(23,25)                1.4734         estimate D2E/DX2                !
 ! R40   R(25,26)                1.3238         estimate D2E/DX2                !
 ! R41   R(25,30)                1.3949         estimate D2E/DX2                !
 ! R42   R(26,27)                1.3719         estimate D2E/DX2                !
 ! R43   R(26,72)                1.1396         estimate D2E/DX2                !
 ! R44   R(27,28)                1.3602         estimate D2E/DX2                !
 ! R45   R(27,73)                1.0889         estimate D2E/DX2                !
 ! R46   R(28,29)                1.4276         estimate D2E/DX2                !
 ! R47   R(28,31)                1.492          estimate D2E/DX2                !
 ! R48   R(29,30)                1.3733         estimate D2E/DX2                !
 ! R49   R(29,74)                1.0896         estimate D2E/DX2                !
 ! R50   R(30,75)                1.1688         estimate D2E/DX2                !
 ! R51   R(31,32)                1.4162         estimate D2E/DX2                !
 ! R52   R(31,36)                1.7186         estimate D2E/DX2                !
 ! R53   R(32,33)                1.3453         estimate D2E/DX2                !
 ! R54   R(32,34)                1.4454         estimate D2E/DX2                !
 ! R55   R(34,35)                1.3775         estimate D2E/DX2                !
 ! R56   R(34,76)                1.1515         estimate D2E/DX2                !
 ! R57   R(35,36)                1.7108         estimate D2E/DX2                !
 ! R58   R(35,37)                1.4502         estimate D2E/DX2                !
 ! R59   R(37,38)                1.3233         estimate D2E/DX2                !
 ! R60   R(37,42)                1.4747         estimate D2E/DX2                !
 ! R61   R(38,39)                1.4635         estimate D2E/DX2                !
 ! R62   R(38,77)                1.0977         estimate D2E/DX2                !
 ! R63   R(39,40)                1.3645         estimate D2E/DX2                !
 ! R64   R(39,78)                1.0036         estimate D2E/DX2                !
 ! R65   R(40,41)                1.4278         estimate D2E/DX2                !
 ! R66   R(40,43)                1.5141         estimate D2E/DX2                !
 ! R67   R(41,42)                1.3894         estimate D2E/DX2                !
 ! R68   R(41,79)                1.0221         estimate D2E/DX2                !
 ! R69   R(42,80)                1.1097         estimate D2E/DX2                !
 ! R70   R(43,44)                1.3744         estimate D2E/DX2                !
 ! R71   R(43,48)                1.7796         estimate D2E/DX2                !
 ! R72   R(44,45)                1.3606         estimate D2E/DX2                !
 ! R73   R(44,46)                1.3348         estimate D2E/DX2                !
 ! R74   R(46,47)                1.4226         estimate D2E/DX2                !
 ! R75   R(46,81)                1.0893         estimate D2E/DX2                !
 ! R76   R(47,48)                1.7112         estimate D2E/DX2                !
 ! R77   R(47,49)                1.4927         estimate D2E/DX2                !
 ! R78   R(49,50)                1.3871         estimate D2E/DX2                !
 ! R79   R(49,54)                1.4556         estimate D2E/DX2                !
 ! R80   R(50,51)                1.4281         estimate D2E/DX2                !
 ! R81   R(50,82)                1.1202         estimate D2E/DX2                !
 ! R82   R(51,52)                1.4553         estimate D2E/DX2                !
 ! R83   R(51,83)                1.0834         estimate D2E/DX2                !
 ! R84   R(52,53)                1.4112         estimate D2E/DX2                !
 ! R85   R(52,55)                1.4888         estimate D2E/DX2                !
 ! R86   R(53,54)                1.38           estimate D2E/DX2                !
 ! R87   R(53,84)                1.0865         estimate D2E/DX2                !
 ! R88   R(54,85)                1.0874         estimate D2E/DX2                !
 ! R89   R(55,56)                1.3451         estimate D2E/DX2                !
 ! R90   R(55,60)                1.6725         estimate D2E/DX2                !
 ! R91   R(56,57)                1.3476         estimate D2E/DX2                !
 ! R92   R(56,58)                1.4321         estimate D2E/DX2                !
 ! R93   R(58,59)                1.3927         estimate D2E/DX2                !
 ! R94   R(58,86)                1.0536         estimate D2E/DX2                !
 ! R95   R(59,60)                1.7171         estimate D2E/DX2                !
 ! R96   R(59,87)                1.0907         estimate D2E/DX2                !
 ! A1    A(2,1,6)              121.5851         estimate D2E/DX2                !
 ! A2    A(2,1,61)             118.8058         estimate D2E/DX2                !
 ! A3    A(6,1,61)             119.5218         estimate D2E/DX2                !
 ! A4    A(1,2,3)              119.6789         estimate D2E/DX2                !
 ! A5    A(1,2,62)             122.1939         estimate D2E/DX2                !
 ! A6    A(3,2,62)             117.9293         estimate D2E/DX2                !
 ! A7    A(2,3,4)              116.587          estimate D2E/DX2                !
 ! A8    A(2,3,63)             118.8689         estimate D2E/DX2                !
 ! A9    A(4,3,63)             124.4657         estimate D2E/DX2                !
 ! A10   A(3,4,5)              120.8976         estimate D2E/DX2                !
 ! A11   A(3,4,7)              119.7783         estimate D2E/DX2                !
 ! A12   A(5,4,7)              118.9811         estimate D2E/DX2                !
 ! A13   A(4,5,6)              118.3815         estimate D2E/DX2                !
 ! A14   A(4,5,64)             121.4493         estimate D2E/DX2                !
 ! A15   A(6,5,64)             119.9282         estimate D2E/DX2                !
 ! A16   A(1,6,5)              122.6991         estimate D2E/DX2                !
 ! A17   A(1,6,65)             117.6101         estimate D2E/DX2                !
 ! A18   A(5,6,65)             119.6897         estimate D2E/DX2                !
 ! A19   A(4,7,8)              130.0882         estimate D2E/DX2                !
 ! A20   A(4,7,12)             119.3039         estimate D2E/DX2                !
 ! A21   A(8,7,12)             110.5491         estimate D2E/DX2                !
 ! A22   A(7,8,9)              123.143          estimate D2E/DX2                !
 ! A23   A(7,8,10)             113.6362         estimate D2E/DX2                !
 ! A24   A(9,8,10)             123.1936         estimate D2E/DX2                !
 ! A25   A(8,10,11)            110.6554         estimate D2E/DX2                !
 ! A26   A(8,10,66)            123.6726         estimate D2E/DX2                !
 ! A27   A(11,10,66)           124.5171         estimate D2E/DX2                !
 ! A28   A(10,11,12)           111.5229         estimate D2E/DX2                !
 ! A29   A(10,11,13)           124.9346         estimate D2E/DX2                !
 ! A30   A(12,11,13)           122.6889         estimate D2E/DX2                !
 ! A31   A(7,12,11)             93.2097         estimate D2E/DX2                !
 ! A32   A(11,13,14)           118.6459         estimate D2E/DX2                !
 ! A33   A(11,13,18)           121.8856         estimate D2E/DX2                !
 ! A34   A(14,13,18)           119.2983         estimate D2E/DX2                !
 ! A35   A(13,14,15)           118.1431         estimate D2E/DX2                !
 ! A36   A(13,14,67)           121.0711         estimate D2E/DX2                !
 ! A37   A(15,14,67)           120.2308         estimate D2E/DX2                !
 ! A38   A(14,15,16)           124.5371         estimate D2E/DX2                !
 ! A39   A(14,15,68)           114.8528         estimate D2E/DX2                !
 ! A40   A(16,15,68)           120.5393         estimate D2E/DX2                !
 ! A41   A(15,16,17)           114.5531         estimate D2E/DX2                !
 ! A42   A(15,16,19)           119.7576         estimate D2E/DX2                !
 ! A43   A(17,16,19)           125.6885         estimate D2E/DX2                !
 ! A44   A(16,17,18)           125.1411         estimate D2E/DX2                !
 ! A45   A(16,17,69)           118.3098         estimate D2E/DX2                !
 ! A46   A(18,17,69)           116.3381         estimate D2E/DX2                !
 ! A47   A(13,18,17)           118.2504         estimate D2E/DX2                !
 ! A48   A(13,18,70)           123.4277         estimate D2E/DX2                !
 ! A49   A(17,18,70)           117.8958         estimate D2E/DX2                !
 ! A50   A(16,19,20)           126.3685         estimate D2E/DX2                !
 ! A51   A(16,19,24)           124.2408         estimate D2E/DX2                !
 ! A52   A(20,19,24)           109.2507         estimate D2E/DX2                !
 ! A53   A(19,20,21)           119.3372         estimate D2E/DX2                !
 ! A54   A(19,20,22)           115.4247         estimate D2E/DX2                !
 ! A55   A(21,20,22)           125.1568         estimate D2E/DX2                !
 ! A56   A(20,22,23)           110.7731         estimate D2E/DX2                !
 ! A57   A(20,22,71)           123.0231         estimate D2E/DX2                !
 ! A58   A(23,22,71)           126.1049         estimate D2E/DX2                !
 ! A59   A(22,23,24)           108.9617         estimate D2E/DX2                !
 ! A60   A(22,23,25)           124.8095         estimate D2E/DX2                !
 ! A61   A(24,23,25)           126.1246         estimate D2E/DX2                !
 ! A62   A(19,24,23)            95.4946         estimate D2E/DX2                !
 ! A63   A(23,25,26)           122.9847         estimate D2E/DX2                !
 ! A64   A(23,25,30)           120.3076         estimate D2E/DX2                !
 ! A65   A(26,25,30)           116.6342         estimate D2E/DX2                !
 ! A66   A(25,26,27)           123.8756         estimate D2E/DX2                !
 ! A67   A(25,26,72)           120.051          estimate D2E/DX2                !
 ! A68   A(27,26,72)           115.974          estimate D2E/DX2                !
 ! A69   A(26,27,28)           118.7577         estimate D2E/DX2                !
 ! A70   A(26,27,73)           118.4375         estimate D2E/DX2                !
 ! A71   A(28,27,73)           122.5471         estimate D2E/DX2                !
 ! A72   A(27,28,29)           121.2865         estimate D2E/DX2                !
 ! A73   A(27,28,31)           122.2975         estimate D2E/DX2                !
 ! A74   A(29,28,31)           116.4052         estimate D2E/DX2                !
 ! A75   A(28,29,30)           115.0525         estimate D2E/DX2                !
 ! A76   A(28,29,74)           121.1078         estimate D2E/DX2                !
 ! A77   A(30,29,74)           123.7328         estimate D2E/DX2                !
 ! A78   A(25,30,29)           124.2564         estimate D2E/DX2                !
 ! A79   A(25,30,75)           122.0936         estimate D2E/DX2                !
 ! A80   A(29,30,75)           113.6018         estimate D2E/DX2                !
 ! A81   A(28,31,32)           127.1407         estimate D2E/DX2                !
 ! A82   A(28,31,36)           121.7083         estimate D2E/DX2                !
 ! A83   A(32,31,36)           111.1461         estimate D2E/DX2                !
 ! A84   A(31,32,33)           124.7583         estimate D2E/DX2                !
 ! A85   A(31,32,34)           109.8582         estimate D2E/DX2                !
 ! A86   A(33,32,34)           125.3568         estimate D2E/DX2                !
 ! A87   A(32,34,35)           114.7899         estimate D2E/DX2                !
 ! A88   A(32,34,76)           118.2191         estimate D2E/DX2                !
 ! A89   A(35,34,76)           126.9552         estimate D2E/DX2                !
 ! A90   A(34,35,36)           110.1398         estimate D2E/DX2                !
 ! A91   A(34,35,37)           125.0926         estimate D2E/DX2                !
 ! A92   A(36,35,37)           124.1591         estimate D2E/DX2                !
 ! A93   A(31,36,35)            93.8784         estimate D2E/DX2                !
 ! A94   A(35,37,38)           125.0697         estimate D2E/DX2                !
 ! A95   A(35,37,42)           118.8918         estimate D2E/DX2                !
 ! A96   A(38,37,42)           116.0145         estimate D2E/DX2                !
 ! A97   A(37,38,39)           125.1675         estimate D2E/DX2                !
 ! A98   A(37,38,77)           119.1042         estimate D2E/DX2                !
 ! A99   A(39,38,77)           115.7274         estimate D2E/DX2                !
 ! A100  A(38,39,40)           116.2914         estimate D2E/DX2                !
 ! A101  A(38,39,78)           121.5458         estimate D2E/DX2                !
 ! A102  A(40,39,78)           121.9837         estimate D2E/DX2                !
 ! A103  A(39,40,41)           122.6681         estimate D2E/DX2                !
 ! A104  A(39,40,43)           118.9396         estimate D2E/DX2                !
 ! A105  A(41,40,43)           118.2843         estimate D2E/DX2                !
 ! A106  A(40,41,42)           117.8867         estimate D2E/DX2                !
 ! A107  A(40,41,79)           124.5295         estimate D2E/DX2                !
 ! A108  A(42,41,79)           117.2459         estimate D2E/DX2                !
 ! A109  A(37,42,41)           121.5326         estimate D2E/DX2                !
 ! A110  A(37,42,80)           116.977          estimate D2E/DX2                !
 ! A111  A(41,42,80)           120.3417         estimate D2E/DX2                !
 ! A112  A(40,43,44)           131.0348         estimate D2E/DX2                !
 ! A113  A(40,43,48)           118.4723         estimate D2E/DX2                !
 ! A114  A(44,43,48)           110.434          estimate D2E/DX2                !
 ! A115  A(43,44,45)           118.7435         estimate D2E/DX2                !
 ! A116  A(43,44,46)           114.6797         estimate D2E/DX2                !
 ! A117  A(45,44,46)           126.5617         estimate D2E/DX2                !
 ! A118  A(44,46,47)           113.3345         estimate D2E/DX2                !
 ! A119  A(44,46,81)           123.6918         estimate D2E/DX2                !
 ! A120  A(47,46,81)           122.9553         estimate D2E/DX2                !
 ! A121  A(46,47,48)           111.3601         estimate D2E/DX2                !
 ! A122  A(46,47,49)           126.1158         estimate D2E/DX2                !
 ! A123  A(48,47,49)           122.3915         estimate D2E/DX2                !
 ! A124  A(43,48,47)            90.1866         estimate D2E/DX2                !
 ! A125  A(47,49,50)           121.053          estimate D2E/DX2                !
 ! A126  A(47,49,54)           118.8912         estimate D2E/DX2                !
 ! A127  A(50,49,54)           119.4889         estimate D2E/DX2                !
 ! A128  A(49,50,51)           121.6414         estimate D2E/DX2                !
 ! A129  A(49,50,82)           120.2258         estimate D2E/DX2                !
 ! A130  A(51,50,82)           117.3887         estimate D2E/DX2                !
 ! A131  A(50,51,52)           118.4221         estimate D2E/DX2                !
 ! A132  A(50,51,83)           122.2302         estimate D2E/DX2                !
 ! A133  A(52,51,83)           119.3337         estimate D2E/DX2                !
 ! A134  A(51,52,53)           118.2436         estimate D2E/DX2                !
 ! A135  A(51,52,55)           118.9351         estimate D2E/DX2                !
 ! A136  A(53,52,55)           122.8147         estimate D2E/DX2                !
 ! A137  A(52,53,54)           123.0971         estimate D2E/DX2                !
 ! A138  A(52,53,84)           115.5927         estimate D2E/DX2                !
 ! A139  A(54,53,84)           121.0598         estimate D2E/DX2                !
 ! A140  A(49,54,53)           118.7456         estimate D2E/DX2                !
 ! A141  A(49,54,85)           119.4024         estimate D2E/DX2                !
 ! A142  A(53,54,85)           121.837          estimate D2E/DX2                !
 ! A143  A(52,55,56)           125.9536         estimate D2E/DX2                !
 ! A144  A(52,55,60)           121.5883         estimate D2E/DX2                !
 ! A145  A(56,55,60)           112.1353         estimate D2E/DX2                !
 ! A146  A(55,56,57)           127.2198         estimate D2E/DX2                !
 ! A147  A(55,56,58)           111.4021         estimate D2E/DX2                !
 ! A148  A(57,56,58)           120.6659         estimate D2E/DX2                !
 ! A149  A(56,58,59)           113.7226         estimate D2E/DX2                !
 ! A150  A(56,58,86)           125.5806         estimate D2E/DX2                !
 ! A151  A(59,58,86)           120.0621         estimate D2E/DX2                !
 ! A152  A(58,59,60)           107.4994         estimate D2E/DX2                !
 ! A153  A(58,59,87)           132.4465         estimate D2E/DX2                !
 ! A154  A(60,59,87)           119.7021         estimate D2E/DX2                !
 ! A155  A(55,60,59)            94.5844         estimate D2E/DX2                !
 ! D1    D(6,1,2,3)              1.1997         estimate D2E/DX2                !
 ! D2    D(6,1,2,62)           175.9804         estimate D2E/DX2                !
 ! D3    D(61,1,2,3)          -175.3871         estimate D2E/DX2                !
 ! D4    D(61,1,2,62)           -0.6065         estimate D2E/DX2                !
 ! D5    D(2,1,6,5)             -0.134          estimate D2E/DX2                !
 ! D6    D(2,1,6,65)           179.4847         estimate D2E/DX2                !
 ! D7    D(61,1,6,5)           176.4289         estimate D2E/DX2                !
 ! D8    D(61,1,6,65)           -3.9524         estimate D2E/DX2                !
 ! D9    D(1,2,3,4)              0.8694         estimate D2E/DX2                !
 ! D10   D(1,2,3,63)           177.7928         estimate D2E/DX2                !
 ! D11   D(62,2,3,4)          -174.1321         estimate D2E/DX2                !
 ! D12   D(62,2,3,63)            2.7914         estimate D2E/DX2                !
 ! D13   D(2,3,4,5)             -3.9645         estimate D2E/DX2                !
 ! D14   D(2,3,4,7)           -177.1719         estimate D2E/DX2                !
 ! D15   D(63,3,4,5)           179.3036         estimate D2E/DX2                !
 ! D16   D(63,3,4,7)             6.0961         estimate D2E/DX2                !
 ! D17   D(3,4,5,6)              5.0497         estimate D2E/DX2                !
 ! D18   D(3,4,5,64)           179.4044         estimate D2E/DX2                !
 ! D19   D(7,4,5,6)            178.3104         estimate D2E/DX2                !
 ! D20   D(7,4,5,64)            -7.3349         estimate D2E/DX2                !
 ! D21   D(3,4,7,8)            138.4976         estimate D2E/DX2                !
 ! D22   D(3,4,7,12)           -38.4263         estimate D2E/DX2                !
 ! D23   D(5,4,7,8)            -34.8401         estimate D2E/DX2                !
 ! D24   D(5,4,7,12)           148.236          estimate D2E/DX2                !
 ! D25   D(4,5,6,1)             -2.9636         estimate D2E/DX2                !
 ! D26   D(4,5,6,65)           177.4253         estimate D2E/DX2                !
 ! D27   D(64,5,6,1)          -177.4068         estimate D2E/DX2                !
 ! D28   D(64,5,6,65)            2.9821         estimate D2E/DX2                !
 ! D29   D(4,7,8,9)              0.7727         estimate D2E/DX2                !
 ! D30   D(4,7,8,10)           178.9281         estimate D2E/DX2                !
 ! D31   D(12,7,8,9)           177.9082         estimate D2E/DX2                !
 ! D32   D(12,7,8,10)           -3.9364         estimate D2E/DX2                !
 ! D33   D(4,7,12,11)          177.4797         estimate D2E/DX2                !
 ! D34   D(8,7,12,11)           -0.0074         estimate D2E/DX2                !
 ! D35   D(7,8,10,11)            6.8278         estimate D2E/DX2                !
 ! D36   D(7,8,10,66)          175.0153         estimate D2E/DX2                !
 ! D37   D(9,8,10,11)         -175.0179         estimate D2E/DX2                !
 ! D38   D(9,8,10,66)           -6.8304         estimate D2E/DX2                !
 ! D39   D(8,10,11,12)          -6.6738         estimate D2E/DX2                !
 ! D40   D(8,10,11,13)        -176.2951         estimate D2E/DX2                !
 ! D41   D(66,10,11,12)       -174.7411         estimate D2E/DX2                !
 ! D42   D(66,10,11,13)         15.6376         estimate D2E/DX2                !
 ! D43   D(10,11,12,7)           3.9004         estimate D2E/DX2                !
 ! D44   D(13,11,12,7)         173.7935         estimate D2E/DX2                !
 ! D45   D(10,11,13,14)       -145.4443         estimate D2E/DX2                !
 ! D46   D(10,11,13,18)         29.7784         estimate D2E/DX2                !
 ! D47   D(12,11,13,14)         46.0418         estimate D2E/DX2                !
 ! D48   D(12,11,13,18)       -138.7354         estimate D2E/DX2                !
 ! D49   D(11,13,14,15)        173.1749         estimate D2E/DX2                !
 ! D50   D(11,13,14,67)          1.7            estimate D2E/DX2                !
 ! D51   D(18,13,14,15)         -2.1741         estimate D2E/DX2                !
 ! D52   D(18,13,14,67)       -173.6489         estimate D2E/DX2                !
 ! D53   D(11,13,18,17)       -171.9186         estimate D2E/DX2                !
 ! D54   D(11,13,18,70)          0.422          estimate D2E/DX2                !
 ! D55   D(14,13,18,17)          3.2739         estimate D2E/DX2                !
 ! D56   D(14,13,18,70)        175.6144         estimate D2E/DX2                !
 ! D57   D(13,14,15,16)          0.4738         estimate D2E/DX2                !
 ! D58   D(13,14,15,68)       -176.4684         estimate D2E/DX2                !
 ! D59   D(67,14,15,16)        172.023          estimate D2E/DX2                !
 ! D60   D(67,14,15,68)         -4.9192         estimate D2E/DX2                !
 ! D61   D(14,15,16,17)         -0.0017         estimate D2E/DX2                !
 ! D62   D(14,15,16,19)        179.6782         estimate D2E/DX2                !
 ! D63   D(68,15,16,17)        176.7766         estimate D2E/DX2                !
 ! D64   D(68,15,16,19)         -3.5435         estimate D2E/DX2                !
 ! D65   D(15,16,17,18)          1.2403         estimate D2E/DX2                !
 ! D66   D(15,16,17,69)        175.7551         estimate D2E/DX2                !
 ! D67   D(19,16,17,18)       -178.4176         estimate D2E/DX2                !
 ! D68   D(19,16,17,69)         -3.9028         estimate D2E/DX2                !
 ! D69   D(15,16,19,20)        144.9136         estimate D2E/DX2                !
 ! D70   D(15,16,19,24)        -39.8571         estimate D2E/DX2                !
 ! D71   D(17,16,19,20)        -35.4449         estimate D2E/DX2                !
 ! D72   D(17,16,19,24)        139.7845         estimate D2E/DX2                !
 ! D73   D(16,17,18,13)         -2.9585         estimate D2E/DX2                !
 ! D74   D(16,17,18,70)       -175.7279         estimate D2E/DX2                !
 ! D75   D(69,17,18,13)       -177.5702         estimate D2E/DX2                !
 ! D76   D(69,17,18,70)          9.6603         estimate D2E/DX2                !
 ! D77   D(16,19,20,21)         -4.3374         estimate D2E/DX2                !
 ! D78   D(16,19,20,22)        178.7744         estimate D2E/DX2                !
 ! D79   D(24,19,20,21)        179.8388         estimate D2E/DX2                !
 ! D80   D(24,19,20,22)          2.9507         estimate D2E/DX2                !
 ! D81   D(16,19,24,23)       -177.1527         estimate D2E/DX2                !
 ! D82   D(20,19,24,23)         -1.2204         estimate D2E/DX2                !
 ! D83   D(19,20,22,23)         -3.4265         estimate D2E/DX2                !
 ! D84   D(19,20,22,71)        179.9906         estimate D2E/DX2                !
 ! D85   D(21,20,22,23)        179.8918         estimate D2E/DX2                !
 ! D86   D(21,20,22,71)          3.3089         estimate D2E/DX2                !
 ! D87   D(20,22,23,24)          2.3409         estimate D2E/DX2                !
 ! D88   D(20,22,23,25)        178.8178         estimate D2E/DX2                !
 ! D89   D(71,22,23,24)        178.7946         estimate D2E/DX2                !
 ! D90   D(71,22,23,25)         -4.7285         estimate D2E/DX2                !
 ! D91   D(22,23,24,19)         -0.5985         estimate D2E/DX2                !
 ! D92   D(25,23,24,19)       -177.0171         estimate D2E/DX2                !
 ! D93   D(22,23,25,26)         36.1243         estimate D2E/DX2                !
 ! D94   D(22,23,25,30)       -147.0996         estimate D2E/DX2                !
 ! D95   D(24,23,25,26)       -148.0017         estimate D2E/DX2                !
 ! D96   D(24,23,25,30)         28.7744         estimate D2E/DX2                !
 ! D97   D(23,25,26,27)       -179.5171         estimate D2E/DX2                !
 ! D98   D(23,25,26,72)         -3.2922         estimate D2E/DX2                !
 ! D99   D(30,25,26,27)          3.5964         estimate D2E/DX2                !
 ! D100  D(30,25,26,72)        179.8214         estimate D2E/DX2                !
 ! D101  D(23,25,30,29)       -177.3222         estimate D2E/DX2                !
 ! D102  D(23,25,30,75)          5.3659         estimate D2E/DX2                !
 ! D103  D(26,25,30,29)         -0.3473         estimate D2E/DX2                !
 ! D104  D(26,25,30,75)       -177.6591         estimate D2E/DX2                !
 ! D105  D(25,26,27,28)         -4.0487         estimate D2E/DX2                !
 ! D106  D(25,26,27,73)       -178.3687         estimate D2E/DX2                !
 ! D107  D(72,26,27,28)        179.5859         estimate D2E/DX2                !
 ! D108  D(72,26,27,73)          5.2658         estimate D2E/DX2                !
 ! D109  D(26,27,28,29)          1.1726         estimate D2E/DX2                !
 ! D110  D(26,27,28,31)        179.9331         estimate D2E/DX2                !
 ! D111  D(73,27,28,29)        175.2466         estimate D2E/DX2                !
 ! D112  D(73,27,28,31)         -5.9929         estimate D2E/DX2                !
 ! D113  D(27,28,29,30)          1.6981         estimate D2E/DX2                !
 ! D114  D(27,28,29,74)        178.0754         estimate D2E/DX2                !
 ! D115  D(31,28,29,30)       -177.1321         estimate D2E/DX2                !
 ! D116  D(31,28,29,74)         -0.7548         estimate D2E/DX2                !
 ! D117  D(27,28,31,32)        135.9809         estimate D2E/DX2                !
 ! D118  D(27,28,31,36)        -43.1483         estimate D2E/DX2                !
 ! D119  D(29,28,31,32)        -45.2017         estimate D2E/DX2                !
 ! D120  D(29,28,31,36)        135.669          estimate D2E/DX2                !
 ! D121  D(28,29,30,25)         -2.1613         estimate D2E/DX2                !
 ! D122  D(28,29,30,75)        175.3536         estimate D2E/DX2                !
 ! D123  D(74,29,30,25)       -178.4315         estimate D2E/DX2                !
 ! D124  D(74,29,30,75)         -0.9166         estimate D2E/DX2                !
 ! D125  D(28,31,32,33)          0.4287         estimate D2E/DX2                !
 ! D126  D(28,31,32,34)       -177.7751         estimate D2E/DX2                !
 ! D127  D(36,31,32,33)        179.6344         estimate D2E/DX2                !
 ! D128  D(36,31,32,34)          1.4306         estimate D2E/DX2                !
 ! D129  D(28,31,36,35)        176.0376         estimate D2E/DX2                !
 ! D130  D(32,31,36,35)         -3.2181         estimate D2E/DX2                !
 ! D131  D(31,32,34,35)          1.7288         estimate D2E/DX2                !
 ! D132  D(31,32,34,76)        179.7037         estimate D2E/DX2                !
 ! D133  D(33,32,34,35)       -176.4618         estimate D2E/DX2                !
 ! D134  D(33,32,34,76)          1.5131         estimate D2E/DX2                !
 ! D135  D(32,34,35,36)         -4.0771         estimate D2E/DX2                !
 ! D136  D(32,34,35,37)       -175.4176         estimate D2E/DX2                !
 ! D137  D(76,34,35,36)        178.156          estimate D2E/DX2                !
 ! D138  D(76,34,35,37)          6.8155         estimate D2E/DX2                !
 ! D139  D(34,35,36,31)          4.1455         estimate D2E/DX2                !
 ! D140  D(37,35,36,31)        175.5836         estimate D2E/DX2                !
 ! D141  D(34,35,37,38)         34.6627         estimate D2E/DX2                !
 ! D142  D(34,35,37,42)       -147.194          estimate D2E/DX2                !
 ! D143  D(36,35,37,38)       -135.5014         estimate D2E/DX2                !
 ! D144  D(36,35,37,42)         42.6419         estimate D2E/DX2                !
 ! D145  D(35,37,38,39)       -179.4247         estimate D2E/DX2                !
 ! D146  D(35,37,38,77)          0.9304         estimate D2E/DX2                !
 ! D147  D(42,37,38,39)          2.3842         estimate D2E/DX2                !
 ! D148  D(42,37,38,77)       -177.2608         estimate D2E/DX2                !
 ! D149  D(35,37,42,41)        174.5649         estimate D2E/DX2                !
 ! D150  D(35,37,42,80)          6.7811         estimate D2E/DX2                !
 ! D151  D(38,37,42,41)         -7.1259         estimate D2E/DX2                !
 ! D152  D(38,37,42,80)       -174.9097         estimate D2E/DX2                !
 ! D153  D(37,38,39,40)          1.2882         estimate D2E/DX2                !
 ! D154  D(37,38,39,78)        176.5155         estimate D2E/DX2                !
 ! D155  D(77,38,39,40)       -179.0562         estimate D2E/DX2                !
 ! D156  D(77,38,39,78)         -3.8288         estimate D2E/DX2                !
 ! D157  D(38,39,40,41)         -0.5704         estimate D2E/DX2                !
 ! D158  D(38,39,40,43)        175.5833         estimate D2E/DX2                !
 ! D159  D(78,39,40,41)       -175.7751         estimate D2E/DX2                !
 ! D160  D(78,39,40,43)          0.3786         estimate D2E/DX2                !
 ! D161  D(39,40,41,42)         -3.9446         estimate D2E/DX2                !
 ! D162  D(39,40,41,79)       -177.071          estimate D2E/DX2                !
 ! D163  D(43,40,41,42)        179.8778         estimate D2E/DX2                !
 ! D164  D(43,40,41,79)          6.7514         estimate D2E/DX2                !
 ! D165  D(39,40,43,44)        -40.7835         estimate D2E/DX2                !
 ! D166  D(39,40,43,48)        136.1255         estimate D2E/DX2                !
 ! D167  D(41,40,43,44)        135.5399         estimate D2E/DX2                !
 ! D168  D(41,40,43,48)        -47.5511         estimate D2E/DX2                !
 ! D169  D(40,41,42,37)          7.8722         estimate D2E/DX2                !
 ! D170  D(40,41,42,80)        175.251          estimate D2E/DX2                !
 ! D171  D(79,41,42,37)       -178.495          estimate D2E/DX2                !
 ! D172  D(79,41,42,80)        -11.1163         estimate D2E/DX2                !
 ! D173  D(40,43,44,45)         -4.5519         estimate D2E/DX2                !
 ! D174  D(40,43,44,46)        176.7663         estimate D2E/DX2                !
 ! D175  D(48,43,44,45)        178.3475         estimate D2E/DX2                !
 ! D176  D(48,43,44,46)         -0.3343         estimate D2E/DX2                !
 ! D177  D(40,43,48,47)       -177.6139         estimate D2E/DX2                !
 ! D178  D(44,43,48,47)         -0.1016         estimate D2E/DX2                !
 ! D179  D(43,44,46,47)          0.7141         estimate D2E/DX2                !
 ! D180  D(43,44,46,81)        179.192          estimate D2E/DX2                !
 ! D181  D(45,44,46,47)       -177.8469         estimate D2E/DX2                !
 ! D182  D(45,44,46,81)          0.631          estimate D2E/DX2                !
 ! D183  D(44,46,47,48)         -0.7749         estimate D2E/DX2                !
 ! D184  D(44,46,47,49)        175.0972         estimate D2E/DX2                !
 ! D185  D(81,46,47,48)       -179.2655         estimate D2E/DX2                !
 ! D186  D(81,46,47,49)         -3.3935         estimate D2E/DX2                !
 ! D187  D(46,47,48,43)          0.4773         estimate D2E/DX2                !
 ! D188  D(49,47,48,43)       -175.5738         estimate D2E/DX2                !
 ! D189  D(46,47,49,50)       -147.4953         estimate D2E/DX2                !
 ! D190  D(46,47,49,54)         41.1831         estimate D2E/DX2                !
 ! D191  D(48,47,49,50)         27.951          estimate D2E/DX2                !
 ! D192  D(48,47,49,54)       -143.3705         estimate D2E/DX2                !
 ! D193  D(47,49,50,51)       -178.1657         estimate D2E/DX2                !
 ! D194  D(47,49,50,82)         11.9752         estimate D2E/DX2                !
 ! D195  D(54,49,50,51)         -6.8953         estimate D2E/DX2                !
 ! D196  D(54,49,50,82)       -176.7544         estimate D2E/DX2                !
 ! D197  D(47,49,54,53)        174.6175         estimate D2E/DX2                !
 ! D198  D(47,49,54,85)         -3.9993         estimate D2E/DX2                !
 ! D199  D(50,49,54,53)          3.1577         estimate D2E/DX2                !
 ! D200  D(50,49,54,85)       -175.4591         estimate D2E/DX2                !
 ! D201  D(49,50,51,52)          5.3964         estimate D2E/DX2                !
 ! D202  D(49,50,51,83)       -173.2366         estimate D2E/DX2                !
 ! D203  D(82,50,51,52)        175.5307         estimate D2E/DX2                !
 ! D204  D(82,50,51,83)         -3.1023         estimate D2E/DX2                !
 ! D205  D(50,51,52,53)         -0.2106         estimate D2E/DX2                !
 ! D206  D(50,51,52,55)       -179.3041         estimate D2E/DX2                !
 ! D207  D(83,51,52,53)        178.463          estimate D2E/DX2                !
 ! D208  D(83,51,52,55)         -0.6305         estimate D2E/DX2                !
 ! D209  D(51,52,53,54)         -3.4728         estimate D2E/DX2                !
 ! D210  D(51,52,53,84)       -177.7712         estimate D2E/DX2                !
 ! D211  D(55,52,53,54)        175.5833         estimate D2E/DX2                !
 ! D212  D(55,52,53,84)          1.2848         estimate D2E/DX2                !
 ! D213  D(51,52,55,56)        -39.0455         estimate D2E/DX2                !
 ! D214  D(51,52,55,60)        133.9047         estimate D2E/DX2                !
 ! D215  D(53,52,55,56)        141.9047         estimate D2E/DX2                !
 ! D216  D(53,52,55,60)        -45.1451         estimate D2E/DX2                !
 ! D217  D(52,53,54,49)          2.0563         estimate D2E/DX2                !
 ! D218  D(52,53,54,85)       -179.3622         estimate D2E/DX2                !
 ! D219  D(84,53,54,49)        176.0524         estimate D2E/DX2                !
 ! D220  D(84,53,54,85)         -5.366          estimate D2E/DX2                !
 ! D221  D(52,55,56,57)         -8.2256         estimate D2E/DX2                !
 ! D222  D(52,55,56,58)       -178.5018         estimate D2E/DX2                !
 ! D223  D(60,55,56,57)        178.2549         estimate D2E/DX2                !
 ! D224  D(60,55,56,58)          7.9787         estimate D2E/DX2                !
 ! D225  D(52,55,60,59)       -178.1182         estimate D2E/DX2                !
 ! D226  D(56,55,60,59)         -4.2753         estimate D2E/DX2                !
 ! D227  D(55,56,58,59)         -8.8245         estimate D2E/DX2                !
 ! D228  D(55,56,58,86)       -179.6347         estimate D2E/DX2                !
 ! D229  D(57,56,58,59)       -179.8287         estimate D2E/DX2                !
 ! D230  D(57,56,58,86)          9.3611         estimate D2E/DX2                !
 ! D231  D(56,58,59,60)          5.4495         estimate D2E/DX2                !
 ! D232  D(56,58,59,87)        178.3965         estimate D2E/DX2                !
 ! D233  D(86,58,59,60)        176.8182         estimate D2E/DX2                !
 ! D234  D(86,58,59,87)        -10.2348         estimate D2E/DX2                !
 ! D235  D(58,59,60,55)         -0.798          estimate D2E/DX2                !
 ! D236  D(87,59,60,55)       -174.8105         estimate D2E/DX2                !
 --------------------------------------------------------------------------------
 Trust Radius=3.00D-01 FncErr=1.00D-07 GrdErr=1.00D-06 EigMax=2.50D+02 EigMin=1.00D-04
 Number of steps in this run=    497 maximum allowed number of steps=    522.
 GradGradGradGradGradGradGradGradGradGradGradGradGradGradGradGradGradGrad

 Leave Link  103 at Thu Jul 23 15:43:24 2020, MaxMem=  4026531840 cpu:               0.2 elap:               0.3
 (Enter /opt/ohpc/pub/libs/gaussian/g16-A.03/sandybridge/g16/l202.exe)
 Stoichiometry    C50H27F5S5
 Framework group  C1[X(C50H27F5S5)]
 Deg. of freedom   255
 Full point group                 C1      NOp   1
 Largest Abelian subgroup         C1      NOp   1
 Largest concise Abelian subgroup C1      NOp   1
                         Standard orientation:                         
 ---------------------------------------------------------------------
 Center     Atomic      Atomic             Coordinates (Angstroms)
 Number     Number       Type             X           Y           Z
 ---------------------------------------------------------------------
      1          6           0       18.860371   -1.563525    1.192399
      2          6           0       17.758089   -1.990631    1.845065
      3          6           0       16.465557   -1.325561    1.606386
      4          6           0       16.462243   -0.261959    0.665426
      5          6           0       17.679912    0.184999    0.055548
      6          6           0       18.814824   -0.494708    0.316929
      7          6           0       15.207974    0.501298    0.416353
      8          6           0       15.005530    1.895769    0.242381
      9          9           0       16.014814    2.799816    0.267526
     10          6           0       13.668738    2.244060    0.001491
     11          6           0       12.835211    1.130616    0.145825
     12         16           0       13.745018   -0.313613    0.384776
     13          6           0       11.364945    1.123725   -0.114389
     14          6           0       10.509713    0.280035    0.718692
     15          6           0        9.173515    0.385722    0.570238
     16          6           0        8.529519    1.260023   -0.353687
     17          6           0        9.374271    2.008027   -1.103310
     18          6           0       10.791189    1.951476   -1.039484
     19          6           0        7.070363    1.284962   -0.432399
     20          6           0        6.242689    2.447259   -0.695270
     21          9           0        6.822055    3.659180   -0.805679
     22          6           0        4.878675    2.207193   -0.746076
     23          6           0        4.596133    0.774443   -0.594755
     24         16           0        6.098216   -0.075828   -0.340403
     25          6           0        3.248029    0.180205   -0.578023
     26          6           0        2.252530    0.630645   -1.325415
     27          6           0        0.988435    0.097675   -1.317333
     28          6           0        0.749008   -1.007501   -0.561330
     29          6           0        1.776725   -1.598638    0.233936
     30          6           0        2.985890   -0.948565    0.198464
     31          6           0       -0.595393   -1.650897   -0.493311
     32          6           0       -0.884472   -3.036029   -0.552959
     33          9           0        0.038078   -4.007494   -0.675497
     34          6           0       -2.314326   -3.241678   -0.505136
     35          6           0       -3.062609   -2.086271   -0.452759
     36         16           0       -2.034519   -0.722955   -0.346522
     37          6           0       -4.504174   -2.032602   -0.304008
     38          6           0       -5.227052   -2.880988    0.409325
     39          6           0       -6.682943   -2.835921    0.551267
     40          6           0       -7.326806   -1.847864   -0.135041
     41          6           0       -6.635916   -0.893814   -0.941938
     42          6           0       -5.247280   -0.937349   -0.954319
     43          6           0       -8.840207   -1.806736   -0.112682
     44          6           0       -9.771533   -2.814417   -0.191932
     45          9           0       -9.341629   -4.087257   -0.406899
     46          6           0      -11.038766   -2.412858   -0.071457
     47          6           0      -11.170413   -1.006859    0.100329
     48         16           0       -9.642843   -0.236034    0.123337
     49          6           0      -12.452019   -0.243965    0.159892
     50          6           0      -12.535729    1.053160   -0.324329
     51          6           0      -13.744911    1.808233   -0.238759
     52          6           0      -14.871847    1.232248    0.479717
     53          6           0      -14.714598   -0.047641    1.053003
     54          6           0      -13.570009   -0.804233    0.904918
     55          6           0      -16.143052    2.002792    0.562592
     56          6           0      -16.250777    3.332520    0.734493
     57          9           0      -15.259585    4.200958    1.016308
     58          6           0      -17.621619    3.741132    0.803953
     59          6           0      -18.524635    2.729025    0.488148
     60         16           0      -17.624444    1.282876    0.271850
     61          1           0       19.853093   -2.148381    1.329524
     62          1           0       17.768394   -2.880748    2.494823
     63          1           0       15.607493   -1.691396    2.095407
     64          1           0       17.686287    0.963343   -0.647120
     65          1           0       19.795529   -0.183183   -0.194716
     66          1           0       13.321455    3.259936   -0.076764
     67          1           0       10.923148   -0.308590    1.526901
     68          1           0        8.572012   -0.237488    1.275673
     69          1           0        8.918110    2.694433   -1.937225
     70          1           0       11.343792    2.640487   -1.631690
     71          1           0        4.195619    2.935539   -0.921918
     72          1           0        2.401848    1.551268   -1.980274
     73          1           0        0.242923    0.520908   -1.988822
     74          1           0        1.573900   -2.465293    0.862384
     75          1           0        3.782649   -1.402431    0.923248
     76          1           0       -2.710858   -4.321827   -0.549916
     77          1           0       -4.720153   -3.689103    0.952348
     78          1           0       -7.182384   -3.538522    1.065167
     79          1           0       -7.084155   -0.117513   -1.433078
     80          1           0       -4.671431   -0.267870   -1.626297
     81          1           0      -11.893566   -3.085925   -0.124668
     82          1           0      -11.705754    1.477954   -0.945331
     83          1           0      -13.854327    2.778959   -0.707251
     84          1           0      -15.593977   -0.452143    1.546415
     85          1           0      -13.474719   -1.792904    1.347419
     86          1           0      -17.960732    4.730748    0.929598
     87          1           0      -19.614611    2.695606    0.465679
 ---------------------------------------------------------------------
 Rotational constants (GHZ):           0.1284295           0.0044545           0.0043351
 Leave Link  202 at Thu Jul 23 15:43:24 2020, MaxMem=  4026531840 cpu:               0.3 elap:               0.1
 (Enter /opt/ohpc/pub/libs/gaussian/g16-A.03/sandybridge/g16/l301.exe)
 Standard basis: CC-pVDZ (5D, 7F)
 Ernie: Thresh=  0.10000D-02 Tol=  0.10000D-05 Strict=F.
 Ernie:  160 primitive shells out of 1595 were deleted.
 There are  1055 symmetry adapted cartesian basis functions of A   symmetry.
 There are   995 symmetry adapted basis functions of A   symmetry.
   995 basis functions,  2359 primitive gaussians,  1055 cartesian basis functions
   226 alpha electrons      226 beta electrons
       nuclear repulsion energy      7249.2895430833 Hartrees.
 IExCor=32609 DFT=T Ex+Corr=LC-wPBE ExCW=0 ScaHFX=  1.000000
 ScaDFX=  1.000000  0.000000  1.000000  1.000000 ScalE2=  1.000000  1.000000
 IRadAn=      5 IRanWt=     -1 IRanGd=            0 ICorTp=0 IEmpDi=  4
 HFx  wShort=  0.000000 wLong=  0.177300 cFull=  0.000000 cShort=  0.000000 cLong=  1.000000
 DFx  wShort=  0.000000 wLong=  0.177300 cFull=  0.000000 cShort=  0.000000 cLong=  1.000000
 NAtoms=   87 NActive=   87 NUniq=   87 SFac= 1.00D+00 NAtFMM=   60 NAOKFM=T Big=T
 Integral buffers will be    131072 words long.
 Raffenetti 2 integral format.
 Two-electron integral symmetry is turned on.
 Leave Link  301 at Thu Jul 23 15:43:24 2020, MaxMem=  4026531840 cpu:               0.4 elap:               0.1
 (Enter /opt/ohpc/pub/libs/gaussian/g16-A.03/sandybridge/g16/l302.exe)
 NPDir=0 NMtPBC=     1 NCelOv=     1 NCel=       1 NClECP=     1 NCelD=      1
         NCelK=      1 NCelE2=     1 NClLst=     1 CellRange=     0.0.
 One-electron integrals computed using PRISM.
 One-electron integral symmetry used in STVInt
 NBasis=   995 RedAO= T EigKep=  2.55D-04  NBF=   995
 NBsUse=   995 1.00D-06 EigRej= -1.00D+00 NBFU=   995
 Precomputing XC quadrature grid using
 IXCGrd= 4 IRadAn=           5 IRanWt=          -1 IRanGd=           0 AccXCQ= 0.00D+00.
 Generated NRdTot=       0 NPtTot=           0 NUsed=           0 NTot=          32
 NSgBfM=   616   616   616   616   616 MxSgAt=    87 MxSgA2=    81.
 Leave Link  302 at Thu Jul 23 15:43:27 2020, MaxMem=  4026531840 cpu:              25.9 elap:               3.3
 (Enter /opt/ohpc/pub/libs/gaussian/g16-A.03/sandybridge/g16/l303.exe)
 DipDrv:  MaxL=1.
 Leave Link  303 at Thu Jul 23 15:43:27 2020, MaxMem=  4026531840 cpu:               1.6 elap:               0.3
 (Enter /opt/ohpc/pub/libs/gaussian/g16-A.03/sandybridge/g16/l401.exe)
 ExpMin= 1.22D-01 ExpMax= 1.11D+05 ExpMxC= 1.07D+03 IAcc=3 IRadAn=         5 AccDes= 0.00D+00
 Harris functional with IExCor=32609 and IRadAn=       5 diagonalized for initial guess.
 HarFok:  IExCor=32609 AccDes= 0.00D+00 IRadAn=         5 IDoV= 1 UseB2=F ITyADJ=14
 ICtDFT=  3500011 ScaDFX=  1.000000  1.000000  1.000000  1.000000
 FoFCou: FMM=F IPFlag=           0 FMFlag=      100000 FMFlg1=        2001
         NFxFlg=           0 DoJE=T BraDBF=F KetDBF=T FulRan=T
         wScrn=  0.000000 ICntrl=       500 IOpCl=  0 I1Cent=   200000004 NGrid=           0
         NMat0=    1 NMatS0=      1 NMatT0=    0 NMatD0=    1 NMtDS0=    0 NMtDT0=    0
 Petite list used in FoFCou.
 Harris En= -4408.88924211914    
 JPrj=0 DoOrth=F DoCkMO=F.
 Initial guess <Sx>= 0.0000 <Sy>= 0.0000 <Sz>= 0.0000 <S**2>=-0.0000 S=-0.0000
 Leave Link  401 at Thu Jul 23 15:43:38 2020, MaxMem=  4026531840 cpu:              85.2 elap:              10.7
 (Enter /opt/ohpc/pub/libs/gaussian/g16-A.03/sandybridge/g16/l502.exe)
 Integral symmetry usage will be decided dynamically.
 UHF open shell SCF:
 Using DIIS extrapolation, IDIIS=  1040.
 NGot=  4026531840 LenX=  4024286879 LenY=  4023172799
 Requested convergence on RMS density matrix=1.00D-08 within 128 cycles.
 Requested convergence on MAX density matrix=1.00D-06.
 Requested convergence on             energy=1.00D-06.
 No special actions if energy rises.
 Fock matrices will be formed incrementally for  20 cycles.
 Integral accuracy reduced to 1.0D-05 until final iterations.

 Cycle   1  Pass 0  IDiag  1:
 FoFJK:  IHMeth= 1 ICntrl=       0 DoSepK=T KAlg= 0 I1Cent=           0 FoldK=F
 IRaf=         1 NMat=       1 IRICut=       1 DoRegI=T DoRafI=F ISym2E= 0 IDoP0=0 IntGTp=1.
 FoFCou: FMM=T IPFlag=           0 FMFlag=      100000 FMFlg1=        2001
         NFxFlg=           0 DoJE=T BraDBF=F KetDBF=F FulRan=T
         wScrn=  0.000000 ICntrl=       500 IOpCl=  0 I1Cent=           0 NGrid=           0
         NMat0=    1 NMatS0=      1 NMatT0=    0 NMatD0=    1 NMtDS0=    0 NMtDT0=    0
 Symmetry not used in FoFCou.
 FMM levels:  10  Number of levels for PrismC:   9
 E= -4407.71392733268    
 DIIS: error= 2.03D-02 at cycle   1 NSaved=   1.
 NSaved= 1 IEnMin= 1 EnMin= -4407.71392733268     IErMin= 1 ErrMin= 2.03D-02
 ErrMax= 2.03D-02  0.00D+00 EMaxC= 1.00D-01 BMatC= 3.94D+00 BMatP= 3.94D+00
 IDIUse=3 WtCom= 7.97D-01 WtEn= 2.03D-01
 Coeff-Com:  0.100D+01
 Coeff-En:   0.100D+01
 Coeff:      0.100D+01
 Gap=     0.248 Goal=   None    Shift=    0.000
 Gap=     0.248 Goal=   None    Shift=    0.000
 GapD=    0.248 DampG=1.000 DampE=0.500 DampFc=0.5000 IDamp=-1.
 Damping current iteration by 5.00D-01
 RMSDP=2.49D-03 MaxDP=1.72D-01              OVMax= 1.98D-01

 Cycle   2  Pass 0  IDiag  1:
 RMSU=  1.23D-03    CP:  9.86D-01
 E= -4408.26556517991     Delta-E=       -0.551637847229 Rises=F Damp=T
 DIIS: error= 3.19D-03 at cycle   2 NSaved=   2.
 NSaved= 2 IEnMin= 2 EnMin= -4408.26556517991     IErMin= 2 ErrMin= 3.19D-03
 ErrMax= 3.19D-03  0.00D+00 EMaxC= 1.00D-01 BMatC= 1.55D-01 BMatP= 3.94D+00
 IDIUse=3 WtCom= 9.68D-01 WtEn= 3.19D-02
 Coeff-Com:  0.378D-01 0.962D+00
 Coeff-En:   0.393D-01 0.961D+00
 Coeff:      0.379D-01 0.962D+00
 Gap=     0.236 Goal=   None    Shift=    0.000
 Gap=     0.236 Goal=   None    Shift=    0.000
 RMSDP=5.96D-04 MaxDP=3.10D-02 DE=-5.52D-01 OVMax= 1.55D-01

 Cycle   3  Pass 0  IDiag  1:
 RMSU=  5.91D-04    CP:  9.81D-01  9.77D-01
 E= -4408.86827312875     Delta-E=       -0.602707948836 Rises=F Damp=F
 DIIS: error= 3.04D-03 at cycle   3 NSaved=   3.
 NSaved= 3 IEnMin= 3 EnMin= -4408.86827312875     IErMin= 3 ErrMin= 3.04D-03
 ErrMax= 3.04D-03  0.00D+00 EMaxC= 1.00D-01 BMatC= 6.90D-02 BMatP= 1.55D-01
 IDIUse=3 WtCom= 9.70D-01 WtEn= 3.04D-02
 Coeff-Com: -0.374D-02 0.379D+00 0.625D+00
 Coeff-En:   0.000D+00 0.000D+00 0.100D+01
 Coeff:     -0.362D-02 0.367D+00 0.636D+00
 Gap=     0.220 Goal=   None    Shift=    0.000
 Gap=     0.220 Goal=   None    Shift=    0.000
 RMSDP=2.17D-04 MaxDP=1.64D-02 DE=-6.03D-01 OVMax= 3.86D-02

 Cycle   4  Pass 0  IDiag  1:
 RMSU=  1.81D-04    CP:  9.81D-01  1.01D+00  8.14D-01
 E= -4408.88357167707     Delta-E=       -0.015298548324 Rises=F Damp=F
 DIIS: error= 1.81D-03 at cycle   4 NSaved=   4.
 NSaved= 4 IEnMin= 4 EnMin= -4408.88357167707     IErMin= 4 ErrMin= 1.81D-03
 ErrMax= 1.81D-03  0.00D+00 EMaxC= 1.00D-01 BMatC= 1.89D-02 BMatP= 6.90D-02
 IDIUse=3 WtCom= 9.82D-01 WtEn= 1.81D-02
 Coeff-Com:  0.873D-04 0.706D-01 0.349D+00 0.581D+00
 Coeff-En:   0.000D+00 0.000D+00 0.172D+00 0.828D+00
 Coeff:      0.857D-04 0.693D-01 0.346D+00 0.585D+00
 Gap=     0.221 Goal=   None    Shift=    0.000
 Gap=     0.221 Goal=   None    Shift=    0.000
 RMSDP=8.34D-05 MaxDP=7.75D-03 DE=-1.53D-02 OVMax= 1.38D-02

 Cycle   5  Pass 0  IDiag  1:
 RMSU=  5.64D-05    CP:  9.81D-01  1.00D+00  8.79D-01  7.45D-01
 E= -4408.88860941537     Delta-E=       -0.005037738294 Rises=F Damp=F
 DIIS: error= 3.07D-04 at cycle   5 NSaved=   5.
 NSaved= 5 IEnMin= 5 EnMin= -4408.88860941537     IErMin= 5 ErrMin= 3.07D-04
 ErrMax= 3.07D-04  0.00D+00 EMaxC= 1.00D-01 BMatC= 1.14D-03 BMatP= 1.89D-02
 IDIUse=3 WtCom= 9.97D-01 WtEn= 3.07D-03
 Coeff-Com:  0.333D-02-0.148D-01 0.781D-01 0.233D+00 0.700D+00
 Coeff-En:   0.000D+00 0.000D+00 0.000D+00 0.000D+00 0.100D+01
 Coeff:      0.332D-02-0.147D-01 0.779D-01 0.233D+00 0.701D+00
 Gap=     0.222 Goal=   None    Shift=    0.000
 Gap=     0.222 Goal=   None    Shift=    0.000
 RMSDP=3.31D-05 MaxDP=2.51D-03 DE=-5.04D-03 OVMax= 5.46D-03

 Cycle   6  Pass 0  IDiag  1:
 RMSU=  2.79D-05    CP:  9.81D-01  9.97D-01  8.97D-01  8.15D-01  9.84D-01
 E= -4408.88894251392     Delta-E=       -0.000333098553 Rises=F Damp=F
 DIIS: error= 2.43D-04 at cycle   6 NSaved=   6.
 NSaved= 6 IEnMin= 6 EnMin= -4408.88894251392     IErMin= 6 ErrMin= 2.43D-04
 ErrMax= 2.43D-04  0.00D+00 EMaxC= 1.00D-01 BMatC= 3.92D-04 BMatP= 1.14D-03
 IDIUse=3 WtCom= 9.98D-01 WtEn= 2.43D-03
 Coeff-Com:  0.271D-02-0.217D-01-0.913D-02 0.420D-01 0.408D+00 0.578D+00
 Coeff-En:   0.000D+00 0.000D+00 0.000D+00 0.000D+00 0.000D+00 0.100D+01
 Coeff:      0.271D-02-0.217D-01-0.911D-02 0.419D-01 0.407D+00 0.579D+00
 Gap=     0.223 Goal=   None    Shift=    0.000
 Gap=     0.223 Goal=   None    Shift=    0.000
 RMSDP=1.88D-05 MaxDP=1.39D-03 DE=-3.33D-04 OVMax= 2.43D-03

 Cycle   7  Pass 0  IDiag  1:
 RMSU=  1.46D-05    CP:  9.81D-01  9.96D-01  9.05D-01  8.37D-01  1.16D+00
                    CP:  9.29D-01
 E= -4408.88907519269     Delta-E=       -0.000132678770 Rises=F Damp=F
 DIIS: error= 6.94D-05 at cycle   7 NSaved=   7.
 NSaved= 7 IEnMin= 7 EnMin= -4408.88907519269     IErMin= 7 ErrMin= 6.94D-05
 ErrMax= 6.94D-05  0.00D+00 EMaxC= 1.00D-01 BMatC= 4.69D-05 BMatP= 3.92D-04
 IDIUse=1 WtCom= 1.00D+00 WtEn= 0.00D+00
 Coeff-Com:  0.875D-03-0.729D-02-0.163D-01-0.239D-01 0.344D-01 0.255D+00
 Coeff-Com:  0.757D+00
 Coeff:      0.875D-03-0.729D-02-0.163D-01-0.239D-01 0.344D-01 0.255D+00
 Coeff:      0.757D+00
 Gap=     0.223 Goal=   None    Shift=    0.000
 Gap=     0.223 Goal=   None    Shift=    0.000
 RMSDP=1.82D-05 MaxDP=5.36D-04 DE=-1.33D-04 OVMax= 1.61D-03

 Cycle   8  Pass 0  IDiag  1:
 RMSU=  1.39D-05    CP:  9.81D-01  9.95D-01  9.08D-01  8.51D-01  1.23D+00
                    CP:  1.22D+00  1.48D+00
 E= -4408.88909722617     Delta-E=       -0.000022033482 Rises=F Damp=F
 DIIS: error= 8.11D-05 at cycle   8 NSaved=   8.
 NSaved= 8 IEnMin= 8 EnMin= -4408.88909722617     IErMin= 7 ErrMin= 6.94D-05
 ErrMax= 8.11D-05  0.00D+00 EMaxC= 1.00D-01 BMatC= 1.63D-05 BMatP= 4.69D-05
 IDIUse=1 WtCom= 1.00D+00 WtEn= 0.00D+00
 Coeff-Com:  0.179D-03-0.135D-02-0.792D-02-0.204D-01-0.417D-01 0.611D-01
 Coeff-Com:  0.421D+00 0.589D+00
 Coeff:      0.179D-03-0.135D-02-0.792D-02-0.204D-01-0.417D-01 0.611D-01
 Coeff:      0.421D+00 0.589D+00
 Gap=     0.223 Goal=   None    Shift=    0.000
 Gap=     0.223 Goal=   None    Shift=    0.000
 RMSDP=1.97D-05 MaxDP=7.74D-04 DE=-2.20D-05 OVMax= 5.69D-04

 Cycle   9  Pass 0  IDiag  1:
 RMSU=  1.10D-05    CP:  9.81D-01  9.95D-01  9.08D-01  8.57D-01  1.28D+00
                    CP:  1.41D+00  2.25D+00  1.73D+00
 E= -4408.88910027982     Delta-E=       -0.000003053643 Rises=F Damp=F
 DIIS: error= 9.06D-05 at cycle   9 NSaved=   9.
 NSaved= 9 IEnMin= 9 EnMin= -4408.88910027982     IErMin= 7 ErrMin= 6.94D-05
 ErrMax= 9.06D-05  0.00D+00 EMaxC= 1.00D-01 BMatC= 1.51D-05 BMatP= 1.63D-05
 IDIUse=1 WtCom= 1.00D+00 WtEn= 0.00D+00
 Coeff-Com:  0.183D-03-0.137D-02-0.870D-02-0.227D-01-0.479D-01 0.644D-01
 Coeff-Com:  0.465D+00 0.666D+00-0.115D+00
 Coeff:      0.183D-03-0.137D-02-0.870D-02-0.227D-01-0.479D-01 0.644D-01
 Coeff:      0.465D+00 0.666D+00-0.115D+00
 Gap=     0.223 Goal=   None    Shift=    0.000
 Gap=     0.223 Goal=   None    Shift=    0.000
 RMSDP=4.41D-06 MaxDP=1.47D-04 DE=-3.05D-06 OVMax= 2.80D-05

 Initial convergence to 1.0D-05 achieved.  Increase integral accuracy.
 Cycle  10  Pass 1  IDiag  1:
 E= -4408.88819690342     Delta-E=        0.000903376400 Rises=F Damp=F
 DIIS: error= 2.59D-04 at cycle   1 NSaved=   1.
 NSaved= 1 IEnMin= 1 EnMin= -4408.88819690342     IErMin= 1 ErrMin= 2.59D-04
 ErrMax= 2.59D-04  0.00D+00 EMaxC= 1.00D-01 BMatC= 1.74D-04 BMatP= 1.74D-04
 IDIUse=3 WtCom= 9.97D-01 WtEn= 2.59D-03
 Coeff-Com:  0.100D+01
 Coeff-En:   0.100D+01
 Coeff:      0.100D+01
 Gap=     0.223 Goal=   None    Shift=    0.000
 Gap=     0.223 Goal=   None    Shift=    0.000
 RMSDP=4.41D-06 MaxDP=1.47D-04 DE= 9.03D-04 OVMax= 4.90D-04

 Cycle  11  Pass 1  IDiag  1:
 RMSU=  1.39D-04    CP:  1.00D+00
 E= -4408.88823369055     Delta-E=       -0.000036787140 Rises=F Damp=F
 DIIS: error= 1.67D-05 at cycle   2 NSaved=   2.
 NSaved= 2 IEnMin= 2 EnMin= -4408.88823369055     IErMin= 2 ErrMin= 1.67D-05
 ErrMax= 1.67D-05  0.00D+00 EMaxC= 1.00D-01 BMatC= 1.84D-06 BMatP= 1.74D-04
 IDIUse=1 WtCom= 1.00D+00 WtEn= 0.00D+00
 Coeff-Com: -0.203D-01 0.102D+01
 Coeff:     -0.203D-01 0.102D+01
 Gap=     0.223 Goal=   None    Shift=    0.000
 Gap=     0.223 Goal=   None    Shift=    0.000
[...]
    28 C(13)  Bbb    -0.0000    -0.000    -0.000    -0.000 -0.1352  0.1908  0.9723
              Bcc     0.0000     0.000     0.000     0.000  0.6756  0.7356 -0.0504
 
              Baa    -0.0000    -0.000    -0.000    -0.000  0.8644 -0.3967  0.3090
    29 C(13)  Bbb     0.0000     0.000     0.000     0.000  0.4623  0.8687 -0.1780
              Bcc     0.0000     0.000     0.000     0.000 -0.1978  0.2967  0.9343
 
              Baa    -0.0000    -0.000    -0.000    -0.000 -0.1001  0.9804 -0.1695
    30 C(13)  Bbb     0.0000     0.000     0.000     0.000  0.9589  0.1405  0.2466
              Bcc     0.0000     0.000     0.000     0.000 -0.2655  0.1378  0.9542
 
              Baa    -0.0000    -0.000    -0.000    -0.000  0.1592  0.9833  0.0880
    31 C(13)  Bbb    -0.0000    -0.000    -0.000    -0.000  0.9785 -0.1454 -0.1461
              Bcc     0.0000     0.000     0.000     0.000  0.1308 -0.1093  0.9854
 
              Baa    -0.0000    -0.000    -0.000    -0.000  0.7869  0.1330  0.6026
    32 C(13)  Bbb    -0.0000    -0.000    -0.000    -0.000 -0.6148  0.0840  0.7842
              Bcc     0.0000     0.000     0.000     0.000 -0.0536  0.9875 -0.1479
 
              Baa    -0.0000    -0.000    -0.000    -0.000  0.1471  0.9843  0.0970
    33 F(19)  Bbb     0.0000     0.000     0.000     0.000  0.9089 -0.0959 -0.4058
              Bcc     0.0000     0.000     0.000     0.000  0.3902 -0.1479  0.9088
 
              Baa    -0.0000    -0.000    -0.000    -0.000 -0.1274 -0.1032  0.9865
    34 C(13)  Bbb    -0.0000    -0.000    -0.000    -0.000  0.9824  0.1241  0.1398
              Bcc     0.0000     0.000     0.000     0.000 -0.1368  0.9869  0.0856
 
              Baa    -0.0000    -0.000    -0.000    -0.000  0.9862  0.1568  0.0524
    35 C(13)  Bbb     0.0000     0.000     0.000     0.000 -0.0538  0.0047  0.9985
              Bcc     0.0000     0.000     0.000     0.000 -0.1563  0.9876 -0.0130
 
              Baa    -0.0000    -0.000    -0.000    -0.000  0.9996  0.0066  0.0273
    36 S(33)  Bbb     0.0000     0.000     0.000     0.000 -0.0267 -0.0734  0.9969
              Bcc     0.0000     0.000     0.000     0.000 -0.0086  0.9973  0.0732
 
              Baa    -0.0000    -0.000    -0.000    -0.000 -0.1426  0.7226  0.6764
    37 C(13)  Bbb    -0.0000    -0.000    -0.000    -0.000 -0.0782 -0.6894  0.7201
              Bcc     0.0000     0.000     0.000     0.000  0.9867  0.0498  0.1548
 
              Baa    -0.0000    -0.000    -0.000    -0.000  0.9979 -0.0050 -0.0640
    38 C(13)  Bbb    -0.0000    -0.000    -0.000    -0.000 -0.0118  0.9658 -0.2590
              Bcc     0.0000     0.000     0.000     0.000  0.0631  0.2592  0.9638
 
              Baa    -0.0000    -0.000    -0.000    -0.000  0.8701 -0.4261  0.2476
    39 C(13)  Bbb     0.0000     0.000     0.000     0.000  0.1876  0.7510  0.6331
              Bcc     0.0000     0.000     0.000     0.000 -0.4557 -0.5044  0.7334
 
              Baa    -0.0000    -0.000    -0.000    -0.000 -0.1020  0.2829  0.9537
    40 C(13)  Bbb    -0.0000    -0.000    -0.000    -0.000  0.9943 -0.0024  0.1070
              Bcc     0.0000     0.000     0.000     0.000  0.0325  0.9592 -0.2810
 
              Baa    -0.0000    -0.000    -0.000    -0.000 -0.6337  0.6686  0.3892
    41 C(13)  Bbb    -0.0000    -0.000    -0.000    -0.000  0.5528  0.0394  0.8324
              Bcc     0.0000     0.000     0.000     0.000  0.5412  0.7426 -0.3945
 
              Baa    -0.0000    -0.000    -0.000    -0.000 -0.0660  0.9083 -0.4132
    42 C(13)  Bbb    -0.0000    -0.000    -0.000    -0.000  0.9976  0.0512 -0.0468
              Bcc     0.0000     0.000     0.000     0.000  0.0213  0.4153  0.9094
 
              Baa    -0.0000    -0.000    -0.000    -0.000 -0.0757  0.0487  0.9959
    43 C(13)  Bbb     0.0000     0.000     0.000     0.000 -0.6142  0.7845 -0.0851
              Bcc     0.0000     0.000     0.000     0.000  0.7855  0.6182  0.0295
 
              Baa    -0.0000    -0.000    -0.000    -0.000 -0.4860  0.8721 -0.0568
    44 C(13)  Bbb     0.0000     0.000     0.000     0.000  0.8730  0.4875  0.0151
              Bcc     0.0000     0.000     0.000     0.000 -0.0409  0.0422  0.9983
 
              Baa    -0.0000    -0.000    -0.000    -0.000  0.9622  0.2438  0.1217
    45 F(19)  Bbb     0.0000     0.000     0.000     0.000 -0.1429  0.0711  0.9872
              Bcc     0.0000     0.000     0.000     0.000 -0.2320  0.9672 -0.1032
 
              Baa    -0.0000    -0.000    -0.000    -0.000  0.9859  0.1651  0.0289
    46 C(13)  Bbb     0.0000     0.000     0.000     0.000 -0.1618  0.9824 -0.0931
              Bcc     0.0000     0.000     0.000     0.000 -0.0437  0.0871  0.9952
 
              Baa    -0.0000    -0.000    -0.000    -0.000  0.9713 -0.2379  0.0022
    47 C(13)  Bbb     0.0000     0.000     0.000     0.000  0.1757  0.7235  0.6676
              Bcc     0.0000     0.000     0.000     0.000 -0.1604 -0.6481  0.7445
 
              Baa    -0.0000    -0.000    -0.000    -0.000  0.7176 -0.6907 -0.0896
    48 S(33)  Bbb     0.0000     0.000     0.000     0.000 -0.0782 -0.2077  0.9751
              Bcc     0.0000     0.000     0.000     0.000  0.6921  0.6927  0.2030
 
              Baa    -0.0000    -0.000    -0.000    -0.000 -0.5885  0.7392 -0.3276
    49 C(13)  Bbb     0.0000     0.000     0.000     0.000 -0.4843  0.0022  0.8749
              Bcc     0.0000     0.000     0.000     0.000  0.6474  0.6735  0.3567
 
              Baa    -0.0000    -0.000    -0.000    -0.000  0.8974  0.2984 -0.3251
    50 C(13)  Bbb     0.0000     0.000     0.000     0.000  0.2185  0.3395  0.9149
              Bcc     0.0000     0.000     0.000     0.000 -0.3833  0.8920 -0.2395
 
              Baa    -0.0000    -0.000    -0.000    -0.000 -0.0290  0.4449  0.8951
    51 C(13)  Bbb     0.0000     0.000     0.000     0.000  0.9613  0.2580 -0.0970
              Bcc     0.0000     0.000     0.000     0.000 -0.2741  0.8576 -0.4352
 
              Baa    -0.0000    -0.000    -0.000    -0.000  0.9975 -0.0626  0.0316
    52 C(13)  Bbb    -0.0000    -0.000    -0.000    -0.000  0.0659  0.9908 -0.1181
              Bcc     0.0000     0.000     0.000     0.000 -0.0239  0.1199  0.9925
 
              Baa    -0.0000    -0.000    -0.000    -0.000  0.2577  0.3599  0.8967
    53 C(13)  Bbb    -0.0000    -0.000    -0.000    -0.000  0.1961  0.8893 -0.4132
              Bcc     0.0000     0.000     0.000     0.000  0.9461 -0.2823 -0.1586
 
              Baa    -0.0000    -0.000    -0.000    -0.000  0.7460  0.3768 -0.5491
    54 C(13)  Bbb     0.0000     0.000     0.000     0.000  0.6039 -0.0351  0.7963
              Bcc     0.0000     0.000     0.000     0.000 -0.2808  0.9256  0.2537
 
              Baa    -0.0000    -0.000    -0.000    -0.000 -0.1490  0.3393  0.9288
    55 C(13)  Bbb     0.0000     0.000     0.000     0.000  0.7544 -0.5683  0.3286
              Bcc     0.0000     0.000     0.000     0.000  0.6393  0.7496 -0.1713
 
              Baa    -0.0000    -0.000    -0.000    -0.000 -0.1175  0.9591 -0.2577
    56 C(13)  Bbb     0.0000     0.000     0.000     0.000  0.9930  0.1166 -0.0187
              Bcc     0.0000     0.000     0.000     0.000 -0.0122  0.2581  0.9660
 
              Baa    -0.0000    -0.000    -0.000    -0.000 -0.0745  0.9910 -0.1109
    57 F(19)  Bbb     0.0000     0.000     0.000     0.000  0.9836  0.0913  0.1555
              Bcc     0.0000     0.000     0.000     0.000 -0.1643  0.0975  0.9816
 
              Baa    -0.0000    -0.000    -0.000    -0.000 -0.0882  0.9692 -0.2300
    58 C(13)  Bbb     0.0000     0.000     0.000     0.000 -0.1044  0.2207  0.9698
              Bcc     0.0000     0.000     0.000     0.000  0.9906  0.1095  0.0817
 
              Baa    -0.0000    -0.000    -0.000    -0.000  0.9456 -0.3241  0.0293
    59 C(13)  Bbb     0.0000     0.000     0.000     0.000  0.3051  0.8516 -0.4263
              Bcc     0.0000     0.000     0.000     0.000  0.1132  0.4121  0.9041
 
              Baa    -0.0000    -0.000    -0.000    -0.000  0.4776  0.8265 -0.2980
    60 S(33)  Bbb     0.0000     0.000     0.000     0.000 -0.1671  0.4185  0.8927
              Bcc     0.0000     0.000     0.000     0.000  0.8625 -0.3766  0.3380
 
              Baa    -0.0000    -0.000    -0.000    -0.000  0.9882 -0.0235 -0.1512
    61 H(1)   Bbb     0.0000     0.000     0.000     0.000  0.1412 -0.2412  0.9601
              Bcc     0.0000     0.000     0.000     0.000  0.0590  0.9702  0.2351
 
              Baa    -0.0000    -0.000    -0.000    -0.000 -0.0260 -0.6407  0.7674
    62 H(1)   Bbb    -0.0000    -0.000    -0.000    -0.000  0.4378  0.6828  0.5849
              Bcc     0.0000     0.000     0.000     0.000  0.8987 -0.3511 -0.2627
 
              Baa    -0.0000    -0.000    -0.000    -0.000  0.1244  0.5210  0.8445
    63 H(1)   Bbb    -0.0000    -0.000    -0.000    -0.000 -0.2396  0.8417 -0.4839
              Bcc     0.0000     0.000     0.000     0.000  0.9629  0.1421 -0.2295
 
              Baa    -0.0000    -0.000    -0.000    -0.000  0.3015 -0.0816  0.9500
    64 H(1)   Bbb    -0.0000    -0.000    -0.000    -0.000  0.9508 -0.0480 -0.3059
              Bcc     0.0000     0.000     0.000     0.000  0.0706  0.9955  0.0631
 
              Baa    -0.0000    -0.000    -0.000    -0.000  0.2491 -0.0522  0.9671
    65 H(1)   Bbb    -0.0000    -0.000    -0.000    -0.000  0.9305  0.2900 -0.2240
              Bcc     0.0000     0.000     0.000     0.000 -0.2687  0.9556  0.1208
 
              Baa    -0.0000    -0.000    -0.000    -0.000  0.0486  0.7465  0.6636
    66 H(1)   Bbb     0.0000     0.000     0.000     0.000  0.0016 -0.6645  0.7473
              Bcc     0.0000     0.000     0.000     0.000  0.9988 -0.0353 -0.0335
 
              Baa    -0.0000    -0.000    -0.000    -0.000  0.2900  0.1053  0.9512
    67 H(1)   Bbb    -0.0000    -0.000    -0.000    -0.000  0.8954  0.3211 -0.3086
              Bcc     0.0000     0.000     0.000     0.000 -0.3379  0.9412 -0.0011
 
              Baa    -0.0000    -0.000    -0.000    -0.000  0.1459  0.0960  0.9846
    68 H(1)   Bbb     0.0000     0.000     0.000     0.000  0.9779  0.1365 -0.1583
              Bcc     0.0000     0.000     0.000     0.000 -0.1496  0.9860 -0.0740
 
              Baa    -0.0000    -0.000    -0.000    -0.000 -0.6196  0.7814  0.0740
    69 H(1)   Bbb     0.0000     0.000     0.000     0.000 -0.0952 -0.1685  0.9811
              Bcc     0.0000     0.000     0.000     0.000  0.7791  0.6009  0.1788
 
              Baa    -0.0000    -0.000    -0.000    -0.000  0.1889  0.0348  0.9814
    70 H(1)   Bbb    -0.0000    -0.000    -0.000    -0.000  0.8264 -0.5455 -0.1397
              Bcc     0.0000     0.000     0.000     0.000  0.5305  0.8374 -0.1318
 
              Baa    -0.0000    -0.000    -0.000    -0.000 -0.0040 -0.5399  0.8417
    71 H(1)   Bbb    -0.0000    -0.000    -0.000    -0.000  0.2550  0.8133  0.5229
              Bcc     0.0000     0.000     0.000     0.000  0.9669 -0.2167 -0.1344
 
              Baa    -0.0000    -0.000    -0.000    -0.000  0.2097  0.9522 -0.2223
    72 H(1)   Bbb     0.0000     0.000     0.000     0.000  0.9766 -0.1926  0.0962
              Bcc     0.0000     0.000     0.000     0.000 -0.0488  0.2373  0.9702
 
              Baa    -0.0000    -0.000    -0.000    -0.000 -0.3734  0.8540 -0.3622
    73 H(1)   Bbb     0.0000     0.000     0.000     0.000  0.8689  0.4588  0.1860
              Bcc     0.0000     0.000     0.000     0.000 -0.3250  0.2452  0.9134
 
              Baa    -0.0000    -0.000    -0.000    -0.000  0.2067  0.9721 -0.1107
    74 H(1)   Bbb     0.0000     0.000     0.000     0.000  0.9588 -0.1787  0.2209
              Bcc     0.0000     0.000     0.000     0.000 -0.1949  0.1518  0.9690
 
              Baa    -0.0000    -0.000    -0.000    -0.000  0.9495 -0.2624  0.1719
    75 H(1)   Bbb    -0.0000    -0.000    -0.000    -0.000  0.2819  0.9542 -0.1007
              Bcc     0.0000     0.000     0.000     0.000 -0.1376  0.1441  0.9800
 
              Baa    -0.0000    -0.000    -0.000    -0.000  0.4217  0.8650  0.2718
    76 H(1)   Bbb     0.0000     0.000     0.000     0.000  0.9021 -0.4305 -0.0293
              Bcc     0.0000     0.000     0.000     0.000 -0.0917 -0.2575  0.9619
 
              Baa    -0.0000    -0.000    -0.000    -0.000  0.9776 -0.1710 -0.1224
    77 H(1)   Bbb     0.0000     0.000     0.000     0.000  0.1980  0.5520  0.8100
              Bcc     0.0000     0.000     0.000     0.000  0.0709  0.8161 -0.5735
 
              Baa    -0.0000    -0.000    -0.000    -0.000 -0.1593  0.4802  0.8626
    78 H(1)   Bbb    -0.0000    -0.000    -0.000    -0.000  0.9030 -0.2822  0.3239
              Bcc     0.0000     0.000     0.000     0.000  0.3990  0.8305 -0.3887
 
              Baa    -0.0000    -0.000    -0.000    -0.000 -0.5210  0.7289 -0.4441
    79 H(1)   Bbb    -0.0000    -0.000    -0.000    -0.000  0.0136  0.5273  0.8496
              Bcc     0.0000     0.000     0.000     0.000  0.8534  0.4366 -0.2846
 
              Baa    -0.0000    -0.000    -0.000    -0.000  0.6916  0.6689 -0.2726
    80 H(1)   Bbb     0.0000     0.000     0.000     0.000  0.7220 -0.6307  0.2844
              Bcc     0.0000     0.000     0.000     0.000 -0.0183  0.3935  0.9191
 
              Baa    -0.0000    -0.000    -0.000    -0.000  0.7310  0.6821 -0.0199
    81 H(1)   Bbb     0.0000     0.000     0.000     0.000 -0.0580  0.0911  0.9941
              Bcc     0.0000     0.000     0.000     0.000 -0.6800  0.7255 -0.1062
 
              Baa    -0.0000    -0.000    -0.000    -0.000  0.6019 -0.2327  0.7639
    82 H(1)   Bbb    -0.0000    -0.000    -0.000    -0.000 -0.1709  0.8969  0.4079
              Bcc     0.0000     0.000     0.000     0.000  0.7801  0.3760 -0.5001
 
              Baa    -0.0000    -0.000    -0.000    -0.000  0.3710  0.4733  0.7990
    83 H(1)   Bbb    -0.0000    -0.000    -0.000    -0.000  0.9207 -0.0756 -0.3828
              Bcc     0.0000     0.000     0.000     0.000 -0.1208  0.8777 -0.4638
 
              Baa    -0.0000    -0.000    -0.000    -0.000  0.8810  0.3074 -0.3597
    84 H(1)   Bbb     0.0000     0.000     0.000     0.000  0.4725 -0.6122  0.6340
              Bcc     0.0000     0.000     0.000     0.000  0.0253  0.7285  0.6846
 
              Baa    -0.0000    -0.000    -0.000    -0.000  0.8362 -0.5384  0.1038
    85 H(1)   Bbb     0.0000     0.000     0.000     0.000  0.5430  0.7866 -0.2938
              Bcc     0.0000     0.000     0.000     0.000  0.0765  0.3021  0.9502
 
              Baa    -0.0000    -0.000    -0.000    -0.000 -0.5132  0.8495 -0.1226
    86 H(1)   Bbb     0.0000     0.000     0.000     0.000  0.8557  0.4955 -0.1492
              Bcc     0.0000     0.000     0.000     0.000  0.0660  0.1814  0.9812
 
              Baa    -0.0000    -0.000    -0.000    -0.000  0.8869  0.4312 -0.1660
    87 H(1)   Bbb     0.0000     0.000     0.000     0.000  0.0290  0.3066  0.9514
              Bcc     0.0000     0.000     0.000     0.000 -0.4611  0.8485 -0.2594
 

 ---------------------------------------------------------------------------------

 No NMR shielding tensors so no spin-rotation constants.
 Leave Link  601 at Thu Jul 23 19:18:16 2020, MaxMem=  4026531840 cpu:              13.4 elap:               1.8
 (Enter /opt/ohpc/pub/libs/gaussian/g16-A.03/sandybridge/g16/l9999.exe)

 Test job not archived.
 1\1\GINC-SKYLAKE048\FOpt\ULC-wPBE\CC-pVDZ\C50H27F5S5\RDU230\23-Jul-202
 0\0\\#P uLC-wPBE/cc-pVDZ iop(3/107=0177300000, 3/108=0177300000) opt\\
 H27 C50 S5 F5\\0,1\C,18.828641574,-1.7489414913,-1.1124650883\C,17.628
 0718731,-2.4140055505,-0.8348073033\C,16.4700605438,-1.686832288,-0.54
 68017418\C,16.4827299066,-0.2760565502,-0.5390381898\C,17.6986748308,0
 .3836027517,-0.8213580343\C,18.8558439735,-0.3489869994,-1.101771649\C
 ,15.2588815356,0.4874799285,-0.24795512\C,15.1038449951,1.7983284518,0
 .1666110921\F,16.146570094,2.6310869788,0.390987837\C,13.7687618729,2.
 2317107979,0.3723384971\C,12.8534372547,1.2312500025,0.1081067824\S,13
 .6688235823,-0.2256353829,-0.4076845824\C,11.385955482,1.2858263648,0.
 196807365\C,10.6153053315,0.131574262,0.4398079734\C,9.225932854,0.200
 6033093,0.5294538333\C,8.5423574816,1.4258150024,0.3815384944\C,9.3150
 721607,2.5832634735,0.1399851994\C,10.7042393865,2.5104525384,0.046598
 5344\C,7.0776347428,1.4926956109,0.4699962069\C,6.2446879621,2.5818591
 859,0.6609772339\F,6.7030966667,3.8454359168,0.8156586758\C,4.85555486
 62,2.301236237,0.7104468865\C,4.5939344134,0.9539103179,0.5513676282\S
 ,6.0791942674,0.0619665758,0.3261844109\C,3.2918164236,0.2695614409,0.
 5379384544\C,2.1261943951,0.9585262201,0.145856132\C,0.8858634732,0.32
 3555034,0.1401274333\C,0.7514386781,-1.0284517712,0.5226647514\C,1.920
 5464577,-1.7202212372,0.907959132\C,3.1600638315,-1.0810873122,0.91644
 49655\C,-0.5603476128,-1.6890944217,0.5207918896\C,-0.8820421556,-3.03
 48780547,0.5680796247\F,0.047745349,-4.0162814733,0.6173665727\C,-2.26
 54583444,-3.3451594747,0.5393733721\C,-3.0490178146,-2.2093337069,0.47
 01061548\S,-2.0520232323,-0.7746941803,0.4588442853\C,-4.5160845052,-2
 .1096104087,0.4267138196\C,-5.3196372094,-3.1213427634,0.9901897084\C,
 -6.7113175859,-3.049513976,0.9472574919\C,-7.36301775,-1.9523807097,0.
 3414775616\C,-6.5569418518,-0.9397941403,-0.2202021921\C,-5.1657839642
 ,-1.0160774978,-0.1792326229\C,-8.8285693176,-1.8637922084,0.301408937
 1\C,-9.7872205648,-2.8412438696,0.5070903645\F,-9.4820681841,-4.128547
 2308,0.7899751756\C,-11.1369052251,-2.4244865465,0.3821811522\C,-11.23
 69800123,-1.0818029269,0.0721488616\S,-9.6514911842,-0.3573374514,-0.0
 419740252\C,-12.4513130485,-0.2771271714,-0.1342412813\C,-12.449502782
 2,0.8695626733,-0.9524845354\C,-13.6067371249,1.6231447111,-1.14852656
 48\C,-14.8229787844,1.255240077,-0.5341614695\C,-14.8224154982,0.10855
 73081,0.2880852315\C,-13.6640126045,-0.6407846235,0.4853825479\C,-16.0
 49660271,2.0384134561,-0.7434635857\C,-16.2086678466,3.3318615907,-1.2
 104137524\F,-15.1709234154,4.1227237767,-1.5672628616\C,-17.5486081419
 ,3.8028690804,-1.2862566776\C,-18.4349007151,2.839994415,-0.8694339954
 \S,-17.6351868948,1.3812643502,-0.3971584457\H,19.7399721552,-2.319991
 0424,-1.3352579095\H,17.5919371124,-3.5119148462,-0.8347703151\H,15.54
 00499743,-2.2237130217,-0.3119263225\H,17.7320434262,1.4788480509,-0.8
 246655066\H,19.7909321644,0.1849041312,-1.319793702\H,13.5140126295,3.
 2330122391,0.7343091062\H,11.1148930192,-0.836232731,0.5860293462\H,8.
 6608166248,-0.7181800161,0.739655982\H,8.8172286683,3.5500647915,0.008
 1790719\H,11.2730327528,3.4237265538,-0.1731218619\H,4.0964700975,3.06
 88873629,0.8918941513\H,2.1970593876,2.0025632368,-0.1866130413\H,0.00
 24755975,0.8875034943,-0.1905302303\H,1.8538706774,-2.7684815933,1.218
 3690475\H,4.045845549,-1.6410846425,1.2477081173\H,-2.6484355378,-4.37
 06677726,0.5354986239\H,-4.8444780807,-3.9723626434,1.4959919793\H,-7.
 3052764063,-3.8485552183,1.4039708737\H,-7.0272398378,-0.0810564633,-0
 .7191682319\H,-4.5709333327,-0.2211121996,-0.6502123614\H,-11.98580934
 3,-3.1079225829,0.4854867788\H,-11.5255599953,1.1680807141,-1.46742363
 09\H,-13.5719077796,2.5035075841,-1.7994115545\H,-15.7446033674,-0.193
 5339305,0.8039114469\H,-13.6935351848,-1.5098398917,1.1557948126\H,-17
 .8189324757,4.8058949819,-1.6314921888\H,-19.5257921129,2.9009070343,-
 0.8176510329\\Version=EM64L-G16RevA.03\State=1-A\HF=-4409.030927\S2=0.
 \S2-1=0.\S2A=0.\RMSD=9.657e-09\RMSF=8.975e-07\Dipole=-2.414532,0.02918
 13,-0.0898996\Quadrupole=37.2105626,-7.239949,-29.9706136,-15.9165536,
 -1.969204,-7.0297539\PG=C01 [X(C50H27F5S5)]\\@


 ONE BIG VICE IN A MAN IS APT TO KEEP OUT MANY SMALLER ONES.

                           -- BRET HARTE
 Job cpu time:       1 days  4 hours  6 minutes 22.2 seconds.
 Elapsed time:       0 days  3 hours 34 minutes 52.0 seconds.
 File lengths (MBytes):  RWF=   1136 Int=      0 D2E=      0 Chk=    104 Scr=      8
 Normal termination of Gaussian 16 at Thu Jul 23 19:18:16 2020.
