 Entering Gaussian System, Link 0=g16
 Input=mols_65_5_21_n-cF-N_opt_0.gjf
 Output=mols_65_5_21_n-cF-N_opt_0.log
 Initial command:
 /opt/ohpc/pub/libs/gaussian/g16-A.03/sandybridge/g16/l1.exe "/mnt/gpfs2_4m/scratch/rdu230/ondemand/projects/dihedral_energies/7trial/wtuning/mols_65_5_21_n-cF-N/Gau-389734.inp" -scrdir="/mnt/gpfs2_4m/scratch/rdu230/ondemand/projects/dihedral_energies/7trial/wtuning/mols_65_5_21_n-cF-N/"
 Entering Link 1 = /opt/ohpc/pub/libs/gaussian/g16-A.03/sandybridge/g16/l1.exe PID=    389735.
  
 Copyright (c) 1988,1990,1992,1993,1995,1998,2003,2009,2016,
            Gaussian, Inc.  All Rights Reserved.
  
 This is part of the Gaussian(R) 16 program.  It is based on
 the Gaussian(R) 09 system (copyright 2009, Gaussian, Inc.),
 the Gaussian(R) 03 system (copyright 2003, Gaussian, Inc.),
 the Gaussian(R) 98 system (copyright 1998, Gaussian, Inc.),
 the Gaussian(R) 94 system (copyright 1995, Gaussian, Inc.),
 the Gaussian 92(TM) system (copyright 1992, Gaussian, Inc.),
 the Gaussian 90(TM) system (copyright 1990, Gaussian, Inc.),
 the Gaussian 88(TM) system (copyright 1988, Gaussian, Inc.),
 the Gaussian 86(TM) system (copyright 1986, Carnegie Mellon
 University), and the Gaussian 82(TM) system (copyright 1983,
 Carnegie Mellon University). Gaussian is a federally registered
 trademark of Gaussian, Inc.
  
 This software contains proprietary and confidential information,
 including trade secrets, belonging to Gaussian, Inc.
  
 This software is provided under written license and may be
 used, copied, transmitted, or stored only in accord with that
 written license.
  
 The following legend is applicable only to US Government
 contracts under FAR:
  
                    RESTRICTED RIGHTS LEGEND
  
 Use, reproduction and disclosure by the US Government is
 subject to restrictions as set forth in subparagraphs (a)
 and (c) of the Commercial Computer Software - Restricted
 Rights clause in FAR 52.227-19.
  
 Gaussian, Inc.
 340 Quinnipiac St., Bldg. 40, Wallingford CT 06492
  
  
 ---------------------------------------------------------------
 Warning -- This program may not be used in any manner that
 competes with the business of Gaussian, Inc. or will provide
 assistance to any competitor of Gaussian, Inc.  The licensee
 of this program is prohibited from giving any competitor of
 Gaussian, Inc. access to this program.  By using this program,
 the user acknowledges that Gaussian, Inc. is engaged in the
 business of creating and licensing software in the field of
 computational chemistry and represents and warrants to the
 licensee that it is not a competitor of Gaussian, Inc. and that
 it will not use this program in any manner prohibited above.
 ---------------------------------------------------------------
  

 Cite this work as:
 Gaussian 16, Revision A.03,
 M. J. Frisch, G. W. Trucks, H. B. Schlegel, G. E. Scuseria, 
 M. A. Robb, J. R. Cheeseman, G. Scalmani, V. Barone, 
 G. A. Petersson, H. Nakatsuji, X. Li, M. Caricato, A. V. Marenich, 
 J. Bloino, B. G. Janesko, R. Gomperts, B. Mennucci, H. P. Hratchian, 
 J. V. Ortiz, A. F. Izmaylov, J. L. Sonnenberg, D. Williams-Young, 
 F. Ding, F. Lipparini, F. Egidi, J. Goings, B. Peng, A. Petrone, 
 T. Henderson, D. Ranasinghe, V. G. Zakrzewski, J. Gao, N. Rega, 
 G. Zheng, W. Liang, M. Hada, M. Ehara, K. Toyota, R. Fukuda, 
 J. Hasegawa, M. Ishida, T. Nakajima, Y. Honda, O. Kitao, H. Nakai, 
 T. Vreven, K. Throssell, J. A. Montgomery, Jr., J. E. Peralta, 
 F. Ogliaro, M. J. Bearpark, J. J. Heyd, E. N. Brothers, K. N. Kudin, 
 V. N. Staroverov, T. A. Keith, R. Kobayashi, J. Normand, 
 K. Raghavachari, A. P. Rendell, J. C. Burant, S. S. Iyengar, 
 J. Tomasi, M. Cossi, J. M. Millam, M. Klene, C. Adamo, R. Cammi, 
 J. W. Ochterski, R. L. Martin, K. Morokuma, O. Farkas, 
 J. B. Foresman, and D. J. Fox, Gaussian, Inc., Wallingford CT, 2016.
 
 ******************************************
 Gaussian 16:  EM64L-G16RevA.03 25-Dec-2016
                23-Jul-2020 
 ******************************************
 %mem=30GB
 %nproc=8
 Will use up to    8 processors via shared memory.
 ---------------------------------------------------------------
 #P uLC-wPBE/cc-pVDZ iop(3/107=0385300000, 3/108=0385300000) opt
 ---------------------------------------------------------------
 1/18=20,19=15,26=3,38=1/1,3;
 2/9=110,12=2,17=6,18=5,40=1/2;
 3/5=16,11=2,25=1,30=1,71=1,74=-41,107=385300000,108=385300000,116=2/1,2,3;
 4//1;
 5/5=2,38=5/2;
 6/7=2,8=2,9=2,10=2,28=1/1;
 7//1,2,3,16;
 1/18=20,19=15,26=3/3(2);
 2/9=110/2;
 99//99;
 2/9=110/2;
 3/5=16,11=2,25=1,30=1,71=1,74=-41,107=385300000,108=385300000,116=2/1,2,3;
 4/5=5,16=3,69=1/1;
 5/5=2,38=5/2;
 7//1,2,3,16;
 1/18=20,19=15,26=3/3(-5);
 2/9=110/2;
 6/7=2,8=2,9=2,10=2,19=2,28=1/1;
 99/9=1/99;
 Leave Link    1 at Thu Jul 23 12:58:29 2020, MaxMem=  4026531840 cpu:               1.6 elap:               0.2
 (Enter /opt/ohpc/pub/libs/gaussian/g16-A.03/sandybridge/g16/l101.exe)
 -----------------
 H17 C40 S5 N10 F5
 -----------------
 Symbolic Z-matrix:
 Charge =  0 Multiplicity = 1
 C                     18.80803  -2.18368  -0.90904 
 C                     17.58973  -2.97502  -0.83259 
 N                     16.4077  -2.39302  -0.58234 
 C                     16.26535  -1.0538   -0.45882 
 C                     17.34922  -0.23919  -0.6545 
 F                     17.30592   1.12123  -0.55308 
 C                     18.60302  -0.76507  -0.85598 
 C                     14.87897  -0.50378  -0.27867 
 N                     14.63202   0.68979  -0.0876 
 C                     13.2976   0.9072    0.09791 
 C                     12.51345  -0.3033    0.03792 
 S                     13.51389  -1.60978  -0.24817 
 C                     10.99974  -0.46078   0.14133 
 C                     10.21587   0.5602   -0.34312 
 N                     8.79894   0.53114  -0.28355 
 C                     8.25832  -0.66588   0.26122 
 C                     9.05569  -1.61336   0.77673 
 F                     8.56744  -2.76457   1.31048 
 C                     10.42374  -1.52047   0.69382 
 C                     6.84456  -0.67963   0.37701 
 N                     6.06346  -1.70679   0.67669 
 C                     4.71988  -1.48982   0.69129 
 C                     4.43397  -0.13967   0.44242 
 S                     5.80484   0.69239   0.06439 
 C                     3.04951   0.52879   0.38464 
 C                     1.93444  -0.25714   0.01395 
 N                     0.62784   0.25767   0.05755 
 C                     0.47084   1.55914   0.32474 
 C                     1.60065   2.35718   0.58337 
 F                     1.46753   3.66711   0.85769 
 C                     2.86976   1.8349    0.67761 
 C                    -0.82493   2.11996   0.28355 
 N                    -1.24172   3.32233   0.56043 
 C                    -2.61677   3.52266   0.46648 
 C                    -3.30199   2.32763   0.18022 
 S                    -2.21176   1.08478   0.02886 
 C                    -4.71415   2.19522   0.05904 
 C                    -5.37438   0.96584   0.38643 
 N                    -6.71972   0.83971   0.30241 
 C                    -7.56551   1.87183  -0.09294 
 C                    -6.94831   3.08325  -0.4827 
 F                    -7.6579    4.15299  -0.85942 
 C                    -5.59394   3.2408   -0.38915 
 C                    -8.93198   1.66021  -0.14987 
 N                    -9.9051    2.63485  -0.20239 
 C                    -11.12971   2.0858   -0.1914 
 C                    -11.1854   0.69226  -0.14396 
 S                    -9.67889   0.06462  -0.08461 
 C                    -12.40883  -0.17563  -0.09407 
 C                    -13.54549   0.10758  -0.85369 
 N                    -14.75015  -0.56636  -0.87826 
 C                    -14.67219  -1.7466   -0.1694 
 C                    -13.56408  -2.18098   0.5592 
 F                    -13.58771  -3.33087   1.29458 
 C                    -12.44431  -1.4316    0.53149 
 C                    -15.9754  -2.55943  -0.26415 
 N                    -16.14359  -3.79413   0.25773 
 C                    -17.40126  -4.17057   0.03669 
 C                    -18.25182  -3.34703  -0.62603 
 S                    -17.43414  -1.85801  -0.96724 
 H                     19.74093  -2.62258  -1.0446 
 H                     17.65398  -3.98621  -0.85382 
 H                     19.45693  -0.14166  -0.88423 
 H                     12.89953   1.92182   0.29209 
 H                     10.54652   1.43626  -0.76451 
 H                     11.03116  -2.34313   1.06646 
 H                     4.05034  -2.28151   0.98145 
 H                     1.97026  -1.25375  -0.17299 
 H                     3.70999   2.50466   0.84038 
 H                    -2.96541   4.46842   0.72011 
 H                    -4.89256   0.13504   0.7896 
 H                    -5.15866   4.19493  -0.57694 
 H                    -12.03529   2.73132  -0.30439 
 H                    -13.57307   1.09684  -1.42594 
 H                    -11.56975  -1.74103   1.13964 
 H                    -17.65611  -5.16869   0.44516 
 H                    -19.28612  -3.49259  -0.8274 
 
 ITRead=  0  0  0  0  0  0  0  0  0  0  0  0  0  0  0  0  0  0  0  0
 ITRead=  0  0  0  0  0  0  0  0  0  0  0  0  0  0  0  0  0  0  0  0
 ITRead=  0  0  0  0  0  0  0  0  0  0  0  0  0  0  0  0  0  0  0  0
 ITRead=  0  0  0  0  0  0  0  0  0  0  0  0  0  0  0  0  0
 MicOpt= -1 -1 -1 -1 -1 -1 -1 -1 -1 -1 -1 -1 -1 -1 -1 -1 -1 -1 -1 -1
 MicOpt= -1 -1 -1 -1 -1 -1 -1 -1 -1 -1 -1 -1 -1 -1 -1 -1 -1 -1 -1 -1
 MicOpt= -1 -1 -1 -1 -1 -1 -1 -1 -1 -1 -1 -1 -1 -1 -1 -1 -1 -1 -1 -1
 MicOpt= -1 -1 -1 -1 -1 -1 -1 -1 -1 -1 -1 -1 -1 -1 -1 -1 -1
 NAtoms=     77 NQM=       77 NQMF=       0 NMMI=      0 NMMIF=      0
                NMic=       0 NMicF=      0.
                    Isotopes and Nuclear Properties:
 (Nuclear quadrupole moments (NQMom) in fm**2, nuclear magnetic moments (NMagM)
  in nuclear magnetons)

  Atom         1           2           3           4           5           6           7           8           9          10
 IAtWgt=          12          12          14          12          12          19          12          12          14          12
 AtmWgt=  12.0000000  12.0000000  14.0030740  12.0000000  12.0000000  18.9984033  12.0000000  12.0000000  14.0030740  12.0000000
 NucSpn=           0           0           2           0           0           1           0           0           2           0
 AtZEff=  -0.0000000  -0.0000000  -0.0000000  -0.0000000  -0.0000000  -0.0000000  -0.0000000  -0.0000000  -0.0000000  -0.0000000
 NQMom=    0.0000000   0.0000000   2.0440000   0.0000000   0.0000000   0.0000000   0.0000000   0.0000000   2.0440000   0.0000000
 NMagM=    0.0000000   0.0000000   0.4037610   0.0000000   0.0000000   2.6288670   0.0000000   0.0000000   0.4037610   0.0000000
 AtZNuc=   6.0000000   6.0000000   7.0000000   6.0000000   6.0000000   9.0000000   6.0000000   6.0000000   7.0000000   6.0000000

  Atom        11          12          13          14          15          16          17          18          19          20
 IAtWgt=          12          32          12          12          14          12          12          19          12          12
 AtmWgt=  12.0000000  31.9720718  12.0000000  12.0000000  14.0030740  12.0000000  12.0000000  18.9984033  12.0000000  12.0000000
 NucSpn=           0           0           0           0           2           0           0           1           0           0
 AtZEff=  -0.0000000  -0.0000000  -0.0000000  -0.0000000  -0.0000000  -0.0000000  -0.0000000  -0.0000000  -0.0000000  -0.0000000
 NQMom=    0.0000000   0.0000000   0.0000000   0.0000000   2.0440000   0.0000000   0.0000000   0.0000000   0.0000000   0.0000000
 NMagM=    0.0000000   0.0000000   0.0000000   0.0000000   0.4037610   0.0000000   0.0000000   2.6288670   0.0000000   0.0000000
 AtZNuc=   6.0000000  16.0000000   6.0000000   6.0000000   7.0000000   6.0000000   6.0000000   9.0000000   6.0000000   6.0000000

  Atom        21          22          23          24          25          26          27          28          29          30
 IAtWgt=          14          12          12          32          12          12          14          12          12          19
 AtmWgt=  14.0030740  12.0000000  12.0000000  31.9720718  12.0000000  12.0000000  14.0030740  12.0000000  12.0000000  18.9984033
 NucSpn=           2           0           0           0           0           0           2           0           0           1
 AtZEff=  -0.0000000  -0.0000000  -0.0000000  -0.0000000  -0.0000000  -0.0000000  -0.0000000  -0.0000000  -0.0000000  -0.0000000
 NQMom=    2.0440000   0.0000000   0.0000000   0.0000000   0.0000000   0.0000000   2.0440000   0.0000000   0.0000000   0.0000000
 NMagM=    0.4037610   0.0000000   0.0000000   0.0000000   0.0000000   0.0000000   0.4037610   0.0000000   0.0000000   2.6288670
 AtZNuc=   7.0000000   6.0000000   6.0000000  16.0000000   6.0000000   6.0000000   7.0000000   6.0000000   6.0000000   9.0000000

  Atom        31          32          33          34          35          36          37          38          39          40
 IAtWgt=          12          12          14          12          12          32          12          12          14          12
 AtmWgt=  12.0000000  12.0000000  14.0030740  12.0000000  12.0000000  31.9720718  12.0000000  12.0000000  14.0030740  12.0000000
 NucSpn=           0           0           2           0           0           0           0           0           2           0
 AtZEff=  -0.0000000  -0.0000000  -0.0000000  -0.0000000  -0.0000000  -0.0000000  -0.0000000  -0.0000000  -0.0000000  -0.0000000
 NQMom=    0.0000000   0.0000000   2.0440000   0.0000000   0.0000000   0.0000000   0.0000000   0.0000000   2.0440000   0.0000000
 NMagM=    0.0000000   0.0000000   0.4037610   0.0000000   0.0000000   0.0000000   0.0000000   0.0000000   0.4037610   0.0000000
 AtZNuc=   6.0000000   6.0000000   7.0000000   6.0000000   6.0000000  16.0000000   6.0000000   6.0000000   7.0000000   6.0000000

  Atom        41          42          43          44          45          46          47          48          49          50
 IAtWgt=          12          19          12          12          14          12          12          32          12          12
 AtmWgt=  12.0000000  18.9984033  12.0000000  12.0000000  14.0030740  12.0000000  12.0000000  31.9720718  12.0000000  12.0000000
 NucSpn=           0           1           0           0           2           0           0           0           0           0
 AtZEff=  -0.0000000  -0.0000000  -0.0000000  -0.0000000  -0.0000000  -0.0000000  -0.0000000  -0.0000000  -0.0000000  -0.0000000
 NQMom=    0.0000000   0.0000000   0.0000000   0.0000000   2.0440000   0.0000000   0.0000000   0.0000000   0.0000000   0.0000000
 NMagM=    0.0000000   2.6288670   0.0000000   0.0000000   0.4037610   0.0000000   0.0000000   0.0000000   0.0000000   0.0000000
 AtZNuc=   6.0000000   9.0000000   6.0000000   6.0000000   7.0000000   6.0000000   6.0000000  16.0000000   6.0000000   6.0000000

  Atom        51          52          53          54          55          56          57          58          59          60
 IAtWgt=          14          12          12          19          12          12          14          12          12          32
 AtmWgt=  14.0030740  12.0000000  12.0000000  18.9984033  12.0000000  12.0000000  14.0030740  12.0000000  12.0000000  31.9720718
 NucSpn=           2           0           0           1           0           0           2           0           0           0
 AtZEff=  -0.0000000  -0.0000000  -0.0000000  -0.0000000  -0.0000000  -0.0000000  -0.0000000  -0.0000000  -0.0000000  -0.0000000
 NQMom=    2.0440000   0.0000000   0.0000000   0.0000000   0.0000000   0.0000000   2.0440000   0.0000000   0.0000000   0.0000000
 NMagM=    0.4037610   0.0000000   0.0000000   2.6288670   0.0000000   0.0000000   0.4037610   0.0000000   0.0000000   0.0000000
 AtZNuc=   7.0000000   6.0000000   6.0000000   9.0000000   6.0000000   6.0000000   7.0000000   6.0000000   6.0000000  16.0000000

  Atom        61          62          63          64          65          66          67          68          69          70
 IAtWgt=           1           1           1           1           1           1           1           1           1           1
 AtmWgt=   1.0078250   1.0078250   1.0078250   1.0078250   1.0078250   1.0078250   1.0078250   1.0078250   1.0078250   1.0078250
 NucSpn=           1           1           1           1           1           1           1           1           1           1
 AtZEff=  -0.0000000  -0.0000000  -0.0000000  -0.0000000  -0.0000000  -0.0000000  -0.0000000  -0.0000000  -0.0000000  -0.0000000
 NQMom=    0.0000000   0.0000000   0.0000000   0.0000000   0.0000000   0.0000000   0.0000000   0.0000000   0.0000000   0.0000000
 NMagM=    2.7928460   2.7928460   2.7928460   2.7928460   2.7928460   2.7928460   2.7928460   2.7928460   2.7928460   2.7928460
 AtZNuc=   1.0000000   1.0000000   1.0000000   1.0000000   1.0000000   1.0000000   1.0000000   1.0000000   1.0000000   1.0000000

  Atom        71          72          73          74          75          76          77
 IAtWgt=           1           1           1           1           1           1           1
 AtmWgt=   1.0078250   1.0078250   1.0078250   1.0078250   1.0078250   1.0078250   1.0078250
 NucSpn=           1           1           1           1           1           1           1
 AtZEff=  -0.0000000  -0.0000000  -0.0000000  -0.0000000  -0.0000000  -0.0000000  -0.0000000
 NQMom=    0.0000000   0.0000000   0.0000000   0.0000000   0.0000000   0.0000000   0.0000000
 NMagM=    2.7928460   2.7928460   2.7928460   2.7928460   2.7928460   2.7928460   2.7928460
 AtZNuc=   1.0000000   1.0000000   1.0000000   1.0000000   1.0000000   1.0000000   1.0000000
 Leave Link  101 at Thu Jul 23 12:58:29 2020, MaxMem=  4026531840 cpu:               4.3 elap:               0.6
 (Enter /opt/ohpc/pub/libs/gaussian/g16-A.03/sandybridge/g16/l103.exe)

 GradGradGradGradGradGradGradGradGradGradGradGradGradGradGradGradGradGrad
 Berny optimization.
 Initialization pass.
                           ----------------------------
                           !    Initial Parameters    !
                           ! (Angstroms and Degrees)  !
 --------------------------                            --------------------------
 ! Name  Definition              Value          Derivative Info.                !
 --------------------------------------------------------------------------------
 ! R1    R(1,2)                  1.4548         estimate D2E/DX2                !
 ! R2    R(1,7)                  1.4343         estimate D2E/DX2                !
 ! R3    R(1,61)                 1.0399         estimate D2E/DX2                !
 ! R4    R(2,3)                  1.3411         estimate D2E/DX2                !
 ! R5    R(2,62)                 1.0135         estimate D2E/DX2                !
 ! R6    R(3,4)                  1.3524         estimate D2E/DX2                !
 ! R7    R(4,5)                  1.3699         estimate D2E/DX2                !
 ! R8    R(4,8)                  1.5023         estimate D2E/DX2                !
 ! R9    R(5,6)                  1.3649         estimate D2E/DX2                !
 ! R10   R(5,7)                  1.3745         estimate D2E/DX2                !
 ! R11   R(7,63)                 1.0576         estimate D2E/DX2                !
 ! R12   R(8,9)                  1.2337         estimate D2E/DX2                !
 ! R13   R(8,12)                 1.7572         estimate D2E/DX2                !
 ! R14   R(9,10)                 1.3647         estimate D2E/DX2                !
 ! R15   R(10,11)                1.4435         estimate D2E/DX2                !
 ! R16   R(10,64)                1.1071         estimate D2E/DX2                !
 ! R17   R(11,12)                1.6702         estimate D2E/DX2                !
 ! R18   R(11,13)                1.5254         estimate D2E/DX2                !
 ! R19   R(13,14)                1.3753         estimate D2E/DX2                !
 ! R20   R(13,19)                1.3266         estimate D2E/DX2                !
 ! R21   R(14,15)                1.4185         estimate D2E/DX2                !
 ! R22   R(14,65)                1.0268         estimate D2E/DX2                !
 ! R23   R(15,16)                1.4219         estimate D2E/DX2                !
 ! R24   R(16,17)                1.3414         estimate D2E/DX2                !
 ! R25   R(16,20)                1.4186         estimate D2E/DX2                !
 ! R26   R(17,18)                1.3596         estimate D2E/DX2                !
 ! R27   R(17,19)                1.3737         estimate D2E/DX2                !
 ! R28   R(19,66)                1.0884         estimate D2E/DX2                !
 ! R29   R(20,21)                1.3248         estimate D2E/DX2                !
 ! R30   R(20,24)                1.7496         estimate D2E/DX2                !
 ! R31   R(21,22)                1.3611         estimate D2E/DX2                !
 ! R32   R(22,23)                1.4023         estimate D2E/DX2                !
 ! R33   R(22,67)                1.0767         estimate D2E/DX2                !
 ! R34   R(23,24)                1.6476         estimate D2E/DX2                !
 ! R35   R(23,25)                1.5385         estimate D2E/DX2                !
 ! R36   R(25,26)                1.4137         estimate D2E/DX2                !
 ! R37   R(25,31)                1.3506         estimate D2E/DX2                !
 ! R38   R(26,27)                1.405          estimate D2E/DX2                !
 ! R39   R(26,68)                1.0146         estimate D2E/DX2                !
 ! R40   R(27,28)                1.3379         estimate D2E/DX2                !
 ! R41   R(28,29)                1.4072         estimate D2E/DX2                !
 ! R42   R(28,32)                1.4125         estimate D2E/DX2                !
 ! R43   R(29,30)                1.345          estimate D2E/DX2                !
 ! R44   R(29,31)                1.3756         estimate D2E/DX2                !
 ! R45   R(31,69)                1.0868         estimate D2E/DX2                !
 ! R46   R(32,33)                1.3023         estimate D2E/DX2                !
 ! R47   R(32,36)                1.7492         estimate D2E/DX2                !
 ! R48   R(33,34)                1.3927         estimate D2E/DX2                !
 ! R49   R(34,35)                1.407          estimate D2E/DX2                !
 ! R50   R(34,70)                1.0394         estimate D2E/DX2                !
 ! R51   R(35,36)                1.6602         estimate D2E/DX2                !
 ! R52   R(35,37)                1.4235         estimate D2E/DX2                !
 ! R53   R(37,38)                1.4333         estimate D2E/DX2                !
 ! R54   R(37,43)                1.4381         estimate D2E/DX2                !
 ! R55   R(38,39)                1.3539         estimate D2E/DX2                !
 ! R56   R(38,71)                1.0416         estimate D2E/DX2                !
 ! R57   R(39,40)                1.3917         estimate D2E/DX2                !
 ! R58   R(40,41)                1.4143         estimate D2E/DX2                !
 ! R59   R(40,44)                1.3839         estimate D2E/DX2                !
 ! R60   R(41,42)                1.3378         estimate D2E/DX2                !
 ! R61   R(41,43)                1.3667         estimate D2E/DX2                !
 ! R62   R(43,72)                1.0654         estimate D2E/DX2                !
 ! R63   R(44,45)                1.3783         estimate D2E/DX2                !
 ! R64   R(44,48)                1.763          estimate D2E/DX2                !
 ! R65   R(45,46)                1.3421         estimate D2E/DX2                !
 ! R66   R(46,47)                1.3955         estimate D2E/DX2                !
 ! R67   R(46,73)                1.1178         estimate D2E/DX2                !
 ! R68   R(47,48)                1.6331         estimate D2E/DX2                !
 ! R69   R(47,49)                1.5008         estimate D2E/DX2                !
 ! R70   R(49,50)                1.3961         estimate D2E/DX2                !
 ! R71   R(49,55)                1.4036         estimate D2E/DX2                !
 ! R72   R(50,51)                1.3806         estimate D2E/DX2                !
 ! R73   R(50,74)                1.1432         estimate D2E/DX2                !
 ! R74   R(51,52)                1.379          estimate D2E/DX2                !
 ! R75   R(52,53)                1.3955         estimate D2E/DX2                !
 ! R76   R(52,56)                1.5388         estimate D2E/DX2                !
 ! R77   R(53,54)                1.3651         estimate D2E/DX2                !
 ! R78   R(53,55)                1.3477         estimate D2E/DX2                !
 ! R79   R(55,75)                1.1093         estimate D2E/DX2                !
 ! R80   R(56,57)                1.351          estimate D2E/DX2                !
 ! R81   R(56,60)                1.7647         estimate D2E/DX2                !
 ! R82   R(57,58)                1.3313         estimate D2E/DX2                !
 ! R83   R(58,59)                1.3568         estimate D2E/DX2                !
 ! R84   R(58,76)                1.1082         estimate D2E/DX2                !
 ! R85   R(59,60)                1.7327         estimate D2E/DX2                !
 ! R86   R(59,77)                1.0637         estimate D2E/DX2                !
 ! A1    A(2,1,7)              114.6052         estimate D2E/DX2                !
 ! A2    A(2,1,61)             121.9089         estimate D2E/DX2                !
 ! A3    A(7,1,61)             123.4016         estimate D2E/DX2                !
 ! A4    A(1,2,3)              120.788          estimate D2E/DX2                !
 ! A5    A(1,2,62)             119.2457         estimate D2E/DX2                !
 ! A6    A(3,2,62)             119.5247         estimate D2E/DX2                !
 ! A7    A(2,3,4)              122.6535         estimate D2E/DX2                !
 ! A8    A(3,4,5)              119.5057         estimate D2E/DX2                !
 ! A9    A(3,4,8)              118.0745         estimate D2E/DX2                !
 ! A10   A(5,4,8)              121.9758         estimate D2E/DX2                !
 ! A11   A(4,5,6)              123.8471         estimate D2E/DX2                !
 ! A12   A(4,5,7)              121.0085         estimate D2E/DX2                !
 ! A13   A(6,5,7)              114.9099         estimate D2E/DX2                !
 ! A14   A(1,7,5)              120.9454         estimate D2E/DX2                !
 ! A15   A(1,7,63)             117.8134         estimate D2E/DX2                !
 ! A16   A(5,7,63)             120.9896         estimate D2E/DX2                !
 ! A17   A(4,8,9)              123.8813         estimate D2E/DX2                !
 ! A18   A(4,8,12)             119.2454         estimate D2E/DX2                !
 ! A19   A(9,8,12)             116.7913         estimate D2E/DX2                !
 ! A20   A(8,9,10)             111.7716         estimate D2E/DX2                !
 ! A21   A(9,10,11)            113.0743         estimate D2E/DX2                !
 ! A22   A(9,10,64)            121.4294         estimate D2E/DX2                !
 ! A23   A(11,10,64)           125.4856         estimate D2E/DX2                !
 ! A24   A(10,11,12)           109.736          estimate D2E/DX2                !
 ! A25   A(10,11,13)           128.5216         estimate D2E/DX2                !
 ! A26   A(12,11,13)           121.6856         estimate D2E/DX2                !
 ! A27   A(8,12,11)             88.6222         estimate D2E/DX2                !
 ! A28   A(11,13,14)           117.7148         estimate D2E/DX2                !
 ! A29   A(11,13,19)           122.7894         estimate D2E/DX2                !
 ! A30   A(14,13,19)           119.4857         estimate D2E/DX2                !
 ! A31   A(13,14,15)           122.6379         estimate D2E/DX2                !
 ! A32   A(13,14,65)           126.4677         estimate D2E/DX2                !
 ! A33   A(15,14,65)           110.8777         estimate D2E/DX2                !
 ! A34   A(14,15,16)           114.4009         estimate D2E/DX2                !
 ! A35   A(15,16,17)           121.0547         estimate D2E/DX2                !
 ! A36   A(15,16,20)           114.7298         estimate D2E/DX2                !
 ! A37   A(17,16,20)           123.6571         estimate D2E/DX2                !
 ! A38   A(16,17,18)           122.3763         estimate D2E/DX2                !
 ! A39   A(16,17,19)           121.4021         estimate D2E/DX2                !
 ! A40   A(18,17,19)           116.0136         estimate D2E/DX2                !
 ! A41   A(13,19,17)           120.7667         estimate D2E/DX2                !
 ! A42   A(13,19,66)           120.2671         estimate D2E/DX2                !
 ! A43   A(17,19,66)           118.9483         estimate D2E/DX2                !
 ! A44   A(16,20,21)           127.8502         estimate D2E/DX2                !
 ! A45   A(16,20,24)           124.7545         estimate D2E/DX2                !
 ! A46   A(21,20,24)           107.3408         estimate D2E/DX2                !
 ! A47   A(20,21,22)           117.4432         estimate D2E/DX2                !
 ! A48   A(21,22,23)           110.6605         estimate D2E/DX2                !
 ! A49   A(21,22,67)           119.969          estimate D2E/DX2                !
 ! A50   A(23,22,67)           128.9755         estimate D2E/DX2                !
 ! A51   A(22,23,24)           110.9346         estimate D2E/DX2                !
 ! A52   A(22,23,25)           127.4775         estimate D2E/DX2                !
 ! A53   A(24,23,25)           121.3803         estimate D2E/DX2                !
 ! A54   A(20,24,23)            93.2924         estimate D2E/DX2                !
 ! A55   A(23,25,26)           118.5619         estimate D2E/DX2                !
 ! A56   A(23,25,31)           122.1278         estimate D2E/DX2                !
 ! A57   A(26,25,31)           119.3102         estimate D2E/DX2                !
 ! A58   A(25,26,27)           121.445          estimate D2E/DX2                !
 ! A59   A(25,26,68)           124.5093         estimate D2E/DX2                !
 ! A60   A(27,26,68)           113.4807         estimate D2E/DX2                !
 ! A61   A(26,27,28)           118.1488         estimate D2E/DX2                !
 ! A62   A(27,28,29)           119.6147         estimate D2E/DX2                !
 ! A63   A(27,28,32)           119.2133         estimate D2E/DX2                !
 ! A64   A(29,28,32)           121.1121         estimate D2E/DX2                !
 ! A65   A(28,29,30)           120.6874         estimate D2E/DX2                !
 ! A66   A(28,29,31)           122.5474         estimate D2E/DX2                !
 ! A67   A(30,29,31)           116.5598         estimate D2E/DX2                !
 ! A68   A(25,31,29)           118.3658         estimate D2E/DX2                !
 ! A69   A(25,31,69)           121.7076         estimate D2E/DX2                !
 ! A70   A(29,31,69)           119.3121         estimate D2E/DX2                !
 ! A71   A(28,32,33)           130.8393         estimate D2E/DX2                !
 ! A72   A(28,32,36)           119.7742         estimate D2E/DX2                !
 ! A73   A(33,32,36)           108.88           estimate D2E/DX2                !
 ! A74   A(32,33,34)           115.749          estimate D2E/DX2                !
 ! A75   A(33,34,35)           111.8628         estimate D2E/DX2                !
 ! A76   A(33,34,70)           116.4608         estimate D2E/DX2                !
 ! A77   A(35,34,70)           131.2342         estimate D2E/DX2                !
 ! A78   A(34,35,36)           109.5471         estimate D2E/DX2                !
 ! A79   A(34,35,37)           125.4121         estimate D2E/DX2                !
 ! A80   A(36,35,37)           125.0339         estimate D2E/DX2                !
 ! A81   A(32,36,35)            93.6893         estimate D2E/DX2                !
 ! A82   A(35,37,38)           121.15           estimate D2E/DX2                !
 ! A83   A(35,37,43)           124.4573         estimate D2E/DX2                !
 ! A84   A(38,37,43)           114.3927         estimate D2E/DX2                !
 ! A85   A(37,38,39)           121.5648         estimate D2E/DX2                !
 ! A86   A(37,38,71)           124.0188         estimate D2E/DX2                !
 ! A87   A(39,38,71)           114.1655         estimate D2E/DX2                !
 ! A88   A(38,39,40)           123.534          estimate D2E/DX2                !
 ! A89   A(39,40,41)           116.6338         estimate D2E/DX2                !
 ! A90   A(39,40,44)           119.8898         estimate D2E/DX2                !
 ! A91   A(41,40,44)           123.4025         estimate D2E/DX2                !
 ! A92   A(40,41,42)           122.0747         estimate D2E/DX2                !
 ! A93   A(40,41,43)           120.8186         estimate D2E/DX2                !
 ! A94   A(42,41,43)           116.9176         estimate D2E/DX2                !
 ! A95   A(37,43,41)           122.9403         estimate D2E/DX2                !
 ! A96   A(37,43,72)           117.136          estimate D2E/DX2                !
 ! A97   A(41,43,72)           119.7386         estimate D2E/DX2                !
 ! A98   A(40,44,45)           126.1978         estimate D2E/DX2                !
 ! A99   A(40,44,48)           123.7242         estimate D2E/DX2                !
 ! A100  A(45,44,48)           110.0162         estimate D2E/DX2                !
 ! A101  A(44,45,46)           110.7712         estimate D2E/DX2                !
 ! A102  A(45,46,47)           116.4381         estimate D2E/DX2                !
 ! A103  A(45,46,73)           120.1411         estimate D2E/DX2                !
 ! A104  A(47,46,73)           123.2152         estimate D2E/DX2                !
 ! A105  A(46,47,48)           110.3778         estimate D2E/DX2                !
 ! A106  A(46,47,49)           127.6723         estimate D2E/DX2                !
 ! A107  A(48,47,49)           121.9059         estimate D2E/DX2                !
 ! A108  A(44,48,47)            92.3869         estimate D2E/DX2                !
 ! A109  A(47,49,50)           121.8887         estimate D2E/DX2                !
 ! A110  A(47,49,55)           123.5647         estimate D2E/DX2                !
 ! A111  A(50,49,55)           113.7927         estimate D2E/DX2                !
 ! A112  A(49,50,51)           128.3936         estimate D2E/DX2                !
 ! A113  A(49,50,74)           117.8746         estimate D2E/DX2                !
 ! A114  A(51,50,74)           113.1079         estimate D2E/DX2                !
 ! A115  A(50,51,52)           111.0587         estimate D2E/DX2                !
 ! A116  A(51,52,53)           125.4293         estimate D2E/DX2                !
 ! A117  A(51,52,56)           111.8735         estimate D2E/DX2                !
 ! A118  A(53,52,56)           122.6971         estimate D2E/DX2                !
 ! A119  A(52,53,54)           121.985          estimate D2E/DX2                !
 ! A120  A(52,53,55)           118.4211         estimate D2E/DX2                !
 ! A121  A(54,53,55)           119.5935         estimate D2E/DX2                !
 ! A122  A(49,55,53)           121.8534         estimate D2E/DX2                !
 ! A123  A(49,55,75)           118.2967         estimate D2E/DX2                !
 ! A124  A(53,55,75)           119.2551         estimate D2E/DX2                !
 ! A125  A(52,56,57)           124.3603         estimate D2E/DX2                !
 ! A126  A(52,56,60)           120.9726         estimate D2E/DX2                !
 ! A127  A(57,56,60)           114.4723         estimate D2E/DX2                !
 ! A128  A(56,57,58)           108.1739         estimate D2E/DX2                !
 ! A129  A(57,58,59)           120.1123         estimate D2E/DX2                !
 ! A130  A(57,58,76)           114.2515         estimate D2E/DX2                !
 ! A131  A(59,58,76)           125.6319         estimate D2E/DX2                !
 ! A132  A(58,59,60)           108.7823         estimate D2E/DX2                !
 ! A133  A(58,59,77)           128.2397         estimate D2E/DX2                !
 ! A134  A(60,59,77)           122.6275         estimate D2E/DX2                !
 ! A135  A(56,60,59)            88.2843         estimate D2E/DX2                !
 ! D1    D(7,1,2,3)             -7.0107         estimate D2E/DX2                !
 ! D2    D(7,1,2,62)          -179.3488         estimate D2E/DX2                !
 ! D3    D(61,1,2,3)           176.2218         estimate D2E/DX2                !
 ! D4    D(61,1,2,62)            3.8837         estimate D2E/DX2                !
 ! D5    D(2,1,7,5)              4.2699         estimate D2E/DX2                !
 ! D6    D(2,1,7,63)           178.5628         estimate D2E/DX2                !
 ! D7    D(61,1,7,5)          -179.0171         estimate D2E/DX2                !
 ! D8    D(61,1,7,63)           -4.7242         estimate D2E/DX2                !
 ! D9    D(1,2,3,4)              3.5658         estimate D2E/DX2                !
 ! D10   D(62,2,3,4)           175.8827         estimate D2E/DX2                !
 ! D11   D(2,3,4,5)              3.0894         estimate D2E/DX2                !
 ! D12   D(2,3,4,8)            175.5962         estimate D2E/DX2                !
 ! D13   D(3,4,5,6)            179.9697         estimate D2E/DX2                !
 ! D14   D(3,4,5,7)             -5.882          estimate D2E/DX2                !
 ! D15   D(8,4,5,6)              7.7656         estimate D2E/DX2                !
 ! D16   D(8,4,5,7)           -178.0861         estimate D2E/DX2                !
 ! D17   D(3,4,8,9)            176.153          estimate D2E/DX2                !
 ! D18   D(3,4,8,12)            -0.4448         estimate D2E/DX2                !
 ! D19   D(5,4,8,9)            -11.536          estimate D2E/DX2                !
 ! D20   D(5,4,8,12)           171.8662         estimate D2E/DX2                !
 ! D21   D(4,5,7,1)              1.9617         estimate D2E/DX2                !
 ! D22   D(4,5,7,63)          -172.1494         estimate D2E/DX2                !
 ! D23   D(6,5,7,1)            176.6047         estimate D2E/DX2                !
 ! D24   D(6,5,7,63)             2.4936         estimate D2E/DX2                !
 ! D25   D(4,8,9,10)          -177.4384         estimate D2E/DX2                !
 ! D26   D(12,8,9,10)           -0.7639         estimate D2E/DX2                !
 ! D27   D(4,8,12,11)          177.4472         estimate D2E/DX2                !
 ! D28   D(9,8,12,11)            0.6111         estimate D2E/DX2                !
 ! D29   D(8,9,10,11)            0.5461         estimate D2E/DX2                !
 ! D30   D(8,9,10,64)          179.4166         estimate D2E/DX2                !
 ! D31   D(9,10,11,12)          -0.0935         estimate D2E/DX2                !
 ! D32   D(9,10,11,13)        -177.3498         estimate D2E/DX2                !
 ! D33   D(64,10,11,12)       -178.9099         estimate D2E/DX2                !
 ! D34   D(64,10,11,13)          3.8338         estimate D2E/DX2                !
 ! D35   D(10,11,12,8)          -0.2431         estimate D2E/DX2                !
 ! D36   D(13,11,12,8)         177.2345         estimate D2E/DX2                !
 ! D37   D(10,11,13,14)         31.9147         estimate D2E/DX2                !
 ! D38   D(10,11,13,19)       -146.9175         estimate D2E/DX2                !
 ! D39   D(12,11,13,14)       -145.0502         estimate D2E/DX2                !
 ! D40   D(12,11,13,19)         36.1176         estimate D2E/DX2                !
 ! D41   D(11,13,14,15)       -179.1155         estimate D2E/DX2                !
 ! D42   D(11,13,14,65)         -0.7421         estimate D2E/DX2                !
 ! D43   D(19,13,14,15)         -0.2432         estimate D2E/DX2                !
 ! D44   D(19,13,14,65)        178.1301         estimate D2E/DX2                !
 ! D45   D(11,13,19,17)        179.3597         estimate D2E/DX2                !
 ! D46   D(11,13,19,66)         -2.1989         estimate D2E/DX2                !
 ! D47   D(14,13,19,17)          0.5473         estimate D2E/DX2                !
 ! D48   D(14,13,19,66)        178.9886         estimate D2E/DX2                !
 ! D49   D(13,14,15,16)         -2.7568         estimate D2E/DX2                !
 ! D50   D(65,14,15,16)        178.6432         estimate D2E/DX2                !
 ! D51   D(14,15,16,17)          5.6999         estimate D2E/DX2                !
 ! D52   D(14,15,16,20)        177.4333         estimate D2E/DX2                !
 ! D53   D(15,16,17,18)        179.6575         estimate D2E/DX2                !
 ! D54   D(15,16,17,19)         -5.7945         estimate D2E/DX2                !
 ! D55   D(20,16,17,18)          8.6841         estimate D2E/DX2                !
 ! D56   D(20,16,17,19)       -176.7678         estimate D2E/DX2                !
 ! D57   D(15,16,20,21)        170.258          estimate D2E/DX2                !
 ! D58   D(15,16,20,24)         -6.7107         estimate D2E/DX2                !
 ! D59   D(17,16,20,21)        -18.2518         estimate D2E/DX2                !
 ! D60   D(17,16,20,24)        164.7795         estimate D2E/DX2                !
 ! D61   D(16,17,19,13)          2.4936         estimate D2E/DX2                !
 ! D62   D(16,17,19,66)       -175.968          estimate D2E/DX2                !
 ! D63   D(18,17,19,13)        177.3709         estimate D2E/DX2                !
 ! D64   D(18,17,19,66)         -1.0906         estimate D2E/DX2                !
 ! D65   D(16,20,21,22)       -178.0523         estimate D2E/DX2                !
 ! D66   D(24,20,21,22)         -0.6611         estimate D2E/DX2                !
 ! D67   D(16,20,24,23)       -178.9944         estimate D2E/DX2                !
 ! D68   D(21,20,24,23)          3.5127         estimate D2E/DX2                !
 ! D69   D(20,21,22,23)         -3.2686         estimate D2E/DX2                !
 ! D70   D(20,21,22,67)       -176.6852         estimate D2E/DX2                !
 ! D71   D(21,22,23,24)          5.8388         estimate D2E/DX2                !
 ! D72   D(21,22,23,25)       -179.3949         estimate D2E/DX2                !
 ! D73   D(67,22,23,24)        178.4988         estimate D2E/DX2                !
 ! D74   D(67,22,23,25)         -6.7349         estimate D2E/DX2                !
 ! D75   D(22,23,24,20)         -5.3583         estimate D2E/DX2                !
 ! D76   D(25,23,24,20)        179.5058         estimate D2E/DX2                !
 ! D77   D(22,23,25,26)        -27.4021         estimate D2E/DX2                !
 ! D78   D(22,23,25,31)        152.5015         estimate D2E/DX2                !
 ! D79   D(24,23,25,26)        146.8707         estimate D2E/DX2                !
 ! D80   D(24,23,25,31)        -33.2257         estimate D2E/DX2                !
 ! D81   D(23,25,26,27)        174.1846         estimate D2E/DX2                !
 ! D82   D(23,25,26,68)          3.3749         estimate D2E/DX2                !
 ! D83   D(31,25,26,27)         -5.7217         estimate D2E/DX2                !
 ! D84   D(31,25,26,68)       -176.5314         estimate D2E/DX2                !
 ! D85   D(23,25,31,29)        179.1385         estimate D2E/DX2                !
 ! D86   D(23,25,31,69)          8.1907         estimate D2E/DX2                !
 ! D87   D(26,25,31,29)         -0.9587         estimate D2E/DX2                !
 ! D88   D(26,25,31,69)       -171.9064         estimate D2E/DX2                !
 ! D89   D(25,26,27,28)          6.9334         estimate D2E/DX2                !
 ! D90   D(68,26,27,28)        178.6835         estimate D2E/DX2                !
 ! D91   D(26,27,28,29)         -1.539          estimate D2E/DX2                !
 ! D92   D(26,27,28,32)        175.6785         estimate D2E/DX2                !
 ! D93   D(27,28,29,30)       -179.833          estimate D2E/DX2                !
 ! D94   D(27,28,29,31)         -5.2202         estimate D2E/DX2                !
 ! D95   D(32,28,29,30)          3.0036         estimate D2E/DX2                !
 ! D96   D(32,28,29,31)        177.6164         estimate D2E/DX2                !
 ! D97   D(27,28,32,33)        176.3557         estimate D2E/DX2                !
 ! D98   D(27,28,32,36)          5.5035         estimate D2E/DX2                !
 ! D99   D(29,28,32,33)         -6.4697         estimate D2E/DX2                !
 ! D100  D(29,28,32,36)       -177.3219         estimate D2E/DX2                !
 ! D101  D(28,29,31,25)          6.4468         estimate D2E/DX2                !
 ! D102  D(28,29,31,69)        177.6167         estimate D2E/DX2                !
 ! D103  D(30,29,31,25)       -178.7319         estimate D2E/DX2                !
 ! D104  D(30,29,31,69)         -7.5621         estimate D2E/DX2                !
 ! D105  D(28,32,33,34)       -177.3111         estimate D2E/DX2                !
 ! D106  D(36,32,33,34)         -5.6971         estimate D2E/DX2                !
 ! D107  D(28,32,36,35)        177.0345         estimate D2E/DX2                !
 ! D108  D(33,32,36,35)          4.3376         estimate D2E/DX2                !
 ! D109  D(32,33,34,35)          4.5117         estimate D2E/DX2                !
 ! D110  D(32,33,34,70)        177.7473         estimate D2E/DX2                !
 ! D111  D(33,34,35,36)         -0.9108         estimate D2E/DX2                !
 ! D112  D(33,34,35,37)        178.1702         estimate D2E/DX2                !
 ! D113  D(70,34,35,36)       -172.8502         estimate D2E/DX2                !
 ! D114  D(70,34,35,37)          6.2308         estimate D2E/DX2                !
 ! D115  D(34,35,36,32)         -1.8531         estimate D2E/DX2                !
 ! D116  D(37,35,36,32)        179.0616         estimate D2E/DX2                !
 ! D117  D(34,35,37,38)       -150.4256         estimate D2E/DX2                !
 ! D118  D(34,35,37,43)         29.6483         estimate D2E/DX2                !
 ! D119  D(36,35,37,38)         28.5167         estimate D2E/DX2                !
 ! D120  D(36,35,37,43)       -151.4094         estimate D2E/DX2                !
 ! D121  D(35,37,38,39)        178.5262         estimate D2E/DX2                !
 ! D122  D(35,37,38,71)          4.621          estimate D2E/DX2                !
 ! D123  D(43,37,38,39)         -1.5407         estimate D2E/DX2                !
 ! D124  D(43,37,38,71)       -175.4459         estimate D2E/DX2                !
 ! D125  D(35,37,43,41)       -179.4074         estimate D2E/DX2                !
 ! D126  D(35,37,43,72)         -4.3728         estimate D2E/DX2                !
 ! D127  D(38,37,43,41)          0.6621         estimate D2E/DX2                !
 ! D128  D(38,37,43,72)        175.6967         estimate D2E/DX2                !
 ! D129  D(37,38,39,40)         -0.3938         estimate D2E/DX2                !
 ! D130  D(71,38,39,40)        174.071          estimate D2E/DX2                !
 ! D131  D(38,39,40,41)          3.1423         estimate D2E/DX2                !
 ! D132  D(38,39,40,44)       -179.8784         estimate D2E/DX2                !
 ! D133  D(39,40,41,42)       -178.7908         estimate D2E/DX2                !
 ! D134  D(39,40,41,43)         -3.943          estimate D2E/DX2                !
 ! D135  D(44,40,41,42)          4.3464         estimate D2E/DX2                !
 ! D136  D(44,40,41,43)        179.1943         estimate D2E/DX2                !
 ! D137  D(39,40,44,45)        163.2676         estimate D2E/DX2                !
 ! D138  D(39,40,44,48)        -13.5835         estimate D2E/DX2                !
 ! D139  D(41,40,44,45)        -19.9671         estimate D2E/DX2                !
 ! D140  D(41,40,44,48)        163.1818         estimate D2E/DX2                !
 ! D141  D(40,41,43,37)          2.1244         estimate D2E/DX2                !
 ! D142  D(40,41,43,72)       -172.7862         estimate D2E/DX2                !
 ! D143  D(42,41,43,37)        177.2289         estimate D2E/DX2                !
 ! D144  D(42,41,43,72)          2.3183         estimate D2E/DX2                !
 ! D145  D(40,44,45,46)       -177.3451         estimate D2E/DX2                !
 ! D146  D(48,44,45,46)         -0.1321         estimate D2E/DX2                !
 ! D147  D(40,44,48,47)        177.9179         estimate D2E/DX2                !
 ! D148  D(45,44,48,47)          0.6219         estimate D2E/DX2                !
 ! D149  D(44,45,46,47)         -0.5713         estimate D2E/DX2                !
 ! D150  D(44,45,46,73)       -175.5269         estimate D2E/DX2                !
 ! D151  D(45,46,47,48)          1.0536         estimate D2E/DX2                !
 ! D152  D(45,46,47,49)        178.6526         estimate D2E/DX2                !
 ! D153  D(73,46,47,48)        175.8388         estimate D2E/DX2                !
 ! D154  D(73,46,47,49)         -6.5622         estimate D2E/DX2                !
 ! D155  D(46,47,48,44)         -0.9059         estimate D2E/DX2                !
 ! D156  D(49,47,48,44)       -178.6673         estimate D2E/DX2                !
 ! D157  D(46,47,49,50)         40.4489         estimate D2E/DX2                !
 ! D158  D(46,47,49,55)       -150.1204         estimate D2E/DX2                !
 ! D159  D(48,47,49,50)       -142.2026         estimate D2E/DX2                !
 ! D160  D(48,47,49,55)         27.2281         estimate D2E/DX2                !
 ! D161  D(47,49,50,51)       -177.6216         estimate D2E/DX2                !
 ! D162  D(47,49,50,74)         -7.3639         estimate D2E/DX2                !
 ! D163  D(55,49,50,51)         11.9939         estimate D2E/DX2                !
 ! D164  D(55,49,50,74)       -177.7483         estimate D2E/DX2                !
 ! D165  D(47,49,55,53)        179.7915         estimate D2E/DX2                !
 ! D166  D(47,49,55,75)          8.7041         estimate D2E/DX2                !
 ! D167  D(50,49,55,53)        -10.0083         estimate D2E/DX2                !
 ! D168  D(50,49,55,75)        178.9042         estimate D2E/DX2                !
 ! D169  D(49,50,51,52)         -8.956          estimate D2E/DX2                !
 ! D170  D(74,50,51,52)       -179.5964         estimate D2E/DX2                !
 ! D171  D(50,51,52,53)          4.0471         estimate D2E/DX2                !
 ! D172  D(50,51,52,56)       -176.116          estimate D2E/DX2                !
 ! D173  D(51,52,53,54)        176.464          estimate D2E/DX2                !
 ! D174  D(51,52,53,55)         -3.3112         estimate D2E/DX2                !
 ! D175  D(56,52,53,54)         -3.3562         estimate D2E/DX2                !
 ! D176  D(56,52,53,55)        176.8686         estimate D2E/DX2                !
 ! D177  D(51,52,56,57)        175.2984         estimate D2E/DX2                !
 ! D178  D(51,52,56,60)        -10.0587         estimate D2E/DX2                !
 ! D179  D(53,52,56,57)         -4.8595         estimate D2E/DX2                !
 ! D180  D(53,52,56,60)        169.7834         estimate D2E/DX2                !
 ! D181  D(52,53,55,49)          6.4221         estimate D2E/DX2                !
 ! D182  D(52,53,55,75)        177.4266         estimate D2E/DX2                !
 ! D183  D(54,53,55,49)       -173.3586         estimate D2E/DX2                !
 ! D184  D(54,53,55,75)         -2.3541         estimate D2E/DX2                !
 ! D185  D(52,56,57,58)        177.5404         estimate D2E/DX2                !
 ! D186  D(60,56,57,58)          2.5862         estimate D2E/DX2                !
 ! D187  D(52,56,60,59)       -178.8698         estimate D2E/DX2                !
 ! D188  D(57,56,60,59)         -3.7274         estimate D2E/DX2                !
 ! D189  D(56,57,58,59)          0.4796         estimate D2E/DX2                !
 ! D190  D(56,57,58,76)       -178.8109         estimate D2E/DX2                !
 ! D191  D(57,58,59,60)         -3.2577         estimate D2E/DX2                !
 ! D192  D(57,58,59,77)       -176.5165         estimate D2E/DX2                !
 ! D193  D(76,58,59,60)        175.9464         estimate D2E/DX2                !
 ! D194  D(76,58,59,77)          2.6876         estimate D2E/DX2                !
 ! D195  D(58,59,60,56)          3.6412         estimate D2E/DX2                !
 ! D196  D(77,59,60,56)        177.3563         estimate D2E/DX2                !
 --------------------------------------------------------------------------------
 Trust Radius=3.00D-01 FncErr=1.00D-07 GrdErr=1.00D-06 EigMax=2.50D+02 EigMin=1.00D-04
 Number of steps in this run=    427 maximum allowed number of steps=    462.
 GradGradGradGradGradGradGradGradGradGradGradGradGradGradGradGradGradGrad

 Leave Link  103 at Thu Jul 23 12:58:29 2020, MaxMem=  4026531840 cpu:               0.1 elap:               0.0
 (Enter /opt/ohpc/pub/libs/gaussian/g16-A.03/sandybridge/g16/l202.exe)
 Stoichiometry    C40H17F5N10S5
 Framework group  C1[X(C40H17F5N10S5)]
 Deg. of freedom   225
 Full point group                 C1      NOp   1
 Largest Abelian subgroup         C1      NOp   1
 Largest concise Abelian subgroup C1      NOp   1
                         Standard orientation:                         
 ---------------------------------------------------------------------
 Center     Atomic      Atomic             Coordinates (Angstroms)
 Number     Number       Type             X           Y           Z
 ---------------------------------------------------------------------
      1          6           0       18.809357   -2.180791   -0.913784
      2          6           0       17.591202   -2.972450   -0.838292
      3          7           0       16.409140   -2.391031   -0.586848
      4          6           0       16.266599   -1.052028   -0.461193
      5          6           0       17.350299   -0.236943   -0.655845
      6          9           0       17.306798    1.123311   -0.552280
      7          6           0       18.604131   -0.762304   -0.858441
      8          6           0       14.880178   -0.502523   -0.279853
      9          7           0       14.633079    0.690704   -0.086859
     10          6           0       13.298667    0.907610    0.099307
     11          6           0       12.514699   -0.302918    0.037602
     12         16           0       13.515279   -1.608790   -0.250773
     13          6           0       11.001036   -0.460802    0.141112
     14          6           0       10.216888    0.560807   -0.341549
     15          7           0        8.799979    0.531423   -0.281700
     16          6           0        8.259680   -0.666538    0.261320
     17          6           0        9.057325   -1.614695    0.775159
     18          9           0        8.569379   -2.766817    1.307215
     19          6           0       10.425334   -1.521453    0.692077
     20          6           0        6.845950   -0.680691    0.377418
     21          7           0        6.065087   -1.708443    0.675666
     22          6           0        4.721468   -1.491713    0.690920
     23          6           0        4.435289   -0.141221    0.444238
     24         16           0        5.805936    0.691643    0.067192
     25          6           0        3.050708    0.527100    0.387831
     26          6           0        1.935675   -0.258420    0.016161
     27          7           0        0.629002    0.256104    0.060877
     28          6           0        0.471851    1.557129    0.330152
     29          6           0        1.601600    2.354940    0.589772
     30          9           0        1.468327    3.664422    0.866174
     31          6           0        2.870814    1.832721    0.682889
     32          6           0       -0.824009    2.117800    0.290139
     33          7           0       -1.240935    3.319672    0.569009
     34          6           0       -2.616039    3.519928    0.475694
     35          6           0       -3.301134    2.325240    0.187716
     36         16           0       -2.210738    1.082806    0.034146
     37          6           0       -4.713302    2.192795    0.066661
     38          6           0       -5.373253    0.962796    0.392272
     39          7           0       -6.718597    0.836573    0.308367
     40          6           0       -7.564641    1.869185   -0.085165
     41          6           0       -6.947729    3.081309   -0.473165
     42          9           0       -7.657574    4.151524   -0.848041
     43          6           0       -5.593364    3.238934   -0.379685
     44          6           0       -8.931087    1.657432   -0.142109
     45          7           0       -9.904383    2.631990   -0.192872
     46          6           0      -11.128895    2.082730   -0.182459
     47          6           0      -11.184357    0.689108   -0.137191
     48         16           0       -9.677725    0.061620   -0.079182
     49          6           0      -12.407632   -0.179059   -0.088383
     50          6           0      -13.544516    0.105163   -0.847290
     51          7           0      -14.749074   -0.568927   -0.872641
     52          6           0      -14.670755   -1.750270   -0.165650
     53          6           0      -13.562408   -2.185617    0.562007
     54          9           0      -13.585681   -3.336660    1.295583
     55          6           0      -12.442768   -1.436007    0.535213
     56          6           0      -15.973857   -2.563156   -0.261369
     57          7           0      -16.141726   -3.798701    0.258605
     58          6           0      -17.399394   -4.174996    0.037269
     59          6           0      -18.250232   -3.350559   -0.623962
     60         16           0      -17.432880   -1.860874   -0.963024
     61          1           0       19.742295   -2.619330   -1.050251
     62          1           0       17.655616   -3.983595   -0.861121
     63          1           0       19.457931   -0.138708   -0.885920
     64          1           0       12.900481    1.921857    0.295171
     65          1           0       10.547302    1.437579   -0.761637
     66          1           0       11.032974   -2.344599    1.063281
     67          1           0        4.052130   -2.283975    0.979995
     68          1           0        1.971611   -1.254730   -0.172350
     69          1           0        3.710970    2.502355    0.846519
     70          1           0       -2.964769    4.465233    0.730884
     71          1           0       -4.891209    0.131438    0.794021
     72          1           0       -5.158279    4.193427   -0.566083
     73          1           0      -12.034611    2.728286   -0.294228
     74          1           0      -13.572391    1.095315   -1.417980
     75          1           0      -11.568008   -1.746258    1.142674
     76          1           0      -17.653988   -5.173800    0.444230
     77          1           0      -19.284556   -3.495970   -0.825312
 ---------------------------------------------------------------------
 Rotational constants (GHZ):           0.1289776           0.0045050           0.0043740
 Leave Link  202 at Thu Jul 23 12:58:29 2020, MaxMem=  4026531840 cpu:               0.1 elap:               0.0
 (Enter /opt/ohpc/pub/libs/gaussian/g16-A.03/sandybridge/g16/l301.exe)
 Standard basis: CC-pVDZ (5D, 7F)
 Ernie: Thresh=  0.10000D-02 Tol=  0.10000D-05 Strict=F.
 Ernie:  160 primitive shells out of 1545 were deleted.
 There are  1005 symmetry adapted cartesian basis functions of A   symmetry.
 There are   945 symmetry adapted basis functions of A   symmetry.
   945 basis functions,  2289 primitive gaussians,  1005 cartesian basis functions
   226 alpha electrons      226 beta electrons
       nuclear repulsion energy      7364.7922064919 Hartrees.
 IExCor=32609 DFT=T Ex+Corr=LC-wPBE ExCW=0 ScaHFX=  1.000000
 ScaDFX=  1.000000  0.000000  1.000000  1.000000 ScalE2=  1.000000  1.000000
 IRadAn=      5 IRanWt=     -1 IRanGd=            0 ICorTp=0 IEmpDi=  4
 HFx  wShort=  0.000000 wLong=  0.385300 cFull=  0.000000 cShort=  0.000000 cLong=  1.000000
 DFx  wShort=  0.000000 wLong=  0.385300 cFull=  0.000000 cShort=  0.000000 cLong=  1.000000
 NAtoms=   77 NActive=   77 NUniq=   77 SFac= 1.00D+00 NAtFMM=   60 NAOKFM=T Big=T
 Integral buffers will be    131072 words long.
 Raffenetti 2 integral format.
 Two-electron integral symmetry is turned on.
 Leave Link  301 at Thu Jul 23 12:58:29 2020, MaxMem=  4026531840 cpu:               0.5 elap:               0.1
 (Enter /opt/ohpc/pub/libs/gaussian/g16-A.03/sandybridge/g16/l302.exe)
 NPDir=0 NMtPBC=     1 NCelOv=     1 NCel=       1 NClECP=     1 NCelD=      1
         NCelK=      1 NCelE2=     1 NClLst=     1 CellRange=     0.0.
 One-electron integrals computed using PRISM.
 One-electron integral symmetry used in STVInt
 NBasis=   945 RedAO= T EigKep=  3.87D-04  NBF=   945
 NBsUse=   945 1.00D-06 EigRej= -1.00D+00 NBFU=   945
 Precomputing XC quadrature grid using
 IXCGrd= 4 IRadAn=           5 IRanWt=          -1 IRanGd=           0 AccXCQ= 0.00D+00.
 Generated NRdTot=       0 NPtTot=           0 NUsed=           0 NTot=          32
 NSgBfM=   599   599   599   599   599 MxSgAt=    77 MxSgA2=    68.
 Leave Link  302 at Thu Jul 23 12:58:32 2020, MaxMem=  4026531840 cpu:              23.2 elap:               3.0
 (Enter /opt/ohpc/pub/libs/gaussian/g16-A.03/sandybridge/g16/l303.exe)
 DipDrv:  MaxL=1.
 Leave Link  303 at Thu Jul 23 12:58:33 2020, MaxMem=  4026531840 cpu:               1.5 elap:               0.2
 (Enter /opt/ohpc/pub/libs/gaussian/g16-A.03/sandybridge/g16/l401.exe)
 ExpMin= 1.22D-01 ExpMax= 1.11D+05 ExpMxC= 1.07D+03 IAcc=3 IRadAn=         5 AccDes= 0.00D+00
 Harris functional with IExCor=32609 and IRadAn=       5 diagonalized for initial guess.
 HarFok:  IExCor=32609 AccDes= 0.00D+00 IRadAn=         5 IDoV= 1 UseB2=F ITyADJ=14
 ICtDFT=  3500011 ScaDFX=  1.000000  1.000000  1.000000  1.000000
 FoFCou: FMM=F IPFlag=           0 FMFlag=      100000 FMFlg1=        2001
         NFxFlg=           0 DoJE=T BraDBF=F KetDBF=T FulRan=T
         wScrn=  0.000000 ICntrl=       500 IOpCl=  0 I1Cent=   200000004 NGrid=           0
         NMat0=    1 NMatS0=      1 NMatT0=    0 NMatD0=    1 NMtDS0=    0 NMtDT0=    0
 Petite list used in FoFCou.
 Harris En= -4568.95369157089    
 JPrj=0 DoOrth=F DoCkMO=F.
 Initial guess <Sx>= 0.0000 <Sy>= 0.0000 <Sz>= 0.0000 <S**2>=-0.0000 S=-0.0000
 Leave Link  401 at Thu Jul 23 12:58:42 2020, MaxMem=  4026531840 cpu:              73.3 elap:               9.2
 (Enter /opt/ohpc/pub/libs/gaussian/g16-A.03/sandybridge/g16/l502.exe)
 Integral symmetry usage will be decided dynamically.
 UHF open shell SCF:
 Using DIIS extrapolation, IDIIS=  1040.
 NGot=  4026531840 LenX=  4024493949 LenY=  4023482919
 Requested convergence on RMS density matrix=1.00D-08 within 128 cycles.
 Requested convergence on MAX density matrix=1.00D-06.
 Requested convergence on             energy=1.00D-06.
 No special actions if energy rises.
 Fock matrices will be formed incrementally for  20 cycles.
 Integral accuracy reduced to 1.0D-05 until final iterations.

 Cycle   1  Pass 0  IDiag  1:
 FoFJK:  IHMeth= 1 ICntrl=       0 DoSepK=T KAlg= 0 I1Cent=           0 FoldK=F
 IRaf=         1 NMat=       1 IRICut=       1 DoRegI=T DoRafI=F ISym2E= 0 IDoP0=0 IntGTp=1.
 FoFCou: FMM=T IPFlag=           0 FMFlag=      100000 FMFlg1=        2001
         NFxFlg=           0 DoJE=T BraDBF=F KetDBF=F FulRan=T
         wScrn=  0.000000 ICntrl=       500 IOpCl=  0 I1Cent=           0 NGrid=           0
         NMat0=    1 NMatS0=      1 NMatT0=    0 NMatD0=    1 NMtDS0=    0 NMtDT0=    0
 Symmetry not used in FoFCou.
 FMM levels:  10  Number of levels for PrismC:   9
 E= -4568.80502695887    
 DIIS: error= 1.59D-02 at cycle   1 NSaved=   1.
 NSaved= 1 IEnMin= 1 EnMin= -4568.80502695887     IErMin= 1 ErrMin= 1.59D-02
 ErrMax= 1.59D-02  0.00D+00 EMaxC= 1.00D-01 BMatC= 3.24D+00 BMatP= 3.24D+00
 IDIUse=3 WtCom= 8.41D-01 WtEn= 1.59D-01
 Coeff-Com:  0.100D+01
 Coeff-En:   0.100D+01
 Coeff:      0.100D+01
 Gap=     0.235 Goal=   None    Shift=    0.000
 Gap=     0.235 Goal=   None    Shift=    0.000
 GapD=    0.235 DampG=1.000 DampE=0.500 DampFc=0.5000 IDamp=-1.
 Damping current iteration by 5.00D-01
 RMSDP=2.09D-03 MaxDP=1.40D-01              OVMax= 1.93D-01

 Cycle   2  Pass 0  IDiag  1:
 RMSU=  1.04D-03    CP:  9.92D-01
 E= -4569.25726086433     Delta-E=       -0.452233905466 Rises=F Damp=T
 DIIS: error= 5.01D-03 at cycle   2 NSaved=   2.
 NSaved= 2 IEnMin= 2 EnMin= -4569.25726086433     IErMin= 2 ErrMin= 5.01D-03
 ErrMax= 5.01D-03  0.00D+00 EMaxC= 1.00D-01 BMatC= 2.16D-01 BMatP= 3.24D+00
 IDIUse=3 WtCom= 9.50D-01 WtEn= 5.01D-02
 Coeff-Com: -0.502D-01 0.105D+01
 Coeff-En:   0.000D+00 0.100D+01
 Coeff:     -0.477D-01 0.105D+01
 Gap=     0.251 Goal=   None    Shift=    0.000
 Gap=     0.251 Goal=   None    Shift=    0.000
 RMSDP=6.76D-04 MaxDP=2.39D-02 DE=-4.52D-01 OVMax= 1.35D-01

 Cycle   3  Pass 0  IDiag  1:
 RMSU=  6.35D-04    CP:  9.85D-01  1.20D+00
 E= -4569.70475804189     Delta-E=       -0.447497177560 Rises=F Damp=F
 DIIS: error= 3.14D-03 at cycle   3 NSaved=   3.
 NSaved= 3 IEnMin= 3 EnMin= -4569.70475804189     IErMin= 3 ErrMin= 3.14D-03
 ErrMax= 3.14D-03  0.00D+00 EMaxC= 1.00D-01 BMatC= 9.49D-02 BMatP= 2.16D-01
 IDIUse=3 WtCom= 9.69D-01 WtEn= 3.14D-02
 Coeff-Com: -0.637D-01 0.414D+00 0.650D+00
 Coeff-En:   0.000D+00 0.000D+00 0.100D+01
 Coeff:     -0.617D-01 0.401D+00 0.661D+00
 Gap=     0.252 Goal=   None    Shift=    0.000
 Gap=     0.252 Goal=   None    Shift=    0.000
 RMSDP=1.95D-04 MaxDP=1.77D-02 DE=-4.47D-01 OVMax= 2.38D-02

 Cycle   4  Pass 0  IDiag  1:
 RMSU=  1.74D-04    CP:  9.85D-01  1.26D+00  8.93D-01
 E= -4569.72654299302     Delta-E=       -0.021784951132 Rises=F Damp=F
 DIIS: error= 9.72D-04 at cycle   4 NSaved=   4.
 NSaved= 4 IEnMin= 4 EnMin= -4569.72654299302     IErMin= 4 ErrMin= 9.72D-04
 ErrMax= 9.72D-04  0.00D+00 EMaxC= 1.00D-01 BMatC= 1.15D-02 BMatP= 9.49D-02
 IDIUse=3 WtCom= 9.90D-01 WtEn= 9.72D-03
 Coeff-Com: -0.963D-02 0.177D-01 0.250D+00 0.742D+00
 Coeff-En:   0.000D+00 0.000D+00 0.000D+00 0.100D+01
 Coeff:     -0.954D-02 0.176D-01 0.248D+00 0.744D+00
 Gap=     0.256 Goal=   None    Shift=    0.000
 Gap=     0.256 Goal=   None    Shift=    0.000
 RMSDP=7.27D-05 MaxDP=4.89D-03 DE=-2.18D-02 OVMax= 9.63D-03

 Cycle   5  Pass 0  IDiag  1:
 RMSU=  5.96D-05    CP:  9.84D-01  1.26D+00  9.55D-01  9.33D-01
 E= -4569.73011750273     Delta-E=       -0.003574509705 Rises=F Damp=F
 DIIS: error= 2.75D-04 at cycle   5 NSaved=   5.
 NSaved= 5 IEnMin= 5 EnMin= -4569.73011750273     IErMin= 5 ErrMin= 2.75D-04
 ErrMax= 2.75D-04  0.00D+00 EMaxC= 1.00D-01 BMatC= 1.08D-03 BMatP= 1.15D-02
 IDIUse=3 WtCom= 9.97D-01 WtEn= 2.75D-03
 Coeff-Com:  0.655D-02-0.384D-01 0.867D-02 0.217D+00 0.806D+00
 Coeff-En:   0.000D+00 0.000D+00 0.000D+00 0.000D+00 0.100D+01
 Coeff:      0.653D-02-0.383D-01 0.865D-02 0.216D+00 0.807D+00
 Gap=     0.258 Goal=   None    Shift=    0.000
 Gap=     0.258 Goal=   None    Shift=    0.000
 RMSDP=3.39D-05 MaxDP=1.84D-03 DE=-3.57D-03 OVMax= 4.79D-03

 Cycle   6  Pass 0  IDiag  1:
 RMSU=  2.37D-05    CP:  9.84D-01  1.26D+00  9.76D-01  1.04D+00  1.15D+00
 E= -4569.73068687083     Delta-E=       -0.000569368101 Rises=F Damp=F
 DIIS: error= 1.60D-04 at cycle   6 NSaved=   6.
 NSaved= 6 IEnMin= 6 EnMin= -4569.73068687083     IErMin= 6 ErrMin= 1.60D-04
 ErrMax= 1.60D-04  0.00D+00 EMaxC= 1.00D-01 BMatC= 2.46D-04 BMatP= 1.08D-03
 IDIUse=3 WtCom= 9.98D-01 WtEn= 1.60D-03
 Coeff-Com:  0.575D-02-0.218D-01-0.409D-01-0.404D-01 0.290D+00 0.807D+00
 Coeff-En:   0.000D+00 0.000D+00 0.000D+00 0.000D+00 0.000D+00 0.100D+01
 Coeff:      0.574D-02-0.218D-01-0.408D-01-0.404D-01 0.290D+00 0.808D+00
 Gap=     0.260 Goal=   None    Shift=    0.000
 Gap=     0.260 Goal=   None    Shift=    0.000
 RMSDP=1.94D-05 MaxDP=1.36D-03 DE=-5.69D-04 OVMax= 3.10D-03

 Cycle   7  Pass 0  IDiag  1:
 RMSU=  1.30D-05    CP:  9.84D-01  1.26D+00  9.87D-01  1.07D+00  1.33D+00
                    CP:  1.13D+00
 E= -4569.73085842049     Delta-E=       -0.000171549666 Rises=F Damp=F
 DIIS: error= 7.52D-05 at cycle   7 NSaved=   7.
 NSaved= 7 IEnMin= 7 EnMin= -4569.73085842049     IErMin= 7 ErrMin= 7.52D-05
 ErrMax= 7.52D-05  0.00D+00 EMaxC= 1.00D-01 BMatC= 5.25D-05 BMatP= 2.46D-04
 IDIUse=1 WtCom= 1.00D+00 WtEn= 0.00D+00
 Coeff-Com:  0.982D-03-0.362D-03-0.133D-01-0.502D-01-0.860D-01 0.265D+00
 Coeff-Com:  0.884D+00
 Coeff:      0.982D-03-0.362D-03-0.133D-01-0.502D-01-0.860D-01 0.265D+00
 Coeff:      0.884D+00
 Gap=     0.260 Goal=   None    Shift=    0.000
 Gap=     0.260 Goal=   None    Shift=    0.000
 RMSDP=1.24D-05 MaxDP=6.86D-04 DE=-1.72D-04 OVMax= 1.94D-03

 Cycle   8  Pass 0  IDiag  1:
 RMSU=  7.17D-06    CP:  9.84D-01  1.26D+00  9.89D-01  1.09D+00  1.41D+00
                    CP:  1.42D+00  1.26D+00
 E= -4569.73090380928     Delta-E=       -0.000045388786 Rises=F Damp=F
 DIIS: error= 3.89D-05 at cycle   8 NSaved=   8.
 NSaved= 8 IEnMin= 8 EnMin= -4569.73090380928     IErMin= 8 ErrMin= 3.89D-05
 ErrMax= 3.89D-05  0.00D+00 EMaxC= 1.00D-01 BMatC= 1.28D-05 BMatP= 5.25D-05
 IDIUse=1 WtCom= 1.00D+00 WtEn= 0.00D+00
 Coeff-Com: -0.631D-03 0.394D-02 0.323D-02-0.101D-01-0.964D-01-0.596D-01
 Coeff-Com:  0.361D+00 0.799D+00
 Coeff:     -0.631D-03 0.394D-02 0.323D-02-0.101D-01-0.964D-01-0.596D-01
 Coeff:      0.361D+00 0.799D+00
 Gap=     0.260 Goal=   None    Shift=    0.000
 Gap=     0.260 Goal=   None    Shift=    0.000
 RMSDP=8.57D-06 MaxDP=3.04D-04 DE=-4.54D-05 OVMax= 1.01D-03

 Initial convergence to 1.0D-05 achieved.  Increase integral accuracy.
 Cycle   9  Pass 1  IDiag  1:
 E= -4569.73009919717     Delta-E=        0.000804612111 Rises=F Damp=F
 DIIS: error= 1.46D-04 at cycle   1 NSaved=   1.
 NSaved= 1 IEnMin= 1 EnMin= -4569.73009919717     IErMin= 1 ErrMin= 1.46D-04
 ErrMax= 1.46D-04  0.00D+00 EMaxC= 1.00D-01 BMatC= 1.20D-04 BMatP= 1.20D-04
 IDIUse=3 WtCom= 9.99D-01 WtEn= 1.46D-03
 Coeff-Com:  0.100D+01
 Coeff-En:   0.100D+01
 Coeff:      0.100D+01
 Gap=     0.260 Goal=   None    Shift=    0.000
 Gap=     0.260 Goal=   None    Shift=    0.000
 RMSDP=8.57D-06 MaxDP=3.04D-04 DE= 8.05D-04 OVMax= 4.60D-04

 Cycle  10  Pass 1  IDiag  1:
 RMSU=  9.97D-05    CP:  1.00D+00
 E= -4569.73012557167     Delta-E=       -0.000026374497 Rises=F Damp=F
 DIIS: error= 1.15D-05 at cycle   2 NSaved=   2.
 NSaved= 2 IEnMin= 2 EnMin= -4569.73012557167     IErMin= 2 ErrMin= 1.15D-05
 ErrMax= 1.15D-05  0.00D+00 EMaxC= 1.00D-01 BMatC= 1.77D-06 BMatP= 1.20D-04
 IDIUse=1 WtCom= 1.00D+00 WtEn= 0.00D+00
 Coeff-Com: -0.187D-01 0.102D+01
 Coeff:     -0.187D-01 0.102D+01
 Gap=     0.260 Goal=   None    Shift=    0.000
 Gap=     0.260 Goal=   None    Shift=    0.000
 RMSDP=5.77D-06 MaxDP=3.06D-04 DE=-2.64D-05 OVMax= 3.32D-04

 Cycle  11  Pass 1  IDiag  1:
 RMSU=  2.48D-06    CP:  1.00D+00  1.05D+00
 E= -4569.73012577474     Delta-E=       -0.000000203076 Rises=F Damp=F
 DIIS: error= 1.92D-05 at cycle   3 NSaved=   3.
 NSaved= 3 IEnMin= 3 EnMin= -4569.73012577474     IErMin= 2 ErrMin= 1.15D-05
 ErrMax= 1.92D-05  0.00D+00 EMaxC= 1.00D-01 BMatC= 2.58D-06 BMatP= 1.77D-06
 IDIUse=1 WtCom= 1.00D+00 WtEn= 0.00D+00
 Coeff-Com: -0.240D-01 0.573D+00 0.451D+00
 Coeff:     -0.240D-01 0.573D+00 0.451D+00
 Gap=     0.260 Goal=   None    Shift=    0.000
 Gap=     0.260 Goal=   None    Shift=    0.000
 RMSDP=8.99D-07 MaxDP=6.01D-05 DE=-2.03D-07 OVMax= 1.39D-04

 Cycle  12  Pass 1  IDiag  1:
 RMSU=  8.41D-07    CP:  1.00D+00  1.05D+00  9.14D-01
 E= -4569.73012649702     Delta-E=       -0.000000722273 Rises=F Damp=F
 DIIS: error= 2.90D-06 at cycle   4 NSaved=   4.
 NSaved= 4 IEnMin= 4 EnMin= -4569.73012649702     IErMin= 4 ErrMin= 2.90D-06
 ErrMax= 2.90D-06  0.00D+00 EMaxC= 1.00D-01 BMatC= 6.63D-08 BMatP= 1.77D-06
 IDIUse=1 WtCom= 1.00D+00 WtEn= 0.00D+00
 Coeff-Com:  0.366D-02-0.137D+00-0.617D-01 0.119D+01
 Coeff:      0.366D-02-0.137D+00-0.617D-01 0.119D+01
 Gap=     0.260 Goal=   None    Shift=    0.000
 Gap=     0.260 Goal=   None    Shift=    0.000
 RMSDP=5.49D-07 MaxDP=3.64D-05 DE=-7.22D-07 OVMax= 1.64D-04

 Cycle  13  Pass 1  IDiag  1:
 RMSU=  3.77D-07    CP:  1.00D+00  1.06D+00  1.04D+00  1.25D+00
 E= -4569.73012659808     Delta-E=       -0.000000101067 Rises=F Damp=F
 DIIS: error= 1.84D-06 at cycle   5 NSaved=   5.
 NSaved= 5 IEnMin= 5 EnMin= -4569.73012659808     IErMin= 5 ErrMin= 1.84D-06
 ErrMax= 1.84D-06  0.00D+00 EMaxC= 1.00D-01 BMatC= 3.61D-08 BMatP= 6.63D-08
 IDIUse=1 WtCom= 1.00D+00 WtEn= 0.00D+00
 Coeff-Com:  0.979D-02-0.258D+00-0.188D+00 0.593D+00 0.843D+00
 Coeff:      0.979D-02-0.258D+00-0.188D+00 0.593D+00 0.843D+00
 Gap=     0.260 Goal=   None    Shift=    0.000
 Gap=     0.260 Goal=   None    Shift=    0.000
 RMSDP=3.43D-07 MaxDP=2.23D-05 DE=-1.01D-07 OVMax= 1.14D-04

 Cycle  14  Pass 1  IDiag  1:
 RMSU=  1.58D-07    CP:  1.00D+00  1.06D+00  1.09D+00  1.44D+00  1.56D+00
 E= -4569.73012661789     Delta-E=       -0.000000019812 Rises=F Damp=F
 DIIS: error= 7.12D-07 at cycle   6 NSaved=   6.
 NSaved= 6 IEnMin= 6 EnMin= -4569.73012661789     IErMin= 6 ErrMin= 7.12D-07
 ErrMax= 7.12D-07  0.00D+00 EMaxC= 1.00D-01 BMatC= 3.95D-09 BMatP= 3.61D-08
 IDIUse=1 WtCom= 1.00D+00 WtEn= 0.00D+00
 Coeff-Com:  0.149D-02-0.309D-01-0.324D-01-0.111D+00 0.202D+00 0.971D+00
 Coeff:      0.149D-02-0.309D-01-0.324D-01-0.111D+00 0.202D+00 0.971D+00
 Gap=     0.260 Goal=   None    Shift=    0.000
 Gap=     0.260 Goal=   None    Shift=    0.000
 RMSDP=1.46D-07 MaxDP=8.95D-06 DE=-1.98D-08 OVMax= 5.40D-05

 Cycle  15  Pass 1  IDiag  1:
 RMSU=  5.50D-08    CP:  1.00D+00  1.06D+00  1.10D+00  1.47D+00  1.89D+00
                    CP:  1.22D+00
 E= -4569.73012662883     Delta-E=       -0.000000010938 Rises=F Damp=F
 DIIS: error= 2.89D-07 at cycle   7 NSaved=   7.
 NSaved= 7 IEnMin= 7 EnMin= -4569.73012662883     IErMin= 7 ErrMin= 2.89D-07
 ErrMax= 2.89D-07  0.00D+00 EMaxC= 1.00D-01 BMatC= 9.97D-10 BMatP= 3.95D-09
 IDIUse=1 WtCom= 1.00D+00 WtEn= 0.00D+00
 Coeff-Com: -0.815D-03 0.252D-01 0.142D-01-0.141D+00-0.488D-01 0.424D+00
 Coeff-Com:  0.727D+00
 Coeff:     -0.815D-03 0.252D-01 0.142D-01-0.141D+00-0.488D-01 0.424D+00
 Coeff:      0.727D+00
 Gap=     0.260 Goal=   None    Shift=    0.000
 Gap=     0.260 Goal=   None    Shift=    0.000
 RMSDP=4.81D-08 MaxDP=3.00D-06 DE=-1.09D-08 OVMax= 1.67D-05

 Cycle  16  Pass 1  IDiag  1:
 RMSU=  2.18D-08    CP:  1.00D+00  1.06D+00  1.10D+00  1.48D+00  1.98D+00
                    CP:  1.35D+00  1.16D+00
 E= -4569.73012662993     Delta-E=       -0.000000001102 Rises=F Damp=F
 DIIS: error= 1.08D-07 at cycle   8 NSaved=   8.
 NSaved= 8 IEnMin= 8 EnMin= -4569.73012662993     IErMin= 8 ErrMin= 1.08D-07
 ErrMax= 1.08D-07  0.00D+00 EMaxC= 1.00D-01 BMatC= 9.13D-11 BMatP= 9.97D-10
 IDIUse=1 WtCom= 1.00D+00 WtEn= 0.00D+00
 Coeff-Com: -0.300D-03 0.766D-02 0.638D-02-0.110D-01-0.349D-01-0.256D-01
 Coeff-Com:  0.137D+00 0.920D+00
 Coeff:     -0.300D-03 0.766D-02 0.638D-02-0.110D-01-0.349D-01-0.256D-01
 Coeff:      0.137D+00 0.920D+00
 Gap=     0.260 Goal=   None    Shift=    0.000
 Gap=     0.260 Goal=   None    Shift=    0.000
 RMSDP=1.57D-08 MaxDP=7.19D-07 DE=-1.10D-09 OVMax= 5.79D-06

 Cycle  17  Pass 1  IDiag  1:
 RMSU=  9.12D-09    CP:  1.00D+00  1.06D+00  1.09D+00  1.48D+00  1.99D+00
                    CP:  1.37D+00  1.32D+00  1.26D+00
 E= -4569.73012662978     Delta-E=        0.000000000158 Rises=F Damp=F
 DIIS: error= 5.98D-08 at cycle   9 NSaved=   9.
 NSaved= 9 IEnMin= 8 EnMin= -4569.73012662993     IErMin= 9 ErrMin= 5.98D-08
 ErrMax= 5.98D-08  0.00D+00 EMaxC= 1.00D-01 BMatC= 3.94D-11 BMatP= 9.13D-11
 IDIUse=1 WtCom= 1.00D+00 WtEn= 0.00D+00
 Coeff-Com:  0.185D-03-0.640D-02-0.238D-02 0.491D-01 0.142D-02-0.169D+00
 Coeff-Com: -0.215D+00 0.411D+00 0.931D+00
 Coeff:      0.185D-03-0.640D-02-0.238D-02 0.491D-01 0.142D-02-0.169D+00
 Coeff:     -0.215D+00 0.411D+00 0.931D+00
 Gap=     0.260 Goal=   None    Shift=    0.000
 Gap=     0.260 Goal=   None    Shift=    0.000
 RMSDP=1.13D-08 MaxDP=6.16D-07 DE= 1.58D-10 OVMax= 4.25D-06

 Cycle  18  Pass 1  IDiag  1:
 RMSU=  5.70D-09    CP:  1.00D+00  1.06D+00  1.09D+00  1.47D+00  2.00D+00
                    CP:  1.39D+00  1.42D+00  1.55D+00  1.36D+00
 E= -4569.73012662972     Delta-E=        0.000000000055 Rises=F Damp=F
 DIIS: error= 1.66D-08 at cycle  10 NSaved=  10.
 NSaved=10 IEnMin= 8 EnMin= -4569.73012662993     IErMin=10 ErrMin= 1.66D-08
 ErrMax= 1.66D-08  0.00D+00 EMaxC= 1.00D-01 BMatC= 3.16D-12 BMatP= 3.94D-11
 IDIUse=1 WtCom= 1.00D+00 WtEn= 0.00D+00
 Coeff-Com:  0.910D-04-0.278D-02-0.138D-02 0.154D-01 0.405D-02-0.440D-01
 Coeff-Com: -0.734D-01 0.750D-02 0.212D+00 0.883D+00
 Coeff:      0.910D-04-0.278D-02-0.138D-02 0.154D-01 0.405D-02-0.440D-01
 Coeff:     -0.734D-01 0.750D-02 0.212D+00 0.883D+00
 Gap=     0.260 Goal=   None    Shift=    0.000
 Gap=     0.260 Goal=   None    Shift=    0.000
 RMSDP=3.30D-09 MaxDP=1.84D-07 DE= 5.46D-11 OVMax= 1.08D-06

 SCF Done:  E(ULC-wPBE) =  -4569.73012663     A.U. after   18 cycles
            NFock= 18  Conv=0.33D-08     -V/T= 2.0046
 <Sx>= 0.0000 <Sy>= 0.0000 <Sz>= 0.0000 <S**2>=-0.0000 S=-0.0000
 <L.S>= 0.000000000000E+00
 KE= 4.549003404698D+03 PE=-2.548370059139D+04 EE= 9.000174853576D+03
 Annihilation of the first spin contaminant:
 S**2 before annihilation    -0.0000,   after     0.0000
 Leave Link  502 at Thu Jul 23 13:09:16 2020, MaxMem=  4026531840 cpu:            4958.7 elap:             634.6
 (Enter /opt/ohpc/pub/libs/gaussian/g16-A.03/sandybridge/g16/l601.exe)
 Copying SCF densities to generalized density rwf, IOpCl= 1 IROHF=0.

 **********************************************************************

            Population analysis using the SCF density.

 **********************************************************************

 Orbital symmetries:
 Alpha Orbitals:
       Occupied  (A) (A) (A) (A) (A) (A) (A) (A) (A) (A) (A) (A)
                 (A) (A) (A) (A) (A) (A) (A) (A) (A) (A) (A) (A)
                 (A) (A) (A) (A) (A) (A) (A) (A) (A) (A) (A) (A)
                 (A) (A) (A) (A) (A) (A) (A) (A) (A) (A) (A) (A)
                 (A) (A) (A) (A) (A) (A) (A) (A) (A) (A) (A) (A)
                 (A) (A) (A) (A) (A) (A) (A) (A) (A) (A) (A) (A)
                 (A) (A) (A) (A) (A) (A) (A) (A) (A) (A) (A) (A)
                 (A) (A) (A) (A) (A) (A) (A) (A) (A) (A) (A) (A)
                 (A) (A) (A) (A) (A) (A) (A) (A) (A) (A) (A) (A)
                 (A) (A) (A) (A) (A) (A) (A) (A) (A) (A) (A) (A)
                 (A) (A) (A) (A) (A) (A) (A) (A) (A) (A) (A) (A)
                 (A) (A) (A) (A) (A) (A) (A) (A) (A) (A) (A) (A)
                 (A) (A) (A) (A) (A) (A) (A) (A) (A) (A) (A) (A)
                 (A) (A) (A) (A) (A) (A) (A) (A) (A) (A) (A) (A)
                 (A) (A) (A) (A) (A) (A) (A) (A) (A) (A) (A) (A)
                 (A) (A) (A) (A) (A) (A) (A) (A) (A) (A) (A) (A)
                 (A) (A) (A) (A) (A) (A) (A) (A) (A) (A) (A) (A)
                 (A) (A) (A) (A) (A) (A) (A) (A) (A) (A) (A) (A)
                 (A) (A) (A) (A) (A) (A) (A) (A) (A) (A)
       Virtual   (A) (A) (A) (A) (A) (A) (A) (A) (A) (A) (A) (A)
                 (A) (A) (A) (A) (A) (A) (A) (A) (A) (A) (A) (A)
                 (A) (A) (A) (A) (A) (A) (A) (A) (A) (A) (A) (A)
                 (A) (A) (A) (A) (A) (A) (A) (A) (A) (A) (A) (A)
                 (A) (A) (A) (A) (A) (A) (A) (A) (A) (A) (A) (A)
                 (A) (A) (A) (A) (A) (A) (A) (A) (A) (A) (A) (A)
                 (A) (A) (A) (A) (A) (A) (A) (A) (A) (A) (A) (A)
                 (A) (A) (A) (A) (A) (A) (A) (A) (A) (A) (A) (A)
                 (A) (A) (A) (A) (A) (A) (A) (A) (A) (A) (A) (A)
                 (A) (A) (A) (A) (A) (A) (A) (A) (A) (A) (A) (A)
[...]
              Bcc     0.0000     0.000     0.000     0.000  0.7679 -0.6252  0.1392
 
              Baa    -0.0000    -0.000    -0.000    -0.000  0.1155  0.2999  0.9470
    17 C(13)  Bbb     0.0000     0.000     0.000     0.000  0.7275  0.6236 -0.2862
              Bcc     0.0000     0.000     0.000     0.000 -0.6763  0.7220 -0.1461
 
              Baa    -0.0000    -0.000    -0.000    -0.000 -0.5262  0.8283 -0.1923
    18 F(19)  Bbb     0.0000     0.000     0.000     0.000  0.0402  0.2501  0.9674
              Bcc     0.0000     0.000     0.000     0.000  0.8494  0.5013 -0.1649
 
              Baa    -0.0000    -0.000    -0.000    -0.000  0.2723  0.8876 -0.3716
    19 C(13)  Bbb     0.0000     0.000     0.000     0.000  0.0686  0.3673  0.9276
              Bcc     0.0000     0.000     0.000     0.000  0.9598 -0.2780  0.0391
 
              Baa    -0.0000    -0.000    -0.000    -0.000  0.9450 -0.3178 -0.0767
    20 C(13)  Bbb    -0.0000    -0.000    -0.000    -0.000  0.1551  0.2294  0.9609
              Bcc     0.0000     0.000     0.000     0.000  0.2878  0.9200 -0.2661
 
              Baa    -0.0000    -0.000    -0.000    -0.000  0.9391 -0.3278  0.1035
    21 N(14)  Bbb     0.0000     0.000     0.000     0.000 -0.2447 -0.4261  0.8709
              Bcc     0.0000     0.000     0.000     0.000  0.2414  0.8432  0.4804
 
              Baa    -0.0000    -0.000    -0.000    -0.000  0.3682  0.3188  0.8734
    22 C(13)  Bbb    -0.0000    -0.000    -0.000    -0.000  0.8460  0.2748 -0.4569
              Bcc     0.0000     0.000     0.000     0.000 -0.3856  0.9071 -0.1685
 
              Baa    -0.0000    -0.000    -0.000    -0.000  0.9586 -0.1485 -0.2430
    23 C(13)  Bbb    -0.0000    -0.000    -0.000    -0.000  0.2760  0.2744  0.9211
              Bcc     0.0000     0.000     0.000     0.000  0.0701  0.9501 -0.3040
 
              Baa    -0.0000    -0.000    -0.000    -0.000  0.6828  0.6541 -0.3255
    24 S(33)  Bbb    -0.0000    -0.000    -0.000    -0.000  0.0403  0.4112  0.9107
              Bcc     0.0000     0.000     0.000     0.000  0.7295 -0.6349  0.2544
 
              Baa    -0.0000    -0.000    -0.000    -0.000  0.1111  0.9928  0.0447
    25 C(13)  Bbb     0.0000     0.000     0.000     0.000 -0.1943 -0.0225  0.9807
              Bcc     0.0000     0.000     0.000     0.000  0.9746 -0.1176  0.1904
 
              Baa    -0.0000    -0.000    -0.000    -0.000 -0.3834  0.8917  0.2406
    26 C(13)  Bbb     0.0000     0.000     0.000     0.000  0.5912  0.0368  0.8057
              Bcc     0.0000     0.000     0.000     0.000  0.7096  0.4511 -0.5413
 
              Baa    -0.0000    -0.000    -0.000    -0.000  0.9991  0.0042  0.0428
    27 N(14)  Bbb     0.0000     0.000     0.000     0.000  0.0006  0.9936 -0.1132
              Bcc     0.0000     0.000     0.000     0.000 -0.0430  0.1132  0.9926
 
              Baa    -0.0000    -0.000    -0.000    -0.000  0.4752  0.8762  0.0803
    28 C(13)  Bbb     0.0000     0.000     0.000     0.000 -0.2501  0.0471  0.9671
              Bcc     0.0000     0.000     0.000     0.000  0.8436 -0.4796  0.2415
 
              Baa    -0.0000    -0.000    -0.000    -0.000  0.9303  0.3359  0.1471
    29 C(13)  Bbb     0.0000     0.000     0.000     0.000 -0.3479  0.9354  0.0639
              Bcc     0.0000     0.000     0.000     0.000 -0.1161 -0.1107  0.9870
 
              Baa    -0.0000    -0.000    -0.000    -0.000 -0.2326  0.9662  0.1113
    30 F(19)  Bbb    -0.0000    -0.000    -0.000    -0.000 -0.0935 -0.1361  0.9863
              Bcc     0.0000     0.000     0.000     0.000  0.9681  0.2190  0.1220
 
              Baa    -0.0000    -0.000    -0.000    -0.000  0.8180 -0.5739  0.0377
    31 C(13)  Bbb    -0.0000    -0.000    -0.000    -0.000  0.5556  0.8055  0.2060
              Bcc     0.0000     0.000     0.000     0.000 -0.1486 -0.1475  0.9778
 
              Baa    -0.0000    -0.000    -0.000    -0.000  0.9357  0.2968  0.1908
    32 C(13)  Bbb    -0.0000    -0.000    -0.000    -0.000 -0.2281  0.0962  0.9689
              Bcc     0.0000     0.000     0.000     0.000 -0.2692  0.9501 -0.1577
 
              Baa    -0.0000    -0.000    -0.000    -0.000  0.2180 -0.1460  0.9650
    33 N(14)  Bbb    -0.0000    -0.000    -0.000    -0.000  0.9653 -0.1135 -0.2353
              Bcc     0.0000     0.000     0.000     0.000  0.1439  0.9828  0.1161
 
              Baa    -0.0000    -0.000    -0.000    -0.000 -0.6940  0.6958 -0.1849
    34 C(13)  Bbb    -0.0000    -0.000    -0.000    -0.000 -0.2324  0.0266  0.9723
              Bcc     0.0000     0.000     0.000     0.000  0.6814  0.7177  0.1432
 
              Baa    -0.0000    -0.000    -0.000    -0.000 -0.1655 -0.0697  0.9837
    35 C(13)  Bbb     0.0000     0.000     0.000     0.000 -0.4464  0.8948 -0.0117
              Bcc     0.0000     0.000     0.000     0.000  0.8794  0.4410  0.1792
 
              Baa    -0.0000    -0.000    -0.000    -0.000 -0.2268 -0.4798  0.8476
    36 S(33)  Bbb     0.0000     0.000     0.000     0.000  0.5531  0.6529  0.5176
              Bcc     0.0000     0.000     0.000     0.000  0.8017 -0.5861 -0.1173
 
              Baa    -0.0000    -0.000    -0.000    -0.000 -0.2627  0.4845  0.8344
    37 C(13)  Bbb     0.0000     0.000     0.000     0.000  0.7891  0.6056 -0.1032
              Bcc     0.0000     0.000     0.000     0.000 -0.5553  0.6313 -0.5414
 
              Baa    -0.0000    -0.000    -0.000    -0.000  0.1846  0.3318  0.9251
    38 C(13)  Bbb    -0.0000    -0.000    -0.000    -0.000  0.9706 -0.2092 -0.1187
              Bcc     0.0000     0.000     0.000     0.000  0.1541  0.9199 -0.3606
 
              Baa    -0.0000    -0.000    -0.000    -0.000  0.6227 -0.5127  0.5911
    39 N(14)  Bbb    -0.0000    -0.000    -0.000    -0.000 -0.3434  0.4997  0.7952
              Bcc     0.0000     0.000     0.000     0.000  0.7031  0.6981 -0.1351
 
              Baa    -0.0000    -0.000    -0.000    -0.000  0.9918 -0.0453  0.1194
    40 C(13)  Bbb     0.0000     0.000     0.000     0.000  0.0935  0.8943 -0.4376
              Bcc     0.0000     0.000     0.000     0.000 -0.0870  0.4451  0.8912
 
              Baa    -0.0000    -0.000    -0.000    -0.000 -0.1754  0.4205  0.8902
    41 C(13)  Bbb    -0.0000    -0.000    -0.000    -0.000  0.9640 -0.1103  0.2421
              Bcc     0.0000     0.000     0.000     0.000  0.2000  0.9006 -0.3860
 
              Baa    -0.0000    -0.000    -0.000    -0.000 -0.1599  0.3939  0.9051
    42 F(19)  Bbb    -0.0000    -0.000    -0.000    -0.000 -0.4971  0.7601 -0.4186
              Bcc     0.0000     0.000     0.000     0.000  0.8529  0.5168 -0.0743
 
              Baa    -0.0000    -0.000    -0.000    -0.000 -0.3426  0.8040 -0.4860
    43 C(13)  Bbb    -0.0000    -0.000    -0.000    -0.000  0.9220  0.3870 -0.0098
              Bcc     0.0000     0.000     0.000     0.000 -0.1802  0.4514  0.8739
 
              Baa    -0.0000    -0.000    -0.000    -0.000  0.9822  0.1697  0.0802
    44 C(13)  Bbb     0.0000     0.000     0.000     0.000 -0.1479  0.4370  0.8872
              Bcc     0.0000     0.000     0.000     0.000 -0.1155  0.8833 -0.4543
 
              Baa    -0.0000    -0.000    -0.000    -0.000  0.8448  0.5350  0.0013
    45 N(14)  Bbb     0.0000     0.000     0.000     0.000 -0.5346  0.8440  0.0446
              Bcc     0.0000     0.000     0.000     0.000  0.0227 -0.0384  0.9990
 
              Baa    -0.0000    -0.000    -0.000    -0.000 -0.0730  0.9437 -0.3226
    46 C(13)  Bbb     0.0000     0.000     0.000     0.000  0.3930  0.3245  0.8604
              Bcc     0.0000     0.000     0.000     0.000  0.9167 -0.0639 -0.3945
 
              Baa    -0.0000    -0.000    -0.000    -0.000  0.6615  0.7183 -0.2154
    47 C(13)  Bbb     0.0000     0.000     0.000     0.000  0.7483 -0.6136  0.2519
              Bcc     0.0000     0.000     0.000     0.000 -0.0487  0.3278  0.9435
 
              Baa    -0.0000    -0.000    -0.000    -0.000  0.4657 -0.5927  0.6572
    48 S(33)  Bbb     0.0000     0.000     0.000     0.000 -0.0257  0.7333  0.6794
              Bcc     0.0000     0.000     0.000     0.000  0.8846  0.3333 -0.3262
 
              Baa    -0.0000    -0.000    -0.000    -0.000  0.2262 -0.6662  0.7107
    49 C(13)  Bbb    -0.0000    -0.000    -0.000    -0.000  0.8504 -0.2208 -0.4777
              Bcc     0.0000     0.000     0.000     0.000  0.4751  0.7124  0.5165
 
              Baa    -0.0000    -0.000    -0.000    -0.000  0.8284  0.5428  0.1379
    50 C(13)  Bbb     0.0000     0.000     0.000     0.000  0.1605 -0.4661  0.8701
              Bcc     0.0000     0.000     0.000     0.000 -0.5366  0.6986  0.4733
 
              Baa    -0.0000    -0.000    -0.000    -0.000 -0.5079  0.5756  0.6409
    51 N(14)  Bbb    -0.0000    -0.000    -0.000    -0.000  0.4142  0.8155 -0.4042
              Bcc     0.0000     0.000     0.000     0.000  0.7553 -0.0601  0.6526
 
              Baa    -0.0000    -0.000    -0.000    -0.000  0.7271  0.1162 -0.6766
    52 C(13)  Bbb    -0.0000    -0.000    -0.000    -0.000 -0.0343  0.9905  0.1333
              Bcc     0.0000     0.000     0.000     0.000  0.6856 -0.0737  0.7242
 
              Baa    -0.0000    -0.000    -0.000    -0.000 -0.5269  0.7059  0.4733
    53 C(13)  Bbb    -0.0000    -0.000    -0.000    -0.000  0.8496  0.4539  0.2687
              Bcc     0.0000     0.000     0.000     0.000  0.0252 -0.5437  0.8389
 
              Baa    -0.0000    -0.000    -0.000    -0.000  0.4571 -0.2445  0.8552
    54 F(19)  Bbb     0.0000     0.000     0.000     0.000  0.6437 -0.5726 -0.5078
              Bcc     0.0000     0.000     0.000     0.000  0.6138  0.7826 -0.1044
 
              Baa    -0.0000    -0.000    -0.000    -0.000  0.5843  0.7545 -0.2988
    55 C(13)  Bbb    -0.0000    -0.000    -0.000    -0.000  0.7628 -0.3849  0.5196
              Bcc     0.0000     0.000     0.000     0.000 -0.2770  0.5315  0.8005
 
              Baa    -0.0000    -0.000    -0.000    -0.000  0.8887  0.3825  0.2529
    56 C(13)  Bbb     0.0000     0.000     0.000     0.000 -0.0082 -0.5382  0.8428
              Bcc     0.0000     0.000     0.000     0.000 -0.4584  0.7510  0.4752
 
              Baa    -0.0000    -0.000    -0.000    -0.000 -0.3410  0.9313  0.1279
    57 N(14)  Bbb     0.0000     0.000     0.000     0.000  0.3302 -0.0088  0.9439
              Bcc     0.0000     0.000     0.000     0.000  0.8802  0.3641 -0.3045
 
              Baa    -0.0000    -0.000    -0.000    -0.000  0.9409  0.3386  0.0017
    58 C(13)  Bbb    -0.0000    -0.000    -0.000    -0.000 -0.0057  0.0107  0.9999
              Bcc     0.0000     0.000     0.000     0.000 -0.3386  0.9409 -0.0120
 
              Baa    -0.0000    -0.000    -0.000    -0.000  0.1981 -0.6725  0.7131
    59 C(13)  Bbb     0.0000     0.000     0.000     0.000  0.8897 -0.1820 -0.4188
              Bcc     0.0000     0.000     0.000     0.000  0.4114  0.7174  0.5622
 
              Baa    -0.0000    -0.000    -0.000    -0.000  0.9447  0.0493 -0.3242
    60 S(33)  Bbb    -0.0000    -0.000    -0.000    -0.000 -0.2677  0.6871 -0.6754
              Bcc     0.0000     0.000     0.000     0.000  0.1895  0.7249  0.6623
 
              Baa    -0.0000    -0.000    -0.000    -0.000  0.2091 -0.0327  0.9774
    61 H(1)   Bbb    -0.0000    -0.000    -0.000    -0.000  0.3132  0.9490 -0.0353
              Bcc     0.0000     0.000     0.000     0.000  0.9264 -0.3135 -0.2086
 
              Baa    -0.0000    -0.000    -0.000    -0.000 -0.3255  0.9357  0.1363
    62 H(1)   Bbb     0.0000     0.000     0.000     0.000  0.0204 -0.1372  0.9903
              Bcc     0.0000     0.000     0.000     0.000  0.9453  0.3252  0.0255
 
              Baa    -0.0000    -0.000    -0.000    -0.000  0.4898  0.8712  0.0340
    63 H(1)   Bbb     0.0000     0.000     0.000     0.000  0.8034 -0.4358 -0.4058
              Bcc     0.0000     0.000     0.000     0.000  0.3387 -0.2261  0.9133
 
              Baa    -0.0000    -0.000    -0.000    -0.000  0.5059  0.0977  0.8570
    64 H(1)   Bbb    -0.0000    -0.000    -0.000    -0.000  0.6375  0.6269 -0.4478
              Bcc     0.0000     0.000     0.000     0.000 -0.5810  0.7729  0.2549
 
              Baa    -0.0000    -0.000    -0.000    -0.000  0.2376  0.2980  0.9245
    65 H(1)   Bbb    -0.0000    -0.000    -0.000    -0.000  0.9169 -0.3830 -0.1121
              Bcc     0.0000     0.000     0.000     0.000  0.3207  0.8743 -0.3643
 
              Baa    -0.0000    -0.000    -0.000    -0.000  0.0453  0.3421  0.9386
    66 H(1)   Bbb     0.0000     0.000     0.000     0.000  0.7710  0.5854 -0.2506
              Bcc     0.0000     0.000     0.000     0.000 -0.6352  0.7350 -0.2372
 
              Baa    -0.0000    -0.000    -0.000    -0.000 -0.2956  0.8301 -0.4729
    67 H(1)   Bbb     0.0000     0.000     0.000     0.000  0.4527  0.5576  0.6958
              Bcc     0.0000     0.000     0.000     0.000  0.8413 -0.0084 -0.5406
 
              Baa    -0.0000    -0.000    -0.000    -0.000  0.9848  0.1678 -0.0453
    68 H(1)   Bbb    -0.0000    -0.000    -0.000    -0.000  0.0812 -0.2136  0.9735
              Bcc     0.0000     0.000     0.000     0.000 -0.1536  0.9624  0.2239
 
              Baa    -0.0000    -0.000    -0.000    -0.000  0.7337  0.6592  0.1649
    69 H(1)   Bbb    -0.0000    -0.000    -0.000    -0.000 -0.6745  0.7360  0.0587
              Bcc     0.0000     0.000     0.000     0.000 -0.0827 -0.1543  0.9846
 
              Baa    -0.0000    -0.000    -0.000    -0.000  0.8463  0.4619  0.2654
    70 H(1)   Bbb    -0.0000    -0.000    -0.000    -0.000 -0.1650 -0.2463  0.9550
              Bcc     0.0000     0.000     0.000     0.000 -0.5065  0.8520  0.1322
 
              Baa    -0.0000    -0.000    -0.000    -0.000  0.1317  0.9761 -0.1726
    71 H(1)   Bbb     0.0000     0.000     0.000     0.000  0.9882 -0.1155  0.1011
              Bcc     0.0000     0.000     0.000     0.000 -0.0787  0.1839  0.9798
 
              Baa    -0.0000    -0.000    -0.000    -0.000  0.5186  0.8034 -0.2927
    72 H(1)   Bbb    -0.0000    -0.000    -0.000    -0.000  0.8534 -0.4654  0.2348
              Bcc     0.0000     0.000     0.000     0.000 -0.0524  0.3716  0.9269
 
              Baa    -0.0000    -0.000    -0.000    -0.000  0.9273 -0.3002  0.2235
    73 H(1)   Bbb     0.0000     0.000     0.000     0.000 -0.1643  0.2099  0.9638
              Bcc     0.0000     0.000     0.000     0.000  0.3362  0.9305 -0.1453
 
              Baa    -0.0000    -0.000    -0.000    -0.000 -0.4870  0.5426  0.6844
    74 H(1)   Bbb     0.0000     0.000     0.000     0.000  0.8624  0.4226  0.2786
              Bcc     0.0000     0.000     0.000     0.000 -0.1380  0.7259 -0.6738
 
              Baa    -0.0000    -0.000    -0.000    -0.000  0.8910 -0.2848 -0.3535
    75 H(1)   Bbb    -0.0000    -0.000    -0.000    -0.000  0.3914  0.8765  0.2804
              Bcc     0.0000     0.000     0.000     0.000  0.2300 -0.3882  0.8924
 
              Baa    -0.0000    -0.000    -0.000    -0.000  0.5907 -0.2364  0.7715
    76 H(1)   Bbb    -0.0000    -0.000    -0.000    -0.000 -0.4784  0.6673  0.5708
              Bcc     0.0000     0.000     0.000     0.000  0.6497  0.7063 -0.2811
 
              Baa    -0.0000    -0.000    -0.000    -0.000  0.8110 -0.0760  0.5801
    77 H(1)   Bbb     0.0000     0.000     0.000     0.000 -0.5097 -0.5786  0.6368
              Bcc     0.0000     0.000     0.000     0.000 -0.2872  0.8121  0.5080
 

 ---------------------------------------------------------------------------------

 No NMR shielding tensors so no spin-rotation constants.
 Leave Link  601 at Thu Jul 23 15:51:31 2020, MaxMem=  4026531840 cpu:              12.4 elap:               1.6
 (Enter /opt/ohpc/pub/libs/gaussian/g16-A.03/sandybridge/g16/l9999.exe)

 Test job not archived.
 1\1\GINC-SKYLAKE038\FOpt\ULC-wPBE\CC-pVDZ\C40H17F5N10S5\RDU230\23-Jul-
 2020\0\\#P uLC-wPBE/cc-pVDZ iop(3/107=0385300000, 3/108=0385300000) op
 t\\H17 C40 S5 N10 F5\\0,1\C,18.3774437803,-2.2986090799,-1.4530590446\
 C,17.1757567286,-2.9992582864,-1.4303400534\N,16.0209960344,-2.4387989
 477,-1.1008256295\C,15.990099982,-1.1453549419,-0.7737480419\C,17.1532
 014046,-0.375829801,-0.7737473046\F,17.1269096523,0.9139879434,-0.4494
 689087\C,18.3625001195,-0.9553821535,-1.1164104639\C,14.6607022986,-0.
 6153056929,-0.4241845561\N,14.3840043911,0.6025760532,-0.0680255561\C,
 13.0490572706,0.7335528515,0.178697837\C,12.2901561281,-0.3914261134,0
 .0097047742\S,13.3064695575,-1.6915927065,-0.4880464077\C,10.842873034
 4,-0.5406167261,0.2066837497\C,9.9740232822,0.5310959559,-0.0333611836
 \N,8.6668608013,0.4646948932,0.1484480352\C,8.1121171672,-0.6742103632
 ,0.5687683084\C,8.9012461394,-1.7967768556,0.8153822169\F,8.3641057245
 ,-2.9403515169,1.2292698059\C,10.2704778269,-1.7330305447,0.6390811848
 \C,6.6507878689,-0.6450034763,0.7379523665\N,5.9022623529,-1.625960735
 ,1.1440197147\C,4.5943658541,-1.2418651742,1.1796982688\C,4.3313803663
 ,0.0444134813,0.7965762965\S,5.8085644122,0.8207431062,0.3651175999\C,
 3.0292944838,0.7205422869,0.7416509193\C,1.8626562846,0.0030273533,0.4
 50050999\N,0.6608202967,0.5508726798,0.4098385438\C,0.5187945461,1.857
 7387006,0.6407913981\C,1.6301853022,2.6513819049,0.9216736722\F,1.5071
 606348,3.9556253155,1.1486661685\C,2.8894766715,2.0849381158,0.9771572
 479\C,-0.8587995444,2.3698825391,0.5707688381\N,-1.2351328968,3.597454
 52,0.769592735\C,-2.5856942227,3.7087821681,0.6218580731\C,-3.25718769
 98,2.5600357197,0.3054813474\S,-2.1305561275,1.2611470864,0.1847071884
 \C,-4.7002034559,2.3886772386,0.0958342436\C,-5.3518477127,1.185373057
 8,0.3895651081\N,-6.6498530775,0.9984754071,0.2243220644\C,-7.40951054
 55,1.9923980831,-0.2395580772\C,-6.8427840174,3.2271712896,-0.55545794
 83\F,-7.5835958257,4.2261343797,-1.026180455\C,-5.4854446151,3.4279157
 284,-0.395553898\C,-8.8406113392,1.6844523261,-0.3882527452\N,-9.76274
 93617,2.496005945,-0.8107510197\C,-10.9757234844,1.8727015239,-0.82011
 16867\C,-10.9895244174,0.5700507379,-0.4037871991\S,-9.3891465899,0.09
 5419177,0.0248251983\C,-12.1421658865,-0.3349281293,-0.3091122796\C,-1
 3.2110921945,-0.2279537858,-1.2058861785\N,-14.2853992889,-0.996752446
 4,-1.1563892659\C,-14.3820038598,-1.944916291,-0.222364903\C,-13.35348
 06038,-2.1321200387,0.7013200804\F,-13.4276309253,-3.0745220343,1.6368
 539881\C,-12.2321190815,-1.325938135,0.6640602987\C,-15.6158722294,-2.
 7479910364,-0.2497240104\N,-15.9196028548,-3.7131787255,0.5645916092\C
 ,-17.1429452417,-4.2354706726,0.2461567235\C,-17.7695593068,-3.6614806
 633,-0.8168011838\S,-16.8027499414,-2.4074689161,-1.4645918177\H,19.30
 70485865,-2.797619361,-1.7297481013\H,17.1412929727,-4.0611656644,-1.6
 892294515\H,19.2643947885,-0.3415553196,-1.1119004344\H,12.664056123,1
 .6972015236,0.5138239125\H,10.363607962,1.4829375093,-0.4044794201\H,1
 0.8695162027,-2.6190532729,0.8568739975\H,3.842643979,-1.9518182979,1.
 526122242\H,1.915420488,-1.0657580882,0.2254716653\H,3.7417826643,2.72
 28654826,1.2179077018\H,-3.0576225933,4.6789476761,0.781636243\H,-4.78
 87756793,0.3355420419,0.7873392982\H,-5.0607305955,4.3926625469,-0.675
 8161427\H,-11.85839352,2.4341778554,-1.1277915429\H,-13.1818035213,0.5
 114574768,-2.0110465661\H,-11.4501524219,-1.480085355,1.409849649\H,-1
 7.5417809775,-5.0580331773,0.8399378778\H,-18.7388335077,-3.9146311557
 ,-1.2411507138\\Version=EM64L-G16RevA.03\State=1-A\HF=-4569.8991617\S2
 =0.\S2-1=0.\S2A=0.\RMSD=5.888e-09\RMSF=4.692e-06\Dipole=3.434372,-0.41
 11634,-0.4590596\Quadrupole=61.7474903,-30.1008327,-31.6466576,-20.297
 0518,-6.2736662,3.777251\PG=C01 [X(C40H17F5N10S5)]\\@


 FIREWORKS ENDED
 AND SPECTATORS GONE AWAY....
 AH, HOW VAST AND DARK
                     SHIKI
 Job cpu time:       0 days 22 hours 34 minutes  8.2 seconds.
 Elapsed time:       0 days  2 hours 53 minutes  1.1 seconds.
 File lengths (MBytes):  RWF=   1032 Int=      0 D2E=      0 Chk=     92 Scr=      8
 Normal termination of Gaussian 16 at Thu Jul 23 15:51:31 2020.
