 Entering Gaussian System, Link 0=g16
 Input=mols_65_1_03_c-c-COC_opt_0.gjf
 Output=mols_65_1_03_c-c-COC_opt_0.log
 Initial command:
 /opt/ohpc/pub/libs/gaussian/g16-A.03/sandybridge/g16/l1.exe "/mnt/gpfs2_4m/scratch/rdu230/ondemand/projects/dihedral_energies/7trial/wtuning/mols_65_1_03_c-c-COC/Gau-258054.inp" -scrdir="/mnt/gpfs2_4m/scratch/rdu230/ondemand/projects/dihedral_energies/7trial/wtuning/mols_65_1_03_c-c-COC/"
 Entering Link 1 = /opt/ohpc/pub/libs/gaussian/g16-A.03/sandybridge/g16/l1.exe PID=    258055.
  
 Copyright (c) 1988,1990,1992,1993,1995,1998,2003,2009,2016,
            Gaussian, Inc.  All Rights Reserved.
  
 This is part of the Gaussian(R) 16 program.  It is based on
 the Gaussian(R) 09 system (copyright 2009, Gaussian, Inc.),
 the Gaussian(R) 03 system (copyright 2003, Gaussian, Inc.),
 the Gaussian(R) 98 system (copyright 1998, Gaussian, Inc.),
 the Gaussian(R) 94 system (copyright 1995, Gaussian, Inc.),
 the Gaussian 92(TM) system (copyright 1992, Gaussian, Inc.),
 the Gaussian 90(TM) system (copyright 1990, Gaussian, Inc.),
 the Gaussian 88(TM) system (copyright 1988, Gaussian, Inc.),
 the Gaussian 86(TM) system (copyright 1986, Carnegie Mellon
 University), and the Gaussian 82(TM) system (copyright 1983,
 Carnegie Mellon University). Gaussian is a federally registered
 trademark of Gaussian, Inc.
  
 This software contains proprietary and confidential information,
 including trade secrets, belonging to Gaussian, Inc.
  
 This software is provided under written license and may be
 used, copied, transmitted, or stored only in accord with that
 written license.
  
 The following legend is applicable only to US Government
 contracts under FAR:
  
                    RESTRICTED RIGHTS LEGEND
  
 Use, reproduction and disclosure by the US Government is
 subject to restrictions as set forth in subparagraphs (a)
 and (c) of the Commercial Computer Software - Restricted
 Rights clause in FAR 52.227-19.
  
 Gaussian, Inc.
 340 Quinnipiac St., Bldg. 40, Wallingford CT 06492
  
  
 ---------------------------------------------------------------
 Warning -- This program may not be used in any manner that
 competes with the business of Gaussian, Inc. or will provide
 assistance to any competitor of Gaussian, Inc.  The licensee
 of this program is prohibited from giving any competitor of
 Gaussian, Inc. access to this program.  By using this program,
 the user acknowledges that Gaussian, Inc. is engaged in the
 business of creating and licensing software in the field of
 computational chemistry and represents and warrants to the
 licensee that it is not a competitor of Gaussian, Inc. and that
 it will not use this program in any manner prohibited above.
 ---------------------------------------------------------------
  

 Cite this work as:
 Gaussian 16, Revision A.03,
 M. J. Frisch, G. W. Trucks, H. B. Schlegel, G. E. Scuseria, 
 M. A. Robb, J. R. Cheeseman, G. Scalmani, V. Barone, 
 G. A. Petersson, H. Nakatsuji, X. Li, M. Caricato, A. V. Marenich, 
 J. Bloino, B. G. Janesko, R. Gomperts, B. Mennucci, H. P. Hratchian, 
 J. V. Ortiz, A. F. Izmaylov, J. L. Sonnenberg, D. Williams-Young, 
 F. Ding, F. Lipparini, F. Egidi, J. Goings, B. Peng, A. Petrone, 
 T. Henderson, D. Ranasinghe, V. G. Zakrzewski, J. Gao, N. Rega, 
 G. Zheng, W. Liang, M. Hada, M. Ehara, K. Toyota, R. Fukuda, 
 J. Hasegawa, M. Ishida, T. Nakajima, Y. Honda, O. Kitao, H. Nakai, 
 T. Vreven, K. Throssell, J. A. Montgomery, Jr., J. E. Peralta, 
 F. Ogliaro, M. J. Bearpark, J. J. Heyd, E. N. Brothers, K. N. Kudin, 
 V. N. Staroverov, T. A. Keith, R. Kobayashi, J. Normand, 
 K. Raghavachari, A. P. Rendell, J. C. Burant, S. S. Iyengar, 
 J. Tomasi, M. Cossi, J. M. Millam, M. Klene, C. Adamo, R. Cammi, 
 J. W. Ochterski, R. L. Martin, K. Morokuma, O. Farkas, 
 J. B. Foresman, and D. J. Fox, Gaussian, Inc., Wallingford CT, 2016.
 
 ******************************************
 Gaussian 16:  EM64L-G16RevA.03 25-Dec-2016
                24-Jul-2020 
 ******************************************
 %mem=30GB
 %nproc=8
 Will use up to    8 processors via shared memory.
 ---------------------------------------------------------------
 #P uLC-wPBE/cc-pVDZ iop(3/107=0473100000, 3/108=0473100000) opt
 ---------------------------------------------------------------
 1/18=20,19=15,26=3,38=1/1,3;
 2/9=110,12=2,17=6,18=5,40=1/2;
 3/5=16,11=2,25=1,30=1,71=1,74=-41,107=473100000,108=473100000,116=2/1,2,3;
 4//1;
 5/5=2,38=5/2;
 6/7=2,8=2,9=2,10=2,28=1/1;
 7//1,2,3,16;
 1/18=20,19=15,26=3/3(2);
 2/9=110/2;
 99//99;
 2/9=110/2;
 3/5=16,11=2,25=1,30=1,71=1,74=-41,107=473100000,108=473100000,116=2/1,2,3;
 4/5=5,16=3,69=1/1;
 5/5=2,38=5/2;
 7//1,2,3,16;
 1/18=20,19=15,26=3/3(-5);
 2/9=110/2;
 6/7=2,8=2,9=2,10=2,19=2,28=1/1;
 99/9=1/99;
 Leave Link    1 at Fri Jul 24 14:19:56 2020, MaxMem=  4026531840 cpu:               1.6 elap:               0.2
 (Enter /opt/ohpc/pub/libs/gaussian/g16-A.03/sandybridge/g16/l101.exe)
 -------------
 H10 C11 S1 O1
 -------------
 Symbolic Z-matrix:
 Charge =  0 Multiplicity = 1
 C                     3.77468   0.31337   0.01672 
 C                     2.88805   1.13172  -0.824 
 C                     1.59727   0.83999  -0.85565 
 C                     1.01978  -0.12612  -0.05892 
 C                     1.81469  -0.87511   0.78621 
 C                     3.21071  -0.58496   0.81289 
 C                    -0.45977  -0.38994  -0.08788 
 C                    -1.53444   0.45449   0.1016 
 O                    -1.3005    1.80715   0.27852 
 C                    -2.38773   2.5838    0.44679 
 C                    -2.7726   -0.11423  -0.02761 
 C                    -2.60262  -1.51649  -0.20858 
 S                    -1.0072   -2.03926  -0.23376 
 H                     4.86494   0.53778   0.0413 
 H                     3.3202    1.82621  -1.48037 
 H                     0.89134   1.43641  -1.54061 
 H                     1.41768  -1.62433   1.48383 
 H                     3.91953  -1.1922    1.44571 
 H                    -2.05464   3.60972   0.57016 
 H                    -2.9438    2.36131   1.29752 
 H                    -2.98446   2.59599  -0.46305 
 H                    -3.70066   0.34406   0.02616 
 H                    -3.48001  -2.25377  -0.34444 
 
 ITRead=  0  0  0  0  0  0  0  0  0  0  0  0  0  0  0  0  0  0  0  0
 ITRead=  0  0  0
 MicOpt= -1 -1 -1 -1 -1 -1 -1 -1 -1 -1 -1 -1 -1 -1 -1 -1 -1 -1 -1 -1
 MicOpt= -1 -1 -1
 NAtoms=     23 NQM=       23 NQMF=       0 NMMI=      0 NMMIF=      0
                NMic=       0 NMicF=      0.
                    Isotopes and Nuclear Properties:
 (Nuclear quadrupole moments (NQMom) in fm**2, nuclear magnetic moments (NMagM)
  in nuclear magnetons)

  Atom         1           2           3           4           5           6           7           8           9          10
 IAtWgt=          12          12          12          12          12          12          12          12          16          12
 AtmWgt=  12.0000000  12.0000000  12.0000000  12.0000000  12.0000000  12.0000000  12.0000000  12.0000000  15.9949146  12.0000000
 NucSpn=           0           0           0           0           0           0           0           0           0           0
 AtZEff=  -0.0000000  -0.0000000  -0.0000000  -0.0000000  -0.0000000  -0.0000000  -0.0000000  -0.0000000  -0.0000000  -0.0000000
 NQMom=    0.0000000   0.0000000   0.0000000   0.0000000   0.0000000   0.0000000   0.0000000   0.0000000   0.0000000   0.0000000
 NMagM=    0.0000000   0.0000000   0.0000000   0.0000000   0.0000000   0.0000000   0.0000000   0.0000000   0.0000000   0.0000000
 AtZNuc=   6.0000000   6.0000000   6.0000000   6.0000000   6.0000000   6.0000000   6.0000000   6.0000000   8.0000000   6.0000000

  Atom        11          12          13          14          15          16          17          18          19          20
 IAtWgt=          12          12          32           1           1           1           1           1           1           1
 AtmWgt=  12.0000000  12.0000000  31.9720718   1.0078250   1.0078250   1.0078250   1.0078250   1.0078250   1.0078250   1.0078250
 NucSpn=           0           0           0           1           1           1           1           1           1           1
 AtZEff=  -0.0000000  -0.0000000  -0.0000000  -0.0000000  -0.0000000  -0.0000000  -0.0000000  -0.0000000  -0.0000000  -0.0000000
 NQMom=    0.0000000   0.0000000   0.0000000   0.0000000   0.0000000   0.0000000   0.0000000   0.0000000   0.0000000   0.0000000
 NMagM=    0.0000000   0.0000000   0.0000000   2.7928460   2.7928460   2.7928460   2.7928460   2.7928460   2.7928460   2.7928460
 AtZNuc=   6.0000000   6.0000000  16.0000000   1.0000000   1.0000000   1.0000000   1.0000000   1.0000000   1.0000000   1.0000000

  Atom        21          22          23
 IAtWgt=           1           1           1
 AtmWgt=   1.0078250   1.0078250   1.0078250
 NucSpn=           1           1           1
 AtZEff=  -0.0000000  -0.0000000  -0.0000000
 NQMom=    0.0000000   0.0000000   0.0000000
 NMagM=    2.7928460   2.7928460   2.7928460
 AtZNuc=   1.0000000   1.0000000   1.0000000
 Leave Link  101 at Fri Jul 24 14:19:57 2020, MaxMem=  4026531840 cpu:               2.8 elap:               0.4
 (Enter /opt/ohpc/pub/libs/gaussian/g16-A.03/sandybridge/g16/l103.exe)

 GradGradGradGradGradGradGradGradGradGradGradGradGradGradGradGradGradGrad
 Berny optimization.
 Initialization pass.
                           ----------------------------
                           !    Initial Parameters    !
                           ! (Angstroms and Degrees)  !
 --------------------------                            --------------------------
 ! Name  Definition              Value          Derivative Info.                !
 --------------------------------------------------------------------------------
 ! R1    R(1,2)                  1.4706         estimate D2E/DX2                !
 ! R2    R(1,6)                  1.3263         estimate D2E/DX2                !
 ! R3    R(1,14)                 1.1134         estimate D2E/DX2                !
 ! R4    R(2,3)                  1.3237         estimate D2E/DX2                !
 ! R5    R(2,15)                 1.0488         estimate D2E/DX2                !
 ! R6    R(3,4)                  1.379          estimate D2E/DX2                !
 ! R7    R(3,16)                 1.1503         estimate D2E/DX2                !
 ! R8    R(4,5)                  1.381          estimate D2E/DX2                !
 ! R9    R(4,7)                  1.5032         estimate D2E/DX2                !
 ! R10   R(5,6)                  1.4261         estimate D2E/DX2                !
 ! R11   R(5,17)                 1.098          estimate D2E/DX2                !
 ! R12   R(6,18)                 1.1277         estimate D2E/DX2                !
 ! R13   R(7,8)                  1.3798         estimate D2E/DX2                !
 ! R14   R(7,13)                 1.7439         estimate D2E/DX2                !
 ! R15   R(8,9)                  1.3841         estimate D2E/DX2                !
 ! R16   R(8,11)                 1.3686         estimate D2E/DX2                !
 ! R17   R(9,10)                 1.3467         estimate D2E/DX2                !
 ! R18   R(10,19)                1.0857         estimate D2E/DX2                !
 ! R19   R(10,20)                1.0404         estimate D2E/DX2                !
 ! R20   R(10,21)                1.0881         estimate D2E/DX2                !
 ! R21   R(11,12)                1.4241         estimate D2E/DX2                !
 ! R22   R(11,22)                1.0364         estimate D2E/DX2                !
 ! R23   R(12,13)                1.6791         estimate D2E/DX2                !
 ! R24   R(12,23)                1.1541         estimate D2E/DX2                !
 ! A1    A(2,1,6)              117.6289         estimate D2E/DX2                !
 ! A2    A(2,1,14)             119.3961         estimate D2E/DX2                !
 ! A3    A(6,1,14)             122.6615         estimate D2E/DX2                !
 ! A4    A(1,2,3)              118.6158         estimate D2E/DX2                !
 ! A5    A(1,2,15)             118.5456         estimate D2E/DX2                !
 ! A6    A(3,2,15)             122.1943         estimate D2E/DX2                !
 ! A7    A(2,3,4)              123.2944         estimate D2E/DX2                !
 ! A8    A(2,3,16)             119.8929         estimate D2E/DX2                !
 ! A9    A(4,3,16)             116.7618         estimate D2E/DX2                !
 ! A10   A(3,4,5)              119.5051         estimate D2E/DX2                !
 ! A11   A(3,4,7)              121.6024         estimate D2E/DX2                !
 ! A12   A(5,4,7)              118.8924         estimate D2E/DX2                !
 ! A13   A(4,5,6)              117.6826         estimate D2E/DX2                !
 ! A14   A(4,5,17)             123.4202         estimate D2E/DX2                !
 ! A15   A(6,5,17)             118.743          estimate D2E/DX2                !
 ! A16   A(1,6,5)              122.8773         estimate D2E/DX2                !
 ! A17   A(1,6,18)             115.7431         estimate D2E/DX2                !
 ! A18   A(5,6,18)             121.0815         estimate D2E/DX2                !
 ! A19   A(4,7,8)              131.0381         estimate D2E/DX2                !
 ! A20   A(4,7,13)             118.4624         estimate D2E/DX2                !
 ! A21   A(8,7,13)             110.2302         estimate D2E/DX2                !
 ! A22   A(7,8,9)              118.9471         estimate D2E/DX2                !
 ! A23   A(7,8,11)             115.9338         estimate D2E/DX2                !
 ! A24   A(9,8,11)             124.8251         estimate D2E/DX2                !
 ! A25   A(8,9,10)             116.3035         estimate D2E/DX2                !
 ! A26   A(9,10,19)            108.1481         estimate D2E/DX2                !
 ! A27   A(9,10,20)            114.2264         estimate D2E/DX2                !
 ! A28   A(9,10,21)            110.1651         estimate D2E/DX2                !
 ! A29   A(19,10,20)           105.8509         estimate D2E/DX2                !
 ! A30   A(19,10,21)           104.6359         estimate D2E/DX2                !
 ! A31   A(20,10,21)           113.1411         estimate D2E/DX2                !
 ! A32   A(8,11,12)            108.251          estimate D2E/DX2                !
 ! A33   A(8,11,22)            128.4199         estimate D2E/DX2                !
 ! A34   A(12,11,22)           123.2906         estimate D2E/DX2                !
 ! A35   A(11,12,13)           114.9548         estimate D2E/DX2                !
 ! A36   A(11,12,23)           123.5922         estimate D2E/DX2                !
 ! A37   A(13,12,23)           121.4477         estimate D2E/DX2                !
 ! A38   A(7,13,12)             90.1467         estimate D2E/DX2                !
 ! D1    D(6,1,2,3)             -7.1583         estimate D2E/DX2                !
 ! D2    D(6,1,2,15)          -178.1636         estimate D2E/DX2                !
 ! D3    D(14,1,2,3)           179.0978         estimate D2E/DX2                !
 ! D4    D(14,1,2,15)            8.0925         estimate D2E/DX2                !
 ! D5    D(2,1,6,5)              6.4136         estimate D2E/DX2                !
 ! D6    D(2,1,6,18)          -179.8038         estimate D2E/DX2                !
 ! D7    D(14,1,6,5)           179.9384         estimate D2E/DX2                !
 ! D8    D(14,1,6,18)           -6.2791         estimate D2E/DX2                !
 ! D9    D(1,2,3,4)              5.3297         estimate D2E/DX2                !
 ! D10   D(1,2,3,16)          -177.3505         estimate D2E/DX2                !
 ! D11   D(15,2,3,4)           175.9898         estimate D2E/DX2                !
 ! D12   D(15,2,3,16)           -6.6903         estimate D2E/DX2                !
 ! D13   D(2,3,4,5)             -2.5467         estimate D2E/DX2                !
 ! D14   D(2,3,4,7)            177.6009         estimate D2E/DX2                !
 ! D15   D(16,3,4,5)          -179.9444         estimate D2E/DX2                !
 ! D16   D(16,3,4,7)             0.2032         estimate D2E/DX2                !
 ! D17   D(3,4,5,6)              1.3858         estimate D2E/DX2                !
 ! D18   D(3,4,5,17)           176.8076         estimate D2E/DX2                !
 ! D19   D(7,4,5,6)           -178.7578         estimate D2E/DX2                !
 ! D20   D(7,4,5,17)            -3.336          estimate D2E/DX2                !
 ! D21   D(3,4,7,8)            -55.1267         estimate D2E/DX2                !
 ! D22   D(3,4,7,13)           131.4829         estimate D2E/DX2                !
 ! D23   D(5,4,7,8)            125.02           estimate D2E/DX2                !
 ! D24   D(5,4,7,13)           -48.3704         estimate D2E/DX2                !
 ! D25   D(4,5,6,1)             -3.6851         estimate D2E/DX2                !
 ! D26   D(4,5,6,18)          -177.1446         estimate D2E/DX2                !
 ! D27   D(17,5,6,1)          -179.3274         estimate D2E/DX2                !
 ! D28   D(17,5,6,18)            7.2132         estimate D2E/DX2                !
 ! D29   D(4,7,8,9)              4.3619         estimate D2E/DX2                !
 ! D30   D(4,7,8,11)           178.4363         estimate D2E/DX2                !
 ! D31   D(13,7,8,9)           178.1709         estimate D2E/DX2                !
 ! D32   D(13,7,8,11)           -7.7547         estimate D2E/DX2                !
 ! D33   D(4,7,13,12)         -179.5269         estimate D2E/DX2                !
 ! D34   D(8,7,13,12)            5.7821         estimate D2E/DX2                !
 ! D35   D(7,8,9,10)           179.419          estimate D2E/DX2                !
 ! D36   D(11,8,9,10)            5.9129         estimate D2E/DX2                !
 ! D37   D(7,8,11,12)            5.5871         estimate D2E/DX2                !
 ! D38   D(7,8,11,22)         -176.6402         estimate D2E/DX2                !
 ! D39   D(9,8,11,12)          179.2689         estimate D2E/DX2                !
 ! D40   D(9,8,11,22)           -2.9584         estimate D2E/DX2                !
 ! D41   D(8,9,10,19)         -179.8727         estimate D2E/DX2                !
 ! D42   D(8,9,10,20)           62.5669         estimate D2E/DX2                !
 ! D43   D(8,9,10,21)          -66.0667         estimate D2E/DX2                !
 ! D44   D(8,11,12,13)          -0.8618         estimate D2E/DX2                !
 ! D45   D(8,11,12,23)         179.9664         estimate D2E/DX2                !
 ! D46   D(22,11,12,13)       -178.7742         estimate D2E/DX2                !
 ! D47   D(22,11,12,23)          2.054          estimate D2E/DX2                !
 ! D48   D(11,12,13,7)          -2.8533         estimate D2E/DX2                !
 ! D49   D(23,12,13,7)         176.3381         estimate D2E/DX2                !
 --------------------------------------------------------------------------------
 Trust Radius=3.00D-01 FncErr=1.00D-07 GrdErr=1.00D-06 EigMax=2.50D+02 EigMin=1.00D-04
 Number of steps in this run=    121 maximum allowed number of steps=    138.
 GradGradGradGradGradGradGradGradGradGradGradGradGradGradGradGradGradGrad

 Leave Link  103 at Fri Jul 24 14:19:57 2020, MaxMem=  4026531840 cpu:               0.2 elap:               0.0
 (Enter /opt/ohpc/pub/libs/gaussian/g16-A.03/sandybridge/g16/l202.exe)
                          Input orientation:                          
 ---------------------------------------------------------------------
 Center     Atomic      Atomic             Coordinates (Angstroms)
 Number     Number       Type             X           Y           Z
 ---------------------------------------------------------------------
      1          6           0        3.774679    0.313373    0.016724
      2          6           0        2.888046    1.131724   -0.824000
      3          6           0        1.597266    0.839989   -0.855646
      4          6           0        1.019785   -0.126122   -0.058920
      5          6           0        1.814686   -0.875107    0.786206
      6          6           0        3.210708   -0.584960    0.812891
      7          6           0       -0.459773   -0.389943   -0.087876
      8          6           0       -1.534442    0.454488    0.101595
      9          8           0       -1.300501    1.807151    0.278516
     10          6           0       -2.387731    2.583796    0.446786
     11          6           0       -2.772603   -0.114232   -0.027608
     12          6           0       -2.602615   -1.516489   -0.208581
     13         16           0       -1.007205   -2.039256   -0.233763
     14          1           0        4.864935    0.537778    0.041297
     15          1           0        3.320199    1.826206   -1.480368
     16          1           0        0.891335    1.436413   -1.540605
     17          1           0        1.417676   -1.624327    1.483832
     18          1           0        3.919532   -1.192205    1.445711
     19          1           0       -2.054642    3.609723    0.570155
     20          1           0       -2.943799    2.361311    1.297516
     21          1           0       -2.984460    2.595988   -0.463048
     22          1           0       -3.700657    0.344062    0.026159
     23          1           0       -3.480009   -2.253765   -0.344438
 ---------------------------------------------------------------------
                    Distance matrix (angstroms):
                    1          2          3          4          5
     1  C    0.000000
     2  C    1.470589   0.000000
     3  C    2.404055   1.323716   0.000000
     4  C    2.790756   2.378639   1.378995   0.000000
     5  C    2.417883   2.787873   2.384220   1.380972   0.000000
     6  C    1.326253   2.393852   2.723544   2.402234   1.426105
     7  C    4.293737   3.750365   2.516667   1.503174   2.484465
     8  C    5.311674   4.568783   3.297350   2.624300   3.667857
     9  O    5.296920   4.383568   3.258647   3.038936   4.142058
    10  C    6.581419   5.617582   4.540638   4.382985   5.453396
    11  C    6.561380   5.850606   4.548839   3.792536   4.720640
    12  C    6.638451   6.126919   4.859082   3.882950   4.573130
    13  S    5.335168   5.057319   3.931928   2.792730   3.218485
    14  H    1.113382   2.238214   3.401985   3.903330   3.443131
    15  H    2.176350   1.048752   2.081201   3.335267   3.834191
    16  H    3.464125   2.143178   1.150317   2.157175   3.407308
    17  H    3.385639   3.883799   3.402685   2.187011   1.098012
    18  H    2.080805   3.408254   3.849542   3.436420   2.228424
    19  H    6.719613   5.702132   4.800080   4.878973   5.927232
    20  H    7.139498   6.326384   5.250886   4.872088   5.777458
    21  H    7.150278   6.063059   4.922385   4.858722   6.053176
    22  H    7.475405   6.689857   5.393655   4.744564   5.699391
    23  H    7.703969   7.227976   5.967526   4.985632   5.586846
                    6          7          8          9         10
     6  C    0.000000
     7  C    3.784421   0.000000
     8  C    4.909465   1.379810   0.000000
     9  O    5.134078   2.380817   1.384098   0.000000
    10  C    6.443413   3.584133   2.319744   1.346685   0.000000
    11  C    6.060366   2.329985   1.368641   2.439776   2.766321
    12  C    5.975439   2.423932   2.263173   3.602686   4.157886
    13  S    4.582712   1.743903   2.570837   3.891439   4.872536
    14  H    2.142980   5.406465   6.400203   6.299221   7.546640
    15  H    3.329376   4.597667   5.286942   4.944179   6.071930
    16  H    3.873549   2.696570   3.089562   2.872419   4.002310
    17  H    2.178396   2.742040   3.866142   4.540519   5.767572
    18  H    1.127670   4.708909   5.853553   6.132473   7.418733
    19  H    6.736334   4.355909   3.231975   1.975613   1.085677
    20  H    6.840565   3.957157   2.655652   2.011438   1.040410
    21  H    7.080011   3.928178   2.647149   2.001974   1.088132
    22  H    7.017763   3.324921   2.170339   2.822244   2.630040
    23  H    6.992139   3.558298   3.364344   4.650738   5.022062
                   11         12         13         14         15
    11  C    0.000000
    12  C    1.424069   0.000000
    13  S    2.620085   1.679063   0.000000
    14  H    7.665628   7.748984   6.418628   0.000000
    15  H    6.557290   6.918871   5.934833   2.522245   0.000000
    16  H    4.256536   4.764620   4.170439   4.370292   2.460680
    17  H    4.703539   4.363328   3.000391   4.317314   4.930746
    18  H    6.936668   6.736486   5.273601   2.420539   4.246404
    19  H    3.839353   5.213900   5.801239   7.589274   6.022831
    20  H    2.813108   4.173975   5.045810   8.116630   6.873183
    21  H    2.753141   4.137998   5.044561   8.130412   6.432436
    22  H    1.036440   2.173120   3.605891   8.567796   7.332039
    23  H    2.275611   1.154059   2.484557   8.807928   8.011200
                   16         17         18         19         20
    16  H    0.000000
    17  H    4.335018   0.000000
    18  H    4.999769   2.539186   0.000000
    19  H    4.225798   6.347210   7.714653   0.000000
    20  H    4.859899   5.911217   7.730120   1.696522   0.000000
    21  H    4.186589   6.401578   8.103016   1.720386   1.776601
    22  H    4.973366   5.674213   7.902058   3.697275   2.501695
    23  H    5.844389   5.265556   7.686661   6.103167   4.927724
                   21         22         23
    21  H    0.000000
    22  H    2.413179   0.000000
    23  H    4.876448   2.633388   0.000000
 Stoichiometry    C11H10OS
 Framework group  C1[X(C11H10OS)]
 Deg. of freedom    63
 Full point group                 C1      NOp   1
 Largest Abelian subgroup         C1      NOp   1
 Largest concise Abelian subgroup C1      NOp   1
                         Standard orientation:                         
 ---------------------------------------------------------------------
 Center     Atomic      Atomic             Coordinates (Angstroms)
 Number     Number       Type             X           Y           Z
 ---------------------------------------------------------------------
      1          6           0        3.774574    0.313793    0.028165
      2          6           0        2.891134    1.133315   -0.814777
      3          6           0        1.600323    0.842248   -0.850952
      4          6           0        1.019729   -0.124269   -0.056986
      5          6           0        1.811457   -0.874384    0.790114
      6          6           0        3.207526   -0.584953    0.821676
      7          6           0       -0.459855   -0.387331   -0.091073
      8          6           0       -1.534729    0.457468    0.095575
      9          8           0       -1.300708    1.809860    0.274449
     10          6           0       -2.388106    2.586898    0.439795
     11          6           0       -2.772735   -0.110525   -0.038225
     12          6           0       -2.602840   -1.512708   -0.219857
     13         16           0       -1.007614   -2.036245   -0.240211
     14          1           0        4.864853    0.537636    0.056545
     15          1           0        3.325802    1.828154   -1.469104
     16          1           0        0.896959    1.439619   -1.537725
     17          1           0        1.411769   -1.624014    1.485768
     18          1           0        3.913950   -1.193100    1.456310
     19          1           0       -2.054922    3.612551    0.565161
     20          1           0       -2.947099    2.363948    1.288484
     21          1           0       -2.981812    2.600178   -0.472000
     22          1           0       -3.700736    0.348182    0.012868
     23          1           0       -3.480143   -2.249430   -0.359262
 ---------------------------------------------------------------------
 Rotational constants (GHZ):           1.1875450           0.5259736           0.3926688
 Leave Link  202 at Fri Jul 24 14:19:57 2020, MaxMem=  4026531840 cpu:               0.1 elap:               0.0
 (Enter /opt/ohpc/pub/libs/gaussian/g16-A.03/sandybridge/g16/l301.exe)
 Standard basis: CC-pVDZ (5D, 7F)
 Ernie: Thresh=  0.10000D-02 Tol=  0.10000D-05 Strict=F.
 Ernie:  34 primitive shells out of 364 were deleted.
 There are   249 symmetry adapted cartesian basis functions of A   symmetry.
 There are   236 symmetry adapted basis functions of A   symmetry.
   236 basis functions,   537 primitive gaussians,   249 cartesian basis functions
    50 alpha electrons       50 beta electrons
       nuclear repulsion energy       834.8666305890 Hartrees.
 IExCor=32609 DFT=T Ex+Corr=LC-wPBE ExCW=0 ScaHFX=  1.000000
 ScaDFX=  1.000000  0.000000  1.000000  1.000000 ScalE2=  1.000000  1.000000
 IRadAn=      5 IRanWt=     -1 IRanGd=            0 ICorTp=0 IEmpDi=  4
 HFx  wShort=  0.000000 wLong=  0.473100 cFull=  0.000000 cShort=  0.000000 cLong=  1.000000
 DFx  wShort=  0.000000 wLong=  0.473100 cFull=  0.000000 cShort=  0.000000 cLong=  1.000000
 NAtoms=   23 NActive=   23 NUniq=   23 SFac= 1.00D+00 NAtFMM=   60 NAOKFM=F Big=F
 Integral buffers will be    131072 words long.
 Raffenetti 2 integral format.
 Two-electron integral symmetry is turned on.
 Leave Link  301 at Fri Jul 24 14:19:57 2020, MaxMem=  4026531840 cpu:               0.7 elap:               0.1
 (Enter /opt/ohpc/pub/libs/gaussian/g16-A.03/sandybridge/g16/l302.exe)
 NPDir=0 NMtPBC=     1 NCelOv=     1 NCel=       1 NClECP=     1 NCelD=      1
         NCelK=      1 NCelE2=     1 NClLst=     1 CellRange=     0.0.
 One-electron integrals computed using PRISM.
 One-electron integral symmetry used in STVInt
 NBasis=   236 RedAO= T EigKep=  3.44D-04  NBF=   236
 NBsUse=   236 1.00D-06 EigRej= -1.00D+00 NBFU=   236
 Precomputing XC quadrature grid using
 IXCGrd= 4 IRadAn=           5 IRanWt=          -1 IRanGd=           0 AccXCQ= 0.00D+00.
 Generated NRdTot=       0 NPtTot=           0 NUsed=           0 NTot=          32
 NSgBfM=   249   249   249   249   249 MxSgAt=    23 MxSgA2=    23.
 Leave Link  302 at Fri Jul 24 14:19:57 2020, MaxMem=  4026531840 cpu:               2.1 elap:               0.3
 (Enter /opt/ohpc/pub/libs/gaussian/g16-A.03/sandybridge/g16/l303.exe)
 DipDrv:  MaxL=1.
 Leave Link  303 at Fri Jul 24 14:19:57 2020, MaxMem=  4026531840 cpu:               0.3 elap:               0.1
 (Enter /opt/ohpc/pub/libs/gaussian/g16-A.03/sandybridge/g16/l401.exe)
 ExpMin= 1.22D-01 ExpMax= 1.11D+05 ExpMxC= 1.07D+03 IAcc=3 IRadAn=         5 AccDes= 0.00D+00
 Harris functional with IExCor=32609 and IRadAn=       5 diagonalized for initial guess.
 HarFok:  IExCor=32609 AccDes= 0.00D+00 IRadAn=         5 IDoV= 1 UseB2=F ITyADJ=14
 ICtDFT=  3500011 ScaDFX=  1.000000  1.000000  1.000000  1.000000
 FoFCou: FMM=F IPFlag=           0 FMFlag=      100000 FMFlg1=           0
         NFxFlg=           0 DoJE=T BraDBF=F KetDBF=T FulRan=T
         wScrn=  0.000000 ICntrl=       500 IOpCl=  0 I1Cent=   200000004 NGrid=           0
         NMat0=    1 NMatS0=      1 NMatT0=    0 NMatD0=    1 NMtDS0=    0 NMtDT0=    0
 Petite list used in FoFCou.
 Harris En= -898.025785380633    
 JPrj=0 DoOrth=F DoCkMO=F.
 Initial guess <Sx>= 0.0000 <Sy>= 0.0000 <Sz>= 0.0000 <S**2>=-0.0000 S=-0.0000
 Leave Link  401 at Fri Jul 24 14:19:59 2020, MaxMem=  4026531840 cpu:              11.9 elap:               1.5
 (Enter /opt/ohpc/pub/libs/gaussian/g16-A.03/sandybridge/g16/l502.exe)
 Integral symmetry usage will be decided dynamically.
 UHF open shell SCF:
 Using DIIS extrapolation, IDIIS=  1040.
 NGot=  4026531840 LenX=  4026403121 LenY=  4026340679
 Requested convergence on RMS density matrix=1.00D-08 within 128 cycles.
 Requested convergence on MAX density matrix=1.00D-06.
 Requested convergence on             energy=1.00D-06.
 No special actions if energy rises.
 Fock matrices will be formed incrementally for  20 cycles.
 Integral accuracy reduced to 1.0D-05 until final iterations.

 Cycle   1  Pass 0  IDiag  1:
 FoFJK:  IHMeth= 1 ICntrl=       0 DoSepK=T KAlg= 0 I1Cent=           0 FoldK=F
 IRaf=         1 NMat=       1 IRICut=       1 DoRegI=T DoRafI=F ISym2E= 0 IDoP0=0 IntGTp=1.
 FoFCou: FMM=F IPFlag=           0 FMFlag=      100000 FMFlg1=           0
         NFxFlg=           0 DoJE=T BraDBF=F KetDBF=F FulRan=T
         wScrn=  0.000000 ICntrl=       500 IOpCl=  0 I1Cent=           0 NGrid=           0
         NMat0=    1 NMatS0=      1 NMatT0=    0 NMatD0=    1 NMtDS0=    0 NMtDT0=    0
 Symmetry not used in FoFCou.
 E= -897.772988938377    
 DIIS: error= 3.04D-02 at cycle   1 NSaved=   1.
 NSaved= 1 IEnMin= 1 EnMin= -897.772988938377     IErMin= 1 ErrMin= 3.04D-02
 ErrMax= 3.04D-02  0.00D+00 EMaxC= 1.00D-01 BMatC= 1.15D+00 BMatP= 1.15D+00
 IDIUse=3 WtCom= 6.96D-01 WtEn= 3.04D-01
 Coeff-Com:  0.100D+01
 Coeff-En:   0.100D+01
 Coeff:      0.100D+01
 Gap=     0.434 Goal=   None    Shift=    0.000
 Gap=     0.434 Goal=   None    Shift=    0.000
 GapD=    0.434 DampG=2.000 DampE=0.500 DampFc=1.0000 IDamp=-1.
 RMSDP=4.58D-03 MaxDP=1.36D-01              OVMax= 2.05D-01

 Cycle   2  Pass 0  IDiag  1:
 RMSU=  4.48D-03    CP:  9.60D-01
 E= -897.952866958939     Delta-E=       -0.179878020562 Rises=F Damp=F
 DIIS: error= 1.59D-02 at cycle   2 NSaved=   2.
 NSaved= 2 IEnMin= 2 EnMin= -897.952866958939     IErMin= 2 ErrMin= 1.59D-02
 ErrMax= 1.59D-02  0.00D+00 EMaxC= 1.00D-01 BMatC= 5.99D-01 BMatP= 1.15D+00
 IDIUse=3 WtCom= 8.41D-01 WtEn= 1.59D-01
 Coeff-Com:  0.413D+00 0.587D+00
 Coeff-En:   0.248D+00 0.752D+00
 Coeff:      0.387D+00 0.613D+00
 Gap=     0.408 Goal=   None    Shift=    0.000
 Gap=     0.408 Goal=   None    Shift=    0.000
 RMSDP=2.05D-03 MaxDP=7.99D-02 DE=-1.80D-01 OVMax= 1.18D-01

 Cycle   3  Pass 0  IDiag  1:
 RMSU=  1.27D-03    CP:  9.65D-01  6.43D-01
 E= -898.107686833755     Delta-E=       -0.154819874816 Rises=F Damp=F
 DIIS: error= 2.85D-03 at cycle   3 NSaved=   3.
 NSaved= 3 IEnMin= 3 EnMin= -898.107686833755     IErMin= 3 ErrMin= 2.85D-03
 ErrMax= 2.85D-03  0.00D+00 EMaxC= 1.00D-01 BMatC= 1.47D-02 BMatP= 5.99D-01
 IDIUse=3 WtCom= 9.72D-01 WtEn= 2.85D-02
 Coeff-Com:  0.664D-01 0.163D+00 0.771D+00
 Coeff-En:   0.000D+00 0.000D+00 0.100D+01
 Coeff:      0.645D-01 0.158D+00 0.777D+00
 Gap=     0.359 Goal=   None    Shift=    0.000
 Gap=     0.359 Goal=   None    Shift=    0.000
 RMSDP=3.84D-04 MaxDP=1.78D-02 DE=-1.55D-01 OVMax= 3.52D-02

 Cycle   4  Pass 0  IDiag  1:
 RMSU=  3.04D-04    CP:  9.64D-01  6.88D-01  9.11D-01
 E= -898.111666625655     Delta-E=       -0.003979791900 Rises=F Damp=F
 DIIS: error= 8.84D-04 at cycle   4 NSaved=   4.
 NSaved= 4 IEnMin= 4 EnMin= -898.111666625655     IErMin= 4 ErrMin= 8.84D-04
 ErrMax= 8.84D-04  0.00D+00 EMaxC= 1.00D-01 BMatC= 2.44D-03 BMatP= 1.47D-02
 IDIUse=3 WtCom= 9.91D-01 WtEn= 8.84D-03
 Coeff-Com: -0.145D-01-0.611D-02 0.287D+00 0.733D+00
 Coeff-En:   0.000D+00 0.000D+00 0.000D+00 0.100D+01
 Coeff:     -0.144D-01-0.606D-02 0.285D+00 0.736D+00
 Gap=     0.360 Goal=   None    Shift=    0.000
 Gap=     0.360 Goal=   None    Shift=    0.000
 RMSDP=1.39D-04 MaxDP=3.96D-03 DE=-3.98D-03 OVMax= 1.02D-02

 Cycle   5  Pass 0  IDiag  1:
 RMSU=  9.67D-05    CP:  9.63D-01  6.87D-01  9.82D-01  8.75D-01
 E= -898.112425425297     Delta-E=       -0.000758799642 Rises=F Damp=F
 DIIS: error= 3.33D-04 at cycle   5 NSaved=   5.
 NSaved= 5 IEnMin= 5 EnMin= -898.112425425297     IErMin= 5 ErrMin= 3.33D-04
 ErrMax= 3.33D-04  0.00D+00 EMaxC= 1.00D-01 BMatC= 1.36D-04 BMatP= 2.44D-03
 IDIUse=3 WtCom= 9.97D-01 WtEn= 3.33D-03
 Coeff-Com: -0.867D-02-0.188D-01-0.103D-01 0.129D+00 0.909D+00
 Coeff-En:   0.000D+00 0.000D+00 0.000D+00 0.000D+00 0.100D+01
 Coeff:     -0.864D-02-0.187D-01-0.102D-01 0.128D+00 0.909D+00
 Gap=     0.361 Goal=   None    Shift=    0.000
 Gap=     0.361 Goal=   None    Shift=    0.000
 RMSDP=5.42D-05 MaxDP=2.37D-03 DE=-7.59D-04 OVMax= 4.99D-03

 Cycle   6  Pass 0  IDiag  1:
 RMSU=  3.57D-05    CP:  9.63D-01  6.87D-01  1.00D+00  9.60D-01  1.22D+00
 E= -898.112522371131     Delta-E=       -0.000096945834 Rises=F Damp=F
 DIIS: error= 1.24D-04 at cycle   6 NSaved=   6.
 NSaved= 6 IEnMin= 6 EnMin= -898.112522371131     IErMin= 6 ErrMin= 1.24D-04
 ErrMax= 1.24D-04  0.00D+00 EMaxC= 1.00D-01 BMatC= 2.42D-05 BMatP= 1.36D-04
 IDIUse=3 WtCom= 9.99D-01 WtEn= 1.24D-03
 Coeff-Com: -0.271D-03-0.379D-02-0.281D-01-0.642D-01 0.849D-01 0.101D+01
 Coeff-En:   0.000D+00 0.000D+00 0.000D+00 0.000D+00 0.000D+00 0.100D+01
 Coeff:     -0.271D-03-0.378D-02-0.280D-01-0.641D-01 0.848D-01 0.101D+01
 Gap=     0.361 Goal=   None    Shift=    0.000
 Gap=     0.361 Goal=   None    Shift=    0.000
 RMSDP=3.15D-05 MaxDP=1.33D-03 DE=-9.69D-05 OVMax= 3.10D-03

 Cycle   7  Pass 0  IDiag  1:
 RMSU=  1.46D-05    CP:  9.63D-01  6.86D-01  1.01D+00  9.87D-01  1.44D+00
                    CP:  1.41D+00
 E= -898.112549319449     Delta-E=       -0.000026948318 Rises=F Damp=F
 DIIS: error= 7.39D-05 at cycle   7 NSaved=   7.
 NSaved= 7 IEnMin= 7 EnMin= -898.112549319449     IErMin= 7 ErrMin= 7.39D-05
 ErrMax= 7.39D-05  0.00D+00 EMaxC= 1.00D-01 BMatC= 7.70D-06 BMatP= 2.42D-05
 IDIUse=1 WtCom= 1.00D+00 WtEn= 0.00D+00
 Coeff-Com:  0.202D-02 0.318D-02-0.405D-02-0.545D-01-0.228D+00 0.333D+00
 Coeff-Com:  0.948D+00
 Coeff:      0.202D-02 0.318D-02-0.405D-02-0.545D-01-0.228D+00 0.333D+00
 Coeff:      0.948D+00
 Gap=     0.361 Goal=   None    Shift=    0.000
 Gap=     0.361 Goal=   None    Shift=    0.000
 RMSDP=2.00D-05 MaxDP=7.99D-04 DE=-2.69D-05 OVMax= 1.99D-03

 Cycle   8  Pass 0  IDiag  1:
 RMSU=  7.09D-06    CP:  9.63D-01  6.86D-01  1.01D+00  1.00D+00  1.54D+00
                    CP:  1.80D+00  1.20D+00
 E= -898.112556636084     Delta-E=       -0.000007316635 Rises=F Damp=F
 DIIS: error= 3.16D-05 at cycle   8 NSaved=   8.
 NSaved= 8 IEnMin= 8 EnMin= -898.112556636084     IErMin= 8 ErrMin= 3.16D-05
 ErrMax= 3.16D-05  0.00D+00 EMaxC= 1.00D-01 BMatC= 8.52D-07 BMatP= 7.70D-06
 IDIUse=1 WtCom= 1.00D+00 WtEn= 0.00D+00
 Coeff-Com:  0.545D-03 0.128D-02 0.358D-02-0.406D-02-0.686D-01-0.598D-01
 Coeff-Com:  0.228D+00 0.899D+00
 Coeff:      0.545D-03 0.128D-02 0.358D-02-0.406D-02-0.686D-01-0.598D-01
 Coeff:      0.228D+00 0.899D+00
 Gap=     0.361 Goal=   None    Shift=    0.000
 Gap=     0.361 Goal=   None    Shift=    0.000
 RMSDP=6.19D-06 MaxDP=2.32D-04 DE=-7.32D-06 OVMax= 6.04D-04

 Initial convergence to 1.0D-05 achieved.  Increase integral accuracy.
 Cycle   9  Pass 1  IDiag  1:
 E= -898.112391898874     Delta-E=        0.000164737210 Rises=F Damp=F
 DIIS: error= 7.59D-05 at cycle   1 NSaved=   1.
 NSaved= 1 IEnMin= 1 EnMin= -898.112391898874     IErMin= 1 ErrMin= 7.59D-05
 ErrMax= 7.59D-05  0.00D+00 EMaxC= 1.00D-01 BMatC= 1.81D-06 BMatP= 1.81D-06
 IDIUse=1 WtCom= 1.00D+00 WtEn= 0.00D+00
 Coeff-Com:  0.100D+01
 Coeff:      0.100D+01
 Gap=     0.361 Goal=   None    Shift=    0.000
 Gap=     0.361 Goal=   None    Shift=    0.000
 RMSDP=6.19D-06 MaxDP=2.32D-04 DE= 1.65D-04 OVMax= 1.74D-04

 Cycle  10  Pass 1  IDiag  1:
 RMSU=  4.19D-05    CP:  1.00D+00
 E= -898.112392260817     Delta-E=       -0.000000361943 Rises=F Damp=F
 DIIS: error= 1.12D-05 at cycle   2 NSaved=   2.
 NSaved= 2 IEnMin= 2 EnMin= -898.112392260817     IErMin= 2 ErrMin= 1.12D-05
 ErrMax= 1.12D-05  0.00D+00 EMaxC= 1.00D-01 BMatC= 2.11D-07 BMatP= 1.81D-06
 IDIUse=1 WtCom= 1.00D+00 WtEn= 0.00D+00
 Coeff-Com:  0.139D+00 0.861D+00
 Coeff:      0.139D+00 0.861D+00
 Gap=     0.361 Goal=   None    Shift=    0.000
 Gap=     0.361 Goal=   None    Shift=    0.000
 RMSDP=2.59D-06 MaxDP=7.14D-05 DE=-3.62D-07 OVMax= 1.33D-04

 Cycle  11  Pass 1  IDiag  1:
 RMSU=  1.83D-06    CP:  1.00D+00  1.04D+00
 E= -898.112392293434     Delta-E=       -0.000000032617 Rises=F Damp=F
 DIIS: error= 1.12D-05 at cycle   3 NSaved=   3.
 NSaved= 3 IEnMin= 3 EnMin= -898.112392293434     IErMin= 3 ErrMin= 1.12D-05
 ErrMax= 1.12D-05  0.00D+00 EMaxC= 1.00D-01 BMatC= 1.50D-07 BMatP= 2.11D-07
 IDIUse=1 WtCom= 1.00D+00 WtEn= 0.00D+00
 Coeff-Com: -0.261D-01 0.457D+00 0.569D+00
 Coeff:     -0.261D-01 0.457D+00 0.569D+00
 Gap=     0.361 Goal=   None    Shift=    0.000
 Gap=     0.361 Goal=   None    Shift=    0.000
 RMSDP=9.82D-07 MaxDP=3.14D-05 DE=-3.26D-08 OVMax= 6.86D-05

 Cycle  12  Pass 1  IDiag  1:
 RMSU=  5.66D-07    CP:  1.00D+00  1.06D+00  6.51D-01
 E= -898.112392335632     Delta-E=       -0.000000042198 Rises=F Damp=F
 DIIS: error= 1.93D-06 at cycle   4 NSaved=   4.
 NSaved= 4 IEnMin= 4 EnMin= -898.112392335632     IErMin= 4 ErrMin= 1.93D-06
 ErrMax= 1.93D-06  0.00D+00 EMaxC= 1.00D-01 BMatC= 2.21D-09 BMatP= 1.50D-07
 IDIUse=1 WtCom= 1.00D+00 WtEn= 0.00D+00
 Coeff-Com: -0.319D-02-0.409D-01-0.266D-01 0.107D+01
 Coeff:     -0.319D-02-0.409D-01-0.266D-01 0.107D+01
 Gap=     0.361 Goal=   None    Shift=    0.000
 Gap=     0.361 Goal=   None    Shift=    0.000
 RMSDP=2.93D-07 MaxDP=8.98D-06 DE=-4.22D-08 OVMax= 2.73D-05

 Cycle  13  Pass 1  IDiag  1:
 RMSU=  1.80D-07    CP:  1.00D+00  1.06D+00  6.92D-01  1.37D+00
 E= -898.112392337477     Delta-E=       -0.000000001845 Rises=F Damp=F
 DIIS: error= 8.68D-07 at cycle   5 NSaved=   5.
 NSaved= 5 IEnMin= 5 EnMin= -898.112392337477     IErMin= 5 ErrMin= 8.68D-07
 ErrMax= 8.68D-07  0.00D+00 EMaxC= 1.00D-01 BMatC= 9.28D-10 BMatP= 2.21D-09
 IDIUse=1 WtCom= 1.00D+00 WtEn= 0.00D+00
 Coeff-Com:  0.925D-02-0.195D+00-0.235D+00 0.367D+00 0.105D+01
 Coeff:      0.925D-02-0.195D+00-0.235D+00 0.367D+00 0.105D+01
 Gap=     0.361 Goal=   None    Shift=    0.000
 Gap=     0.361 Goal=   None    Shift=    0.000
 RMSDP=2.51D-07 MaxDP=8.36D-06 DE=-1.85D-09 OVMax= 2.67D-05

 Cycle  14  Pass 1  IDiag  1:
 RMSU=  9.80D-08    CP:  1.00D+00  1.06D+00  7.16D-01  1.73D+00  1.61D+00
 E= -898.112392338554     Delta-E=       -0.000000001077 Rises=F Damp=F
 DIIS: error= 3.12D-07 at cycle   6 NSaved=   6.
 NSaved= 6 IEnMin= 6 EnMin= -898.112392338554     IErMin= 6 ErrMin= 3.12D-07
 ErrMax= 3.12D-07  0.00D+00 EMaxC= 1.00D-01 BMatC= 5.91D-11 BMatP= 9.28D-10
 IDIUse=1 WtCom= 1.00D+00 WtEn= 0.00D+00
 Coeff-Com:  0.206D-02-0.342D-01-0.425D-01-0.214D-01 0.199D+00 0.897D+00
 Coeff:      0.206D-02-0.342D-01-0.425D-01-0.214D-01 0.199D+00 0.897D+00
 Gap=     0.361 Goal=   None    Shift=    0.000
 Gap=     0.361 Goal=   None    Shift=    0.000
 RMSDP=5.20D-08 MaxDP=1.67D-06 DE=-1.08D-09 OVMax= 3.98D-06

 Cycle  15  Pass 1  IDiag  1:
 RMSU=  2.32D-08    CP:  1.00D+00  1.06D+00  7.20D-01  1.76D+00  1.81D+00
                    CP:  1.17D+00
 E= -898.112392338592     Delta-E=       -0.000000000038 Rises=F Damp=F
 DIIS: error= 1.32D-07 at cycle   7 NSaved=   7.
 NSaved= 7 IEnMin= 7 EnMin= -898.112392338592     IErMin= 7 ErrMin= 1.32D-07
 ErrMax= 1.32D-07  0.00D+00 EMaxC= 1.00D-01 BMatC= 1.30D-11 BMatP= 5.91D-11
 IDIUse=1 WtCom= 1.00D+00 WtEn= 0.00D+00
 Coeff-Com: -0.127D-02 0.293D-01 0.352D-01-0.787D-01-0.154D+00 0.275D+00
 Coeff-Com:  0.894D+00
 Coeff:     -0.127D-02 0.293D-01 0.352D-01-0.787D-01-0.154D+00 0.275D+00
 Coeff:      0.894D+00
 Gap=     0.361 Goal=   None    Shift=    0.000
 Gap=     0.361 Goal=   None    Shift=    0.000
 RMSDP=2.09D-08 MaxDP=6.84D-07 DE=-3.80D-11 OVMax= 1.85D-06

 Cycle  16  Pass 1  IDiag  1:
 RMSU=  1.16D-08    CP:  1.00D+00  1.06D+00  7.20D-01  1.77D+00  1.87D+00
                    CP:  1.28D+00  1.14D+00
 E= -898.112392338618     Delta-E=       -0.000000000026 Rises=F Damp=F
 DIIS: error= 4.00D-08 at cycle   8 NSaved=   8.
 NSaved= 8 IEnMin= 8 EnMin= -898.112392338618     IErMin= 8 ErrMin= 4.00D-08
 ErrMax= 4.00D-08  0.00D+00 EMaxC= 1.00D-01 BMatC= 1.11D-12 BMatP= 1.30D-11
 IDIUse=1 WtCom= 1.00D+00 WtEn= 0.00D+00
 Coeff-Com: -0.356D-03 0.686D-02 0.849D-02-0.789D-02-0.396D-01-0.656D-01
 Coeff-Com:  0.111D+00 0.987D+00
 Coeff:     -0.356D-03 0.686D-02 0.849D-02-0.789D-02-0.396D-01-0.656D-01
 Coeff:      0.111D+00 0.987D+00
 Gap=     0.361 Goal=   None    Shift=    0.000
 Gap=     0.361 Goal=   None    Shift=    0.000
 RMSDP=6.68D-09 MaxDP=1.64D-07 DE=-2.57D-11 OVMax= 5.68D-07

 SCF Done:  E(ULC-wPBE) =  -898.112392339     A.U. after   16 cycles
            NFock= 16  Conv=0.67D-08     -V/T= 2.0046
 <Sx>= 0.0000 <Sy>= 0.0000 <Sz>= 0.0000 <S**2>=-0.0000 S=-0.0000
 <L.S>= 0.000000000000E+00
 KE= 8.939745351869D+02 PE=-3.778595510492D+03 EE= 1.151641952378D+03
 Annihilation of the first spin contaminant:
 S**2 before annihilation    -0.0000,   after     0.0000
 Leave Link  502 at Fri Jul 24 14:21:11 2020, MaxMem=  4026531840 cpu:             571.4 elap:              71.7
 (Enter /opt/ohpc/pub/libs/gaussian/g16-A.03/sandybridge/g16/l601.exe)
 Copying SCF densities to generalized density rwf, IOpCl= 1 IROHF=0.

 **********************************************************************

            Population analysis using the SCF density.

 **********************************************************************

 Orbital symmetries:
 Alpha Orbitals:
       Occupied  (A) (A) (A) (A) (A) (A) (A) (A) (A) (A) (A) (A)
                 (A) (A) (A) (A) (A) (A) (A) (A) (A) (A) (A) (A)
                 (A) (A) (A) (A) (A) (A) (A) (A) (A) (A) (A) (A)
                 (A) (A) (A) (A) (A) (A) (A) (A) (A) (A) (A) (A)
                 (A) (A)
       Virtual   (A) (A) (A) (A) (A) (A) (A) (A) (A) (A) (A) (A)
                 (A) (A) (A) (A) (A) (A) (A) (A) (A) (A) (A) (A)
                 (A) (A) (A) (A) (A) (A) (A) (A) (A) (A) (A) (A)
                 (A) (A) (A) (A) (A) (A) (A) (A) (A) (A) (A) (A)
                 (A) (A) (A) (A) (A) (A) (A) (A) (A) (A) (A) (A)
                 (A) (A) (A) (A) (A) (A) (A) (A) (A) (A) (A) (A)
                 (A) (A) (A) (A) (A) (A) (A) (A) (A) (A) (A) (A)
                 (A) (A) (A) (A) (A) (A) (A) (A) (A) (A) (A) (A)
                 (A) (A) (A) (A) (A) (A) (A) (A) (A) (A) (A) (A)
                 (A) (A) (A) (A) (A) (A) (A) (A) (A) (A) (A) (A)
                 (A) (A) (A) (A) (A) (A) (A) (A) (A) (A) (A) (A)
                 (A) (A) (A) (A) (A) (A) (A) (A) (A) (A) (A) (A)
                 (A) (A) (A) (A) (A) (A) (A) (A) (A) (A) (A) (A)
                 (A) (A) (A) (A) (A) (A) (A) (A) (A) (A) (A) (A)
                 (A) (A) (A) (A) (A) (A) (A) (A) (A) (A) (A) (A)
                 (A) (A) (A) (A) (A) (A)
 Beta  Orbitals:
       Occupied  (A) (A) (A) (A) (A) (A) (A) (A) (A) (A) (A) (A)
                 (A) (A) (A) (A) (A) (A) (A) (A) (A) (A) (A) (A)
                 (A) (A) (A) (A) (A) (A) (A) (A) (A) (A) (A) (A)
                 (A) (A) (A) (A) (A) (A) (A) (A) (A) (A) (A) (A)
                 (A) (A)
       Virtual   (A) (A) (A) (A) (A) (A) (A) (A) (A) (A) (A) (A)
                 (A) (A) (A) (A) (A) (A) (A) (A) (A) (A) (A) (A)
                 (A) (A) (A) (A) (A) (A) (A) (A) (A) (A) (A) (A)
                 (A) (A) (A) (A) (A) (A) (A) (A) (A) (A) (A) (A)
                 (A) (A) (A) (A) (A) (A) (A) (A) (A) (A) (A) (A)
                 (A) (A) (A) (A) (A) (A) (A) (A) (A) (A) (A) (A)
                 (A) (A) (A) (A) (A) (A) (A) (A) (A) (A) (A) (A)
                 (A) (A) (A) (A) (A) (A) (A) (A) (A) (A) (A) (A)
                 (A) (A) (A) (A) (A) (A) (A) (A) (A) (A) (A) (A)
                 (A) (A) (A) (A) (A) (A) (A) (A) (A) (A) (A) (A)
                 (A) (A) (A) (A) (A) (A) (A) (A) (A) (A) (A) (A)
                 (A) (A) (A) (A) (A) (A) (A) (A) (A) (A) (A) (A)
                 (A) (A) (A) (A) (A) (A) (A) (A) (A) (A) (A) (A)
                 (A) (A) (A) (A) (A) (A) (A) (A) (A) (A) (A) (A)
                 (A) (A) (A) (A) (A) (A) (A) (A) (A) (A) (A) (A)
                 (A) (A) (A) (A) (A) (A)
 The electronic state is 1-A.
 Alpha  occ. eigenvalues --  -88.36683 -19.03985 -10.21926 -10.20240 -10.19611
 Alpha  occ. eigenvalues --  -10.18574 -10.17668 -10.16513 -10.16413 -10.16203
 Alpha  occ. eigenvalues --  -10.16005 -10.15663 -10.15583  -7.97540  -5.98693
 Alpha  occ. eigenvalues --   -5.98186  -5.97839  -1.24639  -1.07801  -1.04451
 Alpha  occ. eigenvalues --   -0.94714  -0.93159  -0.92194  -0.88981  -0.84236
 Alpha  occ. eigenvalues --   -0.77404  -0.75340  -0.72484  -0.70180  -0.68905
 Alpha  occ. eigenvalues --   -0.64056  -0.63258  -0.60646  -0.59592  -0.58146
 Alpha  occ. eigenvalues --   -0.56618  -0.55012  -0.54591  -0.53974  -0.52601
 Alpha  occ. eigenvalues --   -0.50757  -0.48709  -0.47104  -0.46149  -0.45085
 Alpha  occ. eigenvalues --   -0.44582  -0.38005  -0.36576  -0.35450  -0.31019
 Alpha virt. eigenvalues --    0.05090   0.08091   0.10183   0.14080   0.16205
 Alpha virt. eigenvalues --    0.16861   0.18256   0.18414   0.20196   0.21318
 Alpha virt. eigenvalues --    0.22089   0.22661   0.24442   0.24905   0.25507
 Alpha virt. eigenvalues --    0.26171   0.27947   0.29533   0.33702   0.35970
 Alpha virt. eigenvalues --    0.38550   0.39034   0.40418   0.42462   0.43450
 Alpha virt. eigenvalues --    0.45870   0.50246   0.52579   0.55006   0.55562
 Alpha virt. eigenvalues --    0.56727   0.57650   0.58201   0.58671   0.59105
 Alpha virt. eigenvalues --    0.59592   0.60119   0.61102   0.62049   0.62210
 Alpha virt. eigenvalues --    0.62931   0.63522   0.64572   0.65426   0.65943
 Alpha virt. eigenvalues --    0.67149   0.68644   0.69199   0.69687   0.70321
 Alpha virt. eigenvalues --    0.71448   0.72595   0.73686   0.75465   0.75742
 Alpha virt. eigenvalues --    0.76497   0.77327   0.78751   0.79238   0.79665
 Alpha virt. eigenvalues --    0.80353   0.81130   0.83223   0.84498   0.85416
 Alpha virt. eigenvalues --    0.85998   0.87951   0.88781   0.90345   0.92804
 Alpha virt. eigenvalues --    0.96406   0.97977   0.99964   1.01110   1.01871
 Alpha virt. eigenvalues --    1.03303   1.04751   1.06461   1.08415   1.08855
 Alpha virt. eigenvalues --    1.09988   1.10535   1.12882   1.13764   1.14906
 Alpha virt. eigenvalues --    1.16607   1.17299   1.17946   1.18404   1.19337
 Alpha virt. eigenvalues --    1.20867   1.22961   1.24175   1.26983   1.29197
 Alpha virt. eigenvalues --    1.30696   1.32778   1.35335   1.37934   1.39862
 Alpha virt. eigenvalues --    1.42518   1.43994   1.45381   1.46587   1.48877
 Alpha virt. eigenvalues --    1.53040   1.55497   1.57055   1.57775   1.60610
 Alpha virt. eigenvalues --    1.61407   1.63487   1.65223   1.65428   1.67079
 Alpha virt. eigenvalues --    1.69844   1.71601   1.72826   1.73422   1.75287
 Alpha virt. eigenvalues --    1.75726   1.77631   1.77741   1.78759   1.79239
 Alpha virt. eigenvalues --    1.80836   1.82337   1.82992   1.83236   1.84975
 Alpha virt. eigenvalues --    1.86588   1.87214   1.88647   1.90075   1.91835
 Alpha virt. eigenvalues --    1.93453   1.94196   1.95965   1.97905   1.98819
 Alpha virt. eigenvalues --    1.99815   2.01181   2.03884   2.03975   2.06227
 Alpha virt. eigenvalues --    2.08805   2.09673   2.11154   2.12369   2.12703
 Alpha virt. eigenvalues --    2.12976   2.14854   2.17720   2.19007   2.22508
 Alpha virt. eigenvalues --    2.23128   2.26071   2.28505   2.31425   2.36799
 Alpha virt. eigenvalues --    2.40085   2.44089   2.44166   2.51579   2.54937
 Alpha virt. eigenvalues --    2.57120   2.57372   2.59688   2.61310   2.62586
 Alpha virt. eigenvalues --    2.63671   2.65990   2.75201   2.76585   2.78317
 Alpha virt. eigenvalues --    2.82376   2.90040   2.95809   3.05470   3.08166
 Alpha virt. eigenvalues --    3.15551   3.22664   3.25022   3.53883   3.62223
 Alpha virt. eigenvalues --    3.70374
  Beta  occ. eigenvalues --  -88.36683 -19.03985 -10.21926 -10.20240 -10.19611
  Beta  occ. eigenvalues --  -10.18574 -10.17668 -10.16513 -10.16413 -10.16203
  Beta  occ. eigenvalues --  -10.16005 -10.15663 -10.15583  -7.97540  -5.98693
  Beta  occ. eigenvalues --   -5.98186  -5.97839  -1.24639  -1.07801  -1.04451
  Beta  occ. eigenvalues --   -0.94714  -0.93159  -0.92194  -0.88981  -0.84236
  Beta  occ. eigenvalues --   -0.77404  -0.75340  -0.72484  -0.70180  -0.68905
  Beta  occ. eigenvalues --   -0.64056  -0.63258  -0.60646  -0.59592  -0.58146
  Beta  occ. eigenvalues --   -0.56618  -0.55012  -0.54591  -0.53974  -0.52601
  Beta  occ. eigenvalues --   -0.50757  -0.48709  -0.47104  -0.46149  -0.45085
  Beta  occ. eigenvalues --   -0.44582  -0.38005  -0.36576  -0.35450  -0.31019
  Beta virt. eigenvalues --    0.05090   0.08091   0.10183   0.14080   0.16205
  Beta virt. eigenvalues --    0.16861   0.18256   0.18414   0.20196   0.21318
  Beta virt. eigenvalues --    0.22089   0.22661   0.24442   0.24905   0.25507
  Beta virt. eigenvalues --    0.26171   0.27947   0.29533   0.33702   0.35970
  Beta virt. eigenvalues --    0.38550   0.39034   0.40418   0.42462   0.43450
  Beta virt. eigenvalues --    0.45870   0.50246   0.52579   0.55006   0.55562
  Beta virt. eigenvalues --    0.56727   0.57650   0.58201   0.58671   0.59105
  Beta virt. eigenvalues --    0.59592   0.60119   0.61102   0.62049   0.62210
  Beta virt. eigenvalues --    0.62931   0.63522   0.64572   0.65426   0.65943
  Beta virt. eigenvalues --    0.67149   0.68644   0.69199   0.69687   0.70321
  Beta virt. eigenvalues --    0.71448   0.72595   0.73686   0.75465   0.75742
  Beta virt. eigenvalues --    0.76497   0.77327   0.78751   0.79238   0.79665
  Beta virt. eigenvalues --    0.80353   0.81130   0.83223   0.84498   0.85416
  Beta virt. eigenvalues --    0.85998   0.87951   0.88781   0.90345   0.92804
  Beta virt. eigenvalues --    0.96406   0.97977   0.99964   1.01110   1.01871
  Beta virt. eigenvalues --    1.03303   1.04751   1.06461   1.08415   1.08855
  Beta virt. eigenvalues --    1.09988   1.10535   1.12882   1.13764   1.14906
  Beta virt. eigenvalues --    1.16607   1.17299   1.17946   1.18404   1.19337
  Beta virt. eigenvalues --    1.20867   1.22961   1.24175   1.26983   1.29197
  Beta virt. eigenvalues --    1.30696   1.32778   1.35335   1.37934   1.39862
  Beta virt. eigenvalues --    1.42518   1.43994   1.45381   1.46587   1.48877
  Beta virt. eigenvalues --    1.53040   1.55497   1.57055   1.57775   1.60610
  Beta virt. eigenvalues --    1.61407   1.63487   1.65223   1.65428   1.67079
  Beta virt. eigenvalues --    1.69844   1.71601   1.72826   1.73422   1.75287
  Beta virt. eigenvalues --    1.75726   1.77631   1.77741   1.78759   1.79239
  Beta virt. eigenvalues --    1.80836   1.82337   1.82992   1.83236   1.84975
  Beta virt. eigenvalues --    1.86588   1.87214   1.88647   1.90075   1.91835
  Beta virt. eigenvalues --    1.93453   1.94196   1.95965   1.97905   1.98819
  Beta virt. eigenvalues --    1.99815   2.01181   2.03884   2.03975   2.06227
  Beta virt. eigenvalues --    2.08805   2.09673   2.11154   2.12369   2.12703
  Beta virt. eigenvalues --    2.12976   2.14854   2.17720   2.19007   2.22508
  Beta virt. eigenvalues --    2.23128   2.26071   2.28505   2.31425   2.36799
  Beta virt. eigenvalues --    2.40085   2.44089   2.44166   2.51579   2.54937
  Beta virt. eigenvalues --    2.57120   2.57372   2.59688   2.61310   2.62586
  Beta virt. eigenvalues --    2.63671   2.65990   2.75201   2.76585   2.78317
  Beta virt. eigenvalues --    2.82376   2.90040   2.95809   3.05470   3.08166
  Beta virt. eigenvalues --    3.15551   3.22664   3.25022   3.53883   3.62223
  Beta virt. eigenvalues --    3.70374
          Condensed to atoms (all electrons):
               1          2          3          4          5          6
     1  C    4.775752   0.478643  -0.022915  -0.060618  -0.023218   0.567333
     2  C    0.478643   4.696094   0.565003  -0.009423  -0.065912  -0.021430
     3  C   -0.022915   0.565003   4.724982   0.514602  -0.017444  -0.057834
     4  C   -0.060618  -0.009423   0.514602   4.892891   0.520822  -0.016788
     5  C   -0.023218  -0.065912  -0.017444   0.520822   4.832462   0.487575
     6  C    0.567333  -0.021430  -0.057834  -0.016788   0.487575   4.716978
     7  C    0.000271   0.007678  -0.086680   0.287614  -0.095195   0.006486
     8  C    0.000044   0.000052  -0.007793  -0.053691   0.004072  -0.000176
     9  O    0.000006  -0.000070   0.001455   0.006281  -0.000039  -0.000005
    10  C    0.000000   0.000001  -0.000108  -0.000254   0.000005  -0.000000
    11  C   -0.000000   0.000001   0.000331   0.011520  -0.000365   0.000002
    12  C    0.000000   0.000001  -0.000228   0.003291   0.000230  -0.000002
    13  S   -0.000003  -0.000084   0.004133  -0.052757  -0.008952   0.000065
    14  H    0.407195  -0.042693   0.007230  -0.000332   0.007652  -0.036369
    15  H   -0.046433   0.404750  -0.031980   0.007681   0.000575   0.007537
    16  H    0.007873  -0.046291   0.404748  -0.034740   0.010282  -0.001020
    17  H    0.007898  -0.000652   0.008620  -0.045612   0.414676  -0.036379
    18  H   -0.040233   0.007856   0.000020   0.007154  -0.044740   0.402141
    19  H   -0.000000   0.000002   0.000028  -0.000083  -0.000001   0.000000
    20  H    0.000000   0.000000   0.000006   0.000068   0.000001  -0.000000
    21  H   -0.000000  -0.000002   0.000008   0.000170  -0.000000   0.000000
    22  H    0.000000  -0.000000   0.000004  -0.000162   0.000002  -0.000000
    23  H    0.000000  -0.000000   0.000005  -0.000123  -0.000004  -0.000000
               7          8          9         10         11         12
     1  C    0.000271   0.000044   0.000006   0.000000  -0.000000   0.000000
     2  C    0.007678   0.000052  -0.000070   0.000001   0.000001   0.000001
     3  C   -0.086680  -0.007793   0.001455  -0.000108   0.000331  -0.000228
     4  C    0.287614  -0.053691   0.006281  -0.000254   0.011520   0.003291
     5  C   -0.095195   0.004072  -0.000039   0.000005  -0.000365   0.000230
     6  C    0.006486  -0.000176  -0.000005  -0.000000   0.000002  -0.000002
     7  C    5.508369   0.539903  -0.076825   0.007559  -0.073620  -0.111245
     8  C    0.539903   4.735205   0.453667  -0.082333   0.398958  -0.031086
     9  O   -0.076825   0.453667   7.648779   0.371060  -0.069294   0.004141
    10  C    0.007559  -0.082333   0.371060   4.431012  -0.001429   0.000271
    11  C   -0.073620   0.398958  -0.069294  -0.001429   4.845928   0.539121
    12  C   -0.111245  -0.031086   0.004141   0.000271   0.539121   5.060642
    13  S    0.371105  -0.084726   0.002320  -0.000239  -0.089428   0.387231
    14  H    0.000022   0.000000   0.000000  -0.000000   0.000000   0.000000
    15  H   -0.000406  -0.000011  -0.000008  -0.000000  -0.000000  -0.000000
    16  H   -0.020565   0.000651   0.005980  -0.000160   0.000085  -0.000086
    17  H   -0.014341   0.000671   0.000007   0.000001  -0.000028  -0.000158
    18  H   -0.000330  -0.000001   0.000000   0.000000  -0.000000  -0.000000
    19  H   -0.000354   0.004135  -0.019550   0.406954  -0.000232  -0.000010
    20  H    0.000674  -0.006273  -0.031779   0.404212   0.005706   0.000045
    21  H    0.000507  -0.012159  -0.037807   0.401174   0.010362  -0.000016
    22  H    0.006387  -0.034955  -0.005548   0.005655   0.415673  -0.038998
    23  H    0.002976   0.004230  -0.000046   0.000000  -0.016639   0.393692
              13         14         15         16         17         18
     1  C   -0.000003   0.407195  -0.046433   0.007873   0.007898  -0.040233
     2  C   -0.000084  -0.042693   0.404750  -0.046291  -0.000652   0.007856
     3  C    0.004133   0.007230  -0.031980   0.404748   0.008620   0.000020
     4  C   -0.052757  -0.000332   0.007681  -0.034740  -0.045612   0.007154
     5  C   -0.008952   0.007652   0.000575   0.010282   0.414676  -0.044740
     6  C    0.000065  -0.036369   0.007537  -0.001020  -0.036379   0.402141
     7  C    0.371105   0.000022  -0.000406  -0.020565  -0.014341  -0.000330
     8  C   -0.084726   0.000000  -0.000011   0.000651   0.000671  -0.000001
     9  O    0.002320   0.000000  -0.000008   0.005980   0.000007   0.000000
    10  C   -0.000239  -0.000000  -0.000000  -0.000160   0.000001   0.000000
    11  C   -0.089428   0.000000  -0.000000   0.000085  -0.000028  -0.000000
    12  C    0.387231   0.000000  -0.000000  -0.000086  -0.000158  -0.000000
    13  S   15.283828  -0.000000   0.000005   0.000302   0.004106  -0.000003
    14  H   -0.000000   0.654135  -0.009374  -0.000159  -0.000151  -0.014057
    15  H    0.000005  -0.009374   0.679323  -0.013148   0.000050  -0.000273
    16  H    0.000302  -0.000159  -0.013148   0.656001  -0.000127   0.000048
    17  H    0.004106  -0.000151   0.000050  -0.000127   0.649069  -0.010010
    18  H   -0.000003  -0.014057  -0.000273   0.000048  -0.010010   0.665272
    19  H    0.000020  -0.000000   0.000000  -0.000096  -0.000000  -0.000000
    20  H   -0.000102   0.000000  -0.000000   0.000073   0.000001  -0.000000
    21  H   -0.000092  -0.000000  -0.000000  -0.000079   0.000000   0.000000
    22  H    0.005484  -0.000000   0.000000   0.000010  -0.000000   0.000000
    23  H   -0.035163  -0.000000   0.000000   0.000001   0.000001   0.000000
              19         20         21         22         23
     1  C   -0.000000   0.000000  -0.000000   0.000000   0.000000
     2  C    0.000002   0.000000  -0.000002  -0.000000  -0.000000
     3  C    0.000028   0.000006   0.000008   0.000004   0.000005
     4  C   -0.000083   0.000068   0.000170  -0.000162  -0.000123
     5  C   -0.000001   0.000001  -0.000000   0.000002  -0.000004
     6  C    0.000000  -0.000000   0.000000  -0.000000  -0.000000
     7  C   -0.000354   0.000674   0.000507   0.006387   0.002976
     8  C    0.004135  -0.006273  -0.012159  -0.034955   0.004230
     9  O   -0.019550  -0.031779  -0.037807  -0.005548  -0.000046
    10  C    0.406954   0.404212   0.401174   0.005655   0.000000
    11  C   -0.000232   0.005706   0.010362   0.415673  -0.016639
    12  C   -0.000010   0.000045  -0.000016  -0.038998   0.393692
    13  S    0.000020  -0.000102  -0.000092   0.005484  -0.035163
    14  H   -0.000000   0.000000  -0.000000  -0.000000  -0.000000
    15  H    0.000000  -0.000000  -0.000000   0.000000   0.000000
    16  H   -0.000096   0.000073  -0.000079   0.000010   0.000001
    17  H   -0.000000   0.000001   0.000000  -0.000000   0.000001
    18  H   -0.000000  -0.000000   0.000000   0.000000   0.000000
    19  H    0.612474  -0.027945  -0.025809  -0.000204  -0.000000
    20  H   -0.027945   0.668908  -0.043825   0.000340   0.000008
    21  H   -0.025809  -0.043825   0.673356   0.001520   0.000006
    22  H   -0.000204   0.000340   0.001520   0.645779  -0.005559
    23  H   -0.000000   0.000008   0.000006  -0.005559   0.578536
          Atomic-Atomic Spin Densities.
               1          2          3          4          5          6
     1  C    0.000000  -0.000000   0.000000  -0.000000   0.000000  -0.000000
     2  C   -0.000000  -0.000000  -0.000000  -0.000000   0.000000   0.000000
     3  C    0.000000  -0.000000   0.000000  -0.000000   0.000000  -0.000000
     4  C   -0.000000  -0.000000  -0.000000  -0.000000  -0.000000   0.000000
     5  C    0.000000   0.000000   0.000000  -0.000000   0.000000  -0.000000
     6  C   -0.000000   0.000000  -0.000000   0.000000  -0.000000  -0.000000
     7  C   -0.000000   0.000000  -0.000000   0.000000  -0.000000   0.000000
     8  C    0.000000  -0.000000   0.000000   0.000000  -0.000000  -0.000000
     9  O    0.000000  -0.000000  -0.000000  -0.000000  -0.000000  -0.000000
    10  C    0.000000  -0.000000  -0.000000   0.000000   0.000000  -0.000000
    11  C   -0.000000   0.000000   0.000000  -0.000000   0.000000  -0.000000
    12  C   -0.000000   0.000000  -0.000000   0.000000  -0.000000   0.000000
    13  S    0.000000  -0.000000   0.000000   0.000000  -0.000000  -0.000000
    14  H   -0.000000   0.000000  -0.000000  -0.000000  -0.000000   0.000000
    15  H   -0.000000   0.000000  -0.000000   0.000000  -0.000000   0.000000
    16  H    0.000000  -0.000000   0.000000  -0.000000   0.000000  -0.000000
    17  H    0.000000  -0.000000   0.000000   0.000000  -0.000000   0.000000
    18  H    0.000000  -0.000000   0.000000  -0.000000   0.000000  -0.000000
    19  H   -0.000000   0.000000   0.000000   0.000000  -0.000000   0.000000
    20  H    0.000000  -0.000000  -0.000000   0.000000   0.000000  -0.000000
    21  H    0.000000  -0.000000   0.000000  -0.000000  -0.000000  -0.000000
    22  H    0.000000  -0.000000  -0.000000   0.000000   0.000000  -0.000000
    23  H    0.000000  -0.000000   0.000000  -0.000000  -0.000000  -0.000000
               7          8          9         10         11         12
     1  C   -0.000000   0.000000   0.000000   0.000000  -0.000000  -0.000000
     2  C    0.000000  -0.000000  -0.000000  -0.000000   0.000000   0.000000
     3  C   -0.000000   0.000000  -0.000000  -0.000000   0.000000  -0.000000
     4  C    0.000000   0.000000  -0.000000   0.000000  -0.000000   0.000000
     5  C   -0.000000  -0.000000  -0.000000   0.000000   0.000000  -0.000000
     6  C    0.000000  -0.000000  -0.000000  -0.000000  -0.000000   0.000000
     7  C    0.000000   0.000000  -0.000000  -0.000000   0.000000   0.000000
     8  C    0.000000  -0.000000  -0.000000  -0.000000   0.000000  -0.000000
     9  O   -0.000000  -0.000000   0.000000   0.000000   0.000000  -0.000000
    10  C   -0.000000  -0.000000   0.000000   0.000000  -0.000000   0.000000
    11  C    0.000000   0.000000   0.000000  -0.000000  -0.000000  -0.000000
    12  C    0.000000  -0.000000  -0.000000   0.000000  -0.000000   0.000000
    13  S   -0.000000   0.000000  -0.000000   0.000000   0.000000  -0.000000
    14  H   -0.000000   0.000000   0.000000  -0.000000  -0.000000  -0.000000
    15  H    0.000000   0.000000  -0.000000  -0.000000   0.000000   0.000000
    16  H   -0.000000   0.000000   0.000000   0.000000  -0.000000  -0.000000
    17  H   -0.000000   0.000000  -0.000000   0.000000   0.000000  -0.000000
    18  H    0.000000  -0.000000  -0.000000   0.000000  -0.000000   0.000000
    19  H    0.000000   0.000000   0.000000  -0.000000   0.000000  -0.000000
    20  H   -0.000000   0.000000   0.000000  -0.000000  -0.000000   0.000000
    21  H   -0.000000  -0.000000   0.000000   0.000000   0.000000   0.000000
    22  H    0.000000   0.000000   0.000000  -0.000000   0.000000  -0.000000
    23  H   -0.000000   0.000000  -0.000000   0.000000  -0.000000   0.000000
              13         14         15         16         17         18
     1  C    0.000000  -0.000000  -0.000000   0.000000   0.000000   0.000000
     2  C   -0.000000   0.000000   0.000000  -0.000000  -0.000000  -0.000000
     3  C    0.000000  -0.000000  -0.000000   0.000000   0.000000   0.000000
     4  C    0.000000  -0.000000   0.000000  -0.000000   0.000000  -0.000000
     5  C   -0.000000  -0.000000  -0.000000   0.000000  -0.000000   0.000000
     6  C   -0.000000   0.000000   0.000000  -0.000000   0.000000  -0.000000
     7  C   -0.000000  -0.000000   0.000000  -0.000000  -0.000000   0.000000
     8  C    0.000000   0.000000   0.000000   0.000000   0.000000  -0.000000
     9  O   -0.000000   0.000000  -0.000000   0.000000  -0.000000  -0.000000
    10  C    0.000000  -0.000000  -0.000000   0.000000   0.000000   0.000000
    11  C    0.000000  -0.000000   0.000000  -0.000000   0.000000  -0.000000
    12  C   -0.000000  -0.000000   0.000000  -0.000000  -0.000000   0.000000
    13  S   -0.000000   0.000000  -0.000000   0.000000   0.000000  -0.000000
    14  H    0.000000  -0.000000  -0.000000   0.000000  -0.000000   0.000000
    15  H   -0.000000  -0.000000   0.000000  -0.000000  -0.000000  -0.000000
    16  H    0.000000   0.000000  -0.000000   0.000000   0.000000  -0.000000
    17  H    0.000000  -0.000000  -0.000000   0.000000   0.000000   0.000000
    18  H   -0.000000   0.000000  -0.000000  -0.000000   0.000000  -0.000000
    19  H   -0.000000  -0.000000   0.000000  -0.000000  -0.000000   0.000000
    20  H   -0.000000   0.000000  -0.000000   0.000000   0.000000  -0.000000
    21  H    0.000000   0.000000  -0.000000   0.000000   0.000000  -0.000000
    22  H    0.000000   0.000000   0.000000   0.000000   0.000000   0.000000
    23  H   -0.000000  -0.000000  -0.000000   0.000000  -0.000000   0.000000
              19         20         21         22         23
     1  C   -0.000000   0.000000   0.000000   0.000000   0.000000
     2  C    0.000000  -0.000000  -0.000000  -0.000000  -0.000000
     3  C    0.000000  -0.000000   0.000000  -0.000000   0.000000
     4  C    0.000000   0.000000  -0.000000   0.000000  -0.000000
     5  C   -0.000000   0.000000  -0.000000   0.000000  -0.000000
     6  C    0.000000  -0.000000  -0.000000  -0.000000  -0.000000
     7  C    0.000000  -0.000000  -0.000000   0.000000  -0.000000
     8  C    0.000000   0.000000  -0.000000   0.000000   0.000000
     9  O    0.000000   0.000000   0.000000   0.000000  -0.000000
    10  C   -0.000000  -0.000000   0.000000  -0.000000   0.000000
    11  C    0.000000  -0.000000   0.000000   0.000000  -0.000000
    12  C   -0.000000   0.000000   0.000000  -0.000000   0.000000
    13  S   -0.000000  -0.000000   0.000000   0.000000  -0.000000
    14  H   -0.000000   0.000000   0.000000   0.000000  -0.000000
    15  H    0.000000  -0.000000  -0.000000   0.000000  -0.000000
    16  H   -0.000000   0.000000   0.000000   0.000000   0.000000
    17  H   -0.000000   0.000000   0.000000   0.000000  -0.000000
    18  H    0.000000  -0.000000  -0.000000   0.000000   0.000000
    19  H   -0.000000  -0.000000  -0.000000   0.000000  -0.000000
    20  H   -0.000000  -0.000000   0.000000  -0.000000   0.000000
    21  H   -0.000000   0.000000  -0.000000  -0.000000   0.000000
    22  H    0.000000  -0.000000  -0.000000  -0.000000  -0.000000
    23  H   -0.000000   0.000000   0.000000  -0.000000   0.000000
 Mulliken charges and spin densities:
               1          2
     1  C   -0.051597   0.000000
     2  C    0.026477  -0.000000
     3  C   -0.006193   0.000000
     4  C    0.022489  -0.000000
     5  C   -0.022482   0.000000
     6  C   -0.018113  -0.000000
     7  C   -0.259992   0.000000
     8  C    0.171617  -0.000000
     9  O   -0.252725   0.000000
    10  C    0.056620   0.000000
    11  C    0.023349   0.000000
    12  C   -0.206836  -0.000000
    13  S    0.212950  -0.000000
    14  H    0.026902  -0.000000
    15  H    0.001710   0.000000
    16  H    0.030418   0.000000
    17  H    0.022359   0.000000
    18  H    0.027156  -0.000000
    19  H    0.050670   0.000000
    20  H    0.029882  -0.000000
    21  H    0.032686  -0.000000
    22  H    0.004573  -0.000000
    23  H    0.078079  -0.000000
 Sum of Mulliken charges =  -0.00000  -0.00000
 Mulliken charges and spin densities with hydrogens summed into heavy atoms:
               1          2
     1  C   -0.024695   0.000000
     2  C    0.028187  -0.000000
     3  C    0.024225   0.000000
     4  C    0.022489  -0.000000
     5  C   -0.000122   0.000000
     6  C    0.009043  -0.000000
     7  C   -0.259992   0.000000
     8  C    0.171617  -0.000000
     9  O   -0.252725   0.000000
    10  C    0.169858   0.000000
    11  C    0.027922   0.000000
    12  C   -0.128757  -0.000000
    13  S    0.212950  -0.000000
 Electronic spatial extent (au):  <R**2>=           2826.4895
 Charge=             -0.0000 electrons
 Dipole moment (field-independent basis, Debye):
    X=             -1.4624    Y=              0.5425    Z=              0.1237  Tot=              1.5647
 Quadrupole moment (field-independent basis, Debye-Ang):
   XX=            -67.9549   YY=            -76.5004   ZZ=            -83.6932
   XY=             -1.5883   XZ=             -0.0304   YZ=             -2.6390
 Traceless Quadrupole moment (field-independent basis, Debye-Ang):
   XX=              8.0946   YY=             -0.4509   ZZ=             -7.6437
   XY=             -1.5883   XZ=             -0.0304   YZ=             -2.6390
 Octapole moment (field-independent basis, Debye-Ang**2):
  XXX=            -14.3507  YYY=             14.7884  ZZZ=              2.5724  XYY=            -21.1561
  XXY=             10.9365  XXZ=              3.6612  XZZ=              0.3960  YZZ=              5.7456
  YYZ=              0.6667  XYZ=            -13.3703
 Hexadecapole moment (field-independent basis, Debye-Ang**3):
 XXXX=          -2276.7872 YYYY=           -989.9863 ZZZZ=           -238.6392 XXXY=             10.7063
 XXXZ=             11.9083 YYYX=            -23.1688 YYYZ=              6.1870 ZZZX=             -6.5417
 ZZZY=             -6.0085 XXYY=           -538.8320 XXZZ=           -476.9382 YYZZ=           -208.4834
 XXYZ=            -14.0981 YYXZ=             -5.5318 ZZXY=            -13.0452
 N-N= 8.348666305890D+02 E-N=-3.778595514296D+03  KE= 8.939745351869D+02
                          Isotropic Fermi Contact Couplings
        Atom                 a.u.       MegaHertz       Gauss      10(-4) cm-1
     1  C(13)             -0.00000      -0.00000      -0.00000      -0.00000
     2  C(13)              0.00000       0.00000       0.00000       0.00000
     3  C(13)              0.00000       0.00000       0.00000       0.00000
     4  C(13)             -0.00000      -0.00000      -0.00000      -0.00000
     5  C(13)              0.00000       0.00000       0.00000       0.00000
     6  C(13)             -0.00000      -0.00000      -0.00000      -0.00000
     7  C(13)              0.00000       0.00000       0.00000       0.00000
     8  C(13)              0.00000       0.00000       0.00000       0.00000
     9  O(17)              0.00000      -0.00000      -0.00000      -0.00000
    10  C(13)             -0.00000      -0.00000      -0.00000      -0.00000
    11  C(13)             -0.00000      -0.00000      -0.00000      -0.00000
    12  C(13)             -0.00000      -0.00000      -0.00000      -0.00000
    13  S(33)              0.00000       0.00000       0.00000       0.00000
    14  H(1)              -0.00000      -0.00000      -0.00000      -0.00000
    15  H(1)               0.00000       0.00000       0.00000       0.00000
    16  H(1)              -0.00000      -0.00000      -0.00000      -0.00000
    17  H(1)               0.00000       0.00000       0.00000       0.00000
    18  H(1)               0.00000       0.00000       0.00000       0.00000
    19  H(1)               0.00000       0.00000       0.00000       0.00000
    20  H(1)               0.00000       0.00000       0.00000       0.00000
    21  H(1)              -0.00000      -0.00000      -0.00000      -0.00000
    22  H(1)               0.00000       0.00000       0.00000       0.00000
    23  H(1)              -0.00000      -0.00000      -0.00000      -0.00000
 --------------------------------------------------------
       Center         ----  Spin Dipole Couplings  ----
                      3XX-RR        3YY-RR        3ZZ-RR
 --------------------------------------------------------
     1   Atom       -0.000000     -0.000000      0.000000
     2   Atom        0.000000     -0.000000     -0.000000
     3   Atom        0.000000     -0.000000      0.000000
     4   Atom        0.000000     -0.000000     -0.000000
     5   Atom        0.000000     -0.000000     -0.000000
     6   Atom       -0.000000      0.000000      0.000000
     7   Atom       -0.000000      0.000000      0.000000
     8   Atom        0.000000     -0.000000      0.000000
     9   Atom        0.000000     -0.000000      0.000000
    10   Atom        0.000000     -0.000000      0.000000
    11   Atom        0.000000     -0.000000     -0.000000
    12   Atom       -0.000000     -0.000000      0.000000
    13   Atom       -0.000000      0.000000      0.000000
    14   Atom       -0.000000      0.000000      0.000000
    15   Atom       -0.000000      0.000000      0.000000
    16   Atom        0.000000     -0.000000     -0.000000
    17   Atom        0.000000     -0.000000     -0.000000
    18   Atom       -0.000000      0.000000      0.000000
    19   Atom       -0.000000      0.000000     -0.000000
    20   Atom       -0.000000      0.000000     -0.000000
    21   Atom       -0.000000      0.000000      0.000000
    22   Atom        0.000000     -0.000000      0.000000
    23   Atom        0.000000      0.000000     -0.000000
 --------------------------------------------------------
                        XY            XZ            YZ
 --------------------------------------------------------
     1   Atom        0.000000     -0.000000      0.000000
     2   Atom        0.000000     -0.000000     -0.000000
     3   Atom       -0.000000      0.000000     -0.000000
     4   Atom        0.000000     -0.000000     -0.000000
     5   Atom        0.000000     -0.000000      0.000000
     6   Atom        0.000000     -0.000000      0.000000
     7   Atom        0.000000      0.000000     -0.000000
     8   Atom       -0.000000     -0.000000     -0.000000
     9   Atom       -0.000000      0.000000      0.000000
    10   Atom        0.000000      0.000000     -0.000000
    11   Atom       -0.000000      0.000000     -0.000000
    12   Atom        0.000000      0.000000     -0.000000
    13   Atom       -0.000000     -0.000000     -0.000000
    14   Atom        0.000000     -0.000000      0.000000
    15   Atom        0.000000     -0.000000     -0.000000
    16   Atom       -0.000000      0.000000     -0.000000
    17   Atom       -0.000000      0.000000      0.000000
    18   Atom       -0.000000     -0.000000     -0.000000
    19   Atom        0.000000      0.000000     -0.000000
    20   Atom        0.000000     -0.000000     -0.000000
    21   Atom        0.000000     -0.000000      0.000000
    22   Atom        0.000000     -0.000000      0.000000
    23   Atom        0.000000      0.000000      0.000000
 --------------------------------------------------------


 ---------------------------------------------------------------------------------
              Anisotropic Spin Dipole Couplings in Principal Axis System
 ---------------------------------------------------------------------------------

       Atom             a.u.   MegaHertz   Gauss  10(-4) cm-1        Axes

              Baa    -0.0000    -0.000    -0.000    -0.000  0.7310 -0.5762  0.3656
     1 C(13)  Bbb     0.0000     0.000     0.000     0.000  0.3021  0.7536  0.5838
              Bcc     0.0000     0.000     0.000     0.000 -0.6119 -0.3163  0.7249
 
              Baa    -0.0000    -0.000    -0.000    -0.000 -0.2830  0.8292  0.4820
     2 C(13)  Bbb    -0.0000    -0.000    -0.000    -0.000  0.5365 -0.2797  0.7962
              Bcc     0.0000     0.000     0.000     0.000  0.7950  0.4840 -0.3657
 
              Baa    -0.0000    -0.000    -0.000    -0.000 -0.5663  0.3638  0.7396
     3 C(13)  Bbb    -0.0000    -0.000    -0.000    -0.000  0.5901  0.8054  0.0556
              Bcc     0.0000     0.000     0.000     0.000  0.5754 -0.4679  0.6708
 
              Baa    -0.0000    -0.000    -0.000    -0.000 -0.0941  0.8403  0.5338
     4 C(13)  Bbb    -0.0000    -0.000    -0.000    -0.000  0.0892 -0.5269  0.8452
              Bcc     0.0000     0.000     0.000     0.000  0.9916  0.1272 -0.0254
 
              Baa    -0.0000    -0.000    -0.000    -0.000 -0.4703  0.6724 -0.5715
     5 C(13)  Bbb     0.0000     0.000     0.000     0.000 -0.2444  0.5231  0.8165
              Bcc     0.0000     0.000     0.000     0.000  0.8480  0.5237 -0.0817
 
              Baa    -0.0000    -0.000    -0.000    -0.000  0.6161 -0.5384  0.5749
     6 C(13)  Bbb     0.0000     0.000     0.000     0.000  0.7821  0.5049 -0.3653
              Bcc     0.0000     0.000     0.000     0.000 -0.0936  0.6747  0.7322
 
              Baa    -0.0000    -0.000    -0.000    -0.000  0.8609 -0.5068 -0.0459
     7 C(13)  Bbb     0.0000     0.000     0.000     0.000  0.5084  0.8531  0.1174
              Bcc     0.0000     0.000     0.000     0.000 -0.0204 -0.1244  0.9920
 
              Baa    -0.0000    -0.000    -0.000    -0.000  0.0919  0.9526  0.2900
     8 C(13)  Bbb     0.0000     0.000     0.000     0.000  0.9709 -0.1504  0.1862
              Bcc     0.0000     0.000     0.000     0.000 -0.2209 -0.2645  0.9387
 
              Baa    -0.0000     0.000     0.000     0.000  0.2186  0.9671 -0.1302
     9 O(17)  Bbb     0.0000    -0.000    -0.000    -0.000  0.1599  0.0961  0.9824
              Bcc     0.0000    -0.000    -0.000    -0.000  0.9626 -0.2356 -0.1336
 
              Baa    -0.0000    -0.000    -0.000    -0.000 -0.5505  0.7466  0.3734
    10 C(13)  Bbb     0.0000     0.000     0.000     0.000  0.4258 -0.1336  0.8949
              Bcc     0.0000     0.000     0.000     0.000  0.7181  0.6517 -0.2443
 
[...]
    20  H   -0.000000  -0.000000  -0.000000  -0.000000   0.000000   0.000000
    21  H    0.000000   0.000000   0.000000  -0.000000   0.000000  -0.000000
    22  H    0.000000  -0.000000   0.000000  -0.000000  -0.000000   0.000000
    23  H   -0.000000   0.000000   0.000000   0.000000   0.000000  -0.000000
              13         14         15         16         17         18
     1  C    0.000000   0.000000  -0.000000  -0.000000  -0.000000   0.000000
     2  C   -0.000000  -0.000000  -0.000000   0.000000  -0.000000   0.000000
     3  C    0.000000   0.000000   0.000000  -0.000000   0.000000  -0.000000
     4  C   -0.000000  -0.000000  -0.000000   0.000000   0.000000   0.000000
     5  C   -0.000000   0.000000   0.000000  -0.000000  -0.000000  -0.000000
     6  C   -0.000000  -0.000000   0.000000   0.000000   0.000000  -0.000000
     7  C    0.000000  -0.000000  -0.000000   0.000000   0.000000  -0.000000
     8  C   -0.000000   0.000000   0.000000  -0.000000  -0.000000  -0.000000
     9  O    0.000000  -0.000000   0.000000   0.000000   0.000000   0.000000
    10  C   -0.000000  -0.000000  -0.000000  -0.000000   0.000000  -0.000000
    11  C   -0.000000  -0.000000   0.000000  -0.000000  -0.000000   0.000000
    12  C   -0.000000  -0.000000  -0.000000  -0.000000   0.000000  -0.000000
    13  S    0.000000   0.000000  -0.000000   0.000000   0.000000  -0.000000
    14  H    0.000000   0.000000  -0.000000   0.000000   0.000000  -0.000000
    15  H   -0.000000  -0.000000   0.000000   0.000000  -0.000000   0.000000
    16  H    0.000000   0.000000   0.000000   0.000000  -0.000000  -0.000000
    17  H    0.000000   0.000000  -0.000000  -0.000000  -0.000000   0.000000
    18  H   -0.000000  -0.000000   0.000000  -0.000000   0.000000   0.000000
    19  H    0.000000   0.000000  -0.000000  -0.000000  -0.000000  -0.000000
    20  H   -0.000000  -0.000000  -0.000000   0.000000   0.000000  -0.000000
    21  H   -0.000000  -0.000000   0.000000   0.000000  -0.000000   0.000000
    22  H   -0.000000   0.000000   0.000000   0.000000   0.000000   0.000000
    23  H    0.000000  -0.000000  -0.000000  -0.000000   0.000000  -0.000000
              19         20         21         22         23
     1  C    0.000000  -0.000000  -0.000000   0.000000   0.000000
     2  C    0.000000   0.000000  -0.000000  -0.000000   0.000000
     3  C    0.000000  -0.000000  -0.000000  -0.000000   0.000000
     4  C   -0.000000   0.000000   0.000000   0.000000  -0.000000
     5  C   -0.000000   0.000000  -0.000000   0.000000  -0.000000
     6  C   -0.000000   0.000000   0.000000  -0.000000  -0.000000
     7  C    0.000000  -0.000000   0.000000   0.000000  -0.000000
     8  C   -0.000000  -0.000000   0.000000  -0.000000   0.000000
     9  O   -0.000000  -0.000000   0.000000   0.000000   0.000000
    10  C    0.000000  -0.000000  -0.000000  -0.000000   0.000000
    11  C   -0.000000   0.000000   0.000000  -0.000000   0.000000
    12  C   -0.000000   0.000000  -0.000000   0.000000  -0.000000
    13  S    0.000000  -0.000000  -0.000000  -0.000000   0.000000
    14  H    0.000000  -0.000000  -0.000000   0.000000  -0.000000
    15  H   -0.000000  -0.000000   0.000000   0.000000  -0.000000
    16  H   -0.000000   0.000000   0.000000   0.000000  -0.000000
    17  H   -0.000000   0.000000  -0.000000   0.000000   0.000000
    18  H   -0.000000  -0.000000   0.000000   0.000000  -0.000000
    19  H    0.000000  -0.000000   0.000000   0.000000  -0.000000
    20  H   -0.000000   0.000000   0.000000  -0.000000   0.000000
    21  H    0.000000   0.000000  -0.000000  -0.000000  -0.000000
    22  H    0.000000  -0.000000  -0.000000  -0.000000   0.000000
    23  H   -0.000000   0.000000  -0.000000   0.000000   0.000000
 Mulliken charges and spin densities:
               1          2
     1  C   -0.014443   0.000000
     2  C    0.000961  -0.000000
     3  C   -0.011249   0.000000
     4  C    0.032305   0.000000
     5  C   -0.028529   0.000000
     6  C   -0.002333  -0.000000
     7  C   -0.210828  -0.000000
     8  C    0.143912   0.000000
     9  O   -0.268409   0.000000
    10  C    0.032405   0.000000
    11  C   -0.008400   0.000000
    12  C   -0.144039  -0.000000
    13  S    0.164605   0.000000
    14  H    0.011859   0.000000
    15  H    0.012943  -0.000000
    16  H    0.012855   0.000000
    17  H    0.014288  -0.000000
    18  H    0.013536   0.000000
    19  H    0.067681   0.000000
    20  H    0.053850   0.000000
    21  H    0.052941  -0.000000
    22  H    0.023194  -0.000000
    23  H    0.050893   0.000000
 Sum of Mulliken charges =  -0.00000   0.00000
 Mulliken charges and spin densities with hydrogens summed into heavy atoms:
               1          2
     1  C   -0.002583   0.000000
     2  C    0.013904  -0.000000
     3  C    0.001607   0.000000
     4  C    0.032305   0.000000
     5  C   -0.014241   0.000000
     6  C    0.011204  -0.000000
     7  C   -0.210828  -0.000000
     8  C    0.143912   0.000000
     9  O   -0.268409   0.000000
    10  C    0.206877   0.000000
    11  C    0.014794   0.000000
    12  C   -0.093146  -0.000000
    13  S    0.164605   0.000000
 Electronic spatial extent (au):  <R**2>=           2824.7584
 Charge=              0.0000 electrons
 Dipole moment (field-independent basis, Debye):
    X=             -2.0221    Y=              1.0785    Z=              0.2733  Tot=              2.3080
 Quadrupole moment (field-independent basis, Debye-Ang):
   XX=            -67.2622   YY=            -73.8169   ZZ=            -86.2528
   XY=             -2.8340   XZ=             -0.0575   YZ=             -1.7376
 Traceless Quadrupole moment (field-independent basis, Debye-Ang):
   XX=              8.5151   YY=              1.9604   ZZ=            -10.4755
   XY=             -2.8340   XZ=             -0.0575   YZ=             -1.7376
 Octapole moment (field-independent basis, Debye-Ang**2):
  XXX=            -21.6577  YYY=             20.3576  ZZZ=              1.7860  XYY=            -18.1298
  XXY=              8.8273  XXZ=              4.6917  XZZ=             -5.3807  YZZ=              5.3363
  YYZ=              1.3025  XYZ=            -10.2765
 Hexadecapole moment (field-independent basis, Debye-Ang**3):
 XXXX=          -2290.4814 YYYY=          -1040.7134 ZZZZ=           -158.5077 XXXY=             -7.5867
 XXXZ=             11.6410 YYYX=            -25.4855 YYYZ=             -0.1709 ZZZX=             -3.7394
 ZZZY=              1.4849 XXYY=           -525.9567 XXZZ=           -482.3669 YYZZ=           -214.4375
 XXYZ=            -12.2858 YYXZ=             -4.1928 ZZXY=            -13.7333
 N-N= 8.370804740864D+02 E-N=-3.783102584750D+03  KE= 8.939337432482D+02
                          Isotropic Fermi Contact Couplings
        Atom                 a.u.       MegaHertz       Gauss      10(-4) cm-1
     1  C(13)              0.00000       0.00000       0.00000       0.00000
     2  C(13)             -0.00000      -0.00000      -0.00000      -0.00000
     3  C(13)              0.00000       0.00000       0.00000       0.00000
     4  C(13)              0.00000       0.00000       0.00000       0.00000
     5  C(13)              0.00000       0.00000       0.00000       0.00000
     6  C(13)             -0.00000      -0.00000      -0.00000      -0.00000
     7  C(13)             -0.00000      -0.00000      -0.00000      -0.00000
     8  C(13)              0.00000       0.00000       0.00000       0.00000
     9  O(17)              0.00000      -0.00000      -0.00000      -0.00000
    10  C(13)             -0.00000      -0.00000      -0.00000      -0.00000
    11  C(13)              0.00000       0.00000       0.00000       0.00000
    12  C(13)             -0.00000      -0.00000      -0.00000      -0.00000
    13  S(33)             -0.00000      -0.00000      -0.00000      -0.00000
    14  H(1)               0.00000       0.00000       0.00000       0.00000
    15  H(1)               0.00000       0.00000       0.00000       0.00000
    16  H(1)              -0.00000      -0.00000      -0.00000      -0.00000
    17  H(1)              -0.00000      -0.00000      -0.00000      -0.00000
    18  H(1)               0.00000       0.00000       0.00000       0.00000
    19  H(1)               0.00000       0.00000       0.00000       0.00000
    20  H(1)               0.00000       0.00000       0.00000       0.00000
    21  H(1)               0.00000       0.00000       0.00000       0.00000
    22  H(1)              -0.00000      -0.00000      -0.00000      -0.00000
    23  H(1)               0.00000       0.00000       0.00000       0.00000
 --------------------------------------------------------
       Center         ----  Spin Dipole Couplings  ----
                      3XX-RR        3YY-RR        3ZZ-RR
 --------------------------------------------------------
     1   Atom       -0.000000      0.000000     -0.000000
     2   Atom       -0.000000     -0.000000      0.000000
     3   Atom        0.000000     -0.000000     -0.000000
     4   Atom        0.000000     -0.000000     -0.000000
     5   Atom       -0.000000      0.000000     -0.000000
     6   Atom       -0.000000     -0.000000      0.000000
     7   Atom       -0.000000      0.000000     -0.000000
     8   Atom       -0.000000      0.000000     -0.000000
     9   Atom       -0.000000      0.000000      0.000000
    10   Atom       -0.000000     -0.000000      0.000000
    11   Atom        0.000000     -0.000000     -0.000000
    12   Atom       -0.000000      0.000000      0.000000
    13   Atom       -0.000000      0.000000     -0.000000
    14   Atom        0.000000      0.000000     -0.000000
    15   Atom        0.000000     -0.000000     -0.000000
    16   Atom       -0.000000     -0.000000      0.000000
    17   Atom        0.000000     -0.000000      0.000000
    18   Atom        0.000000      0.000000     -0.000000
    19   Atom        0.000000     -0.000000      0.000000
    20   Atom       -0.000000      0.000000     -0.000000
    21   Atom       -0.000000      0.000000      0.000000
    22   Atom       -0.000000     -0.000000      0.000000
    23   Atom        0.000000     -0.000000      0.000000
 --------------------------------------------------------
                        XY            XZ            YZ
 --------------------------------------------------------
     1   Atom        0.000000      0.000000     -0.000000
     2   Atom        0.000000     -0.000000      0.000000
     3   Atom        0.000000      0.000000      0.000000
     4   Atom        0.000000      0.000000     -0.000000
     5   Atom        0.000000     -0.000000      0.000000
     6   Atom        0.000000     -0.000000      0.000000
     7   Atom       -0.000000      0.000000      0.000000
     8   Atom       -0.000000      0.000000      0.000000
     9   Atom        0.000000     -0.000000     -0.000000
    10   Atom        0.000000      0.000000      0.000000
    11   Atom       -0.000000     -0.000000     -0.000000
    12   Atom       -0.000000     -0.000000     -0.000000
    13   Atom        0.000000     -0.000000      0.000000
    14   Atom        0.000000     -0.000000     -0.000000
    15   Atom       -0.000000      0.000000     -0.000000
    16   Atom        0.000000     -0.000000      0.000000
    17   Atom       -0.000000      0.000000      0.000000
    18   Atom       -0.000000      0.000000     -0.000000
    19   Atom        0.000000      0.000000     -0.000000
    20   Atom       -0.000000      0.000000      0.000000
    21   Atom       -0.000000      0.000000     -0.000000
    22   Atom        0.000000      0.000000     -0.000000
    23   Atom       -0.000000     -0.000000     -0.000000
 --------------------------------------------------------


 ---------------------------------------------------------------------------------
              Anisotropic Spin Dipole Couplings in Principal Axis System
 ---------------------------------------------------------------------------------

       Atom             a.u.   MegaHertz   Gauss  10(-4) cm-1        Axes

              Baa    -0.0000    -0.000    -0.000    -0.000 -0.4568  0.2156  0.8631
     1 C(13)  Bbb     0.0000     0.000     0.000     0.000  0.8712  0.3045  0.3850
              Bcc     0.0000     0.000     0.000     0.000 -0.1798  0.9278 -0.3269
 
              Baa    -0.0000    -0.000    -0.000    -0.000 -0.4622  0.8099 -0.3611
     2 C(13)  Bbb    -0.0000    -0.000    -0.000    -0.000  0.8861  0.4374 -0.1530
              Bcc     0.0000     0.000     0.000     0.000 -0.0340  0.3907  0.9199
 
              Baa    -0.0000    -0.000    -0.000    -0.000 -0.1447  0.8385 -0.5253
     3 C(13)  Bbb     0.0000     0.000     0.000     0.000 -0.4803  0.4046  0.7782
              Bcc     0.0000     0.000     0.000     0.000  0.8651  0.3649  0.3442
 
              Baa    -0.0000    -0.000    -0.000    -0.000 -0.1193  0.4705  0.8743
     4 C(13)  Bbb    -0.0000    -0.000    -0.000    -0.000 -0.2754  0.8304 -0.4844
              Bcc     0.0000     0.000     0.000     0.000  0.9539  0.2986 -0.0305
 
              Baa    -0.0000    -0.000    -0.000    -0.000  0.5233 -0.4838  0.7015
     5 C(13)  Bbb    -0.0000    -0.000    -0.000    -0.000  0.8421  0.1680 -0.5124
              Bcc     0.0000     0.000     0.000     0.000  0.1301  0.8589  0.4953
 
              Baa    -0.0000    -0.000    -0.000    -0.000 -0.3250  0.8537 -0.4068
     6 C(13)  Bbb    -0.0000    -0.000    -0.000    -0.000  0.9457  0.2903 -0.1461
              Bcc     0.0000     0.000     0.000     0.000  0.0066  0.4322  0.9017
 
              Baa    -0.0000    -0.000    -0.000    -0.000  0.9891  0.0962 -0.1117
     7 C(13)  Bbb    -0.0000    -0.000    -0.000    -0.000  0.1137 -0.0160  0.9934
              Bcc     0.0000     0.000     0.000     0.000 -0.0938  0.9952  0.0268
 
              Baa    -0.0000    -0.000    -0.000    -0.000 -0.2233 -0.1909  0.9559
     8 C(13)  Bbb    -0.0000    -0.000    -0.000    -0.000  0.9324  0.2440  0.2665
              Bcc     0.0000     0.000     0.000     0.000 -0.2842  0.9508  0.1235
 
              Baa    -0.0000     0.000     0.000     0.000  0.8152 -0.5711 -0.0960
     9 O(17)  Bbb     0.0000    -0.000    -0.000    -0.000  0.4284  0.4831  0.7636
              Bcc     0.0000    -0.000    -0.000    -0.000  0.3897  0.6636 -0.6385
 
              Baa    -0.0000    -0.000    -0.000    -0.000  0.2123  0.8034 -0.5563
    10 C(13)  Bbb    -0.0000    -0.000    -0.000    -0.000  0.9655 -0.2604 -0.0076
              Bcc     0.0000     0.000     0.000     0.000  0.1509  0.5354  0.8310
 
              Baa    -0.0000    -0.000    -0.000    -0.000  0.6112  0.7173  0.3344
    11 C(13)  Bbb    -0.0000    -0.000    -0.000    -0.000 -0.1312 -0.3249  0.9366
              Bcc     0.0000     0.000     0.000     0.000  0.7805 -0.6163 -0.1045
 
              Baa    -0.0000    -0.000    -0.000    -0.000  0.8641  0.4798  0.1517
    12 C(13)  Bbb     0.0000     0.000     0.000     0.000 -0.0892 -0.1506  0.9846
              Bcc     0.0000     0.000     0.000     0.000 -0.4953  0.8643  0.0874
 
              Baa    -0.0000    -0.000    -0.000    -0.000  0.8391 -0.5079  0.1949
    13 S(33)  Bbb    -0.0000    -0.000    -0.000    -0.000 -0.2123  0.0241  0.9769
              Bcc     0.0000     0.000     0.000     0.000  0.5009  0.8611  0.0876
 
              Baa    -0.0000    -0.000    -0.000    -0.000  0.4349  0.1805  0.8822
    14 H(1)   Bbb    -0.0000    -0.000    -0.000    -0.000 -0.4703  0.8810  0.0516
              Bcc     0.0000     0.000     0.000     0.000  0.7679  0.4374 -0.4681
 
              Baa    -0.0000    -0.000    -0.000    -0.000  0.6968  0.6834 -0.2178
    15 H(1)   Bbb    -0.0000    -0.000    -0.000    -0.000 -0.1029  0.3958  0.9126
              Bcc     0.0000     0.000     0.000     0.000  0.7098 -0.6134  0.3461
 
              Baa    -0.0000    -0.000    -0.000    -0.000  0.8552 -0.5005  0.1346
    16 H(1)   Bbb     0.0000     0.000     0.000     0.000  0.5030  0.8641  0.0169
              Bcc     0.0000     0.000     0.000     0.000 -0.1248  0.0532  0.9907
 
              Baa    -0.0000    -0.000    -0.000    -0.000  0.4445  0.8567 -0.2618
    17 H(1)   Bbb     0.0000     0.000     0.000     0.000  0.6290 -0.0904  0.7721
              Bcc     0.0000     0.000     0.000     0.000  0.6378 -0.5078 -0.5791
 
              Baa    -0.0000    -0.000    -0.000    -0.000  0.4637  0.7174  0.5200
    18 H(1)   Bbb    -0.0000    -0.000    -0.000    -0.000 -0.6323 -0.1432  0.7614
              Bcc     0.0000     0.000     0.000     0.000 -0.6207  0.6818 -0.3872
 
              Baa    -0.0000    -0.000    -0.000    -0.000 -0.0311  0.9877  0.1535
    19 H(1)   Bbb     0.0000     0.000     0.000     0.000  0.0512 -0.1518  0.9871
              Bcc     0.0000     0.000     0.000     0.000  0.9982  0.0386 -0.0459
 
              Baa    -0.0000    -0.000    -0.000    -0.000  0.7302  0.2061 -0.6514
    20 H(1)   Bbb     0.0000     0.000     0.000     0.000 -0.5919  0.6671 -0.4524
              Bcc     0.0000     0.000     0.000     0.000  0.3413  0.7159  0.6090
 
              Baa    -0.0000    -0.000    -0.000    -0.000  0.9234  0.2806 -0.2619
    21 H(1)   Bbb     0.0000     0.000     0.000     0.000  0.0204  0.6454  0.7636
              Bcc     0.0000     0.000     0.000     0.000 -0.3833  0.7104 -0.5903
 
              Baa    -0.0000    -0.000    -0.000    -0.000 -0.6940  0.7124  0.1046
    22 H(1)   Bbb     0.0000     0.000     0.000     0.000  0.6689  0.5840  0.4600
              Bcc     0.0000     0.000     0.000     0.000 -0.2666 -0.3892  0.8818
 
              Baa    -0.0000    -0.000    -0.000    -0.000  0.3469  0.9370  0.0414
    23 H(1)   Bbb     0.0000     0.000     0.000     0.000  0.0164 -0.0502  0.9986
              Bcc     0.0000     0.000     0.000     0.000  0.9377 -0.3458 -0.0328
 

 ---------------------------------------------------------------------------------

 No NMR shielding tensors so no spin-rotation constants.
 Leave Link  601 at Fri Jul 24 14:37:36 2020, MaxMem=  4026531840 cpu:               1.8 elap:               0.3
 (Enter /opt/ohpc/pub/libs/gaussian/g16-A.03/sandybridge/g16/l9999.exe)

 Test job not archived.
 1\1\GINC-SKYLAKE014\FOpt\ULC-wPBE\CC-pVDZ\C11H10O1S1\RDU230\24-Jul-202
 0\0\\#P uLC-wPBE/cc-pVDZ iop(3/107=0473100000, 3/108=0473100000) opt\\
 H10 C11 S1 O1\\0,1\C,3.7621643575,0.3550784276,0.0142030794\C,2.885506
 8263,1.255047511,-0.5708142396\C,1.5228079878,1.0119156487,-0.57056321
 62\C,1.008259084,-0.1402343488,0.023203883\C,1.8991175632,-1.036395466
 5,0.6130496213\C,3.2615850177,-0.7937582662,0.6052942511\C,-0.43622301
 55,-0.414876052,0.0193027782\C,-1.4828827405,0.4684633978,0.0161347026
 \O,-1.2734374306,1.8036693616,0.0020165716\C,-2.3964998719,2.631904589
 4,0.1517255259\C,-2.7599619729,-0.1681610707,0.0341269254\C,-2.6516264
 216,-1.5196340388,0.0441747693\S,-1.0307176384,-2.0326328383,0.0273038
 918\H,4.8331386165,0.5490889979,0.0104224511\H,3.2672362802,2.15997998
 66,-1.0406153147\H,0.8422361968,1.7202399984,-1.0333717597\H,1.5183977
 856,-1.9346531857,1.097343493\H,3.9373247233,-1.507647037,1.0729792989
 \H,-2.0232939047,3.6585414596,0.1767670927\H,-2.9291886311,2.423359033
 9,1.0896289877\H,-3.0926630636,2.5280095402,-0.6921256785\H,-3.7118618
 657,0.3523066331,0.0402055116\H,-3.4590078826,-2.2440162819,0.05214237
 4\\Version=EM64L-G16RevA.03\State=1-A\HF=-898.1540917\S2=0.\S2-1=0.\S2
 A=0.\RMSD=9.454e-09\RMSF=1.069e-05\Dipole=-0.7931396,0.4369939,0.06705
 48\Quadrupole=6.3070218,1.158721,-7.4657428,-2.1302256,0.1463716,-2.13
 36162\PG=C01 [X(C11H10O1S1)]\\@


 THE ... SCIENTISTS WERE WRONG ... THE MOST PERSISTENT PRINCIPLES 
 OF THE UNIVERSE WERE ACCIDENT AND ERROR.

                          -- FRANK HERBERT IN DUNE
 Job cpu time:       0 days  2 hours 19 minutes 22.0 seconds.
 Elapsed time:       0 days  0 hours 17 minutes 39.4 seconds.
 File lengths (MBytes):  RWF=    124 Int=      0 D2E=      0 Chk=     12 Scr=      8
 Normal termination of Gaussian 16 at Fri Jul 24 14:37:36 2020.
