 Entering Gaussian System, Link 0=g16
 Input=mols_65_5_12_c-cOC-C_opt_0.gjf
 Output=mols_65_5_12_c-cOC-C_opt_0.log
 Initial command:
 /opt/ohpc/pub/libs/gaussian/g16-A.03/sandybridge/g16/l1.exe "/mnt/gpfs2_4m/scratch/rdu230/ondemand/projects/dihedral_energies/7trial/wtuning/mols_65_5_12_c-cOC-C/Gau-56793.inp" -scrdir="/mnt/gpfs2_4m/scratch/rdu230/ondemand/projects/dihedral_energies/7trial/wtuning/mols_65_5_12_c-cOC-C/"
 Entering Link 1 = /opt/ohpc/pub/libs/gaussian/g16-A.03/sandybridge/g16/l1.exe PID=     56794.
  
 Copyright (c) 1988,1990,1992,1993,1995,1998,2003,2009,2016,
            Gaussian, Inc.  All Rights Reserved.
  
 This is part of the Gaussian(R) 16 program.  It is based on
 the Gaussian(R) 09 system (copyright 2009, Gaussian, Inc.),
 the Gaussian(R) 03 system (copyright 2003, Gaussian, Inc.),
 the Gaussian(R) 98 system (copyright 1998, Gaussian, Inc.),
 the Gaussian(R) 94 system (copyright 1995, Gaussian, Inc.),
 the Gaussian 92(TM) system (copyright 1992, Gaussian, Inc.),
 the Gaussian 90(TM) system (copyright 1990, Gaussian, Inc.),
 the Gaussian 88(TM) system (copyright 1988, Gaussian, Inc.),
 the Gaussian 86(TM) system (copyright 1986, Carnegie Mellon
 University), and the Gaussian 82(TM) system (copyright 1983,
 Carnegie Mellon University). Gaussian is a federally registered
 trademark of Gaussian, Inc.
  
 This software contains proprietary and confidential information,
 including trade secrets, belonging to Gaussian, Inc.
  
 This software is provided under written license and may be
 used, copied, transmitted, or stored only in accord with that
 written license.
  
 The following legend is applicable only to US Government
 contracts under FAR:
  
                    RESTRICTED RIGHTS LEGEND
  
 Use, reproduction and disclosure by the US Government is
 subject to restrictions as set forth in subparagraphs (a)
 and (c) of the Commercial Computer Software - Restricted
 Rights clause in FAR 52.227-19.
  
 Gaussian, Inc.
 340 Quinnipiac St., Bldg. 40, Wallingford CT 06492
  
  
 ---------------------------------------------------------------
 Warning -- This program may not be used in any manner that
 competes with the business of Gaussian, Inc. or will provide
 assistance to any competitor of Gaussian, Inc.  The licensee
 of this program is prohibited from giving any competitor of
 Gaussian, Inc. access to this program.  By using this program,
 the user acknowledges that Gaussian, Inc. is engaged in the
 business of creating and licensing software in the field of
 computational chemistry and represents and warrants to the
 licensee that it is not a competitor of Gaussian, Inc. and that
 it will not use this program in any manner prohibited above.
 ---------------------------------------------------------------
  

 Cite this work as:
 Gaussian 16, Revision A.03,
 M. J. Frisch, G. W. Trucks, H. B. Schlegel, G. E. Scuseria, 
 M. A. Robb, J. R. Cheeseman, G. Scalmani, V. Barone, 
 G. A. Petersson, H. Nakatsuji, X. Li, M. Caricato, A. V. Marenich, 
 J. Bloino, B. G. Janesko, R. Gomperts, B. Mennucci, H. P. Hratchian, 
 J. V. Ortiz, A. F. Izmaylov, J. L. Sonnenberg, D. Williams-Young, 
 F. Ding, F. Lipparini, F. Egidi, J. Goings, B. Peng, A. Petrone, 
 T. Henderson, D. Ranasinghe, V. G. Zakrzewski, J. Gao, N. Rega, 
 G. Zheng, W. Liang, M. Hada, M. Ehara, K. Toyota, R. Fukuda, 
 J. Hasegawa, M. Ishida, T. Nakajima, Y. Honda, O. Kitao, H. Nakai, 
 T. Vreven, K. Throssell, J. A. Montgomery, Jr., J. E. Peralta, 
 F. Ogliaro, M. J. Bearpark, J. J. Heyd, E. N. Brothers, K. N. Kudin, 
 V. N. Staroverov, T. A. Keith, R. Kobayashi, J. Normand, 
 K. Raghavachari, A. P. Rendell, J. C. Burant, S. S. Iyengar, 
 J. Tomasi, M. Cossi, J. M. Millam, M. Klene, C. Adamo, R. Cammi, 
 J. W. Ochterski, R. L. Martin, K. Morokuma, O. Farkas, 
 J. B. Foresman, and D. J. Fox, Gaussian, Inc., Wallingford CT, 2016.
 
 ******************************************
 Gaussian 16:  EM64L-G16RevA.03 25-Dec-2016
                24-Jul-2020 
 ******************************************
 %mem=30GB
 %nproc=8
 Will use up to    8 processors via shared memory.
 ---------------------------------------------------------------
 #P uLC-wPBE/cc-pVDZ iop(3/107=0290000000, 3/108=0290000000) opt
 ---------------------------------------------------------------
 1/18=20,19=15,26=3,38=1/1,3;
 2/9=110,12=2,17=6,18=5,40=1/2;
 3/5=16,11=2,25=1,30=1,71=1,74=-41,107=290000000,108=290000000,116=2/1,2,3;
 4//1;
 5/5=2,38=5/2;
 6/7=2,8=2,9=2,10=2,28=1/1;
 7//1,2,3,16;
 1/18=20,19=15,26=3/3(2);
 2/9=110/2;
 99//99;
 2/9=110/2;
 3/5=16,11=2,25=1,30=1,71=1,74=-41,107=290000000,108=290000000,116=2/1,2,3;
 4/5=5,16=3,69=1/1;
 5/5=2,38=5/2;
 7//1,2,3,16;
 1/18=20,19=15,26=3/3(-5);
 2/9=110/2;
 6/7=2,8=2,9=2,10=2,19=2,28=1/1;
 99/9=1/99;
 Leave Link    1 at Fri Jul 24 15:20:29 2020, MaxMem=  4026531840 cpu:               3.4 elap:               0.5
 (Enter /opt/ohpc/pub/libs/gaussian/g16-A.03/sandybridge/g16/l101.exe)
 -------------
 H42 C55 S5 O5
 -------------
 Symbolic Z-matrix:
 Charge =  0 Multiplicity = 1
 C                    -18.7965   2.01528  -1.28667 
 C                    -18.00127   1.77564  -2.45624 
 C                    -16.70649   1.22016  -2.34517 
 C                    -16.14502   0.91347  -1.08831 
 C                    -16.97961   1.12289   0.06927 
 O                    -16.313    0.73505   1.25935 
 C                    -16.75464   1.52085   2.4016 
 C                    -18.24207   1.67529   0.01362 
 C                    -14.83744   0.33348  -1.13651 
 C                    -14.39584  -0.94579  -1.50405 
 C                    -13.00574  -1.05511  -1.39243 
 C                    -12.41574  -0.0293   -0.78087 
 S                    -13.52528   1.23192  -0.45594 
 C                    -10.98995   0.18183  -0.48062 
 C                    -10.06037  -0.12171  -1.51248 
 C                    -8.661     0.05121  -1.28335 
 C                    -8.18868   0.4783    0.04087 
 C                    -9.21625   0.83374   1.01716 
 O                    -8.63954   1.22219   2.22799 
 C                    -9.61147   1.54066   3.21828 
 C                    -10.50929   0.66353   0.76945 
 C                    -6.74893   0.65856   0.28452 
 C                    -6.0923    1.78598   0.6852 
 C                    -4.71917   1.64042   0.80869 
 C                    -4.30729   0.34733   0.47471 
 S                    -5.7292   -0.58761   0.07745 
 C                    -2.98077  -0.31479   0.57452 
 C                    -2.08993   0.03923   1.49736 
 C                    -0.85637  -0.49057   1.57237 
 C                    -0.34744  -1.40105   0.61768 
 C                    -1.29094  -1.7528   -0.38907 
 O                    -0.79043  -2.73575  -1.34854 
 C                    -1.69912  -3.25587  -2.24804 
 C                    -2.57536  -1.23582  -0.49227 
 C                     0.95661  -1.95542   0.71216 
 C                     1.32559  -3.36393   0.78292 
 C                     2.6868   -3.49148   0.85758 
 C                     3.46866  -2.32689   0.79066 
 S                     2.29698  -1.01341   0.69227 
 C                     4.9252   -2.1061    0.74577 
 C                     5.4424   -1.05165   1.46233 
 C                     6.8308   -0.85378   1.38653 
 C                     7.66166  -1.79572   0.65667 
 C                     7.10556  -2.80154   0.0045 
 O                     7.91687  -3.68868  -0.77385 
 C                     7.38421  -4.72983  -1.4999 
 C                     5.73843  -2.96001   0.02138 
 C                     9.18157  -1.51673   0.66397 
 C                     10.12166  -2.48015   0.96927 
 C                     11.49093  -1.89183   0.874 
 C                     11.44268  -0.53168   0.43682 
 S                     9.81471  -0.08482   0.19715 
 C                     12.4922   0.40476   0.27544 
 C                     12.50196   1.73629   0.64386 
 C                     13.48884   2.59214   0.44164 
 C                     14.69281   2.19034  -0.20692 
 C                     14.80303   0.8498   -0.55042 
 O                     15.99784   0.45774  -1.16966 
 C                     16.21078  -0.99552  -1.34086 
 C                     13.6822  -0.0979   -0.37386 
 C                     15.80945   3.05932  -0.40099 
 C                     17.09523   2.98116   0.06951 
 C                     17.87783   4.14487  -0.3788 
 C                     17.17275   5.09026  -1.04925 
 S                     15.50549   4.54543  -1.28376 
 H                    -19.75053   2.41182  -1.33994 
 H                    -18.51365   2.01276  -3.40527 
 H                    -16.22638   1.03401  -3.30505 
 H                    -16.64936   2.61966   2.21319 
 H                    -17.75282   1.28045   2.69902 
 H                    -15.99897   1.29528   3.1526 
 H                    -18.79479   1.83416   0.84829 
 H                    -15.08182  -1.65083  -1.89348 
 H                    -12.52734  -2.02732  -1.68897 
 H                    -10.30485  -0.48562  -2.46455 
 H                    -7.90121  -0.11989  -2.02005 
 H                    -9.07918   1.9565    4.07016 
 H                    -10.25254   2.36817   2.88497 
 H                    -10.18078   0.75561   3.52811 
 H                    -11.27725   0.80336   1.52058 
 H                    -6.55288   2.74134   0.82404 
 H                    -3.94767   2.35319   1.06729 
 H                    -2.39363   0.77341   2.36754 
 H                    -0.09985  -0.19708   2.41479 
 H                    -2.08634  -2.43231  -2.99984 
 H                    -1.24419  -3.98693  -2.87211 
 H                    -2.62209  -3.71501  -1.80072 
 H                    -3.27171  -1.52709  -1.23986 
 H                     0.57767  -4.13859   0.89419 
 H                     3.24049  -4.50582   0.97183 
 H                     4.87942  -0.30704   2.05206 
 H                     7.33311  -0.00771   1.95065 
 H                     8.12991  -5.27289  -2.02829 
 H                     6.78368  -5.41479  -0.79377 
 H                     6.65622  -4.31239  -2.2149 
 H                     5.20601  -3.74004  -0.55661 
 H                     9.93111  -3.50499   1.2974 
 H                     12.41024  -2.41835   1.10745 
 H                     11.6279   2.1072    1.20924 
 H                     13.46215   3.57658   0.80885 
 H                     15.53024  -1.40316  -2.06363 
 H                     16.1053  -1.49056  -0.28899 
 H                     17.25639  -1.07262  -1.5938 
 H                     13.72029  -1.12278  -0.69083 
 H                     17.49839   2.14594   0.64572 
 H                     18.90744   4.31218  -0.07595 
 H                     17.52963   6.01792  -1.52839 
 
 ITRead=  0  0  0  0  0  0  0  0  0  0  0  0  0  0  0  0  0  0  0  0
 ITRead=  0  0  0  0  0  0  0  0  0  0  0  0  0  0  0  0  0  0  0  0
 ITRead=  0  0  0  0  0  0  0  0  0  0  0  0  0  0  0  0  0  0  0  0
 ITRead=  0  0  0  0  0  0  0  0  0  0  0  0  0  0  0  0  0  0  0  0
 ITRead=  0  0  0  0  0  0  0  0  0  0  0  0  0  0  0  0  0  0  0  0
 ITRead=  0  0  0  0  0  0  0
 MicOpt= -1 -1 -1 -1 -1 -1 -1 -1 -1 -1 -1 -1 -1 -1 -1 -1 -1 -1 -1 -1
 MicOpt= -1 -1 -1 -1 -1 -1 -1 -1 -1 -1 -1 -1 -1 -1 -1 -1 -1 -1 -1 -1
 MicOpt= -1 -1 -1 -1 -1 -1 -1 -1 -1 -1 -1 -1 -1 -1 -1 -1 -1 -1 -1 -1
 MicOpt= -1 -1 -1 -1 -1 -1 -1 -1 -1 -1 -1 -1 -1 -1 -1 -1 -1 -1 -1 -1
 MicOpt= -1 -1 -1 -1 -1 -1 -1 -1 -1 -1 -1 -1 -1 -1 -1 -1 -1 -1 -1 -1
 MicOpt= -1 -1 -1 -1 -1 -1 -1
 NAtoms=    107 NQM=      107 NQMF=       0 NMMI=      0 NMMIF=      0
                NMic=       0 NMicF=      0.
                    Isotopes and Nuclear Properties:
 (Nuclear quadrupole moments (NQMom) in fm**2, nuclear magnetic moments (NMagM)
  in nuclear magnetons)

  Atom         1           2           3           4           5           6           7           8           9          10
 IAtWgt=          12          12          12          12          12          16          12          12          12          12
 AtmWgt=  12.0000000  12.0000000  12.0000000  12.0000000  12.0000000  15.9949146  12.0000000  12.0000000  12.0000000  12.0000000
 NucSpn=           0           0           0           0           0           0           0           0           0           0
 AtZEff=  -0.0000000  -0.0000000  -0.0000000  -0.0000000  -0.0000000  -0.0000000  -0.0000000  -0.0000000  -0.0000000  -0.0000000
 NQMom=    0.0000000   0.0000000   0.0000000   0.0000000   0.0000000   0.0000000   0.0000000   0.0000000   0.0000000   0.0000000
 NMagM=    0.0000000   0.0000000   0.0000000   0.0000000   0.0000000   0.0000000   0.0000000   0.0000000   0.0000000   0.0000000
 AtZNuc=   6.0000000   6.0000000   6.0000000   6.0000000   6.0000000   8.0000000   6.0000000   6.0000000   6.0000000   6.0000000

  Atom        11          12          13          14          15          16          17          18          19          20
 IAtWgt=          12          12          32          12          12          12          12          12          16          12
 AtmWgt=  12.0000000  12.0000000  31.9720718  12.0000000  12.0000000  12.0000000  12.0000000  12.0000000  15.9949146  12.0000000
 NucSpn=           0           0           0           0           0           0           0           0           0           0
 AtZEff=  -0.0000000  -0.0000000  -0.0000000  -0.0000000  -0.0000000  -0.0000000  -0.0000000  -0.0000000  -0.0000000  -0.0000000
 NQMom=    0.0000000   0.0000000   0.0000000   0.0000000   0.0000000   0.0000000   0.0000000   0.0000000   0.0000000   0.0000000
 NMagM=    0.0000000   0.0000000   0.0000000   0.0000000   0.0000000   0.0000000   0.0000000   0.0000000   0.0000000   0.0000000
 AtZNuc=   6.0000000   6.0000000  16.0000000   6.0000000   6.0000000   6.0000000   6.0000000   6.0000000   8.0000000   6.0000000

  Atom        21          22          23          24          25          26          27          28          29          30
 IAtWgt=          12          12          12          12          12          32          12          12          12          12
 AtmWgt=  12.0000000  12.0000000  12.0000000  12.0000000  12.0000000  31.9720718  12.0000000  12.0000000  12.0000000  12.0000000
 NucSpn=           0           0           0           0           0           0           0           0           0           0
 AtZEff=  -0.0000000  -0.0000000  -0.0000000  -0.0000000  -0.0000000  -0.0000000  -0.0000000  -0.0000000  -0.0000000  -0.0000000
 NQMom=    0.0000000   0.0000000   0.0000000   0.0000000   0.0000000   0.0000000   0.0000000   0.0000000   0.0000000   0.0000000
 NMagM=    0.0000000   0.0000000   0.0000000   0.0000000   0.0000000   0.0000000   0.0000000   0.0000000   0.0000000   0.0000000
 AtZNuc=   6.0000000   6.0000000   6.0000000   6.0000000   6.0000000  16.0000000   6.0000000   6.0000000   6.0000000   6.0000000

  Atom        31          32          33          34          35          36          37          38          39          40
 IAtWgt=          12          16          12          12          12          12          12          12          32          12
 AtmWgt=  12.0000000  15.9949146  12.0000000  12.0000000  12.0000000  12.0000000  12.0000000  12.0000000  31.9720718  12.0000000
 NucSpn=           0           0           0           0           0           0           0           0           0           0
 AtZEff=  -0.0000000  -0.0000000  -0.0000000  -0.0000000  -0.0000000  -0.0000000  -0.0000000  -0.0000000  -0.0000000  -0.0000000
 NQMom=    0.0000000   0.0000000   0.0000000   0.0000000   0.0000000   0.0000000   0.0000000   0.0000000   0.0000000   0.0000000
 NMagM=    0.0000000   0.0000000   0.0000000   0.0000000   0.0000000   0.0000000   0.0000000   0.0000000   0.0000000   0.0000000
 AtZNuc=   6.0000000   8.0000000   6.0000000   6.0000000   6.0000000   6.0000000   6.0000000   6.0000000  16.0000000   6.0000000

  Atom        41          42          43          44          45          46          47          48          49          50
 IAtWgt=          12          12          12          12          16          12          12          12          12          12
 AtmWgt=  12.0000000  12.0000000  12.0000000  12.0000000  15.9949146  12.0000000  12.0000000  12.0000000  12.0000000  12.0000000
 NucSpn=           0           0           0           0           0           0           0           0           0           0
 AtZEff=  -0.0000000  -0.0000000  -0.0000000  -0.0000000  -0.0000000  -0.0000000  -0.0000000  -0.0000000  -0.0000000  -0.0000000
 NQMom=    0.0000000   0.0000000   0.0000000   0.0000000   0.0000000   0.0000000   0.0000000   0.0000000   0.0000000   0.0000000
 NMagM=    0.0000000   0.0000000   0.0000000   0.0000000   0.0000000   0.0000000   0.0000000   0.0000000   0.0000000   0.0000000
 AtZNuc=   6.0000000   6.0000000   6.0000000   6.0000000   8.0000000   6.0000000   6.0000000   6.0000000   6.0000000   6.0000000

  Atom        51          52          53          54          55          56          57          58          59          60
 IAtWgt=          12          32          12          12          12          12          12          16          12          12
 AtmWgt=  12.0000000  31.9720718  12.0000000  12.0000000  12.0000000  12.0000000  12.0000000  15.9949146  12.0000000  12.0000000
 NucSpn=           0           0           0           0           0           0           0           0           0           0
 AtZEff=  -0.0000000  -0.0000000  -0.0000000  -0.0000000  -0.0000000  -0.0000000  -0.0000000  -0.0000000  -0.0000000  -0.0000000
 NQMom=    0.0000000   0.0000000   0.0000000   0.0000000   0.0000000   0.0000000   0.0000000   0.0000000   0.0000000   0.0000000
 NMagM=    0.0000000   0.0000000   0.0000000   0.0000000   0.0000000   0.0000000   0.0000000   0.0000000   0.0000000   0.0000000
 AtZNuc=   6.0000000  16.0000000   6.0000000   6.0000000   6.0000000   6.0000000   6.0000000   8.0000000   6.0000000   6.0000000

  Atom        61          62          63          64          65          66          67          68          69          70
 IAtWgt=          12          12          12          12          32           1           1           1           1           1
 AtmWgt=  12.0000000  12.0000000  12.0000000  12.0000000  31.9720718   1.0078250   1.0078250   1.0078250   1.0078250   1.0078250
 NucSpn=           0           0           0           0           0           1           1           1           1           1
 AtZEff=  -0.0000000  -0.0000000  -0.0000000  -0.0000000  -0.0000000  -0.0000000  -0.0000000  -0.0000000  -0.0000000  -0.0000000
 NQMom=    0.0000000   0.0000000   0.0000000   0.0000000   0.0000000   0.0000000   0.0000000   0.0000000   0.0000000   0.0000000
 NMagM=    0.0000000   0.0000000   0.0000000   0.0000000   0.0000000   2.7928460   2.7928460   2.7928460   2.7928460   2.7928460
 AtZNuc=   6.0000000   6.0000000   6.0000000   6.0000000  16.0000000   1.0000000   1.0000000   1.0000000   1.0000000   1.0000000

  Atom        71          72          73          74          75          76          77          78          79          80
 IAtWgt=           1           1           1           1           1           1           1           1           1           1
 AtmWgt=   1.0078250   1.0078250   1.0078250   1.0078250   1.0078250   1.0078250   1.0078250   1.0078250   1.0078250   1.0078250
 NucSpn=           1           1           1           1           1           1           1           1           1           1
 AtZEff=  -0.0000000  -0.0000000  -0.0000000  -0.0000000  -0.0000000  -0.0000000  -0.0000000  -0.0000000  -0.0000000  -0.0000000
 NQMom=    0.0000000   0.0000000   0.0000000   0.0000000   0.0000000   0.0000000   0.0000000   0.0000000   0.0000000   0.0000000
 NMagM=    2.7928460   2.7928460   2.7928460   2.7928460   2.7928460   2.7928460   2.7928460   2.7928460   2.7928460   2.7928460
 AtZNuc=   1.0000000   1.0000000   1.0000000   1.0000000   1.0000000   1.0000000   1.0000000   1.0000000   1.0000000   1.0000000

  Atom        81          82          83          84          85          86          87          88          89          90
 IAtWgt=           1           1           1           1           1           1           1           1           1           1
 AtmWgt=   1.0078250   1.0078250   1.0078250   1.0078250   1.0078250   1.0078250   1.0078250   1.0078250   1.0078250   1.0078250
 NucSpn=           1           1           1           1           1           1           1           1           1           1
 AtZEff=  -0.0000000  -0.0000000  -0.0000000  -0.0000000  -0.0000000  -0.0000000  -0.0000000  -0.0000000  -0.0000000  -0.0000000
 NQMom=    0.0000000   0.0000000   0.0000000   0.0000000   0.0000000   0.0000000   0.0000000   0.0000000   0.0000000   0.0000000
 NMagM=    2.7928460   2.7928460   2.7928460   2.7928460   2.7928460   2.7928460   2.7928460   2.7928460   2.7928460   2.7928460
 AtZNuc=   1.0000000   1.0000000   1.0000000   1.0000000   1.0000000   1.0000000   1.0000000   1.0000000   1.0000000   1.0000000

  Atom        91          92          93          94          95          96          97          98          99         100
 IAtWgt=           1           1           1           1           1           1           1           1           1           1
 AtmWgt=   1.0078250   1.0078250   1.0078250   1.0078250   1.0078250   1.0078250   1.0078250   1.0078250   1.0078250   1.0078250
 NucSpn=           1           1           1           1           1           1           1           1           1           1
 AtZEff=  -0.0000000  -0.0000000  -0.0000000  -0.0000000  -0.0000000  -0.0000000  -0.0000000  -0.0000000  -0.0000000  -0.0000000
 NQMom=    0.0000000   0.0000000   0.0000000   0.0000000   0.0000000   0.0000000   0.0000000   0.0000000   0.0000000   0.0000000
 NMagM=    2.7928460   2.7928460   2.7928460   2.7928460   2.7928460   2.7928460   2.7928460   2.7928460   2.7928460   2.7928460
 AtZNuc=   1.0000000   1.0000000   1.0000000   1.0000000   1.0000000   1.0000000   1.0000000   1.0000000   1.0000000   1.0000000

  Atom       101         102         103         104         105         106         107
 IAtWgt=           1           1           1           1           1           1           1
 AtmWgt=   1.0078250   1.0078250   1.0078250   1.0078250   1.0078250   1.0078250   1.0078250
 NucSpn=           1           1           1           1           1           1           1
 AtZEff=  -0.0000000  -0.0000000  -0.0000000  -0.0000000  -0.0000000  -0.0000000  -0.0000000
 NQMom=    0.0000000   0.0000000   0.0000000   0.0000000   0.0000000   0.0000000   0.0000000
 NMagM=    2.7928460   2.7928460   2.7928460   2.7928460   2.7928460   2.7928460   2.7928460
 AtZNuc=   1.0000000   1.0000000   1.0000000   1.0000000   1.0000000   1.0000000   1.0000000
 Leave Link  101 at Fri Jul 24 15:20:30 2020, MaxMem=  4026531840 cpu:               3.1 elap:               0.4
 (Enter /opt/ohpc/pub/libs/gaussian/g16-A.03/sandybridge/g16/l103.exe)

 GradGradGradGradGradGradGradGradGradGradGradGradGradGradGradGradGradGrad
 Berny optimization.
 Initialization pass.
                           ----------------------------
                           !    Initial Parameters    !
                           ! (Angstroms and Degrees)  !
 --------------------------                            --------------------------
 ! Name  Definition              Value          Derivative Info.                !
 --------------------------------------------------------------------------------
 ! R1    R(1,2)                  1.4345         estimate D2E/DX2                !
 ! R2    R(1,8)                  1.4539         estimate D2E/DX2                !
 ! R3    R(1,66)                 1.0345         estimate D2E/DX2                !
 ! R4    R(2,3)                  1.4133         estimate D2E/DX2                !
 ! R5    R(2,67)                 1.1043         estimate D2E/DX2                !
 ! R6    R(3,4)                  1.4103         estimate D2E/DX2                !
 ! R7    R(3,68)                 1.0893         estimate D2E/DX2                !
 ! R8    R(4,5)                  1.4424         estimate D2E/DX2                !
 ! R9    R(4,9)                  1.4312         estimate D2E/DX2                !
 ! R10   R(5,6)                  1.4181         estimate D2E/DX2                !
 ! R11   R(5,8)                  1.3791         estimate D2E/DX2                !
 ! R12   R(6,7)                  1.4551         estimate D2E/DX2                !
 ! R13   R(7,69)                 1.1198         estimate D2E/DX2                !
 ! R14   R(7,70)                 1.0689         estimate D2E/DX2                !
 ! R15   R(7,71)                 1.089          estimate D2E/DX2                !
 ! R16   R(8,72)                 1.0136         estimate D2E/DX2                !
 ! R17   R(9,10)                 1.4024         estimate D2E/DX2                !
 ! R18   R(9,13)                 1.7298         estimate D2E/DX2                !
 ! R19   R(10,11)                1.3989         estimate D2E/DX2                !
 ! R20   R(10,73)                1.058          estimate D2E/DX2                !
 ! R21   R(11,12)                1.3321         estimate D2E/DX2                !
 ! R22   R(11,74)                1.1234         estimate D2E/DX2                !
 ! R23   R(12,13)                1.7109         estimate D2E/DX2                !
 ! R24   R(12,14)                1.4723         estimate D2E/DX2                !
 ! R25   R(14,15)                1.4216         estimate D2E/DX2                !
 ! R26   R(14,21)                1.4233         estimate D2E/DX2                !
 ! R27   R(15,16)                1.4285         estimate D2E/DX2                !
 ! R28   R(15,75)                1.0482         estimate D2E/DX2                !
 ! R29   R(16,17)                1.4694         estimate D2E/DX2                !
 ! R30   R(16,76)                1.072          estimate D2E/DX2                !
 ! R31   R(17,18)                1.4613         estimate D2E/DX2                !
 ! R32   R(17,22)                1.4713         estimate D2E/DX2                !
 ! R33   R(18,19)                1.3963         estimate D2E/DX2                !
 ! R34   R(18,21)                1.3275         estimate D2E/DX2                !
 ! R35   R(19,20)                1.4236         estimate D2E/DX2                !
 ! R36   R(20,77)                1.0872         estimate D2E/DX2                !
 ! R37   R(20,78)                1.0986         estimate D2E/DX2                !
 ! R38   R(20,79)                1.018          estimate D2E/DX2                !
 ! R39   R(21,80)                1.0833         estimate D2E/DX2                !
 ! R40   R(22,23)                1.3648         estimate D2E/DX2                !
 ! R41   R(22,26)                1.6235         estimate D2E/DX2                !
 ! R42   R(23,24)                1.3863         estimate D2E/DX2                !
 ! R43   R(23,81)                1.0696         estimate D2E/DX2                !
 ! R44   R(24,25)                1.3976         estimate D2E/DX2                !
 ! R45   R(24,82)                1.0817         estimate D2E/DX2                !
 ! R46   R(25,26)                1.7475         estimate D2E/DX2                !
 ! R47   R(25,27)                1.4859         estimate D2E/DX2                !
 ! R48   R(27,28)                1.3306         estimate D2E/DX2                !
 ! R49   R(27,34)                1.4665         estimate D2E/DX2                !
 ! R50   R(28,29)                1.3446         estimate D2E/DX2                !
 ! R51   R(28,83)                1.1783         estimate D2E/DX2                !
 ! R52   R(29,30)                1.414          estimate D2E/DX2                !
 ! R53   R(29,84)                1.1697         estimate D2E/DX2                !
 ! R54   R(30,31)                1.4239         estimate D2E/DX2                !
 ! R55   R(30,35)                1.4201         estimate D2E/DX2                !
 ! R56   R(31,32)                1.4619         estimate D2E/DX2                !
 ! R57   R(31,34)                1.3884         estimate D2E/DX2                !
 ! R58   R(32,33)                1.3803         estimate D2E/DX2                !
 ! R59   R(33,85)                1.1804         estimate D2E/DX2                !
 ! R60   R(33,86)                1.0634         estimate D2E/DX2                !
 ! R61   R(33,87)                1.1237         estimate D2E/DX2                !
 ! R62   R(34,88)                1.0624         estimate D2E/DX2                !
 ! R63   R(35,36)                1.4578         estimate D2E/DX2                !
 ! R64   R(35,39)                1.6384         estimate D2E/DX2                !
 ! R65   R(36,37)                1.3692         estimate D2E/DX2                !
 ! R66   R(36,89)                1.0825         estimate D2E/DX2                !
 ! R67   R(37,38)                1.4043         estimate D2E/DX2                !
 ! R68   R(37,90)                1.1613         estimate D2E/DX2                !
 ! R69   R(38,39)                1.7629         estimate D2E/DX2                !
 ! R70   R(38,40)                1.4739         estimate D2E/DX2                !
 ! R71   R(40,41)                1.3758         estimate D2E/DX2                !
 ! R72   R(40,47)                1.3839         estimate D2E/DX2                !
 ! R73   R(41,42)                1.4045         estimate D2E/DX2                !
 ! R74   R(41,91)                1.1042         estimate D2E/DX2                !
 ! R75   R(42,43)                1.4527         estimate D2E/DX2                !
 ! R76   R(42,92)                1.1342         estimate D2E/DX2                !
 ! R77   R(43,44)                1.3215         estimate D2E/DX2                !
 ! R78   R(43,48)                1.5453         estimate D2E/DX2                !
 ! R79   R(44,45)                1.4322         estimate D2E/DX2                !
 ! R80   R(44,47)                1.3764         estimate D2E/DX2                !
 ! R81   R(45,46)                1.3765         estimate D2E/DX2                !
 ! R82   R(46,93)                1.0631         estimate D2E/DX2                !
 ! R83   R(46,94)                1.1526         estimate D2E/DX2                !
 ! R84   R(46,95)                1.1025         estimate D2E/DX2                !
 ! R85   R(47,96)                1.1072         estimate D2E/DX2                !
 ! R86   R(48,49)                1.3803         estimate D2E/DX2                !
 ! R87   R(48,52)                1.6338         estimate D2E/DX2                !
 ! R88   R(49,50)                1.4934         estimate D2E/DX2                !
 ! R89   R(49,97)                1.0928         estimate D2E/DX2                !
 ! R90   R(50,51)                1.4295         estimate D2E/DX2                !
 ! R91   R(50,98)                1.0848         estimate D2E/DX2                !
 ! R92   R(51,52)                1.7051         estimate D2E/DX2                !
 ! R93   R(51,53)                1.4158         estimate D2E/DX2                !
 ! R94   R(53,54)                1.3816         estimate D2E/DX2                !
 ! R95   R(53,60)                1.4458         estimate D2E/DX2                !
 ! R96   R(54,55)                1.3219         estimate D2E/DX2                !
 ! R97   R(54,99)                1.1051         estimate D2E/DX2                !
 ! R98   R(55,56)                1.4253         estimate D2E/DX2                !
 ! R99   R(55,100)               1.051          estimate D2E/DX2                !
 ! R100  R(56,57)                1.3882         estimate D2E/DX2                !
 ! R101  R(56,61)                1.4282         estimate D2E/DX2                !
 ! R102  R(57,58)                1.4017         estimate D2E/DX2                !
 ! R103  R(57,60)                1.4784         estimate D2E/DX2                !
 ! R104  R(58,59)                1.4787         estimate D2E/DX2                !
 ! R105  R(59,101)               1.0732         estimate D2E/DX2                !
 ! R106  R(59,102)               1.1673         estimate D2E/DX2                !
 ! R107  R(59,103)               1.0785         estimate D2E/DX2                !
 ! R108  R(60,104)               1.0735         estimate D2E/DX2                !
 ! R109  R(61,62)                1.3714         estimate D2E/DX2                !
 ! R110  R(61,65)                1.755          estimate D2E/DX2                !
 ! R111  R(62,63)                1.4723         estimate D2E/DX2                !
 ! R112  R(62,105)               1.0919         estimate D2E/DX2                !
 ! R113  R(63,64)                1.3566         estimate D2E/DX2                !
 ! R114  R(63,106)               1.0862         estimate D2E/DX2                !
 ! R115  R(64,65)                1.7696         estimate D2E/DX2                !
 ! R116  R(64,107)               1.1034         estimate D2E/DX2                !
 ! A1    A(2,1,8)              118.6018         estimate D2E/DX2                !
 ! A2    A(2,1,66)             122.2278         estimate D2E/DX2                !
 ! A3    A(8,1,66)             119.1678         estimate D2E/DX2                !
 ! A4    A(1,2,3)              120.6291         estimate D2E/DX2                !
 ! A5    A(1,2,67)             114.0543         estimate D2E/DX2                !
 ! A6    A(3,2,67)             125.2424         estimate D2E/DX2                !
 ! A7    A(2,3,4)              121.3487         estimate D2E/DX2                !
 ! A8    A(2,3,68)             113.6853         estimate D2E/DX2                !
 ! A9    A(4,3,68)             124.9381         estimate D2E/DX2                !
 ! A10   A(3,4,5)              116.9557         estimate D2E/DX2                !
 ! A11   A(3,4,9)              114.95           estimate D2E/DX2                !
 ! A12   A(5,4,9)              127.9151         estimate D2E/DX2                !
 ! A13   A(4,5,6)              111.2111         estimate D2E/DX2                !
 ! A14   A(4,5,8)              123.7412         estimate D2E/DX2                !
 ! A15   A(6,5,8)              125.0084         estimate D2E/DX2                !
 ! A16   A(5,6,7)              111.6172         estimate D2E/DX2                !
 ! A17   A(6,7,69)             111.6725         estimate D2E/DX2                !
 ! A18   A(6,7,70)             112.3579         estimate D2E/DX2                !
 ! A19   A(6,7,71)             102.6431         estimate D2E/DX2                !
 ! A20   A(69,7,70)            110.8114         estimate D2E/DX2                !
 ! A21   A(69,7,71)            104.7171         estimate D2E/DX2                !
 ! A22   A(70,7,71)            114.1745         estimate D2E/DX2                !
 ! A23   A(1,8,5)              118.6098         estimate D2E/DX2                !
 ! A24   A(1,8,72)             119.463          estimate D2E/DX2                !
 ! A25   A(5,8,72)             121.9189         estimate D2E/DX2                !
 ! A26   A(4,9,10)             131.7724         estimate D2E/DX2                !
 ! A27   A(4,9,13)             117.9891         estimate D2E/DX2                !
 ! A28   A(10,9,13)            109.7581         estimate D2E/DX2                !
 ! A29   A(9,10,11)            111.303          estimate D2E/DX2                !
 ! A30   A(9,10,73)            120.0138         estimate D2E/DX2                !
 ! A31   A(11,10,73)           128.4351         estimate D2E/DX2                !
 ! A32   A(10,11,12)           114.6202         estimate D2E/DX2                !
 ! A33   A(10,11,74)           118.0189         estimate D2E/DX2                !
 ! A34   A(12,11,74)           126.8003         estimate D2E/DX2                !
 ! A35   A(11,12,13)           111.5695         estimate D2E/DX2                !
 ! A36   A(11,12,14)           129.2714         estimate D2E/DX2                !
 ! A37   A(13,12,14)           118.9196         estimate D2E/DX2                !
 ! A38   A(9,13,12)             91.968          estimate D2E/DX2                !
 ! A39   A(12,14,15)           117.0393         estimate D2E/DX2                !
 ! A40   A(12,14,21)           123.6896         estimate D2E/DX2                !
 ! A41   A(15,14,21)           119.271          estimate D2E/DX2                !
 ! A42   A(14,15,16)           119.8865         estimate D2E/DX2                !
 ! A43   A(14,15,75)           125.5144         estimate D2E/DX2                !
 ! A44   A(16,15,75)           114.5956         estimate D2E/DX2                !
 ! A45   A(15,16,17)           119.6447         estimate D2E/DX2                !
 ! A46   A(15,16,76)           124.3836         estimate D2E/DX2                !
 ! A47   A(17,16,76)           115.9688         estimate D2E/DX2                !
 ! A48   A(16,17,18)           116.5367         estimate D2E/DX2                !
 ! A49   A(16,17,22)           119.9604         estimate D2E/DX2                !
 ! A50   A(18,17,22)           123.2071         estimate D2E/DX2                !
 ! A51   A(17,18,19)           110.8913         estimate D2E/DX2                !
 ! A52   A(17,18,21)           121.9429         estimate D2E/DX2                !
 ! A53   A(19,18,21)           126.8553         estimate D2E/DX2                !
 ! A54   A(18,19,20)           112.5491         estimate D2E/DX2                !
 ! A55   A(19,20,77)           107.2395         estimate D2E/DX2                !
 ! A56   A(19,20,78)           110.8453         estimate D2E/DX2                !
 ! A57   A(19,20,79)           114.8966         estimate D2E/DX2                !
 ! A58   A(77,20,78)           103.6113         estimate D2E/DX2                !
 ! A59   A(77,20,79)           109.2858         estimate D2E/DX2                !
 ! A60   A(78,20,79)           110.2962         estimate D2E/DX2                !
 ! A61   A(14,21,18)           122.4271         estimate D2E/DX2                !
 ! A62   A(14,21,80)           114.4109         estimate D2E/DX2                !
 ! A63   A(18,21,80)           122.9952         estimate D2E/DX2                !
 ! A64   A(17,22,23)           128.3605         estimate D2E/DX2                !
 ! A65   A(17,22,26)           119.9655         estimate D2E/DX2                !
 ! A66   A(23,22,26)           111.674          estimate D2E/DX2                !
 ! A67   A(22,23,24)           114.5786         estimate D2E/DX2                !
 ! A68   A(22,23,81)           124.6624         estimate D2E/DX2                !
 ! A69   A(24,23,81)           120.5779         estimate D2E/DX2                !
 ! A70   A(23,24,25)           111.577          estimate D2E/DX2                !
 ! A71   A(23,24,82)           131.1881         estimate D2E/DX2                !
 ! A72   A(25,24,82)           117.1675         estimate D2E/DX2                !
 ! A73   A(24,25,26)           108.0315         estimate D2E/DX2                !
 ! A74   A(24,25,27)           131.2466         estimate D2E/DX2                !
 ! A75   A(26,25,27)           120.2161         estimate D2E/DX2                !
 ! A76   A(22,26,25)            94.0956         estimate D2E/DX2                !
 ! A77   A(25,27,28)           121.7158         estimate D2E/DX2                !
 ! A78   A(25,27,34)           118.5396         estimate D2E/DX2                !
 ! A79   A(28,27,34)           119.1114         estimate D2E/DX2                !
 ! A80   A(27,28,29)           123.2343         estimate D2E/DX2                !
 ! A81   A(27,28,83)           120.3561         estimate D2E/DX2                !
 ! A82   A(29,28,83)           116.1522         estimate D2E/DX2                !
 ! A83   A(28,29,30)           123.1093         estimate D2E/DX2                !
 ! A84   A(28,29,84)           122.3221         estimate D2E/DX2                !
 ! A85   A(30,29,84)           114.5218         estimate D2E/DX2                !
 ! A86   A(29,30,31)           113.4497         estimate D2E/DX2                !
 ! A87   A(29,30,35)           122.4759         estimate D2E/DX2                !
 ! A88   A(31,30,35)           123.9903         estimate D2E/DX2                !
 ! A89   A(30,31,32)           113.783          estimate D2E/DX2                !
 ! A90   A(30,31,34)           124.9993         estimate D2E/DX2                !
 ! A91   A(32,31,34)           121.2176         estimate D2E/DX2                !
 ! A92   A(31,32,33)           117.1066         estimate D2E/DX2                !
 ! A93   A(32,33,85)           111.5982         estimate D2E/DX2                !
 ! A94   A(32,33,86)           111.0902         estimate D2E/DX2                !
 ! A95   A(32,33,87)           115.8014         estimate D2E/DX2                !
 ! A96   A(85,33,86)           104.2522         estimate D2E/DX2                !
 ! A97   A(85,33,87)           105.6145         estimate D2E/DX2                !
 ! A98   A(86,33,87)           107.703          estimate D2E/DX2                !
 ! A99   A(27,34,31)           115.8185         estimate D2E/DX2                !
 ! A100  A(27,34,88)           120.1902         estimate D2E/DX2                !
 ! A101  A(31,34,88)           123.8213         estimate D2E/DX2                !
 ! A102  A(30,35,36)           127.7947         estimate D2E/DX2                !
 ! A103  A(30,35,39)           121.7334         estimate D2E/DX2                !
 ! A104  A(36,35,39)           110.4289         estimate D2E/DX2                !
 ! A105  A(35,36,37)           110.1385         estimate D2E/DX2                !
 ! A106  A(35,36,89)           121.4358         estimate D2E/DX2                !
 ! A107  A(37,36,89)           127.9228         estimate D2E/DX2                !
 ! A108  A(36,37,38)           118.2723         estimate D2E/DX2                !
 ! A109  A(36,37,90)           124.1076         estimate D2E/DX2                !
 ! A110  A(38,37,90)           117.6201         estimate D2E/DX2                !
 ! A111  A(37,38,39)           104.5073         estimate D2E/DX2                !
 ! A112  A(37,38,40)           132.5247         estimate D2E/DX2                !
 ! A113  A(39,38,40)           122.923          estimate D2E/DX2                !
 ! A114  A(35,39,38)            96.5851         estimate D2E/DX2                !
 ! A115  A(38,40,41)           118.0642         estimate D2E/DX2                !
 ! A116  A(38,40,47)           120.2803         estimate D2E/DX2                !
 ! A117  A(41,40,47)           121.6424         estimate D2E/DX2                !
 ! A118  A(40,41,42)           116.8392         estimate D2E/DX2                !
 ! A119  A(40,41,91)           127.1105         estimate D2E/DX2                !
 ! A120  A(42,41,91)           115.9672         estimate D2E/DX2                !
 ! A121  A(41,42,43)           120.0777         estimate D2E/DX2                !
 ! A122  A(41,42,92)           121.068          estimate D2E/DX2                !
 ! A123  A(43,42,92)           118.7043         estimate D2E/DX2                !
 ! A124  A(42,43,44)           120.0531         estimate D2E/DX2                !
 ! A125  A(42,43,48)           116.3025         estimate D2E/DX2                !
 ! A126  A(44,43,48)           123.618          estimate D2E/DX2                !
 ! A127  A(43,44,45)           120.0867         estimate D2E/DX2                !
 ! A128  A(43,44,47)           119.972          estimate D2E/DX2                !
 ! A129  A(45,44,47)           119.8699         estimate D2E/DX2                !
 ! A130  A(44,45,46)           122.4095         estimate D2E/DX2                !
 ! A131  A(45,46,93)           112.1544         estimate D2E/DX2                !
 ! A132  A(45,46,94)           109.1457         estimate D2E/DX2                !
 ! A133  A(45,46,95)           108.1313         estimate D2E/DX2                !
 ! A134  A(93,46,94)           111.4943         estimate D2E/DX2                !
 ! A135  A(93,46,95)           109.5265         estimate D2E/DX2                !
 ! A136  A(94,46,95)           106.1585         estimate D2E/DX2                !
 ! A137  A(40,47,44)           121.2688         estimate D2E/DX2                !
 ! A138  A(40,47,96)           115.173          estimate D2E/DX2                !
 ! A139  A(44,47,96)           123.5265         estimate D2E/DX2                !
 ! A140  A(43,48,49)           123.0191         estimate D2E/DX2                !
 ! A141  A(43,48,52)           122.5511         estimate D2E/DX2                !
 ! A142  A(49,48,52)           114.2684         estimate D2E/DX2                !
 ! A143  A(48,49,50)           109.5974         estimate D2E/DX2                !
 ! A144  A(48,49,97)           127.0298         estimate D2E/DX2                !
 ! A145  A(50,49,97)           123.2623         estimate D2E/DX2                !
 ! A146  A(49,50,51)           111.3098         estimate D2E/DX2                !
 ! A147  A(49,50,98)           124.8952         estimate D2E/DX2                !
 ! A148  A(51,50,98)           123.7947         estimate D2E/DX2                !
 ! A149  A(50,51,52)           108.9393         estimate D2E/DX2                !
 ! A150  A(50,51,53)           129.7306         estimate D2E/DX2                !
 ! A151  A(52,51,53)           121.2251         estimate D2E/DX2                !
 ! A152  A(48,52,51)            95.7479         estimate D2E/DX2                !
 ! A153  A(51,53,54)           127.7559         estimate D2E/DX2                !
 ! A154  A(51,53,60)           115.5549         estimate D2E/DX2                !
 ! A155  A(54,53,60)           116.6801         estimate D2E/DX2                !
 ! A156  A(53,54,55)           126.049          estimate D2E/DX2                !
 ! A157  A(53,54,99)           117.021          estimate D2E/DX2                !
 ! A158  A(55,54,99)           116.8378         estimate D2E/DX2                !
 ! A159  A(54,55,56)           121.1798         estimate D2E/DX2                !
 ! A160  A(54,55,100)          122.2779         estimate D2E/DX2                !
 ! A161  A(56,55,100)          116.3887         estimate D2E/DX2                !
 ! A162  A(55,56,57)           116.8635         estimate D2E/DX2                !
 ! A163  A(55,56,61)           123.4179         estimate D2E/DX2                !
 ! A164  A(57,56,61)           119.4623         estimate D2E/DX2                !
 ! A165  A(56,57,58)           116.557          estimate D2E/DX2                !
 ! A166  A(56,57,60)           121.9564         estimate D2E/DX2                !
 ! A167  A(58,57,60)           121.3131         estimate D2E/DX2                !
 ! A168  A(57,58,59)           116.6658         estimate D2E/DX2                !
 ! A169  A(58,59,101)          111.0977         estimate D2E/DX2                !
 ! A170  A(58,59,102)          107.4242         estimate D2E/DX2                !
 ! A171  A(58,59,103)          103.711          estimate D2E/DX2                !
 ! A172  A(101,59,102)         112.8606         estimate D2E/DX2                !
 ! A173  A(101,59,103)         115.4476         estimate D2E/DX2                !
 ! A174  A(102,59,103)         105.5815         estimate D2E/DX2                !
 ! A175  A(53,60,57)           117.0508         estimate D2E/DX2                !
 ! A176  A(53,60,104)          119.5873         estimate D2E/DX2                !
 ! A177  A(57,60,104)          123.3581         estimate D2E/DX2                !
 ! A178  A(56,61,62)           130.6743         estimate D2E/DX2                !
 ! A179  A(56,61,65)           116.6253         estimate D2E/DX2                !
 ! A180  A(62,61,65)           112.5327         estimate D2E/DX2                !
 ! A181  A(61,62,63)           110.4169         estimate D2E/DX2                !
 ! A182  A(61,62,105)          124.8095         estimate D2E/DX2                !
 ! A183  A(63,62,105)          124.6837         estimate D2E/DX2                !
 ! A184  A(62,63,64)           115.1531         estimate D2E/DX2                !
 ! A185  A(62,63,106)          122.732          estimate D2E/DX2                !
 ! A186  A(64,63,106)          121.541          estimate D2E/DX2                !
 ! A187  A(63,64,65)           109.9137         estimate D2E/DX2                !
 ! A188  A(63,64,107)          129.2271         estimate D2E/DX2                !
 ! A189  A(65,64,107)          120.3988         estimate D2E/DX2                !
 ! A190  A(61,65,64)            91.769          estimate D2E/DX2                !
 ! D1    D(8,1,2,3)              0.0256         estimate D2E/DX2                !
 ! D2    D(8,1,2,67)           177.0525         estimate D2E/DX2                !
 ! D3    D(66,1,2,3)          -179.3735         estimate D2E/DX2                !
 ! D4    D(66,1,2,67)           -2.3466         estimate D2E/DX2                !
 ! D5    D(2,1,8,5)             -0.6811         estimate D2E/DX2                !
 ! D6    D(2,1,8,72)          -179.6472         estimate D2E/DX2                !
 ! D7    D(66,1,8,5)           178.7367         estimate D2E/DX2                !
 ! D8    D(66,1,8,72)           -0.2294         estimate D2E/DX2                !
 ! D9    D(1,2,3,4)             -1.4568         estimate D2E/DX2                !
 ! D10   D(1,2,3,68)           176.7119         estimate D2E/DX2                !
 ! D11   D(67,2,3,4)          -178.1323         estimate D2E/DX2                !
 ! D12   D(67,2,3,68)            0.0365         estimate D2E/DX2                !
 ! D13   D(2,3,4,5)              3.3497         estimate D2E/DX2                !
 ! D14   D(2,3,4,9)            178.8737         estimate D2E/DX2                !
 ! D15   D(68,3,4,5)          -174.6045         estimate D2E/DX2                !
 ! D16   D(68,3,4,9)             0.9195         estimate D2E/DX2                !
 ! D17   D(3,4,5,6)            178.037          estimate D2E/DX2                !
 ! D18   D(3,4,5,8)             -4.1446         estimate D2E/DX2                !
 ! D19   D(9,4,5,6)              3.1828         estimate D2E/DX2                !
 ! D20   D(9,4,5,8)           -178.9987         estimate D2E/DX2                !
 ! D21   D(3,4,9,10)           -73.6066         estimate D2E/DX2                !
 ! D22   D(3,4,9,13)           115.2654         estimate D2E/DX2                !
 ! D23   D(5,4,9,10)           101.3347         estimate D2E/DX2                !
 ! D24   D(5,4,9,13)           -69.7933         estimate D2E/DX2                !
 ! D25   D(4,5,6,7)            150.025          estimate D2E/DX2                !
 ! D26   D(8,5,6,7)            -27.7601         estimate D2E/DX2                !
 ! D27   D(4,5,8,1)              2.8243         estimate D2E/DX2                !
 ! D28   D(4,5,8,72)          -178.2362         estimate D2E/DX2                !
 ! D29   D(6,5,8,1)           -179.6589         estimate D2E/DX2                !
 ! D30   D(6,5,8,72)            -0.7195         estimate D2E/DX2                !
 ! D31   D(5,6,7,69)           -54.523          estimate D2E/DX2                !
 ! D32   D(5,6,7,70)            70.7062         estimate D2E/DX2                !
 ! D33   D(5,6,7,71)          -166.1959         estimate D2E/DX2                !
 ! D34   D(4,9,10,11)          179.933          estimate D2E/DX2                !
 ! D35   D(4,9,10,73)            5.1843         estimate D2E/DX2                !
 ! D36   D(13,9,10,11)          -8.3873         estimate D2E/DX2                !
 ! D37   D(13,9,10,73)         176.864          estimate D2E/DX2                !
 ! D38   D(4,9,13,12)          177.1908         estimate D2E/DX2                !
 ! D39   D(10,9,13,12)           4.2109         estimate D2E/DX2                !
 ! D40   D(9,10,11,12)           9.7655         estimate D2E/DX2                !
 ! D41   D(9,10,11,74)        -178.2322         estimate D2E/DX2                !
 ! D42   D(73,10,11,12)       -176.0414         estimate D2E/DX2                !
 ! D43   D(73,10,11,74)         -4.039          estimate D2E/DX2                !
 ! D44   D(10,11,12,13)         -6.4681         estimate D2E/DX2                !
 ! D45   D(10,11,12,14)        179.3072         estimate D2E/DX2                !
 ! D46   D(74,11,12,13)       -177.6446         estimate D2E/DX2                !
 ! D47   D(74,11,12,14)          8.1307         estimate D2E/DX2                !
 ! D48   D(11,12,13,9)           1.1819         estimate D2E/DX2                !
 ! D49   D(14,12,13,9)         176.0759         estimate D2E/DX2                !
 ! D50   D(11,12,14,15)         44.0244         estimate D2E/DX2                !
 ! D51   D(11,12,14,21)       -135.8684         estimate D2E/DX2                !
 ! D52   D(13,12,14,15)       -129.8382         estimate D2E/DX2                !
 ! D53   D(13,12,14,21)         50.269          estimate D2E/DX2                !
 ! D54   D(12,14,15,16)       -179.5336         estimate D2E/DX2                !
 ! D55   D(12,14,15,75)         -0.2554         estimate D2E/DX2                !
 ! D56   D(21,14,15,16)          0.3642         estimate D2E/DX2                !
 ! D57   D(21,14,15,75)        179.6424         estimate D2E/DX2                !
 ! D58   D(12,14,21,18)        179.4004         estimate D2E/DX2                !
 ! D59   D(12,14,21,80)          3.9672         estimate D2E/DX2                !
 ! D60   D(15,14,21,18)         -0.4902         estimate D2E/DX2                !
 ! D61   D(15,14,21,80)       -175.9233         estimate D2E/DX2                !
 ! D62   D(14,15,16,17)          3.0364         estimate D2E/DX2                !
 ! D63   D(14,15,16,76)       -177.6047         estimate D2E/DX2                !
 ! D64   D(75,15,16,17)       -176.3175         estimate D2E/DX2                !
 ! D65   D(75,15,16,76)          3.0414         estimate D2E/DX2                !
 ! D66   D(15,16,17,18)         -6.0456         estimate D2E/DX2                !
 ! D67   D(15,16,17,22)       -179.9994         estimate D2E/DX2                !
 ! D68   D(76,16,17,18)        174.5429         estimate D2E/DX2                !
 ! D69   D(76,16,17,22)          0.5891         estimate D2E/DX2                !
 ! D70   D(16,17,18,19)       -179.9077         estimate D2E/DX2                !
 ! D71   D(16,17,18,21)          6.0814         estimate D2E/DX2                !
 ! D72   D(22,17,18,19)         -6.1691         estimate D2E/DX2                !
 ! D73   D(22,17,18,21)        179.82           estimate D2E/DX2                !
 ! D74   D(16,17,22,23)        120.9506         estimate D2E/DX2                !
 ! D75   D(16,17,22,26)        -59.0864         estimate D2E/DX2                !
 ! D76   D(18,17,22,23)        -52.5828         estimate D2E/DX2                !
 ! D77   D(18,17,22,26)        127.3802         estimate D2E/DX2                !
 ! D78   D(17,18,19,20)       -178.344          estimate D2E/DX2                !
 ! D79   D(21,18,19,20)         -4.697          estimate D2E/DX2                !
 ! D80   D(17,18,21,14)         -2.8988         estimate D2E/DX2                !
 ! D81   D(17,18,21,80)        172.142          estimate D2E/DX2                !
 ! D82   D(19,18,21,14)       -175.9013         estimate D2E/DX2                !
 ! D83   D(19,18,21,80)         -0.8605         estimate D2E/DX2                !
 ! D84   D(18,19,20,77)       -172.4862         estimate D2E/DX2                !
 ! D85   D(18,19,20,78)        -60.0398         estimate D2E/DX2                !
 ! D86   D(18,19,20,79)         65.8278         estimate D2E/DX2                !
 ! D87   D(17,22,23,24)       -179.0906         estimate D2E/DX2                !
 ! D88   D(17,22,23,81)         -3.9773         estimate D2E/DX2                !
 ! D89   D(26,22,23,24)          0.9439         estimate D2E/DX2                !
 ! D90   D(26,22,23,81)        176.0572         estimate D2E/DX2                !
 ! D91   D(17,22,26,25)        178.3491         estimate D2E/DX2                !
 ! D92   D(23,22,26,25)         -1.6821         estimate D2E/DX2                !
 ! D93   D(22,23,24,25)          0.6081         estimate D2E/DX2                !
 ! D94   D(22,23,24,82)        177.4755         estimate D2E/DX2                !
 ! D95   D(81,23,24,25)       -174.7237         estimate D2E/DX2                !
 ! D96   D(81,23,24,82)          2.1436         estimate D2E/DX2                !
 ! D97   D(23,24,25,26)         -1.7406         estimate D2E/DX2                !
 ! D98   D(23,24,25,27)       -173.3747         estimate D2E/DX2                !
 ! D99   D(82,24,25,26)       -179.0912         estimate D2E/DX2                !
 ! D100  D(82,24,25,27)          9.2748         estimate D2E/DX2                !
 ! D101  D(24,25,26,22)          1.9779         estimate D2E/DX2                !
 ! D102  D(27,25,26,22)        174.7051         estimate D2E/DX2                !
 ! D103  D(24,25,27,28)         28.669          estimate D2E/DX2                !
 ! D104  D(24,25,27,34)       -142.1256         estimate D2E/DX2                !
 ! D105  D(26,25,27,28)       -142.1182         estimate D2E/DX2                !
 ! D106  D(26,25,27,34)         47.0872         estimate D2E/DX2                !
 ! D107  D(25,27,28,29)       -176.4719         estimate D2E/DX2                !
 ! D108  D(25,27,28,83)          9.5837         estimate D2E/DX2                !
 ! D109  D(34,27,28,29)         -5.7284         estimate D2E/DX2                !
 ! D110  D(34,27,28,83)       -179.6728         estimate D2E/DX2                !
 ! D111  D(25,27,34,31)        175.8193         estimate D2E/DX2                !
 ! D112  D(25,27,34,88)         -8.7407         estimate D2E/DX2                !
 ! D113  D(28,27,34,31)          4.7802         estimate D2E/DX2                !
 ! D114  D(28,27,34,88)       -179.7797         estimate D2E/DX2                !
 ! D115  D(27,28,29,30)          4.9906         estimate D2E/DX2                !
 ! D116  D(27,28,29,84)       -177.6353         estimate D2E/DX2                !
 ! D117  D(83,28,29,30)        179.17           estimate D2E/DX2                !
 ! D118  D(83,28,29,84)         -3.4558         estimate D2E/DX2                !
 ! D119  D(28,29,30,31)         -3.0324         estimate D2E/DX2                !
 ! D120  D(28,29,30,35)       -179.8187         estimate D2E/DX2                !
 ! D121  D(84,29,30,31)        179.4065         estimate D2E/DX2                !
 ! D122  D(84,29,30,35)          2.6201         estimate D2E/DX2                !
 ! D123  D(29,30,31,32)       -177.6262         estimate D2E/DX2                !
 ! D124  D(29,30,31,34)          2.5008         estimate D2E/DX2                !
 ! D125  D(35,30,31,32)         -0.896          estimate D2E/DX2                !
 ! D126  D(35,30,31,34)        179.231          estimate D2E/DX2                !
 ! D127  D(29,30,35,36)        121.813          estimate D2E/DX2                !
 ! D128  D(29,30,35,39)        -60.8053         estimate D2E/DX2                !
 ! D129  D(31,30,35,36)        -54.6308         estimate D2E/DX2                !
 ! D130  D(31,30,35,39)        122.7509         estimate D2E/DX2                !
 ! D131  D(30,31,32,33)        171.823          estimate D2E/DX2                !
 ! D132  D(34,31,32,33)         -8.2986         estimate D2E/DX2                !
 ! D133  D(30,31,34,27)         -3.3986         estimate D2E/DX2                !
 ! D134  D(30,31,34,88)       -178.6539         estimate D2E/DX2                !
 ! D135  D(32,31,34,27)        176.7373         estimate D2E/DX2                !
 ! D136  D(32,31,34,88)          1.482          estimate D2E/DX2                !
 ! D137  D(31,32,33,85)         66.4172         estimate D2E/DX2                !
 ! D138  D(31,32,33,86)       -177.7036         estimate D2E/DX2                !
 ! D139  D(31,32,33,87)        -54.4425         estimate D2E/DX2                !
 ! D140  D(30,35,36,37)        179.6403         estimate D2E/DX2                !
 ! D141  D(30,35,36,89)         -7.8859         estimate D2E/DX2                !
 ! D142  D(39,35,36,37)          2.0165         estimate D2E/DX2                !
 ! D143  D(39,35,36,89)        174.4903         estimate D2E/DX2                !
 ! D144  D(30,35,39,38)       -178.3835         estimate D2E/DX2                !
 ! D145  D(36,35,39,38)         -0.5912         estimate D2E/DX2                !
 ! D146  D(35,36,37,38)         -2.9728         estimate D2E/DX2                !
 ! D147  D(35,36,37,90)        177.115          estimate D2E/DX2                !
 ! D148  D(89,36,37,38)       -174.8283         estimate D2E/DX2                !
 ! D149  D(89,36,37,90)          5.2595         estimate D2E/DX2                !
 ! D150  D(36,37,38,39)          2.4269         estimate D2E/DX2                !
 ! D151  D(36,37,38,40)       -175.1083         estimate D2E/DX2                !
 ! D152  D(90,37,38,39)       -177.6551         estimate D2E/DX2                !
 ! D153  D(90,37,38,40)          4.8096         estimate D2E/DX2                !
 ! D154  D(37,38,39,35)         -0.9251         estimate D2E/DX2                !
 ! D155  D(40,38,39,35)        176.911          estimate D2E/DX2                !
 ! D156  D(37,38,40,41)       -140.5393         estimate D2E/DX2                !
 ! D157  D(37,38,40,47)         38.1637         estimate D2E/DX2                !
 ! D158  D(39,38,40,41)         42.3037         estimate D2E/DX2                !
 ! D159  D(39,38,40,47)       -138.9934         estimate D2E/DX2                !
 ! D160  D(38,40,41,42)       -179.1443         estimate D2E/DX2                !
 ! D161  D(38,40,41,91)         -2.6114         estimate D2E/DX2                !
 ! D162  D(47,40,41,42)          2.1714         estimate D2E/DX2                !
 ! D163  D(47,40,41,91)        178.7043         estimate D2E/DX2                !
 ! D164  D(38,40,47,44)       -177.6316         estimate D2E/DX2                !
 ! D165  D(38,40,47,96)          4.344          estimate D2E/DX2                !
 ! D166  D(41,40,47,44)          1.0239         estimate D2E/DX2                !
 ! D167  D(41,40,47,96)       -177.0004         estimate D2E/DX2                !
 ! D168  D(40,41,42,43)         -4.3518         estimate D2E/DX2                !
 ! D169  D(40,41,42,92)       -179.8425         estimate D2E/DX2                !
 ! D170  D(91,41,42,43)        178.7232         estimate D2E/DX2                !
 ! D171  D(91,41,42,92)          3.2326         estimate D2E/DX2                !
 ! D172  D(41,42,43,44)          3.5281         estimate D2E/DX2                !
 ! D173  D(41,42,43,48)       -178.275          estimate D2E/DX2                !
 ! D174  D(92,42,43,44)        179.1246         estimate D2E/DX2                !
 ! D175  D(92,42,43,48)         -2.6785         estimate D2E/DX2                !
 ! D176  D(42,43,44,45)        176.6531         estimate D2E/DX2                !
 ! D177  D(42,43,44,47)         -0.2709         estimate D2E/DX2                !
 ! D178  D(48,43,44,45)         -1.4058         estimate D2E/DX2                !
 ! D179  D(48,43,44,47)       -178.3298         estimate D2E/DX2                !
 ! D180  D(42,43,48,49)        130.6379         estimate D2E/DX2                !
 ! D181  D(42,43,48,52)        -54.247          estimate D2E/DX2                !
 ! D182  D(44,43,48,49)        -51.2363         estimate D2E/DX2                !
 ! D183  D(44,43,48,52)        123.8788         estimate D2E/DX2                !
 ! D184  D(43,44,45,46)       -178.2552         estimate D2E/DX2                !
 ! D185  D(47,44,45,46)         -1.328          estimate D2E/DX2                !
 ! D186  D(43,44,47,40)         -1.9996         estimate D2E/DX2                !
 ! D187  D(43,44,47,96)        175.8555         estimate D2E/DX2                !
 ! D188  D(45,44,47,40)       -178.9303         estimate D2E/DX2                !
 ! D189  D(45,44,47,96)         -1.0752         estimate D2E/DX2                !
 ! D190  D(44,45,46,93)        179.0558         estimate D2E/DX2                !
 ! D191  D(44,45,46,94)        -56.8789         estimate D2E/DX2                !
 ! D192  D(44,45,46,95)         58.1873         estimate D2E/DX2                !
 ! D193  D(43,48,49,50)        179.5039         estimate D2E/DX2                !
 ! D194  D(43,48,49,97)         -4.2479         estimate D2E/DX2                !
 ! D195  D(52,48,49,50)          4.0197         estimate D2E/DX2                !
 ! D196  D(52,48,49,97)       -179.7321         estimate D2E/DX2                !
 ! D197  D(43,48,52,51)       -178.907          estimate D2E/DX2                !
 ! D198  D(49,48,52,51)         -3.3991         estimate D2E/DX2                !
 ! D199  D(48,49,50,51)         -2.7446         estimate D2E/DX2                !
 ! D200  D(48,49,50,98)        177.0446         estimate D2E/DX2                !
 ! D201  D(97,49,50,51)       -179.1628         estimate D2E/DX2                !
 ! D202  D(97,49,50,98)          0.6264         estimate D2E/DX2                !
 ! D203  D(49,50,51,52)          0.431          estimate D2E/DX2                !
 ! D204  D(49,50,51,53)        176.6695         estimate D2E/DX2                !
 ! D205  D(98,50,51,52)       -179.361          estimate D2E/DX2                !
 ! D206  D(98,50,51,53)         -3.1224         estimate D2E/DX2                !
 ! D207  D(50,51,52,48)          1.5864         estimate D2E/DX2                !
 ! D208  D(53,51,52,48)       -175.0312         estimate D2E/DX2                !
 ! D209  D(50,51,53,54)       -136.8849         estimate D2E/DX2                !
 ! D210  D(50,51,53,60)         44.2528         estimate D2E/DX2                !
 ! D211  D(52,51,53,54)         38.9539         estimate D2E/DX2                !
 ! D212  D(52,51,53,60)       -139.9084         estimate D2E/DX2                !
 ! D213  D(51,53,54,55)       -177.9029         estimate D2E/DX2                !
 ! D214  D(51,53,54,99)          5.7144         estimate D2E/DX2                !
 ! D215  D(60,53,54,55)          0.9484         estimate D2E/DX2                !
 ! D216  D(60,53,54,99)       -175.4344         estimate D2E/DX2                !
 ! D217  D(51,53,60,57)       -179.5593         estimate D2E/DX2                !
 ! D218  D(51,53,60,104)        -0.2459         estimate D2E/DX2                !
 ! D219  D(54,53,60,57)          1.4474         estimate D2E/DX2                !
 ! D220  D(54,53,60,104)      -179.2392         estimate D2E/DX2                !
 ! D221  D(53,54,55,56)         -0.1222         estimate D2E/DX2                !
 ! D222  D(53,54,55,100)      -175.4536         estimate D2E/DX2                !
 ! D223  D(99,54,55,56)        176.2664         estimate D2E/DX2                !
 ! D224  D(99,54,55,100)         0.935          estimate D2E/DX2                !
 ! D225  D(54,55,56,57)         -3.2055         estimate D2E/DX2                !
 ! D226  D(54,55,56,61)       -177.3457         estimate D2E/DX2                !
 ! D227  D(100,55,56,57)       172.3887         estimate D2E/DX2                !
 ! D228  D(100,55,56,61)        -1.7515         estimate D2E/DX2                !
 ! D229  D(55,56,57,58)       -179.0684         estimate D2E/DX2                !
 ! D230  D(55,56,57,60)          5.6622         estimate D2E/DX2                !
 ! D231  D(61,56,57,58)         -4.6852         estimate D2E/DX2                !
 ! D232  D(61,56,57,60)       -179.9545         estimate D2E/DX2                !
 ! D233  D(55,56,61,62)        117.5669         estimate D2E/DX2                !
 ! D234  D(55,56,61,65)        -57.3152         estimate D2E/DX2                !
 ! D235  D(57,56,61,62)        -56.4287         estimate D2E/DX2                !
 ! D236  D(57,56,61,65)        128.6892         estimate D2E/DX2                !
 ! D237  D(56,57,58,59)        170.5277         estimate D2E/DX2                !
 ! D238  D(60,57,58,59)        -14.1703         estimate D2E/DX2                !
 ! D239  D(56,57,60,53)         -4.8773         estimate D2E/DX2                !
 ! D240  D(56,57,60,104)       175.8376         estimate D2E/DX2                !
 ! D241  D(58,57,60,53)       -179.9238         estimate D2E/DX2                !
 ! D242  D(58,57,60,104)         0.791          estimate D2E/DX2                !
 ! D243  D(57,58,59,101)        69.0348         estimate D2E/DX2                !
 ! D244  D(57,58,59,102)       -54.8494         estimate D2E/DX2                !
 ! D245  D(57,58,59,103)      -166.3405         estimate D2E/DX2                !
 ! D246  D(56,61,62,63)       -178.5003         estimate D2E/DX2                !
 ! D247  D(56,61,62,105)         4.8178         estimate D2E/DX2                !
 ! D248  D(65,61,62,63)         -3.4532         estimate D2E/DX2                !
 ! D249  D(65,61,62,105)       179.8649         estimate D2E/DX2                !
 ! D250  D(56,61,65,64)        176.7864         estimate D2E/DX2                !
 ! D251  D(62,61,65,64)          0.9869         estimate D2E/DX2                !
 ! D252  D(61,62,63,64)          5.1905         estimate D2E/DX2                !
 ! D253  D(61,62,63,106)       176.6161         estimate D2E/DX2                !
 ! D254  D(105,62,63,64)      -178.1225         estimate D2E/DX2                !
 ! D255  D(105,62,63,106)       -6.697          estimate D2E/DX2                !
 ! D256  D(62,63,64,65)         -4.3817         estimate D2E/DX2                !
 ! D257  D(62,63,64,107)      -176.4808         estimate D2E/DX2                !
 ! D258  D(106,63,64,65)      -175.9194         estimate D2E/DX2                !
 ! D259  D(106,63,64,107)       11.9816         estimate D2E/DX2                !
 ! D260  D(63,64,65,61)          1.9777         estimate D2E/DX2                !
 ! D261  D(107,64,65,61)       174.8861         estimate D2E/DX2                !
 --------------------------------------------------------------------------------
 Trust Radius=3.00D-01 FncErr=1.00D-07 GrdErr=1.00D-06 EigMax=2.50D+02 EigMin=1.00D-04
 Number of steps in this run=    577 maximum allowed number of steps=    642.
 GradGradGradGradGradGradGradGradGradGradGradGradGradGradGradGradGradGrad

 Leave Link  103 at Fri Jul 24 15:20:30 2020, MaxMem=  4026531840 cpu:               0.2 elap:               0.0
 (Enter /opt/ohpc/pub/libs/gaussian/g16-A.03/sandybridge/g16/l202.exe)
 Stoichiometry    C55H42O5S5
 Framework group  C1[X(C55H42O5S5)]
 Deg. of freedom   315
 Full point group                 C1      NOp   1
 Largest Abelian subgroup         C1      NOp   1
 Largest concise Abelian subgroup C1      NOp   1
                         Standard orientation:                         
 ---------------------------------------------------------------------
 Center     Atomic      Atomic             Coordinates (Angstroms)
 Number     Number       Type             X           Y           Z
 ---------------------------------------------------------------------
      1          6           0      -18.795486    2.013752   -1.298826
      2          6           0      -17.999655    1.773208   -2.467805
      3          6           0      -16.704845    1.218036   -2.355632
      4          6           0      -16.143924    0.912544   -1.098240
      5          6           0      -16.979092    1.122846    0.058760
      6          8           0      -16.312986    0.736159    1.249497
      7          6           0      -16.755297    1.522897    2.390843
      8          6           0      -18.241612    1.674992    0.002025
      9          6           0      -14.836227    0.332726   -1.145306
     10          6           0      -14.394246   -0.946799   -1.511517
     11          6           0      -13.004180   -1.055794   -1.399139
     12          6           0      -12.414640   -0.029351   -0.788197
     13         16           0      -13.524536    1.231972   -0.464908
     14          6           0      -10.989017    0.182274   -0.487458
     15          6           0      -10.058898   -0.122021   -1.518612
     16          6           0       -8.659668    0.051326   -1.288972
     17          6           0       -8.188052    0.479652    0.035096
     18          6           0       -9.216140    0.835783    1.010591
     19          8           0       -8.640070    1.225400    2.221348
     20          6           0       -9.612515    1.544580    3.210899
     21          6           0      -10.509033    0.665148    0.762412
     22          6           0       -6.748442    0.660363    0.279275
     23          6           0       -6.092187    1.788242    0.679271
     24          6           0       -4.719085    1.643015    0.803541
     25          6           0       -4.306845    0.349695    0.470895
     26         16           0       -5.728413   -0.585818    0.073783
     27          6           0       -2.980263   -0.312117    0.571921
     28          6           0       -2.089914    0.042850    1.494869
     29          6           0       -0.856307   -0.486675    1.570930
     30          6           0       -0.346774   -1.397911    0.617287
     31          6           0       -1.289741   -1.750702   -0.389608
     32          8           0       -0.788622   -2.734420   -1.347974
     33          6           0       -1.696796   -3.255471   -2.247442
     34          6           0       -2.574193   -1.234027   -0.493873
     35          6           0        0.957312   -1.951990    0.712865
     36          6           0        1.326489   -3.360379    0.785046
     37          6           0        2.687687   -3.487639    0.860457
     38          6           0        3.469392   -2.322987    0.792889
     39         16           0        2.297542   -1.009784    0.692785
     40          6           0        4.925910   -2.101996    0.748490
     41          6           0        5.442602   -1.046835    1.464376
     42          6           0        6.831009   -0.848810    1.389053
     43          6           0        7.662368   -1.791258    0.660423
     44          6           0        7.106737   -2.797737    0.008871
     45          8           0        7.918560   -3.685429   -0.768311
     46          6           0        7.386417   -4.727307   -1.493696
     47          6           0        5.739623   -2.956413    0.025241
     48          6           0        9.182225   -1.512014    0.668192
     49          6           0       10.122322   -2.475009    0.974791
     50          6           0       11.491546   -1.886553    0.879648
     51          6           0       11.443286   -0.526794    0.441256
     52         16           0        9.815356   -0.080411    0.200423
     53          6           0       12.492729    0.409667    0.279552
     54          6           0       12.502096    1.741530    0.646798
     55          6           0       13.488938    2.597359    0.444295
     56          6           0       14.693279    2.195184   -0.203338
     57          6           0       14.803882    0.854361   -0.545604
     58          8           0       15.999048    0.461950   -1.163935
     59          6           0       16.212304   -0.991421   -1.333756
     60          6           0       13.683116   -0.093367   -0.368740
     61          6           0       15.809874    3.064176   -0.397643
     62          6           0       17.095438    2.986636    0.073539
     63          6           0       17.878061    4.150077   -0.375423
     64          6           0       17.173157    5.094764   -1.047039
     65         16           0       15.506091    4.549459   -1.281860
     66          1           0      -19.749554    2.410087   -1.352900
     67          1           0      -18.511625    2.009418   -3.417286
     68          1           0      -16.224250    1.031127   -3.315126
     69          1           0      -16.650105    2.621553    2.201518
     70          1           0      -17.753575    1.282593    2.688001
     71          1           0      -15.999943    1.298104    3.142399
     72          1           0      -18.794763    1.834510    0.836291
     73          1           0      -15.079921   -1.652286   -1.900653
     74          1           0      -12.525476   -2.028189   -1.694599
     75          1           0      -10.302869   -0.486810   -2.470478
     76          1           0       -7.899503   -0.120302   -2.025155
     77          1           0       -9.080700    1.961254    4.062662
     78          1           0      -10.253561    2.371692    2.876551
     79          1           0      -10.181845    0.759711    3.521151
     80          1           0      -11.277369    0.805514    1.513057
     81          1           0       -6.552987    2.743647    0.817052
     82          1           0       -3.947826    2.356131    1.061886
     83          1           0       -2.394155    0.777752    2.364257
     84          1           0       -0.100238   -0.192330    2.413454
     85          1           0       -2.083791   -2.432641   -3.000157
     86          1           0       -1.241454   -3.987005   -2.870656
     87          1           0       -2.619902   -3.714372   -1.800158
     88          1           0       -3.270144   -1.526061   -1.241530
     89          1           0        0.578644   -4.135064    0.896641
     90          1           0        3.241485   -4.501791    0.975865
     91          1           0        4.879222   -0.301796    2.053182
     92          1           0        7.332912   -0.002162    1.952675
     93          1           0        8.132448   -5.270708   -2.021263
     94          1           0        6.785656   -5.411742   -0.787255
     95          1           0        6.658698   -4.310612   -2.209410
     96          1           0        5.207608   -3.737037   -0.552312
     97          1           0        9.931791   -3.499594    1.303732
     98          1           0       12.410829   -2.412717    1.114004
     99          1           0       11.627711    2.112792    1.211445
    100          1           0       13.461914    3.582121    0.810627
    101          1           0       15.532168   -1.399808   -2.056487
    102          1           0       16.106404   -1.485555   -0.281494
    103          1           0       17.258041   -1.068584   -1.586124
    104          1           0       13.721521   -1.118516   -0.684795
    105          1           0       17.498461    2.151988    0.650678
    106          1           0       18.907509    4.317822   -0.072230
    107          1           0       17.530106    6.022058   -1.526828
 ---------------------------------------------------------------------
 Rotational constants (GHZ):           0.0948839           0.0042305           0.0041340
 Leave Link  202 at Fri Jul 24 15:20:30 2020, MaxMem=  4026531840 cpu:               0.1 elap:               0.0
 (Enter /opt/ohpc/pub/libs/gaussian/g16-A.03/sandybridge/g16/l301.exe)
 Standard basis: CC-pVDZ (5D, 7F)
 Ernie: Thresh=  0.10000D-02 Tol=  0.10000D-05 Strict=F.
 Ernie:  170 primitive shells out of 1780 were deleted.
 There are  1205 symmetry adapted cartesian basis functions of A   symmetry.
 There are  1140 symmetry adapted basis functions of A   symmetry.
  1140 basis functions,  2629 primitive gaussians,  1205 cartesian basis functions
   246 alpha electrons      246 beta electrons
       nuclear repulsion energy      8452.5632270694 Hartrees.
 IExCor=32609 DFT=T Ex+Corr=LC-wPBE ExCW=0 ScaHFX=  1.000000
 ScaDFX=  1.000000  0.000000  1.000000  1.000000 ScalE2=  1.000000  1.000000
 IRadAn=      5 IRanWt=     -1 IRanGd=            0 ICorTp=0 IEmpDi=  4
 HFx  wShort=  0.000000 wLong=  0.290000 cFull=  0.000000 cShort=  0.000000 cLong=  1.000000
 DFx  wShort=  0.000000 wLong=  0.290000 cFull=  0.000000 cShort=  0.000000 cLong=  1.000000
 NAtoms=  107 NActive=  107 NUniq=  107 SFac= 1.00D+00 NAtFMM=   60 NAOKFM=T Big=T
 Integral buffers will be    131072 words long.
 Raffenetti 2 integral format.
[...]
  Beta virt. eigenvalues --    1.31758   1.32043   1.32862   1.33129   1.33703
  Beta virt. eigenvalues --    1.34504   1.34912   1.35103   1.35532   1.35749
  Beta virt. eigenvalues --    1.35974   1.36219   1.36526   1.37217   1.37328
  Beta virt. eigenvalues --    1.38048   1.38513   1.38858   1.38974   1.39162
  Beta virt. eigenvalues --    1.40905   1.41120   1.41582   1.41896   1.42245
  Beta virt. eigenvalues --    1.42445   1.44667   1.44928   1.45286   1.45360
  Beta virt. eigenvalues --    1.45907   1.46077   1.46181   1.46192   1.46341
  Beta virt. eigenvalues --    1.46481   1.46626   1.46773   1.46886   1.47145
  Beta virt. eigenvalues --    1.47378   1.47654   1.47764   1.47985   1.48384
  Beta virt. eigenvalues --    1.48541   1.50126   1.50362   1.50472   1.50851
  Beta virt. eigenvalues --    1.51014   1.52047   1.52310   1.52571   1.52902
  Beta virt. eigenvalues --    1.53088   1.53277   1.53454   1.54026   1.54106
  Beta virt. eigenvalues --    1.54495   1.54615   1.54689   1.54939   1.55089
  Beta virt. eigenvalues --    1.55609   1.55866   1.56244   1.56480   1.56599
  Beta virt. eigenvalues --    1.56968   1.57550   1.57668   1.57906   1.58251
  Beta virt. eigenvalues --    1.58411   1.58717   1.58886   1.59056   1.59171
  Beta virt. eigenvalues --    1.59542   1.59843   1.60051   1.60326   1.60749
  Beta virt. eigenvalues --    1.61358   1.61769   1.61865   1.62597   1.62752
  Beta virt. eigenvalues --    1.62993   1.63553   1.63908   1.64465   1.64692
  Beta virt. eigenvalues --    1.64808   1.65282   1.65419   1.65586   1.65753
  Beta virt. eigenvalues --    1.66087   1.66341   1.66687   1.66819   1.67152
  Beta virt. eigenvalues --    1.67240   1.67516   1.67645   1.67906   1.67911
  Beta virt. eigenvalues --    1.68179   1.68451   1.68506   1.68769   1.68842
  Beta virt. eigenvalues --    1.68950   1.69102   1.69407   1.69593   1.69918
  Beta virt. eigenvalues --    1.70204   1.70279   1.70720   1.70823   1.70960
  Beta virt. eigenvalues --    1.71042   1.71312   1.71534   1.71680   1.72074
  Beta virt. eigenvalues --    1.72218   1.72516   1.72639   1.72686   1.73092
  Beta virt. eigenvalues --    1.73156   1.73468   1.73719   1.74090   1.74587
  Beta virt. eigenvalues --    1.74623   1.74780   1.74974   1.75124   1.75458
  Beta virt. eigenvalues --    1.75569   1.75857   1.76103   1.76620   1.76846
  Beta virt. eigenvalues --    1.77002   1.77053   1.77159   1.77193   1.77756
  Beta virt. eigenvalues --    1.77942   1.78416   1.78514   1.78790   1.78989
  Beta virt. eigenvalues --    1.79454   1.80486   1.80593   1.80816   1.81082
  Beta virt. eigenvalues --    1.81247   1.81773   1.82519   1.82716   1.82818
  Beta virt. eigenvalues --    1.83220   1.83472   1.83665   1.83881   1.84036
  Beta virt. eigenvalues --    1.84171   1.84436   1.84524   1.84719   1.84786
  Beta virt. eigenvalues --    1.84951   1.85474   1.85561   1.85816   1.85890
  Beta virt. eigenvalues --    1.86465   1.86875   1.87178   1.87509   1.87730
  Beta virt. eigenvalues --    1.88321   1.88840   1.89255   1.89742   1.89811
  Beta virt. eigenvalues --    1.90101   1.90373   1.90839   1.91591   1.91687
  Beta virt. eigenvalues --    1.92043   1.92460   1.92757   1.92966   1.93238
  Beta virt. eigenvalues --    1.93536   1.93830   1.93979   1.94239   1.94901
  Beta virt. eigenvalues --    1.94979   1.95370   1.95472   1.95810   1.96031
  Beta virt. eigenvalues --    1.96183   1.96253   1.96588   1.96644   1.97087
  Beta virt. eigenvalues --    1.97214   1.97232   1.97311   1.97701   1.98000
  Beta virt. eigenvalues --    1.98185   1.98460   1.98671   1.99224   1.99722
  Beta virt. eigenvalues --    2.00481   2.00931   2.01217   2.01463   2.01711
  Beta virt. eigenvalues --    2.01936   2.02355   2.02976   2.04098   2.04494
  Beta virt. eigenvalues --    2.04569   2.05040   2.05533   2.06252   2.06295
  Beta virt. eigenvalues --    2.06610   2.06883   2.07533   2.07804   2.08155
  Beta virt. eigenvalues --    2.08773   2.08964   2.09280   2.09507   2.09923
  Beta virt. eigenvalues --    2.10173   2.10404   2.10574   2.11480   2.12069
  Beta virt. eigenvalues --    2.12342   2.12614   2.12789   2.12862   2.12994
  Beta virt. eigenvalues --    2.13335   2.13766   2.13881   2.14466   2.14829
  Beta virt. eigenvalues --    2.15622   2.15812   2.16303   2.17281   2.17324
  Beta virt. eigenvalues --    2.17526   2.17773   2.18564   2.19115   2.19399
  Beta virt. eigenvalues --    2.19849   2.20860   2.21914   2.22083   2.22457
  Beta virt. eigenvalues --    2.22672   2.22816   2.23886   2.23951   2.24102
  Beta virt. eigenvalues --    2.24282   2.24659   2.25462   2.25843   2.26770
  Beta virt. eigenvalues --    2.27650   2.27902   2.28776   2.29428   2.30318
  Beta virt. eigenvalues --    2.30660   2.30941   2.31725   2.32029   2.32452
  Beta virt. eigenvalues --    2.32787   2.32988   2.33650   2.34249   2.34762
  Beta virt. eigenvalues --    2.35050   2.35202   2.35735   2.36113   2.36155
  Beta virt. eigenvalues --    2.36789   2.37325   2.39608   2.39920   2.40379
  Beta virt. eigenvalues --    2.40681   2.41300   2.41723   2.42084   2.42605
  Beta virt. eigenvalues --    2.43058   2.43493   2.45242   2.45451   2.45808
  Beta virt. eigenvalues --    2.45868   2.45979   2.46136   2.47039   2.50034
  Beta virt. eigenvalues --    2.50226   2.50402   2.50694   2.50902   2.51046
  Beta virt. eigenvalues --    2.51692   2.51866   2.51907   2.52287   2.52657
  Beta virt. eigenvalues --    2.53896   2.53961   2.54425   2.54551   2.56460
  Beta virt. eigenvalues --    2.56617   2.56777   2.56939   2.56987   2.57364
  Beta virt. eigenvalues --    2.59547   2.59754   2.60198   2.60844   2.62552
  Beta virt. eigenvalues --    2.63512   2.63680   2.64170   2.64946   2.66907
  Beta virt. eigenvalues --    2.67809   2.68525   2.69166   2.73094   2.73307
  Beta virt. eigenvalues --    2.74506   2.74831   2.75332   2.75749   2.76295
  Beta virt. eigenvalues --    2.76763   2.77430   2.77825   2.78590   2.80237
  Beta virt. eigenvalues --    2.80297   2.80760   2.81054   2.82130   2.83653
  Beta virt. eigenvalues --    2.84408   2.84529   2.84911   2.85506   2.91255
  Beta virt. eigenvalues --    2.91780   2.92011   2.92153   2.92337   2.93428
  Beta virt. eigenvalues --    2.94401   2.94615   2.94733   2.94941   3.07676
  Beta virt. eigenvalues --    3.07850   3.07899   3.07950   3.08162   3.10493
  Beta virt. eigenvalues --    3.11585   3.11802   3.11837   3.11977   3.18990
  Beta virt. eigenvalues --    3.19914   3.20275   3.20601   3.23563   3.32039
  Beta virt. eigenvalues --    3.32337   3.32516   3.32932   3.35309   3.45352
  Beta virt. eigenvalues --    3.46563   3.46612   3.46720   3.46888   3.62247
  Beta virt. eigenvalues --    3.62758   3.63375   3.63902   3.67533
          Condensed to atoms (all electrons):
          Atomic-Atomic Spin Densities.
 Mulliken charges and spin densities:
               1          2
     1  C    0.020636  -0.000000
     2  C    0.022686   0.000000
     3  C   -0.003479   0.000000
     4  C    0.012134  -0.000000
     5  C    0.101534   0.000000
     6  O   -0.249463  -0.000000
     7  C    0.058676  -0.000000
     8  C   -0.032712   0.000000
     9  C   -0.131735  -0.000000
    10  C    0.029965   0.000000
    11  C    0.028508  -0.000000
    12  C   -0.159761   0.000000
    13  S    0.168933   0.000000
    14  C    0.062509  -0.000000
    15  C   -0.000756   0.000000
    16  C    0.011644  -0.000000
    17  C    0.040657  -0.000000
    18  C    0.099411   0.000000
    19  O   -0.248569  -0.000000
    20  C    0.058180  -0.000000
    21  C   -0.040828  -0.000000
    22  C   -0.142232   0.000000
    23  C    0.044717  -0.000000
    24  C    0.031883   0.000000
    25  C   -0.157199  -0.000000
    26  S    0.143410   0.000000
    27  C    0.065696   0.000000
    28  C   -0.002171  -0.000000
    29  C    0.011740  -0.000000
    30  C    0.040526  -0.000000
    31  C    0.098822   0.000000
    32  O   -0.249085   0.000000
    33  C    0.058104   0.000000
    34  C   -0.040901   0.000000
    35  C   -0.143492   0.000000
    36  C    0.044280   0.000000
    37  C    0.027423   0.000000
    38  C   -0.156325  -0.000000
    39  S    0.154037  -0.000000
    40  C    0.059277  -0.000000
    41  C    0.001388  -0.000000
    42  C    0.009988  -0.000000
    43  C    0.040110   0.000000
    44  C    0.101945   0.000000
    45  O   -0.248746   0.000000
    46  C    0.059590  -0.000000
    47  C   -0.040502  -0.000000
    48  C   -0.143374  -0.000000
    49  C    0.044102  -0.000000
    50  C    0.027370   0.000000
    51  C   -0.155754  -0.000000
    52  S    0.154642  -0.000000
    53  C    0.058130   0.000000
    54  C    0.000395  -0.000000
    55  C    0.012530   0.000000
    56  C    0.043535  -0.000000
    57  C    0.103086  -0.000000
    58  O   -0.247186   0.000000
    59  C    0.059566  -0.000000
    60  C   -0.041659   0.000000
    61  C   -0.147444  -0.000000
    62  C    0.017708   0.000000
    63  C    0.057819  -0.000000
    64  C   -0.135930   0.000000
    65  S    0.144636  -0.000000
    66  H   -0.008112   0.000000
    67  H   -0.011724  -0.000000
    68  H   -0.012342  -0.000000
    69  H    0.048210   0.000000
    70  H    0.048434  -0.000000
    71  H    0.054692  -0.000000
    72  H   -0.006140   0.000000
    73  H   -0.008654   0.000000
    74  H   -0.011643   0.000000
    75  H   -0.021454   0.000000
    76  H   -0.008858  -0.000000
    77  H    0.054125   0.000000
    78  H    0.048271   0.000000
    79  H    0.050814   0.000000
    80  H   -0.006471  -0.000000
    81  H   -0.013691   0.000000
    82  H   -0.010419   0.000000
    83  H   -0.020296   0.000000
    84  H   -0.005901  -0.000000
    85  H    0.051162  -0.000000
    86  H    0.053343  -0.000000
    87  H    0.049351  -0.000000
    88  H   -0.007014   0.000000
    89  H   -0.014237   0.000000
    90  H   -0.014579  -0.000000
    91  H   -0.014025   0.000000
    92  H   -0.005590   0.000000
    93  H    0.053615   0.000000
    94  H    0.045992   0.000000
    95  H    0.051090  -0.000000
    96  H   -0.013144   0.000000
    97  H   -0.014904  -0.000000
    98  H   -0.014690   0.000000
    99  H   -0.014386  -0.000000
   100  H   -0.006110  -0.000000
   101  H    0.050520   0.000000
   102  H    0.045344  -0.000000
   103  H    0.054004   0.000000
   104  H   -0.013607  -0.000000
   105  H   -0.011346   0.000000
   106  H   -0.007940   0.000000
   107  H    0.025686  -0.000000
 Sum of Mulliken charges =  -0.00000  -0.00000
 Mulliken charges and spin densities with hydrogens summed into heavy atoms:
               1          2
     1  C    0.012524  -0.000000
     2  C    0.010962   0.000000
     3  C   -0.015822   0.000000
     4  C    0.012134  -0.000000
     5  C    0.101534   0.000000
     6  O   -0.249463  -0.000000
     7  C    0.210011  -0.000000
     8  C   -0.038852   0.000000
     9  C   -0.131735  -0.000000
    10  C    0.021312   0.000000
    11  C    0.016865  -0.000000
    12  C   -0.159761   0.000000
    13  S    0.168933   0.000000
    14  C    0.062509  -0.000000
    15  C   -0.022210   0.000000
    16  C    0.002786  -0.000000
    17  C    0.040657  -0.000000
    18  C    0.099411   0.000000
    19  O   -0.248569  -0.000000
    20  C    0.211390  -0.000000
    21  C   -0.047299  -0.000000
    22  C   -0.142232   0.000000
    23  C    0.031026  -0.000000
    24  C    0.021464   0.000000
    25  C   -0.157199  -0.000000
    26  S    0.143410   0.000000
    27  C    0.065696   0.000000
    28  C   -0.022467  -0.000000
    29  C    0.005838  -0.000000
    30  C    0.040526  -0.000000
    31  C    0.098822   0.000000
    32  O   -0.249085   0.000000
    33  C    0.211960  -0.000000
    34  C   -0.047915   0.000000
    35  C   -0.143492   0.000000
    36  C    0.030043   0.000000
    37  C    0.012844   0.000000
    38  C   -0.156325  -0.000000
    39  S    0.154037  -0.000000
    40  C    0.059277  -0.000000
    41  C   -0.012637  -0.000000
    42  C    0.004398   0.000000
    43  C    0.040110   0.000000
    44  C    0.101945   0.000000
    45  O   -0.248746   0.000000
    46  C    0.210288  -0.000000
    47  C   -0.053645   0.000000
    48  C   -0.143374  -0.000000
    49  C    0.029198  -0.000000
    50  C    0.012680   0.000000
    51  C   -0.155754  -0.000000
    52  S    0.154642  -0.000000
    53  C    0.058130   0.000000
    54  C   -0.013992  -0.000000
    55  C    0.006420   0.000000
    56  C    0.043535  -0.000000
    57  C    0.103086  -0.000000
    58  O   -0.247186   0.000000
    59  C    0.209434  -0.000000
    60  C   -0.055266  -0.000000
    61  C   -0.147444  -0.000000
    62  C    0.006362   0.000000
    63  C    0.049879  -0.000000
    64  C   -0.110244   0.000000
    65  S    0.144636  -0.000000
 Electronic spatial extent (au):  <R**2>=         235598.7485
 Charge=              0.0000 electrons
 Dipole moment (field-independent basis, Debye):
    X=             -4.4820    Y=             -1.9755    Z=             -0.5623  Tot=              4.9302
 Quadrupole moment (field-independent basis, Debye-Ang):
   XX=           -304.6278   YY=           -338.9467   ZZ=           -421.1469
   XY=            -72.5110   XZ=            -16.8888   YZ=             15.5040
 Traceless Quadrupole moment (field-independent basis, Debye-Ang):
   XX=             50.2793   YY=             15.9604   ZZ=            -66.2398
   XY=            -72.5110   XZ=            -16.8888   YZ=             15.5040
 Octapole moment (field-independent basis, Debye-Ang**2):
  XXX=           -958.8510  YYY=            -50.0633  ZZZ=            -13.3323  XYY=           -171.1225
  XXY=            111.6475  XXZ=            -96.3566  XZZ=              6.1393  YZZ=             -7.4910
  YYZ=            -15.9424  XYZ=            -38.8099
 Hexadecapole moment (field-independent basis, Debye-Ang**3):
 XXXX=        -256504.7652 YYYY=         -12360.8995 ZZZZ=          -1255.9852 XXXY=         -15345.9606
 XXXZ=          -3590.2209 YYYX=          -1613.9103 YYYZ=            204.5953 ZZZX=           -393.3398
 ZZZY=            108.4168 XXYY=         -45659.1101 XXZZ=         -53961.1968 YYZZ=          -2614.9937
 XXYZ=           1639.1963 YYXZ=           -493.9785 ZZXY=           -353.0531
 N-N= 8.433679866442D+03 E-N=-2.740146262135D+04  KE= 4.464258754486D+03
 Leave Link  601 at Fri Jul 24 21:05:43 2020, MaxMem=  4026531840 cpu:              10.3 elap:               1.4
 (Enter /opt/ohpc/pub/libs/gaussian/g16-A.03/sandybridge/g16/l9999.exe)

 Test job not archived.
 1\1\GINC-SKYLAKE039\FOpt\ULC-wPBE\CC-pVDZ\C55H42O5S5\RDU230\24-Jul-202
 0\0\\#P uLC-wPBE/cc-pVDZ iop(3/107=0290000000, 3/108=0290000000) opt\\
 H42 C55 S5 O5\\0,1\C,-19.0911767271,1.2823768299,-0.4495840132\C,-18.6
 724232031,0.1103146103,-1.0700737106\C,-17.3321706799,-0.2644986899,-0
 .9885218432\C,-16.3901766952,0.4979533507,-0.2872234136\C,-16.83416139
 46,1.693131435,0.3242909273\O,-15.8825351786,2.4167903728,0.9745862647
 \C,-16.263872143,3.6313226761,1.5906634205\C,-18.1756286248,2.07589104
 64,0.2431666292\C,-14.9946644107,0.0203159152,-0.1969355785\C,-14.5800
 7695,-1.2921740668,-0.2632801084\C,-13.1686112218,-1.4457105527,-0.244
 839531\C,-12.4986963707,-0.247566227,-0.1639552269\S,-13.6174337371,1.
 0737171518,-0.0990926524\C,-11.041978207,-0.0244487649,-0.1087104611\C
 ,-10.1665503577,-0.8912575138,-0.7702981647\C,-8.7935901348,-0.6775656
 939,-0.7027379077\C,-8.2335122817,0.3906594712,0.0080429755\C,-9.12617
 01352,1.2722386538,0.6644118603\O,-8.5652992073,2.3063042911,1.3481151
 646\C,-9.4187261205,3.166334275,2.0791471113\C,-10.503861269,1.0563453
 934,0.6064068087\C,-6.7703007109,0.5660534371,0.0722197316\C,-6.014837
 6661,1.7110600423,0.179861365\C,-4.6145212074,1.4654631356,0.173149364
 1\C,-4.2924070757,0.1331296371,0.0693859068\S,-5.7329958242,-0.8284079
 7,-0.0084455623\C,-2.9535889678,-0.4829440659,0.0368978865\C,-1.881755
 1185,0.1122402697,0.7094762172\C,-0.6202074911,-0.4717550713,0.6603258
 273\C,-0.3673618391,-1.6564084549,-0.0417576335\C,-1.4599858229,-2.261
 2669402,-0.7088994901\O,-1.1977619879,-3.4135535124,-1.3834515295\C,-2
 .2473377905,-4.009974159,-2.1220851431\C,-2.7252985159,-1.6735898341,-
 0.6697614303\C,0.9917964465,-2.2280523601,-0.0853023007\C,1.4036513566
 ,-3.5376003004,-0.1818024464\C,2.8171809908,-3.6862984499,-0.153136538
 7\C,3.4917195685,-2.493110606,-0.0436225882\S,2.3710214823,-1.17272642
 11,0.0132853854\C,4.9468161522,-2.2627453962,0.0133474338\C,5.49441388
 97,-1.1964168732,0.7325391597\C,6.8741581517,-1.0214673939,0.774798181
 \C,7.7601882117,-1.8822248862,0.1169324798\C,7.199027215,-2.9635890659
 ,-0.6054856857\O,8.0756736736,-3.7878674647,-1.2417650727\C,7.55284699
 44,-4.8304652533,-2.0423915063\C,5.8156358803,-3.1380237269,-0.6569584
 176\C,9.215340683,-1.645367652,0.1682658194\C,10.2631793213,-2.5365427
 097,0.1286081745\C,11.535863812,-1.9140631478,0.2466307846\C,11.467650
 3698,-0.5461390267,0.3680870567\S,9.816947106,-0.0209001578,0.32491241
 75\C,12.5729428796,0.419885401,0.5070725953\C,12.4262778188,1.60438248
 13,1.2344885699\C,13.4981656358,2.4838793428,1.3549901402\C,14.7438187
 766,2.2327190952,0.7695385076\C,14.887451351,1.0282223748,0.0388960214
 \O,16.1055027677,0.803026346,-0.5252672097\C,16.2663439766,-0.34731881
 28,-1.3324594435\C,13.8130970263,0.147269642,-0.0912195831\C,15.846912
 2292,3.2051505642,0.9012464017\C,17.2058354584,3.001260895,0.966947659
 1\C,17.9486487537,4.205912949,1.1358302873\C,17.1490313005,5.314948688
 8,1.1864384607\S,15.4877109729,4.9034599074,1.027367298\H,-20.13874693
 39,1.5972115668,-0.5064326058\H,-19.3813018579,-0.5093760985,-1.628170
 4807\H,-16.9935616831,-1.171387709,-1.4997489673\H,-16.6659953919,4.35
 40895971,0.8554573978\H,-17.0137702481,3.4662258197,2.3874135117\H,-15
 .3477544825,4.0438324722,2.0386536\H,-18.517246916,2.9971710359,0.7214
 499361\H,-15.2784633231,-2.1322480277,-0.3010415195\H,-12.661105695,-2
 .4138727864,-0.2524008592\H,-10.5611237754,-1.7203692692,-1.3651172617
 \H,-8.1229842889,-1.3554731533,-1.2424351884\H,-8.7608135598,3.8986515
 306,2.5701530866\H,-10.1266987934,3.7011216947,1.4176952895\H,-9.98802
 32047,2.6156959875,2.8517208533\H,-11.1847504301,1.7232740034,1.141217
 3196\H,-6.4614571322,2.7033601677,0.24713934\H,-3.8602650914,2.2558560
 826,0.2146517151\H,-2.039337322,1.0204763523,1.2985500895\H,0.20411641
 6,-0.0022382911,1.2085477552\H,-2.6340514939,-3.3292118101,-2.90384574
 49\H,-1.8116966052,-4.8987692298,-2.6021695966\H,-3.0826393772,-4.3243
 080236,-1.4677946843\H,-3.5566643676,-2.1297644042,-1.2131609796\H,0.7
 020291831,-4.3688381299,-0.2553220782\H,3.3244656137,-4.6546380265,-0.
 1800986379\H,4.8424464585,-0.5121740388,1.2849230003\H,7.2868224513,-0
 .1920448482,1.3597088946\H,8.423404364,-5.3409744643,-2.4803377482\H,6
 .971497015,-5.5567623071,-1.4427877263\H,6.9150807355,-4.4387931179,-2
 .8572861097\H,5.3865899094,-3.9514817384,-1.2461487116\H,10.1144673984
 ,-3.6123788662,0.0326693472\H,12.4795236499,-2.4658787878,0.2737422025
 \H,11.4779494672,1.831367865,1.7320745402\H,13.3718056641,3.3985273118
 ,1.944779477\H,15.5705879588,-0.3431203272,-2.1928351006\H,16.12212667
 12,-1.2793474592,-0.7530995315\H,17.3006047474,-0.3124569757,-1.705805
 115\H,13.9178405695,-0.7620546532,-0.6871846874\H,17.6527976754,2.0087
 425699,0.9014674554\H,19.0382560587,4.2452879797,1.216530617\H,17.4459
 287817,6.3589580459,1.3020108043\\Version=EM64L-G16RevA.03\State=1-A\H
 F=-4485.7046834\S2=0.\S2-1=0.\S2A=0.\RMSD=9.929e-09\RMSF=2.716e-06\Dip
 ole=-1.756876,-0.6915253,-0.444578\Quadrupole=38.222006,0.6096291,-38.
 8316351,-48.3791941,-26.4750403,25.5444906\PG=C01 [X(C55H42O5S5)]\\@


 IF YOU GIVE EVERYONE A PIECE OF YOUR MIND,
 PRETTY SOON IT WILL BE ALL GONE.
 Job cpu time:       1 days 21 hours  9 minutes 39.6 seconds.
 Elapsed time:       0 days  5 hours 45 minutes 12.0 seconds.
 File lengths (MBytes):  RWF=   1472 Int=      0 D2E=      0 Chk=    132 Scr=      8
 Normal termination of Gaussian 16 at Fri Jul 24 21:05:44 2020.
