 Entering Gaussian System, Link 0=g16
 Input=mols_65_7_16_n-n-C_opt_0.gjf
 Output=mols_65_7_16_n-n-C_opt_0.log
 Initial command:
 /opt/ohpc/pub/libs/gaussian/g16-A.03/sandybridge/g16/l1.exe "/mnt/gpfs2_4m/scratch/rdu230/ondemand/projects/dihedral_energies/7trial/wtuning/mols_65_7_16_n-n-C/Gau-367751.inp" -scrdir="/mnt/gpfs2_4m/scratch/rdu230/ondemand/projects/dihedral_energies/7trial/wtuning/mols_65_7_16_n-n-C/"
 Entering Link 1 = /opt/ohpc/pub/libs/gaussian/g16-A.03/sandybridge/g16/l1.exe PID=    367755.
  
 Copyright (c) 1988,1990,1992,1993,1995,1998,2003,2009,2016,
            Gaussian, Inc.  All Rights Reserved.
  
 This is part of the Gaussian(R) 16 program.  It is based on
 the Gaussian(R) 09 system (copyright 2009, Gaussian, Inc.),
 the Gaussian(R) 03 system (copyright 2003, Gaussian, Inc.),
 the Gaussian(R) 98 system (copyright 1998, Gaussian, Inc.),
 the Gaussian(R) 94 system (copyright 1995, Gaussian, Inc.),
 the Gaussian 92(TM) system (copyright 1992, Gaussian, Inc.),
 the Gaussian 90(TM) system (copyright 1990, Gaussian, Inc.),
 the Gaussian 88(TM) system (copyright 1988, Gaussian, Inc.),
 the Gaussian 86(TM) system (copyright 1986, Carnegie Mellon
 University), and the Gaussian 82(TM) system (copyright 1983,
 Carnegie Mellon University). Gaussian is a federally registered
 trademark of Gaussian, Inc.
  
 This software contains proprietary and confidential information,
 including trade secrets, belonging to Gaussian, Inc.
  
 This software is provided under written license and may be
 used, copied, transmitted, or stored only in accord with that
 written license.
  
 The following legend is applicable only to US Government
 contracts under FAR:
  
                    RESTRICTED RIGHTS LEGEND
  
 Use, reproduction and disclosure by the US Government is
 subject to restrictions as set forth in subparagraphs (a)
 and (c) of the Commercial Computer Software - Restricted
 Rights clause in FAR 52.227-19.
  
 Gaussian, Inc.
 340 Quinnipiac St., Bldg. 40, Wallingford CT 06492
  
  
 ---------------------------------------------------------------
 Warning -- This program may not be used in any manner that
 competes with the business of Gaussian, Inc. or will provide
 assistance to any competitor of Gaussian, Inc.  The licensee
 of this program is prohibited from giving any competitor of
 Gaussian, Inc. access to this program.  By using this program,
 the user acknowledges that Gaussian, Inc. is engaged in the
 business of creating and licensing software in the field of
 computational chemistry and represents and warrants to the
 licensee that it is not a competitor of Gaussian, Inc. and that
 it will not use this program in any manner prohibited above.
 ---------------------------------------------------------------
  

 Cite this work as:
 Gaussian 16, Revision A.03,
 M. J. Frisch, G. W. Trucks, H. B. Schlegel, G. E. Scuseria, 
 M. A. Robb, J. R. Cheeseman, G. Scalmani, V. Barone, 
 G. A. Petersson, H. Nakatsuji, X. Li, M. Caricato, A. V. Marenich, 
 J. Bloino, B. G. Janesko, R. Gomperts, B. Mennucci, H. P. Hratchian, 
 J. V. Ortiz, A. F. Izmaylov, J. L. Sonnenberg, D. Williams-Young, 
 F. Ding, F. Lipparini, F. Egidi, J. Goings, B. Peng, A. Petrone, 
 T. Henderson, D. Ranasinghe, V. G. Zakrzewski, J. Gao, N. Rega, 
 G. Zheng, W. Liang, M. Hada, M. Ehara, K. Toyota, R. Fukuda, 
 J. Hasegawa, M. Ishida, T. Nakajima, Y. Honda, O. Kitao, H. Nakai, 
 T. Vreven, K. Throssell, J. A. Montgomery, Jr., J. E. Peralta, 
 F. Ogliaro, M. J. Bearpark, J. J. Heyd, E. N. Brothers, K. N. Kudin, 
 V. N. Staroverov, T. A. Keith, R. Kobayashi, J. Normand, 
 K. Raghavachari, A. P. Rendell, J. C. Burant, S. S. Iyengar, 
 J. Tomasi, M. Cossi, J. M. Millam, M. Klene, C. Adamo, R. Cammi, 
 J. W. Ochterski, R. L. Martin, K. Morokuma, O. Farkas, 
 J. B. Foresman, and D. J. Fox, Gaussian, Inc., Wallingford CT, 2016.
 
 ******************************************
 Gaussian 16:  EM64L-G16RevA.03 25-Dec-2016
                24-Jul-2020 
 ******************************************
 %mem=30GB
 %nproc=8
 Will use up to    8 processors via shared memory.
 ---------------------------------------------------------------
 #P uLC-wPBE/cc-pVDZ iop(3/107=0216700000, 3/108=0216700000) opt
 ---------------------------------------------------------------
 1/18=20,19=15,26=3,38=1/1,3;
 2/9=110,12=2,17=6,18=5,40=1/2;
 3/5=16,11=2,25=1,30=1,71=1,74=-41,107=216700000,108=216700000,116=2/1,2,3;
 4//1;
 5/5=2,38=5/2;
 6/7=2,8=2,9=2,10=2,28=1/1;
 7//1,2,3,16;
 1/18=20,19=15,26=3/3(2);
 2/9=110/2;
 99//99;
 2/9=110/2;
 3/5=16,11=2,25=1,30=1,71=1,74=-41,107=216700000,108=216700000,116=2/1,2,3;
 4/5=5,16=3,69=1/1;
 5/5=2,38=5/2;
 7//1,2,3,16;
 1/18=20,19=15,26=3/3(-5);
 2/9=110/2;
 6/7=2,8=2,9=2,10=2,19=2,28=1/1;
 99/9=1/99;
 Leave Link    1 at Fri Jul 24 22:47:45 2020, MaxMem=  4026531840 cpu:               2.0 elap:               0.3
 (Enter /opt/ohpc/pub/libs/gaussian/g16-A.03/sandybridge/g16/l101.exe)
 --------------
 H30 C56 S7 N14
 --------------
 Symbolic Z-matrix:
 Charge =  0 Multiplicity = 1
 C                    -25.39411   4.52179  -0.1741 
 C                    -24.76178   3.5946   -0.93509 
 N                    -23.60227   3.09411  -0.65783 
 C                    -22.91574   3.70172   0.39853 
 N                    -23.46755   4.59755   1.22007 
 C                    -24.75555   5.00123   0.84796 
 C                    -21.55927   3.20925   0.69105 
 C                    -20.8081   3.6676    1.7151 
 C                    -19.47007   3.02189   1.76235 
 C                    -19.41136   2.05386   0.77059 
 S                    -20.83981   2.00504  -0.1425 
 C                    -18.23022   1.12381   0.55048 
 C                    -18.41456  -0.17652   0.11368 
 N                    -17.35416  -0.96472  -0.19798 
 C                    -16.12629  -0.54465   0.0693 
 N                    -15.90661   0.7198    0.52142 
 C                    -16.97219   1.47066   0.70041 
 C                    -15.00387  -1.43643  -0.26124 
 C                    -15.06204  -2.68195  -0.673 
 C                    -13.76704  -3.27054  -0.79849 
 C                    -12.76039  -2.39981  -0.38985 
 S                    -13.35065  -0.93849   0.02657 
 C                    -11.29008  -2.63111  -0.37086 
 C                    -10.40545  -2.04961   0.40502 
 N                    -9.02524  -2.21719   0.46678 
 C                    -8.57206  -3.12202  -0.39374 
 N                    -9.37788  -3.83485  -1.20895 
 C                    -10.65189  -3.57707  -1.20307 
 C                    -7.15867  -3.40202  -0.45786 
 C                    -6.48787  -4.50201  -1.07154 
 C                    -5.10472  -4.41094  -0.88469 
 C                    -4.66043  -3.27763  -0.17975 
 S                    -6.07593  -2.40315   0.42179 
 C                    -3.36627  -2.88667   0.12729 
 C                    -2.27947  -2.93049  -0.82234 
 N                    -1.00244  -2.53079  -0.53946 
 C                    -0.77162  -2.06502   0.70928 
 N                    -1.68111  -1.95142   1.6424 
 C                    -2.89702  -2.36545   1.34433 
 C                     0.61625  -1.59917   0.90626 
 C                     1.1629   -1.16968   2.1173 
 C                     2.46752  -0.77495   1.98357 
 C                     2.96925  -0.90468   0.77962 
 S                     1.80192  -1.63902  -0.31525 
 C                     4.33023  -0.55182   0.16412 
 C                     5.45614  -0.68316   0.98254 
 N                     6.67847  -0.28617   0.56537 
 C                     6.74658   0.09408  -0.74471 
 N                     5.77501   0.18488  -1.63565 
 C                     4.57818  -0.13058  -1.09266 
 C                     8.04912   0.46126  -1.29375 
 C                     8.44484   0.85205  -2.58957 
 C                     9.74721   1.16184  -2.80943 
 C                     10.51103   1.0209   -1.57381 
 S                     9.49183   0.49807  -0.29937 
 C                     11.9496   1.28424  -1.37706 
 C                     12.60575   2.26699  -2.00424 
 N                     13.87297   2.52853  -1.92103 
 C                     14.62941   1.72141  -1.06584 
 N                     14.04105   0.70916  -0.44179 
 C                     12.76084   0.5177   -0.55317 
 C                     16.01471   1.98485  -0.99257 
 C                     16.71356   3.12819  -1.50829 
 C                     18.12262   3.08498  -1.20828 
 C                     18.50185   1.87034  -0.46453 
 S                     17.09432   1.0058   -0.13319 
 C                     19.80697   1.51925  -0.04942 
 C                     20.93613   1.75018  -0.7235 
 N                     22.15879   1.354    -0.42265 
 C                     22.27034   0.76098   0.82513 
 N                     21.27781   0.42606   1.65451 
 C                     20.08197   0.80873   1.18149 
 C                     23.65293   0.29754   1.19492 
 C                     24.80736   0.54586   0.50552 
 C                     25.99843   0.05245   1.24622 
 C                     25.64775  -0.56594   2.45493 
 S                     23.94537  -0.47551   2.73686 
 H                    -26.42379   4.82788  -0.43399 
 H                    -25.27718   3.05593  -1.81594 
 H                    -25.13398   5.80978   1.45107 
 H                    -21.03289   4.5076    2.38548 
 H                    -18.72097   3.25873   2.52712 
 H                    -19.39775  -0.57189  -0.11578 
 H                    -16.75109   2.53008   1.08748 
 H                    -15.94468  -3.2732   -0.86246 
 H                    -13.59039  -4.33457  -1.04229 
 H                    -10.74223  -1.28897   1.21877 
 H                    -11.24032  -4.13574  -1.92814 
 H                    -7.06873  -5.19026  -1.67046 
 H                    -4.4288   -5.14763  -1.36828 
 H                    -2.48093  -3.32129  -1.75057 
 H                    -3.58758  -2.2738    2.246 
 H                     0.49786  -1.08074   3.02883 
 H                     3.03138  -0.35222   2.86274 
 H                     5.46134  -0.98339   1.99884 
 H                     3.68487  -0.04908  -1.78619 
 H                     7.65757   0.85006  -3.34691 
 H                     10.21019   1.4463   -3.67652 
 H                     12.06415   2.9757   -2.67162 
 H                     12.3362  -0.37534  -0.00817 
 H                     16.31832   3.91509  -2.06755 
 H                     18.83611   3.84995  -1.50681 
 H                     20.92425   2.24715  -1.74797 
 H                     19.21114   0.61496   1.9218 
 H                     24.88043   1.00283  -0.41661 
 H                     26.958    0.0783    0.85819 
 H                     26.31061  -0.9338    3.1779 
 
 ITRead=  0  0  0  0  0  0  0  0  0  0  0  0  0  0  0  0  0  0  0  0
 ITRead=  0  0  0  0  0  0  0  0  0  0  0  0  0  0  0  0  0  0  0  0
 ITRead=  0  0  0  0  0  0  0  0  0  0  0  0  0  0  0  0  0  0  0  0
 ITRead=  0  0  0  0  0  0  0  0  0  0  0  0  0  0  0  0  0  0  0  0
 ITRead=  0  0  0  0  0  0  0  0  0  0  0  0  0  0  0  0  0  0  0  0
 ITRead=  0  0  0  0  0  0  0
 MicOpt= -1 -1 -1 -1 -1 -1 -1 -1 -1 -1 -1 -1 -1 -1 -1 -1 -1 -1 -1 -1
 MicOpt= -1 -1 -1 -1 -1 -1 -1 -1 -1 -1 -1 -1 -1 -1 -1 -1 -1 -1 -1 -1
 MicOpt= -1 -1 -1 -1 -1 -1 -1 -1 -1 -1 -1 -1 -1 -1 -1 -1 -1 -1 -1 -1
 MicOpt= -1 -1 -1 -1 -1 -1 -1 -1 -1 -1 -1 -1 -1 -1 -1 -1 -1 -1 -1 -1
 MicOpt= -1 -1 -1 -1 -1 -1 -1 -1 -1 -1 -1 -1 -1 -1 -1 -1 -1 -1 -1 -1
 MicOpt= -1 -1 -1 -1 -1 -1 -1
 NAtoms=    107 NQM=      107 NQMF=       0 NMMI=      0 NMMIF=      0
                NMic=       0 NMicF=      0.
                    Isotopes and Nuclear Properties:
 (Nuclear quadrupole moments (NQMom) in fm**2, nuclear magnetic moments (NMagM)
  in nuclear magnetons)

  Atom         1           2           3           4           5           6           7           8           9          10
 IAtWgt=          12          12          14          12          14          12          12          12          12          12
 AtmWgt=  12.0000000  12.0000000  14.0030740  12.0000000  14.0030740  12.0000000  12.0000000  12.0000000  12.0000000  12.0000000
 NucSpn=           0           0           2           0           2           0           0           0           0           0
 AtZEff=  -0.0000000  -0.0000000  -0.0000000  -0.0000000  -0.0000000  -0.0000000  -0.0000000  -0.0000000  -0.0000000  -0.0000000
 NQMom=    0.0000000   0.0000000   2.0440000   0.0000000   2.0440000   0.0000000   0.0000000   0.0000000   0.0000000   0.0000000
 NMagM=    0.0000000   0.0000000   0.4037610   0.0000000   0.4037610   0.0000000   0.0000000   0.0000000   0.0000000   0.0000000
 AtZNuc=   6.0000000   6.0000000   7.0000000   6.0000000   7.0000000   6.0000000   6.0000000   6.0000000   6.0000000   6.0000000

  Atom        11          12          13          14          15          16          17          18          19          20
 IAtWgt=          32          12          12          14          12          14          12          12          12          12
 AtmWgt=  31.9720718  12.0000000  12.0000000  14.0030740  12.0000000  14.0030740  12.0000000  12.0000000  12.0000000  12.0000000
 NucSpn=           0           0           0           2           0           2           0           0           0           0
 AtZEff=  -0.0000000  -0.0000000  -0.0000000  -0.0000000  -0.0000000  -0.0000000  -0.0000000  -0.0000000  -0.0000000  -0.0000000
 NQMom=    0.0000000   0.0000000   0.0000000   2.0440000   0.0000000   2.0440000   0.0000000   0.0000000   0.0000000   0.0000000
 NMagM=    0.0000000   0.0000000   0.0000000   0.4037610   0.0000000   0.4037610   0.0000000   0.0000000   0.0000000   0.0000000
 AtZNuc=  16.0000000   6.0000000   6.0000000   7.0000000   6.0000000   7.0000000   6.0000000   6.0000000   6.0000000   6.0000000

  Atom        21          22          23          24          25          26          27          28          29          30
 IAtWgt=          12          32          12          12          14          12          14          12          12          12
 AtmWgt=  12.0000000  31.9720718  12.0000000  12.0000000  14.0030740  12.0000000  14.0030740  12.0000000  12.0000000  12.0000000
 NucSpn=           0           0           0           0           2           0           2           0           0           0
 AtZEff=  -0.0000000  -0.0000000  -0.0000000  -0.0000000  -0.0000000  -0.0000000  -0.0000000  -0.0000000  -0.0000000  -0.0000000
 NQMom=    0.0000000   0.0000000   0.0000000   0.0000000   2.0440000   0.0000000   2.0440000   0.0000000   0.0000000   0.0000000
 NMagM=    0.0000000   0.0000000   0.0000000   0.0000000   0.4037610   0.0000000   0.4037610   0.0000000   0.0000000   0.0000000
 AtZNuc=   6.0000000  16.0000000   6.0000000   6.0000000   7.0000000   6.0000000   7.0000000   6.0000000   6.0000000   6.0000000

  Atom        31          32          33          34          35          36          37          38          39          40
 IAtWgt=          12          12          32          12          12          14          12          14          12          12
 AtmWgt=  12.0000000  12.0000000  31.9720718  12.0000000  12.0000000  14.0030740  12.0000000  14.0030740  12.0000000  12.0000000
 NucSpn=           0           0           0           0           0           2           0           2           0           0
 AtZEff=  -0.0000000  -0.0000000  -0.0000000  -0.0000000  -0.0000000  -0.0000000  -0.0000000  -0.0000000  -0.0000000  -0.0000000
 NQMom=    0.0000000   0.0000000   0.0000000   0.0000000   0.0000000   2.0440000   0.0000000   2.0440000   0.0000000   0.0000000
 NMagM=    0.0000000   0.0000000   0.0000000   0.0000000   0.0000000   0.4037610   0.0000000   0.4037610   0.0000000   0.0000000
 AtZNuc=   6.0000000   6.0000000  16.0000000   6.0000000   6.0000000   7.0000000   6.0000000   7.0000000   6.0000000   6.0000000

  Atom        41          42          43          44          45          46          47          48          49          50
 IAtWgt=          12          12          12          32          12          12          14          12          14          12
 AtmWgt=  12.0000000  12.0000000  12.0000000  31.9720718  12.0000000  12.0000000  14.0030740  12.0000000  14.0030740  12.0000000
 NucSpn=           0           0           0           0           0           0           2           0           2           0
 AtZEff=  -0.0000000  -0.0000000  -0.0000000  -0.0000000  -0.0000000  -0.0000000  -0.0000000  -0.0000000  -0.0000000  -0.0000000
 NQMom=    0.0000000   0.0000000   0.0000000   0.0000000   0.0000000   0.0000000   2.0440000   0.0000000   2.0440000   0.0000000
 NMagM=    0.0000000   0.0000000   0.0000000   0.0000000   0.0000000   0.0000000   0.4037610   0.0000000   0.4037610   0.0000000
 AtZNuc=   6.0000000   6.0000000   6.0000000  16.0000000   6.0000000   6.0000000   7.0000000   6.0000000   7.0000000   6.0000000

  Atom        51          52          53          54          55          56          57          58          59          60
 IAtWgt=          12          12          12          12          32          12          12          14          12          14
 AtmWgt=  12.0000000  12.0000000  12.0000000  12.0000000  31.9720718  12.0000000  12.0000000  14.0030740  12.0000000  14.0030740
 NucSpn=           0           0           0           0           0           0           0           2           0           2
 AtZEff=  -0.0000000  -0.0000000  -0.0000000  -0.0000000  -0.0000000  -0.0000000  -0.0000000  -0.0000000  -0.0000000  -0.0000000
 NQMom=    0.0000000   0.0000000   0.0000000   0.0000000   0.0000000   0.0000000   0.0000000   2.0440000   0.0000000   2.0440000
 NMagM=    0.0000000   0.0000000   0.0000000   0.0000000   0.0000000   0.0000000   0.0000000   0.4037610   0.0000000   0.4037610
 AtZNuc=   6.0000000   6.0000000   6.0000000   6.0000000  16.0000000   6.0000000   6.0000000   7.0000000   6.0000000   7.0000000

  Atom        61          62          63          64          65          66          67          68          69          70
 IAtWgt=          12          12          12          12          12          32          12          12          14          12
 AtmWgt=  12.0000000  12.0000000  12.0000000  12.0000000  12.0000000  31.9720718  12.0000000  12.0000000  14.0030740  12.0000000
 NucSpn=           0           0           0           0           0           0           0           0           2           0
 AtZEff=  -0.0000000  -0.0000000  -0.0000000  -0.0000000  -0.0000000  -0.0000000  -0.0000000  -0.0000000  -0.0000000  -0.0000000
 NQMom=    0.0000000   0.0000000   0.0000000   0.0000000   0.0000000   0.0000000   0.0000000   0.0000000   2.0440000   0.0000000
 NMagM=    0.0000000   0.0000000   0.0000000   0.0000000   0.0000000   0.0000000   0.0000000   0.0000000   0.4037610   0.0000000
 AtZNuc=   6.0000000   6.0000000   6.0000000   6.0000000   6.0000000  16.0000000   6.0000000   6.0000000   7.0000000   6.0000000

  Atom        71          72          73          74          75          76          77          78          79          80
 IAtWgt=          14          12          12          12          12          12          32           1           1           1
 AtmWgt=  14.0030740  12.0000000  12.0000000  12.0000000  12.0000000  12.0000000  31.9720718   1.0078250   1.0078250   1.0078250
 NucSpn=           2           0           0           0           0           0           0           1           1           1
 AtZEff=  -0.0000000  -0.0000000  -0.0000000  -0.0000000  -0.0000000  -0.0000000  -0.0000000  -0.0000000  -0.0000000  -0.0000000
 NQMom=    2.0440000   0.0000000   0.0000000   0.0000000   0.0000000   0.0000000   0.0000000   0.0000000   0.0000000   0.0000000
 NMagM=    0.4037610   0.0000000   0.0000000   0.0000000   0.0000000   0.0000000   0.0000000   2.7928460   2.7928460   2.7928460
 AtZNuc=   7.0000000   6.0000000   6.0000000   6.0000000   6.0000000   6.0000000  16.0000000   1.0000000   1.0000000   1.0000000

  Atom        81          82          83          84          85          86          87          88          89          90
 IAtWgt=           1           1           1           1           1           1           1           1           1           1
 AtmWgt=   1.0078250   1.0078250   1.0078250   1.0078250   1.0078250   1.0078250   1.0078250   1.0078250   1.0078250   1.0078250
 NucSpn=           1           1           1           1           1           1           1           1           1           1
 AtZEff=  -0.0000000  -0.0000000  -0.0000000  -0.0000000  -0.0000000  -0.0000000  -0.0000000  -0.0000000  -0.0000000  -0.0000000
 NQMom=    0.0000000   0.0000000   0.0000000   0.0000000   0.0000000   0.0000000   0.0000000   0.0000000   0.0000000   0.0000000
 NMagM=    2.7928460   2.7928460   2.7928460   2.7928460   2.7928460   2.7928460   2.7928460   2.7928460   2.7928460   2.7928460
 AtZNuc=   1.0000000   1.0000000   1.0000000   1.0000000   1.0000000   1.0000000   1.0000000   1.0000000   1.0000000   1.0000000

  Atom        91          92          93          94          95          96          97          98          99         100
 IAtWgt=           1           1           1           1           1           1           1           1           1           1
 AtmWgt=   1.0078250   1.0078250   1.0078250   1.0078250   1.0078250   1.0078250   1.0078250   1.0078250   1.0078250   1.0078250
 NucSpn=           1           1           1           1           1           1           1           1           1           1
 AtZEff=  -0.0000000  -0.0000000  -0.0000000  -0.0000000  -0.0000000  -0.0000000  -0.0000000  -0.0000000  -0.0000000  -0.0000000
 NQMom=    0.0000000   0.0000000   0.0000000   0.0000000   0.0000000   0.0000000   0.0000000   0.0000000   0.0000000   0.0000000
 NMagM=    2.7928460   2.7928460   2.7928460   2.7928460   2.7928460   2.7928460   2.7928460   2.7928460   2.7928460   2.7928460
 AtZNuc=   1.0000000   1.0000000   1.0000000   1.0000000   1.0000000   1.0000000   1.0000000   1.0000000   1.0000000   1.0000000

  Atom       101         102         103         104         105         106         107
 IAtWgt=           1           1           1           1           1           1           1
 AtmWgt=   1.0078250   1.0078250   1.0078250   1.0078250   1.0078250   1.0078250   1.0078250
 NucSpn=           1           1           1           1           1           1           1
 AtZEff=  -0.0000000  -0.0000000  -0.0000000  -0.0000000  -0.0000000  -0.0000000  -0.0000000
 NQMom=    0.0000000   0.0000000   0.0000000   0.0000000   0.0000000   0.0000000   0.0000000
 NMagM=    2.7928460   2.7928460   2.7928460   2.7928460   2.7928460   2.7928460   2.7928460
 AtZNuc=   1.0000000   1.0000000   1.0000000   1.0000000   1.0000000   1.0000000   1.0000000
 Leave Link  101 at Fri Jul 24 22:47:45 2020, MaxMem=  4026531840 cpu:               3.7 elap:               0.5
 (Enter /opt/ohpc/pub/libs/gaussian/g16-A.03/sandybridge/g16/l103.exe)

 GradGradGradGradGradGradGradGradGradGradGradGradGradGradGradGradGradGrad
 Berny optimization.
 Initialization pass.
                           ----------------------------
                           !    Initial Parameters    !
                           ! (Angstroms and Degrees)  !
 --------------------------                            --------------------------
 ! Name  Definition              Value          Derivative Info.                !
 --------------------------------------------------------------------------------
 ! R1    R(1,2)                  1.356          estimate D2E/DX2                !
 ! R2    R(1,6)                  1.297          estimate D2E/DX2                !
 ! R3    R(1,78)                 1.1052         estimate D2E/DX2                !
 ! R4    R(2,3)                  1.293          estimate D2E/DX2                !
 ! R5    R(2,79)                 1.154          estimate D2E/DX2                !
 ! R6    R(3,4)                  1.3987         estimate D2E/DX2                !
 ! R7    R(4,5)                  1.3349         estimate D2E/DX2                !
 ! R8    R(4,7)                  1.4724         estimate D2E/DX2                !
 ! R9    R(5,6)                  1.4001         estimate D2E/DX2                !
 ! R10   R(6,80)                 1.0774         estimate D2E/DX2                !
 ! R11   R(7,8)                  1.3502         estimate D2E/DX2                !
 ! R12   R(7,11)                 1.6317         estimate D2E/DX2                !
 ! R13   R(8,9)                  1.4864         estimate D2E/DX2                !
 ! R14   R(8,81)                 1.098          estimate D2E/DX2                !
 ! R15   R(9,10)                 1.3871         estimate D2E/DX2                !
 ! R16   R(9,82)                 1.0964         estimate D2E/DX2                !
 ! R17   R(10,11)                1.696          estimate D2E/DX2                !
 ! R18   R(10,12)                1.5194         estimate D2E/DX2                !
 ! R19   R(12,13)                1.3841         estimate D2E/DX2                !
 ! R20   R(12,17)                1.3136         estimate D2E/DX2                !
 ! R21   R(13,14)                1.3575         estimate D2E/DX2                !
 ! R22   R(13,83)                1.0843         estimate D2E/DX2                !
 ! R23   R(14,15)                1.325          estimate D2E/DX2                !
 ! R24   R(15,16)                1.3607         estimate D2E/DX2                !
 ! R25   R(15,18)                1.4712         estimate D2E/DX2                !
 ! R26   R(16,17)                1.3158         estimate D2E/DX2                !
 ! R27   R(17,84)                1.1494         estimate D2E/DX2                !
 ! R28   R(18,19)                1.3131         estimate D2E/DX2                !
 ! R29   R(18,22)                1.7504         estimate D2E/DX2                !
 ! R30   R(19,20)                1.428          estimate D2E/DX2                !
 ! R31   R(19,85)                1.0791         estimate D2E/DX2                !
 ! R32   R(20,21)                1.3923         estimate D2E/DX2                !
 ! R33   R(20,86)                1.1058         estimate D2E/DX2                !
 ! R34   R(21,22)                1.6301         estimate D2E/DX2                !
 ! R35   R(21,23)                1.4885         estimate D2E/DX2                !
 ! R36   R(23,24)                1.3125         estimate D2E/DX2                !
 ! R37   R(23,28)                1.4123         estimate D2E/DX2                !
 ! R38   R(24,25)                1.3917         estimate D2E/DX2                !
 ! R39   R(24,87)                1.1637         estimate D2E/DX2                !
 ! R40   R(25,26)                1.3284         estimate D2E/DX2                !
 ! R41   R(26,27)                1.3498         estimate D2E/DX2                !
 ! R42   R(26,29)                1.4423         estimate D2E/DX2                !
 ! R43   R(27,28)                1.2998         estimate D2E/DX2                !
 ! R44   R(28,88)                1.0882         estimate D2E/DX2                !
 ! R45   R(29,30)                1.4271         estimate D2E/DX2                !
 ! R46   R(29,33)                1.7158         estimate D2E/DX2                !
 ! R47   R(30,31)                1.3987         estimate D2E/DX2                !
 ! R48   R(30,89)                1.0816         estimate D2E/DX2                !
 ! R49   R(31,32)                1.4067         estimate D2E/DX2                !
 ! R50   R(31,90)                1.1106         estimate D2E/DX2                !
 ! R51   R(32,33)                1.7692         estimate D2E/DX2                !
 ! R52   R(32,34)                1.3863         estimate D2E/DX2                !
 ! R53   R(34,35)                1.4439         estimate D2E/DX2                !
 ! R54   R(34,39)                1.4047         estimate D2E/DX2                !
 ! R55   R(35,36)                1.3677         estimate D2E/DX2                !
 ! R56   R(35,91)                1.0271         estimate D2E/DX2                !
 ! R57   R(36,37)                1.3526         estimate D2E/DX2                !
 ! R58   R(37,38)                1.308          estimate D2E/DX2                !
 ! R59   R(37,40)                1.4772         estimate D2E/DX2                !
 ! R60   R(38,39)                1.3186         estimate D2E/DX2                !
 ! R61   R(39,92)                1.1394         estimate D2E/DX2                !
 ! R62   R(40,41)                1.3964         estimate D2E/DX2                !
 ! R63   R(40,44)                1.7028         estimate D2E/DX2                !
 ! R64   R(41,42)                1.3696         estimate D2E/DX2                !
 ! R65   R(41,93)                1.1318         estimate D2E/DX2                !
 ! R66   R(42,43)                1.3107         estimate D2E/DX2                !
 ! R67   R(42,94)                1.1268         estimate D2E/DX2                !
 ! R68   R(43,44)                1.7609         estimate D2E/DX2                !
 ! R69   R(43,45)                1.5348         estimate D2E/DX2                !
 ! R70   R(45,46)                1.3981         estimate D2E/DX2                !
 ! R71   R(45,50)                1.3485         estimate D2E/DX2                !
 ! R72   R(46,47)                1.3512         estimate D2E/DX2                !
 ! R73   R(46,95)                1.0597         estimate D2E/DX2                !
 ! R74   R(47,48)                1.3658         estimate D2E/DX2                !
 ! R75   R(48,49)                1.3214         estimate D2E/DX2                !
 ! R76   R(48,51)                1.4604         estimate D2E/DX2                !
 ! R77   R(49,50)                1.3516         estimate D2E/DX2                !
 ! R78   R(50,96)                1.1339         estimate D2E/DX2                !
 ! R79   R(51,52)                1.4101         estimate D2E/DX2                !
 ! R80   R(51,55)                1.7526         estimate D2E/DX2                !
 ! R81   R(52,53)                1.3566         estimate D2E/DX2                !
 ! R82   R(52,97)                1.0924         estimate D2E/DX2                !
 ! R83   R(53,54)                1.4595         estimate D2E/DX2                !
 ! R84   R(53,98)                1.0233         estimate D2E/DX2                !
 ! R85   R(54,55)                1.7136         estimate D2E/DX2                !
 ! R86   R(54,56)                1.4756         estimate D2E/DX2                !
 ! R87   R(56,57)                1.3378         estimate D2E/DX2                !
 ! R88   R(56,61)                1.3873         estimate D2E/DX2                !
 ! R89   R(57,58)                1.2966         estimate D2E/DX2                !
 ! R90   R(57,99)                1.114          estimate D2E/DX2                !
 ! R91   R(58,59)                1.3982         estimate D2E/DX2                !
 ! R92   R(59,60)                1.3267         estimate D2E/DX2                !
 ! R93   R(59,62)                1.412          estimate D2E/DX2                !
 ! R94   R(60,61)                1.2992         estimate D2E/DX2                !
 ! R95   R(61,100)               1.1291         estimate D2E/DX2                !
 ! R96   R(62,63)                1.4358         estimate D2E/DX2                !
 ! R97   R(62,66)                1.6919         estimate D2E/DX2                !
 ! R98   R(63,64)                1.4413         estimate D2E/DX2                !
 ! R99   R(63,101)               1.0432         estimate D2E/DX2                !
 ! R100  R(64,65)                1.4739         estimate D2E/DX2                !
 ! R101  R(64,102)               1.0878         estimate D2E/DX2                !
 ! R102  R(65,66)                1.6847         estimate D2E/DX2                !
 ! R103  R(65,67)                1.4138         estimate D2E/DX2                !
 ! R104  R(67,68)                1.3352         estimate D2E/DX2                !
 ! R105  R(67,72)                1.4476         estimate D2E/DX2                !
 ! R106  R(68,69)                1.32           estimate D2E/DX2                !
 ! R107  R(68,103)               1.1387         estimate D2E/DX2                !
 ! R108  R(69,70)                1.386          estimate D2E/DX2                !
 ! R109  R(70,71)                1.3361         estimate D2E/DX2                !
 ! R110  R(70,73)                1.5044         estimate D2E/DX2                !
 ! R111  R(71,72)                1.3417         estimate D2E/DX2                !
 ! R112  R(72,104)               1.1593         estimate D2E/DX2                !
 ! R113  R(73,74)                1.3673         estimate D2E/DX2                !
 ! R114  R(73,77)                1.7495         estimate D2E/DX2                !
 ! R115  R(74,75)                1.4869         estimate D2E/DX2                !
 ! R116  R(74,105)               1.0317         estimate D2E/DX2                !
 ! R117  R(75,76)                1.4023         estimate D2E/DX2                !
 ! R118  R(75,106)               1.0354         estimate D2E/DX2                !
 ! R119  R(76,77)                1.7279         estimate D2E/DX2                !
 ! R120  R(76,107)               1.0476         estimate D2E/DX2                !
 ! A1    A(2,1,6)              117.737          estimate D2E/DX2                !
 ! A2    A(2,1,78)             119.4638         estimate D2E/DX2                !
 ! A3    A(6,1,78)             122.7941         estimate D2E/DX2                !
 ! A4    A(1,2,3)              124.231          estimate D2E/DX2                !
 ! A5    A(1,2,79)             122.635          estimate D2E/DX2                !
 ! A6    A(3,2,79)             112.5515         estimate D2E/DX2                !
 ! A7    A(2,3,4)              115.7193         estimate D2E/DX2                !
 ! A8    A(3,4,5)              123.6021         estimate D2E/DX2                !
 ! A9    A(3,4,7)              117.1888         estimate D2E/DX2                !
 ! A10   A(5,4,7)              118.8814         estimate D2E/DX2                !
 ! A11   A(4,5,6)              114.2172         estimate D2E/DX2                !
 ! A12   A(1,6,5)              123.7628         estimate D2E/DX2                !
 ! A13   A(1,6,80)             123.0666         estimate D2E/DX2                !
 ! A14   A(5,6,80)             113.0001         estimate D2E/DX2                !
 ! A15   A(4,7,8)              123.3442         estimate D2E/DX2                !
 ! A16   A(4,7,11)             123.4721         estimate D2E/DX2                !
 ! A17   A(8,7,11)             113.1202         estimate D2E/DX2                !
 ! A18   A(7,8,9)              112.1757         estimate D2E/DX2                !
 ! A19   A(7,8,81)             127.509          estimate D2E/DX2                !
 ! A20   A(9,8,81)             119.8161         estimate D2E/DX2                !
 ! A21   A(8,9,10)             108.5733         estimate D2E/DX2                !
 ! A22   A(8,9,82)             122.912          estimate D2E/DX2                !
 ! A23   A(10,9,82)            128.3563         estimate D2E/DX2                !
 ! A24   A(9,10,11)            111.6764         estimate D2E/DX2                !
 ! A25   A(9,10,12)            124.3091         estimate D2E/DX2                !
 ! A26   A(11,10,12)           123.9943         estimate D2E/DX2                !
 ! A27   A(7,11,10)             94.3065         estimate D2E/DX2                !
 ! A28   A(10,12,13)           121.15           estimate D2E/DX2                !
 ! A29   A(10,12,17)           124.4959         estimate D2E/DX2                !
 ! A30   A(13,12,17)           114.3088         estimate D2E/DX2                !
 ! A31   A(12,13,14)           120.925          estimate D2E/DX2                !
 ! A32   A(12,13,83)           122.0142         estimate D2E/DX2                !
 ! A33   A(14,13,83)           116.6168         estimate D2E/DX2                !
 ! A34   A(13,14,15)           119.5705         estimate D2E/DX2                !
 ! A35   A(14,15,16)           120.7478         estimate D2E/DX2                !
 ! A36   A(14,15,18)           118.0032         estimate D2E/DX2                !
 ! A37   A(16,15,18)           120.9819         estimate D2E/DX2                !
 ! A38   A(15,16,17)           116.4068         estimate D2E/DX2                !
 ! A39   A(12,17,16)           127.546          estimate D2E/DX2                !
 ! A40   A(12,17,84)           117.7789         estimate D2E/DX2                !
 ! A41   A(16,17,84)           114.5834         estimate D2E/DX2                !
 ! A42   A(15,18,19)           127.707          estimate D2E/DX2                !
 ! A43   A(15,18,22)           120.7438         estimate D2E/DX2                !
 ! A44   A(19,18,22)           111.2988         estimate D2E/DX2                !
 ! A45   A(18,19,20)           112.2311         estimate D2E/DX2                !
 ! A46   A(18,19,85)           127.6609         estimate D2E/DX2                !
 ! A47   A(20,19,85)           120.0311         estimate D2E/DX2                !
 ! A48   A(19,20,21)           111.8452         estimate D2E/DX2                !
 ! A49   A(19,20,86)           124.1144         estimate D2E/DX2                !
 ! A50   A(21,20,86)           123.4341         estimate D2E/DX2                !
 ! A51   A(20,21,22)           111.9505         estimate D2E/DX2                !
 ! A52   A(20,21,23)           128.3694         estimate D2E/DX2                !
 ! A53   A(22,21,23)           119.5852         estimate D2E/DX2                !
 ! A54   A(18,22,21)            92.5779         estimate D2E/DX2                !
 ! A55   A(21,23,24)           127.189          estimate D2E/DX2                !
 ! A56   A(21,23,28)           122.8816         estimate D2E/DX2                !
 ! A57   A(24,23,28)           109.908          estimate D2E/DX2                !
 ! A58   A(23,24,25)           129.8894         estimate D2E/DX2                !
 ! A59   A(23,24,87)           120.5246         estimate D2E/DX2                !
 ! A60   A(25,24,87)           109.5533         estimate D2E/DX2                !
 ! A61   A(24,25,26)           113.0543         estimate D2E/DX2                !
 ! A62   A(25,26,27)           123.1805         estimate D2E/DX2                !
 ! A63   A(25,26,29)           119.6927         estimate D2E/DX2                !
 ! A64   A(27,26,29)           117.1071         estimate D2E/DX2                !
 ! A65   A(26,27,28)           118.5325         estimate D2E/DX2                !
 ! A66   A(23,28,27)           125.3366         estimate D2E/DX2                !
 ! A67   A(23,28,88)           119.4817         estimate D2E/DX2                !
 ! A68   A(27,28,88)           115.1626         estimate D2E/DX2                !
 ! A69   A(26,29,30)           129.0048         estimate D2E/DX2                !
 ! A70   A(26,29,33)           118.8558         estimate D2E/DX2                !
 ! A71   A(30,29,33)           111.8746         estimate D2E/DX2                !
 ! A72   A(29,30,31)           110.9283         estimate D2E/DX2                !
 ! A73   A(29,30,89)           118.4364         estimate D2E/DX2                !
 ! A74   A(31,30,89)           130.2775         estimate D2E/DX2                !
 ! A75   A(30,31,32)           115.5781         estimate D2E/DX2                !
 ! A76   A(30,31,90)           120.0326         estimate D2E/DX2                !
 ! A77   A(32,31,90)           124.0838         estimate D2E/DX2                !
 ! A78   A(31,32,33)           108.4154         estimate D2E/DX2                !
 ! A79   A(31,32,34)           129.2743         estimate D2E/DX2                !
 ! A80   A(33,32,34)           122.1524         estimate D2E/DX2                !
 ! A81   A(29,33,32)            92.4544         estimate D2E/DX2                !
 ! A82   A(32,34,35)           123.2584         estimate D2E/DX2                !
 ! A83   A(32,34,39)           127.4732         estimate D2E/DX2                !
 ! A84   A(35,34,39)           109.2472         estimate D2E/DX2                !
 ! A85   A(34,35,36)           123.9104         estimate D2E/DX2                !
 ! A86   A(34,35,91)           117.2763         estimate D2E/DX2                !
 ! A87   A(36,35,91)           118.7679         estimate D2E/DX2                !
 ! A88   A(35,36,37)           116.8023         estimate D2E/DX2                !
 ! A89   A(36,37,38)           124.7415         estimate D2E/DX2                !
 ! A90   A(36,37,40)           113.0812         estimate D2E/DX2                !
 ! A91   A(38,37,40)           122.0587         estimate D2E/DX2                !
 ! A92   A(37,38,39)           116.9137         estimate D2E/DX2                !
 ! A93   A(34,39,38)           128.3474         estimate D2E/DX2                !
 ! A94   A(34,39,92)           120.8651         estimate D2E/DX2                !
 ! A95   A(38,39,92)           110.7765         estimate D2E/DX2                !
 ! A96   A(37,40,41)           125.4827         estimate D2E/DX2                !
 ! A97   A(37,40,44)           123.4483         estimate D2E/DX2                !
 ! A98   A(41,40,44)           110.9007         estimate D2E/DX2                !
 ! A99   A(40,41,42)           112.14           estimate D2E/DX2                !
 ! A100  A(40,41,93)           119.5121         estimate D2E/DX2                !
 ! A101  A(42,41,93)           128.0019         estimate D2E/DX2                !
 ! A102  A(41,42,43)           115.201          estimate D2E/DX2                !
 ! A103  A(41,42,94)           120.573          estimate D2E/DX2                !
 ! A104  A(43,42,94)           124.2127         estimate D2E/DX2                !
 ! A105  A(42,43,44)           111.0161         estimate D2E/DX2                !
 ! A106  A(42,43,45)           133.2384         estimate D2E/DX2                !
 ! A107  A(44,43,45)           115.7455         estimate D2E/DX2                !
 ! A108  A(40,44,43)            90.3328         estimate D2E/DX2                !
 ! A109  A(43,45,46)           117.2418         estimate D2E/DX2                !
 ! A110  A(43,45,50)           127.4903         estimate D2E/DX2                !
 ! A111  A(46,45,50)           115.2668         estimate D2E/DX2                !
 ! A112  A(45,46,47)           121.3438         estimate D2E/DX2                !
 ! A113  A(45,46,95)           126.2955         estimate D2E/DX2                !
 ! A114  A(47,46,95)           112.0172         estimate D2E/DX2                !
 ! A115  A(46,47,48)           115.0269         estimate D2E/DX2                !
 ! A116  A(47,48,49)           128.9908         estimate D2E/DX2                !
 ! A117  A(47,48,51)           118.3638         estimate D2E/DX2                !
 ! A118  A(49,48,51)           112.6453         estimate D2E/DX2                !
 ! A119  A(48,49,50)           111.3572         estimate D2E/DX2                !
 ! A120  A(45,50,49)           127.6008         estimate D2E/DX2                !
 ! A121  A(45,50,96)           116.5923         estimate D2E/DX2                !
 ! A122  A(49,50,96)           115.7948         estimate D2E/DX2                !
 ! A123  A(48,51,52)           131.7157         estimate D2E/DX2                !
 ! A124  A(48,51,55)           121.7466         estimate D2E/DX2                !
 ! A125  A(52,51,55)           106.5321         estimate D2E/DX2                !
 ! A126  A(51,52,53)           118.7909         estimate D2E/DX2                !
 ! A127  A(51,52,97)           115.7429         estimate D2E/DX2                !
 ! A128  A(53,52,97)           125.4432         estimate D2E/DX2                !
 ! A129  A(52,53,54)           110.0694         estimate D2E/DX2                !
 ! A130  A(52,53,98)           129.4313         estimate D2E/DX2                !
 ! A131  A(54,53,98)           120.494          estimate D2E/DX2                !
 ! A132  A(53,54,55)           110.3557         estimate D2E/DX2                !
 ! A133  A(53,54,56)           127.2903         estimate D2E/DX2                !
 ! A134  A(55,54,56)           122.3521         estimate D2E/DX2                !
 ! A135  A(51,55,54)            94.2464         estimate D2E/DX2                !
 ! A136  A(54,56,57)           123.1431         estimate D2E/DX2                !
 ! A137  A(54,56,61)           123.4131         estimate D2E/DX2                !
 ! A138  A(57,56,61)           113.423          estimate D2E/DX2                !
 ! A139  A(56,57,58)           126.6876         estimate D2E/DX2                !
 ! A140  A(56,57,99)           120.6475         estimate D2E/DX2                !
 ! A141  A(58,57,99)           112.6608         estimate D2E/DX2                !
 ! A142  A(57,58,59)           116.8435         estimate D2E/DX2                !
 ! A143  A(58,59,60)           119.2221         estimate D2E/DX2                !
 ! A144  A(58,59,62)           117.0522         estimate D2E/DX2                !
 ! A145  A(60,59,62)           123.5731         estimate D2E/DX2                !
 ! A146  A(59,60,61)           120.6024         estimate D2E/DX2                !
 ! A147  A(56,61,60)           123.0732         estimate D2E/DX2                !
 ! A148  A(56,61,100)          120.2491         estimate D2E/DX2                !
 ! A149  A(60,61,100)          116.4722         estimate D2E/DX2                !
 ! A150  A(59,62,63)           127.4043         estimate D2E/DX2                !
 ! A151  A(59,62,66)           122.9846         estimate D2E/DX2                !
 ! A152  A(63,62,66)           109.4295         estimate D2E/DX2                !
 ! A153  A(62,63,64)           112.1601         estimate D2E/DX2                !
 ! A154  A(62,63,101)          127.5048         estimate D2E/DX2                !
 ! A155  A(64,63,101)          120.3065         estimate D2E/DX2                !
 ! A156  A(63,64,65)           112.4141         estimate D2E/DX2                !
 ! A157  A(63,64,102)          124.2641         estimate D2E/DX2                !
 ! A158  A(65,64,102)          123.315          estimate D2E/DX2                !
 ! A159  A(64,65,66)           107.889          estimate D2E/DX2                !
 ! A160  A(64,65,67)           126.1801         estimate D2E/DX2                !
 ! A161  A(66,65,67)           125.8769         estimate D2E/DX2                !
 ! A162  A(62,66,65)            97.8318         estimate D2E/DX2                !
 ! A163  A(65,67,68)           126.1206         estimate D2E/DX2                !
 ! A164  A(65,67,72)           123.1546         estimate D2E/DX2                !
 ! A165  A(68,67,72)           110.7027         estimate D2E/DX2                !
 ! A166  A(67,68,69)           128.0507         estimate D2E/DX2                !
 ! A167  A(67,68,103)          121.3908         estimate D2E/DX2                !
 ! A168  A(69,68,103)          110.2252         estimate D2E/DX2                !
 ! A169  A(68,69,70)           114.0887         estimate D2E/DX2                !
 ! A170  A(69,70,71)           127.3226         estimate D2E/DX2                !
 ! A171  A(69,70,73)           115.2816         estimate D2E/DX2                !
 ! A172  A(71,70,73)           116.931          estimate D2E/DX2                !
 ! A173  A(70,71,72)           111.8235         estimate D2E/DX2                !
 ! A174  A(67,72,71)           127.5223         estimate D2E/DX2                !
 ! A175  A(67,72,104)          118.8375         estimate D2E/DX2                !
 ! A176  A(71,72,104)          113.3722         estimate D2E/DX2                !
 ! A177  A(70,73,74)           126.5886         estimate D2E/DX2                !
 ! A178  A(70,73,77)           120.4244         estimate D2E/DX2                !
 ! A179  A(74,73,77)           112.5503         estimate D2E/DX2                !
 ! A180  A(73,74,75)           111.401          estimate D2E/DX2                !
 ! A181  A(73,74,105)          126.2175         estimate D2E/DX2                !
 ! A182  A(75,74,105)          122.3772         estimate D2E/DX2                !
 ! A183  A(74,75,76)           112.05           estimate D2E/DX2                !
 ! A184  A(74,75,106)          123.1912         estimate D2E/DX2                !
 ! A185  A(76,75,106)          124.4589         estimate D2E/DX2                !
 ! A186  A(75,76,77)           111.3422         estimate D2E/DX2                !
 ! A187  A(75,76,107)          126.2638         estimate D2E/DX2                !
 ! A188  A(77,76,107)          121.9498         estimate D2E/DX2                !
 ! A189  A(73,77,76)            92.5221         estimate D2E/DX2                !
 ! D1    D(6,1,2,3)              4.7959         estimate D2E/DX2                !
 ! D2    D(6,1,2,79)           175.3859         estimate D2E/DX2                !
 ! D3    D(78,1,2,3)          -174.4059         estimate D2E/DX2                !
 ! D4    D(78,1,2,79)           -3.8159         estimate D2E/DX2                !
 ! D5    D(2,1,6,5)             -1.2509         estimate D2E/DX2                !
 ! D6    D(2,1,6,80)           173.6689         estimate D2E/DX2                !
 ! D7    D(78,1,6,5)           177.9224         estimate D2E/DX2                !
 ! D8    D(78,1,6,80)           -7.1579         estimate D2E/DX2                !
 ! D9    D(1,2,3,4)             -8.7938         estimate D2E/DX2                !
 ! D10   D(79,2,3,4)           179.7801         estimate D2E/DX2                !
 ! D11   D(2,3,4,5)             10.1427         estimate D2E/DX2                !
 ! D12   D(2,3,4,7)           -176.5179         estimate D2E/DX2                !
 ! D13   D(3,4,5,6)             -6.9613         estimate D2E/DX2                !
 ! D14   D(7,4,5,6)            179.8054         estimate D2E/DX2                !
 ! D15   D(3,4,7,8)           -177.192          estimate D2E/DX2                !
 ! D16   D(3,4,7,11)            -0.2927         estimate D2E/DX2                !
 ! D17   D(5,4,7,8)             -3.5262         estimate D2E/DX2                !
 ! D18   D(5,4,7,11)           173.3731         estimate D2E/DX2                !
 ! D19   D(4,5,6,1)              2.4569         estimate D2E/DX2                !
 ! D20   D(4,5,6,80)          -172.919          estimate D2E/DX2                !
 ! D21   D(4,7,8,9)           -178.6902         estimate D2E/DX2                !
 ! D22   D(4,7,8,81)            -6.9074         estimate D2E/DX2                !
 ! D23   D(11,7,8,9)             4.1219         estimate D2E/DX2                !
 ! D24   D(11,7,8,81)          175.9047         estimate D2E/DX2                !
 ! D25   D(4,7,11,10)         -179.7808         estimate D2E/DX2                !
 ! D26   D(8,7,11,10)           -2.5971         estimate D2E/DX2                !
 ! D27   D(7,8,9,10)            -3.8172         estimate D2E/DX2                !
 ! D28   D(7,8,9,82)          -179.5885         estimate D2E/DX2                !
 ! D29   D(81,8,9,10)         -176.3085         estimate D2E/DX2                !
 ! D30   D(81,8,9,82)            7.9201         estimate D2E/DX2                !
 ! D31   D(8,9,10,11)            1.9169         estimate D2E/DX2                !
 ! D32   D(8,9,10,12)         -176.5036         estimate D2E/DX2                !
 ! D33   D(82,9,10,11)         177.3892         estimate D2E/DX2                !
 ! D34   D(82,9,10,12)          -1.0312         estimate D2E/DX2                !
 ! D35   D(9,10,11,7)            0.2327         estimate D2E/DX2                !
 ! D36   D(12,10,11,7)         178.659          estimate D2E/DX2                !
 ! D37   D(9,10,12,13)         145.715          estimate D2E/DX2                !
 ! D38   D(9,10,12,17)         -36.8747         estimate D2E/DX2                !
 ! D39   D(11,10,12,13)        -32.5145         estimate D2E/DX2                !
 ! D40   D(11,10,12,17)        144.8958         estimate D2E/DX2                !
 ! D41   D(10,12,13,14)        173.954          estimate D2E/DX2                !
 ! D42   D(10,12,13,83)          1.8607         estimate D2E/DX2                !
 ! D43   D(17,12,13,14)         -3.7042         estimate D2E/DX2                !
 ! D44   D(17,12,13,83)       -175.7974         estimate D2E/DX2                !
 ! D45   D(10,12,17,16)       -179.6963         estimate D2E/DX2                !
 ! D46   D(10,12,17,84)          3.9948         estimate D2E/DX2                !
 ! D47   D(13,12,17,16)         -2.1281         estimate D2E/DX2                !
 ! D48   D(13,12,17,84)       -178.437          estimate D2E/DX2                !
 ! D49   D(12,13,14,15)          8.1573         estimate D2E/DX2                !
 ! D50   D(83,13,14,15)       -179.3393         estimate D2E/DX2                !
 ! D51   D(13,14,15,16)         -6.9324         estimate D2E/DX2                !
 ! D52   D(13,14,15,18)        178.9462         estimate D2E/DX2                !
 ! D53   D(14,15,16,17)          1.4552         estimate D2E/DX2                !
 ! D54   D(18,15,16,17)        175.4005         estimate D2E/DX2                !
 ! D55   D(14,15,18,19)         -7.7122         estimate D2E/DX2                !
 ! D56   D(14,15,18,22)        178.5583         estimate D2E/DX2                !
 ! D57   D(16,15,18,19)        178.1808         estimate D2E/DX2                !
 ! D58   D(16,15,18,22)          4.4513         estimate D2E/DX2                !
 ! D59   D(15,16,17,12)          3.3075         estimate D2E/DX2                !
 ! D60   D(15,16,17,84)        179.7164         estimate D2E/DX2                !
 ! D61   D(15,18,19,20)       -175.4857         estimate D2E/DX2                !
 ! D62   D(15,18,19,85)          1.2875         estimate D2E/DX2                !
 ! D63   D(22,18,19,20)         -1.2683         estimate D2E/DX2                !
 ! D64   D(22,18,19,85)        175.505          estimate D2E/DX2                !
 ! D65   D(15,18,22,21)        174.1141         estimate D2E/DX2                !
 ! D66   D(19,18,22,21)         -0.5643         estimate D2E/DX2                !
 ! D67   D(18,19,20,21)          2.96           estimate D2E/DX2                !
 ! D68   D(18,19,20,86)        174.2813         estimate D2E/DX2                !
 ! D69   D(85,19,20,21)       -174.0897         estimate D2E/DX2                !
 ! D70   D(85,19,20,86)         -2.7684         estimate D2E/DX2                !
 ! D71   D(19,20,21,22)         -3.3733         estimate D2E/DX2                !
 ! D72   D(19,20,21,23)       -179.7688         estimate D2E/DX2                !
 ! D73   D(86,20,21,22)       -174.7638         estimate D2E/DX2                !
 ! D74   D(86,20,21,23)          8.8407         estimate D2E/DX2                !
 ! D75   D(20,21,22,18)          2.2629         estimate D2E/DX2                !
 ! D76   D(23,21,22,18)        179.0137         estimate D2E/DX2                !
 ! D77   D(20,21,23,24)       -154.2745         estimate D2E/DX2                !
 ! D78   D(20,21,23,28)         23.8682         estimate D2E/DX2                !
 ! D79   D(22,21,23,24)         29.5702         estimate D2E/DX2                !
 ! D80   D(22,21,23,28)       -152.2871         estimate D2E/DX2                !
 ! D81   D(21,23,24,25)       -179.6848         estimate D2E/DX2                !
 ! D82   D(21,23,24,87)          2.6257         estimate D2E/DX2                !
 ! D83   D(28,23,24,25)          1.9741         estimate D2E/DX2                !
 ! D84   D(28,23,24,87)       -175.7155         estimate D2E/DX2                !
 ! D85   D(21,23,28,27)       -178.6805         estimate D2E/DX2                !
 ! D86   D(21,23,28,88)          2.9896         estimate D2E/DX2                !
 ! D87   D(24,23,28,27)         -0.2541         estimate D2E/DX2                !
 ! D88   D(24,23,28,88)       -178.584          estimate D2E/DX2                !
 ! D89   D(23,24,25,26)         -0.8731         estimate D2E/DX2                !
 ! D90   D(87,24,25,26)        177.015          estimate D2E/DX2                !
 ! D91   D(24,25,26,27)         -2.1366         estimate D2E/DX2                !
 ! D92   D(24,25,26,29)        179.5264         estimate D2E/DX2                !
 ! D93   D(25,26,27,28)          3.6648         estimate D2E/DX2                !
 ! D94   D(29,26,27,28)       -177.9581         estimate D2E/DX2                !
 ! D95   D(25,26,29,30)        165.0468         estimate D2E/DX2                !
 ! D96   D(25,26,29,33)         -8.5206         estimate D2E/DX2                !
 ! D97   D(27,26,29,30)        -13.3897         estimate D2E/DX2                !
 ! D98   D(27,26,29,33)        173.043          estimate D2E/DX2                !
 ! D99   D(26,27,28,23)         -2.3607         estimate D2E/DX2                !
 ! D100  D(26,27,28,88)        176.0331         estimate D2E/DX2                !
 ! D101  D(26,29,30,31)       -178.8974         estimate D2E/DX2                !
 ! D102  D(26,29,30,89)          7.2684         estimate D2E/DX2                !
 ! D103  D(33,29,30,31)         -4.9671         estimate D2E/DX2                !
 ! D104  D(33,29,30,89)       -178.8012         estimate D2E/DX2                !
 ! D105  D(26,29,33,32)       -177.8808         estimate D2E/DX2                !
 ! D106  D(30,29,33,32)          7.5024         estimate D2E/DX2                !
 ! D107  D(29,30,31,32)         -1.3299         estimate D2E/DX2                !
 ! D108  D(29,30,31,90)       -175.2387         estimate D2E/DX2                !
 ! D109  D(89,30,31,32)        171.5589         estimate D2E/DX2                !
 ! D110  D(89,30,31,90)         -2.35           estimate D2E/DX2                !
 ! D111  D(30,31,32,33)          6.6971         estimate D2E/DX2                !
 ! D112  D(30,31,32,34)       -177.8688         estimate D2E/DX2                !
 ! D113  D(90,31,32,33)       -179.6711         estimate D2E/DX2                !
 ! D114  D(90,31,32,34)         -4.237          estimate D2E/DX2                !
 ! D115  D(31,32,33,29)         -7.9512         estimate D2E/DX2                !
 ! D116  D(34,32,33,29)        176.2229         estimate D2E/DX2                !
 ! D117  D(31,32,34,35)         44.2765         estimate D2E/DX2                !
 ! D118  D(31,32,34,39)       -137.5799         estimate D2E/DX2                !
 ! D119  D(33,32,34,35)       -140.8418         estimate D2E/DX2                !
 ! D120  D(33,32,34,39)         37.3018         estimate D2E/DX2                !
 ! D121  D(32,34,35,36)        179.0519         estimate D2E/DX2                !
 ! D122  D(32,34,35,91)         -3.4347         estimate D2E/DX2                !
 ! D123  D(39,34,35,36)          0.6124         estimate D2E/DX2                !
 ! D124  D(39,34,35,91)        178.1257         estimate D2E/DX2                !
 ! D125  D(32,34,39,38)       -177.7723         estimate D2E/DX2                !
 ! D126  D(32,34,39,92)          3.5496         estimate D2E/DX2                !
 ! D127  D(35,34,39,38)          0.5836         estimate D2E/DX2                !
 ! D128  D(35,34,39,92)       -178.0945         estimate D2E/DX2                !
 ! D129  D(34,35,36,37)         -0.3168         estimate D2E/DX2                !
 ! D130  D(91,35,36,37)       -177.7955         estimate D2E/DX2                !
 ! D131  D(35,36,37,38)         -1.2565         estimate D2E/DX2                !
 ! D132  D(35,36,37,40)       -177.3537         estimate D2E/DX2                !
 ! D133  D(36,37,38,39)          2.3244         estimate D2E/DX2                !
 ! D134  D(40,37,38,39)        178.0873         estimate D2E/DX2                !
 ! D135  D(36,37,40,41)       -174.6283         estimate D2E/DX2                !
 ! D136  D(36,37,40,44)          0.2211         estimate D2E/DX2                !
 ! D137  D(38,37,40,41)          9.1557         estimate D2E/DX2                !
 ! D138  D(38,37,40,44)       -175.9949         estimate D2E/DX2                !
 ! D139  D(37,38,39,34)         -1.9995         estimate D2E/DX2                !
 ! D140  D(37,38,39,92)        176.7869         estimate D2E/DX2                !
 ! D141  D(37,40,41,42)       -178.8985         estimate D2E/DX2                !
 ! D142  D(37,40,41,93)         -5.119          estimate D2E/DX2                !
 ! D143  D(44,40,41,42)          5.7005         estimate D2E/DX2                !
 ! D144  D(44,40,41,93)        179.4799         estimate D2E/DX2                !
 ! D145  D(37,40,44,43)        178.5107         estimate D2E/DX2                !
 ! D146  D(41,40,44,43)         -5.9773         estimate D2E/DX2                !
 ! D147  D(40,41,42,43)         -1.8629         estimate D2E/DX2                !
 ! D148  D(40,41,42,94)        176.866          estimate D2E/DX2                !
 ! D149  D(93,41,42,43)       -174.99           estimate D2E/DX2                !
 ! D150  D(93,41,42,94)          3.7389         estimate D2E/DX2                !
 ! D151  D(41,42,43,44)         -2.7265         estimate D2E/DX2                !
 ! D152  D(41,42,43,45)        177.2782         estimate D2E/DX2                !
 ! D153  D(94,42,43,44)        178.5969         estimate D2E/DX2                !
 ! D154  D(94,42,43,45)         -1.3984         estimate D2E/DX2                !
 ! D155  D(42,43,44,40)          5.0465         estimate D2E/DX2                !
 ! D156  D(45,43,44,40)       -174.9573         estimate D2E/DX2                !
 ! D157  D(42,43,45,46)         34.5154         estimate D2E/DX2                !
 ! D158  D(42,43,45,50)       -145.8892         estimate D2E/DX2                !
 ! D159  D(44,43,45,46)       -145.4797         estimate D2E/DX2                !
 ! D160  D(44,43,45,50)         34.1157         estimate D2E/DX2                !
 ! D161  D(43,45,46,47)       -174.191          estimate D2E/DX2                !
 ! D162  D(43,45,46,95)         -1.473          estimate D2E/DX2                !
 ! D163  D(50,45,46,47)          6.164          estimate D2E/DX2                !
 ! D164  D(50,45,46,95)        178.882          estimate D2E/DX2                !
 ! D165  D(43,45,50,49)        179.7653         estimate D2E/DX2                !
 ! D166  D(43,45,50,96)         -1.5625         estimate D2E/DX2                !
 ! D167  D(46,45,50,49)         -0.6325         estimate D2E/DX2                !
 ! D168  D(46,45,50,96)        178.0396         estimate D2E/DX2                !
 ! D169  D(45,46,47,48)         -7.3462         estimate D2E/DX2                !
 ! D170  D(95,46,47,48)        178.9804         estimate D2E/DX2                !
 ! D171  D(46,47,48,49)          3.4718         estimate D2E/DX2                !
 ! D172  D(46,47,48,51)       -176.4348         estimate D2E/DX2                !
 ! D173  D(47,48,49,50)          1.5052         estimate D2E/DX2                !
 ! D174  D(51,48,49,50)       -178.5838         estimate D2E/DX2                !
 ! D175  D(47,48,51,52)        177.9875         estimate D2E/DX2                !
 ! D176  D(47,48,51,55)         -2.9864         estimate D2E/DX2                !
 ! D177  D(49,48,51,52)         -1.9339         estimate D2E/DX2                !
 ! D178  D(49,48,51,55)        177.0922         estimate D2E/DX2                !
 ! D179  D(48,49,50,45)         -2.9727         estimate D2E/DX2                !
 ! D180  D(48,49,50,96)        178.346          estimate D2E/DX2                !
 ! D181  D(48,51,52,53)        178.8905         estimate D2E/DX2                !
 ! D182  D(48,51,52,97)         -2.7562         estimate D2E/DX2                !
 ! D183  D(55,51,52,53)         -0.2456         estimate D2E/DX2                !
 ! D184  D(55,51,52,97)        178.1077         estimate D2E/DX2                !
 ! D185  D(48,51,55,54)       -178.6965         estimate D2E/DX2                !
 ! D186  D(52,51,55,54)          0.5452         estimate D2E/DX2                !
 ! D187  D(51,52,53,54)         -0.2697         estimate D2E/DX2                !
 ! D188  D(51,52,53,98)        178.8852         estimate D2E/DX2                !
 ! D189  D(97,52,53,54)       -178.449          estimate D2E/DX2                !
 ! D190  D(97,52,53,98)          0.7059         estimate D2E/DX2                !
 ! D191  D(52,53,54,55)          0.6735         estimate D2E/DX2                !
 ! D192  D(52,53,54,56)       -178.8303         estimate D2E/DX2                !
 ! D193  D(98,53,54,55)       -178.569          estimate D2E/DX2                !
 ! D194  D(98,53,54,56)          1.9273         estimate D2E/DX2                !
 ! D195  D(53,54,55,51)         -0.7096         estimate D2E/DX2                !
 ! D196  D(56,54,55,51)        178.8231         estimate D2E/DX2                !
 ! D197  D(53,54,56,57)         35.4876         estimate D2E/DX2                !
 ! D198  D(53,54,56,61)       -142.7471         estimate D2E/DX2                !
 ! D199  D(55,54,56,57)       -143.9617         estimate D2E/DX2                !
 ! D200  D(55,54,56,61)         37.8036         estimate D2E/DX2                !
 ! D201  D(54,56,57,58)       -177.2883         estimate D2E/DX2                !
 ! D202  D(54,56,57,99)          3.5063         estimate D2E/DX2                !
 ! D203  D(61,56,57,58)          1.1059         estimate D2E/DX2                !
 ! D204  D(61,56,57,99)       -178.0996         estimate D2E/DX2                !
 ! D205  D(54,56,61,60)        176.0594         estimate D2E/DX2                !
 ! D206  D(54,56,61,100)         1.4557         estimate D2E/DX2                !
 ! D207  D(57,56,61,60)         -2.3297         estimate D2E/DX2                !
 ! D208  D(57,56,61,100)      -176.9334         estimate D2E/DX2                !
 ! D209  D(56,57,58,59)         -1.5445         estimate D2E/DX2                !
 ! D210  D(99,57,58,59)        177.7147         estimate D2E/DX2                !
 ! D211  D(57,58,59,60)          3.0732         estimate D2E/DX2                !
 ! D212  D(57,58,59,62)        178.7451         estimate D2E/DX2                !
 ! D213  D(58,59,60,61)         -4.388          estimate D2E/DX2                !
 ! D214  D(62,59,60,61)       -179.761          estimate D2E/DX2                !
 ! D215  D(58,59,62,63)         11.8836         estimate D2E/DX2                !
 ! D216  D(58,59,62,66)       -173.5449         estimate D2E/DX2                !
 ! D217  D(60,59,62,63)       -172.6504         estimate D2E/DX2                !
 ! D218  D(60,59,62,66)          1.9211         estimate D2E/DX2                !
 ! D219  D(59,60,61,56)          4.1178         estimate D2E/DX2                !
 ! D220  D(59,60,61,100)       178.9107         estimate D2E/DX2                !
 ! D221  D(59,62,63,64)        177.9368         estimate D2E/DX2                !
 ! D222  D(59,62,63,101)        -4.0253         estimate D2E/DX2                !
 ! D223  D(66,62,63,64)          2.7638         estimate D2E/DX2                !
 ! D224  D(66,62,63,101)      -179.1983         estimate D2E/DX2                !
 ! D225  D(59,62,66,65)        179.9591         estimate D2E/DX2                !
 ! D226  D(63,62,66,65)         -4.6116         estimate D2E/DX2                !
 ! D227  D(62,63,64,65)          0.8401         estimate D2E/DX2                !
 ! D228  D(62,63,64,102)       179.916          estimate D2E/DX2                !
 ! D229  D(101,63,64,65)      -177.3571         estimate D2E/DX2                !
 ! D230  D(101,63,64,102)        1.7188         estimate D2E/DX2                !
 ! D231  D(63,64,65,66)         -4.0372         estimate D2E/DX2                !
 ! D232  D(63,64,65,67)        178.5175         estimate D2E/DX2                !
 ! D233  D(102,64,65,66)       176.8767         estimate D2E/DX2                !
 ! D234  D(102,64,65,67)        -0.5686         estimate D2E/DX2                !
 ! D235  D(64,65,66,62)          4.9731         estimate D2E/DX2                !
 ! D236  D(67,65,66,62)       -177.5717         estimate D2E/DX2                !
 ! D237  D(64,65,67,68)        -35.9699         estimate D2E/DX2                !
 ! D238  D(64,65,67,72)        145.9042         estimate D2E/DX2                !
 ! D239  D(66,65,67,68)        147.0309         estimate D2E/DX2                !
 ! D240  D(66,65,67,72)        -31.095          estimate D2E/DX2                !
 ! D241  D(65,67,68,69)       -174.4914         estimate D2E/DX2                !
 ! D242  D(65,67,68,103)        -1.7945         estimate D2E/DX2                !
 ! D243  D(72,67,68,69)          3.8313         estimate D2E/DX2                !
 ! D244  D(72,67,68,103)       176.5283         estimate D2E/DX2                !
 ! D245  D(65,67,72,71)        179.5595         estimate D2E/DX2                !
 ! D246  D(65,67,72,104)        -6.8108         estimate D2E/DX2                !
 ! D247  D(68,67,72,71)          1.1778         estimate D2E/DX2                !
 ! D248  D(68,67,72,104)       174.8075         estimate D2E/DX2                !
 ! D249  D(67,68,69,70)         -7.9323         estimate D2E/DX2                !
 ! D250  D(103,68,69,70)       178.7084         estimate D2E/DX2                !
 ! D251  D(68,69,70,71)          8.0525         estimate D2E/DX2                !
 ! D252  D(68,69,70,73)        179.9273         estimate D2E/DX2                !
 ! D253  D(69,70,71,72)         -3.9018         estimate D2E/DX2                !
 ! D254  D(73,70,71,72)       -175.6604         estimate D2E/DX2                !
 ! D255  D(69,70,73,74)          8.4164         estimate D2E/DX2                !
 ! D256  D(69,70,73,77)       -179.7538         estimate D2E/DX2                !
 ! D257  D(71,70,73,74)       -178.826          estimate D2E/DX2                !
 ! D258  D(71,70,73,77)         -6.9962         estimate D2E/DX2                !
 ! D259  D(70,71,72,67)         -1.0214         estimate D2E/DX2                !
 ! D260  D(70,71,72,104)      -174.9433         estimate D2E/DX2                !
 ! D261  D(70,73,74,75)        173.9539         estimate D2E/DX2                !
 ! D262  D(70,73,74,105)        -6.795          estimate D2E/DX2                !
 ! D263  D(77,73,74,75)          1.579          estimate D2E/DX2                !
 ! D264  D(77,73,74,105)      -179.17           estimate D2E/DX2                !
 ! D265  D(70,73,77,76)       -175.8465         estimate D2E/DX2                !
 ! D266  D(74,73,77,76)         -2.9438         estimate D2E/DX2                !
 ! D267  D(73,74,75,76)          1.0558         estimate D2E/DX2                !
 ! D268  D(73,74,75,106)       175.014          estimate D2E/DX2                !
 ! D269  D(105,74,75,76)      -178.2288         estimate D2E/DX2                !
 ! D270  D(105,74,75,106)       -4.2705         estimate D2E/DX2                !
 ! D271  D(74,75,76,77)         -3.2177         estimate D2E/DX2                !
 ! D272  D(74,75,76,107)      -175.6377         estimate D2E/DX2                !
 ! D273  D(106,75,76,77)      -177.0854         estimate D2E/DX2                !
 ! D274  D(106,75,76,107)       10.4947         estimate D2E/DX2                !
 ! D275  D(75,76,77,73)          3.5004         estimate D2E/DX2                !
 ! D276  D(107,76,77,73)       176.2995         estimate D2E/DX2                !
 --------------------------------------------------------------------------------
 Trust Radius=3.00D-01 FncErr=1.00D-07 GrdErr=1.00D-06 EigMax=2.50D+02 EigMin=1.00D-04
 Number of steps in this run=    595 maximum allowed number of steps=    642.
 GradGradGradGradGradGradGradGradGradGradGradGradGradGradGradGradGradGrad

 Leave Link  103 at Fri Jul 24 22:47:45 2020, MaxMem=  4026531840 cpu:               0.3 elap:               0.1
 (Enter /opt/ohpc/pub/libs/gaussian/g16-A.03/sandybridge/g16/l202.exe)
 Stoichiometry    C56H30N14S7
 Framework group  C1[X(C56H30N14S7)]
 Deg. of freedom   315
 Full point group                 C1      NOp   1
 Largest Abelian subgroup         C1      NOp   1
 Largest concise Abelian subgroup C1      NOp   1
                         Standard orientation:                         
 ---------------------------------------------------------------------
 Center     Atomic      Atomic             Coordinates (Angstroms)
 Number     Number       Type             X           Y           Z
 ---------------------------------------------------------------------
      1          6           0      -25.394281    4.509215   -0.166703
      2          6           0      -24.761808    3.583502   -0.929379
      3          7           0      -23.602153    3.082808   -0.653120
      4          6           0      -22.915648    3.688729    0.404226
      5          7           0      -23.467580    4.582994    1.227383
      6          6           0      -24.755716    4.987024    0.856120
      7          6           0      -21.559037    3.196080    0.695740
      8          6           0      -20.807863    3.652813    1.720502
      9          6           0      -19.469667    3.007339    1.766485
     10          6           0      -19.410844    2.041060    0.773032
     11         16           0      -20.839378    1.993489   -0.139984
     12          6           0      -18.229508    1.111671    0.551168
     13          6           0      -18.413578   -0.187938    0.112123
     14          7           0      -17.353028   -0.975337   -0.201026
     15          6           0      -16.125235   -0.555443    0.066853
     16          7           0      -15.905800    0.708263    0.521156
     17          6           0      -16.971538    1.458560    0.701570
     18          6           0      -15.002636   -1.446383   -0.265363
     19          6           0      -15.060558   -2.691193   -0.679286
     20          6           0      -13.765429   -3.279259   -0.805948
     21          6           0      -12.758941   -2.408998   -0.395895
     22         16           0      -13.349507   -0.948551    0.023129
     23          6           0      -11.288572   -2.639989   -0.377469
     24          6           0      -10.403999   -2.059630    0.399321
     25          7           0       -9.023743   -2.226989    0.460640
     26          6           0       -8.570442   -3.130212   -0.401508
     27          7           0       -9.376176   -3.841807   -1.217865
     28          6           0      -10.650248   -3.584342   -1.211401
     29          6           0       -7.156991   -3.409756   -0.466262
     30          6           0       -6.485998   -4.508517   -1.081932
     31          6           0       -5.102846   -4.417446   -0.895080
     32          6           0       -4.658746   -3.285260   -0.188215
     33         16           0       -6.074394   -2.412172    0.415007
     34          6           0       -3.364650   -2.894533    0.119365
     35          6           0       -2.277938   -2.936442   -0.830451
     36          7           0       -1.000980   -2.536929   -0.547018
     37          6           0       -0.770134   -2.073280    0.702513
     38          7           0       -1.679541   -1.961528    1.635929
     39          6           0       -2.895385   -2.375325    1.337262
     40          6           0        0.617647   -1.607450    0.900151
     41          6           0        1.164325   -1.179944    2.111875
     42          6           0        2.468840   -0.784672    1.978692
     43          6           0        2.970475   -0.912180    0.774467
     44         16           0        1.803198   -1.644886   -0.321557
     45          6           0        4.331300   -0.557922    0.159431
     46          6           0        5.457333   -0.690427    0.977500
     47          7           0        6.679519   -0.292412    0.560895
     48          6           0        6.747400    0.090139   -0.748529
     49          7           0        5.775709    0.182257   -1.639205
     50          6           0        4.579016   -0.134436   -1.096640
     51          6           0        8.049788    0.458579   -1.297075
     52          6           0        8.445276    0.851727   -2.592247
     53          6           0        9.747547    1.162211   -2.811713
     54          6           0       10.511534    1.019297   -1.576424
     55         16           0        9.492599    0.493998   -0.302787
     56          6           0       11.950062    1.282626   -1.379371
     57          6           0       12.605911    2.266627   -2.004906
     58          7           0       13.873086    2.528327   -1.921374
     59          6           0       14.629803    1.719895   -1.067680
     60          7           0       14.041755    0.706421   -0.445332
     61          6           0       12.761581    0.514852   -0.556906
     62          6           0       16.015050    1.983532   -0.994103
     63          6           0       16.713574    3.127940   -1.507904
     64          6           0       18.122680    3.084536   -1.208116
     65          6           0       18.502282    1.868692   -0.466530
     66         16           0       17.094985    1.003242   -0.136549
     67          6           0       19.807526    1.517189   -0.052173
     68          6           0       20.936557    1.749564   -0.725973
     69          7           0       22.159345    1.353145   -0.425944
     70          6           0       22.271167    0.757977    0.820779
     71          7           0       21.278810    0.421377    1.649686
     72          6           0       20.082831    0.804588    1.177466
     73          6           0       23.653912    0.294220    1.189609
     74          6           0       24.808209    0.544020    0.500520
     75          6           0       25.999475    0.049602    1.240226
     76          6           0       25.649077   -0.570974    2.447898
     77         16           0       23.946699   -0.481440    2.730168
     78          1           0      -26.424061    4.815509   -0.425947
     79          1           0      -25.277178    3.046250   -1.811113
     80          1           0      -25.134273    5.794425    1.460680
     81          1           0      -21.032781    4.491592    2.392378
     82          1           0      -18.720543    3.243026    2.531585
     83          1           0      -19.396707   -0.583135   -0.117916
     84          1           0      -16.750645    2.517355    1.090463
     85          1           0      -15.943074   -3.282326   -0.869681
     86          1           0      -13.588555   -4.342820   -1.051627
     87          1           0      -10.740868   -1.300486    1.214434
     88          1           0      -11.238629   -4.141884   -1.937377
     89          1           0       -7.066757   -5.195864   -1.681994
     90          1           0       -4.426804   -5.153136   -1.380023
     91          1           0       -2.479411   -3.325664   -1.759340
     92          1           0       -3.585875   -2.285414    2.239170
     93          1           0        0.499372   -1.092750    3.023637
     94          1           0        3.032694   -0.363342    2.858539
     95          1           0        5.462717   -0.992427    1.993279
     96          1           0        3.685603   -0.051939   -1.789923
     97          1           0        7.657928    0.850872   -3.349511
     98          1           0       10.210365    1.448289   -3.678350
     99          1           0       12.064076    2.976371   -2.670990
    100          1           0       12.337206   -0.379237   -0.013421
    101          1           0       16.318086    3.915721   -2.065748
    102          1           0       18.835957    3.850196   -1.505391
    103          1           0       20.924448    2.248321   -1.749570
    104          1           0       19.212122    0.609321    1.917530
    105          1           0       24.881068    1.002619   -0.420820
[...]
  Beta virt. eigenvalues --    1.43410   1.43646   1.44970   1.45004   1.45111
  Beta virt. eigenvalues --    1.45310   1.45411   1.45758   1.45999   1.46684
  Beta virt. eigenvalues --    1.47065   1.47199   1.47405   1.47696   1.48031
  Beta virt. eigenvalues --    1.49065   1.49195   1.49771   1.50625   1.50921
  Beta virt. eigenvalues --    1.51314   1.51587   1.51741   1.51903   1.52045
  Beta virt. eigenvalues --    1.52343   1.52416   1.52624   1.52709   1.53081
  Beta virt. eigenvalues --    1.53207   1.53487   1.53626   1.53705   1.54162
  Beta virt. eigenvalues --    1.54556   1.54785   1.55741   1.56177   1.56390
  Beta virt. eigenvalues --    1.56656   1.57099   1.57885   1.57939   1.58292
  Beta virt. eigenvalues --    1.58446   1.58638   1.59020   1.59143   1.59240
  Beta virt. eigenvalues --    1.59599   1.59732   1.60062   1.60205   1.60353
  Beta virt. eigenvalues --    1.60562   1.60666   1.61064   1.61123   1.61170
  Beta virt. eigenvalues --    1.61518   1.61576   1.61823   1.62113   1.62490
  Beta virt. eigenvalues --    1.64090   1.64199   1.64389   1.64523   1.64797
  Beta virt. eigenvalues --    1.64937   1.65123   1.65368   1.65462   1.65535
  Beta virt. eigenvalues --    1.65556   1.65745   1.65805   1.66122   1.66676
  Beta virt. eigenvalues --    1.66785   1.66892   1.67043   1.67075   1.67162
  Beta virt. eigenvalues --    1.67346   1.67812   1.67937   1.67976   1.68188
  Beta virt. eigenvalues --    1.68441   1.68557   1.68912   1.69214   1.69249
  Beta virt. eigenvalues --    1.69493   1.69528   1.69774   1.69996   1.70073
  Beta virt. eigenvalues --    1.70187   1.70389   1.70827   1.71057   1.71213
  Beta virt. eigenvalues --    1.71666   1.72179   1.72430   1.72894   1.73193
  Beta virt. eigenvalues --    1.73283   1.73913   1.73949   1.74238   1.74286
  Beta virt. eigenvalues --    1.74328   1.74932   1.75638   1.75708   1.75847
  Beta virt. eigenvalues --    1.75934   1.76206   1.76405   1.76505   1.76730
  Beta virt. eigenvalues --    1.76979   1.77366   1.77648   1.78085   1.79069
  Beta virt. eigenvalues --    1.79371   1.79550   1.79678   1.80338   1.80400
  Beta virt. eigenvalues --    1.80703   1.81189   1.81585   1.81791   1.82199
  Beta virt. eigenvalues --    1.82723   1.82744   1.82906   1.83014   1.83401
  Beta virt. eigenvalues --    1.83505   1.83884   1.84094   1.84241   1.84488
  Beta virt. eigenvalues --    1.85034   1.85377   1.85495   1.85636   1.85975
  Beta virt. eigenvalues --    1.86440   1.86717   1.87467   1.87766   1.88342
  Beta virt. eigenvalues --    1.88563   1.88713   1.88941   1.89026   1.89343
  Beta virt. eigenvalues --    1.89957   1.90276   1.90505   1.90705   1.90839
  Beta virt. eigenvalues --    1.91189   1.91706   1.92588   1.93485   1.93674
  Beta virt. eigenvalues --    1.93820   1.93879   1.94260   1.94447   1.95318
  Beta virt. eigenvalues --    1.95482   1.95744   1.95809   1.96060   1.96283
  Beta virt. eigenvalues --    1.96437   1.96497   1.96873   1.96913   1.97343
  Beta virt. eigenvalues --    1.97653   1.97794   1.97916   1.98425   1.98652
  Beta virt. eigenvalues --    1.98922   1.99595   2.00228   2.00480   2.00747
  Beta virt. eigenvalues --    2.00961   2.01065   2.01241   2.01381   2.01750
  Beta virt. eigenvalues --    2.02022   2.02110   2.02383   2.02988   2.03375
  Beta virt. eigenvalues --    2.03507   2.03895   2.04204   2.04758   2.05216
  Beta virt. eigenvalues --    2.05319   2.07179   2.07441   2.07562   2.07976
  Beta virt. eigenvalues --    2.08070   2.08315   2.08423   2.08639   2.08855
  Beta virt. eigenvalues --    2.09271   2.10179   2.10625   2.11567   2.13880
  Beta virt. eigenvalues --    2.14258   2.14617   2.15065   2.15103   2.15503
  Beta virt. eigenvalues --    2.16277   2.16486   2.16845   2.16873   2.17645
  Beta virt. eigenvalues --    2.18145   2.18514   2.18642   2.18866   2.18876
  Beta virt. eigenvalues --    2.19035   2.19271   2.19376   2.19455   2.19505
  Beta virt. eigenvalues --    2.19664   2.19680   2.19869   2.19965   2.20295
  Beta virt. eigenvalues --    2.20430   2.20633   2.20880   2.20945   2.21059
  Beta virt. eigenvalues --    2.21342   2.21600   2.21771   2.22339   2.22398
  Beta virt. eigenvalues --    2.22847   2.23608   2.24057   2.24770   2.25603
  Beta virt. eigenvalues --    2.26613   2.27215   2.27815   2.28513   2.28872
  Beta virt. eigenvalues --    2.29112   2.29418   2.30598   2.31532   2.31798
  Beta virt. eigenvalues --    2.32466   2.33319   2.34140   2.34790   2.35914
  Beta virt. eigenvalues --    2.36162   2.36363   2.36519   2.36718   2.36934
  Beta virt. eigenvalues --    2.37066   2.37739   2.39290   2.39693   2.40029
  Beta virt. eigenvalues --    2.40406   2.40673   2.41049   2.42114   2.43622
  Beta virt. eigenvalues --    2.43771   2.43899   2.43976   2.44129   2.44390
  Beta virt. eigenvalues --    2.45094   2.45358   2.48501   2.48984   2.49231
  Beta virt. eigenvalues --    2.49528   2.49948   2.50291   2.50965   2.52843
  Beta virt. eigenvalues --    2.53343   2.53642   2.54211   2.54854   2.55228
  Beta virt. eigenvalues --    2.57183   2.57835   2.58042   2.58169   2.58441
  Beta virt. eigenvalues --    2.58678   2.58756   2.59045   2.59166   2.59179
  Beta virt. eigenvalues --    2.59380   2.59581   2.59756   2.59897   2.60568
  Beta virt. eigenvalues --    2.60888   2.61486   2.61493   2.61966   2.62144
  Beta virt. eigenvalues --    2.62205   2.62707   2.67295   2.67433   2.68095
  Beta virt. eigenvalues --    2.68250   2.68325   2.68810   2.69729   2.73012
  Beta virt. eigenvalues --    2.77910   2.78671   2.78960   2.79212   2.79470
  Beta virt. eigenvalues --    2.79588   2.79796   2.79981   2.80280   2.80363
  Beta virt. eigenvalues --    2.80603   2.80910   2.81225   2.85956   2.86450
  Beta virt. eigenvalues --    2.86605   2.86754   2.86840   2.87047   2.87138
  Beta virt. eigenvalues --    2.87358   2.87414   2.87499   2.87671   2.87881
  Beta virt. eigenvalues --    2.88326   2.91442   3.01141   3.01988   3.02521
  Beta virt. eigenvalues --    3.03152   3.03828   3.04408   3.04981   3.16330
  Beta virt. eigenvalues --    3.16774   3.17880   3.18616   3.19497   3.20266
  Beta virt. eigenvalues --    3.22400   3.31524   3.32270   3.33077   3.33913
  Beta virt. eigenvalues --    3.34640   3.35149   3.40351
          Condensed to atoms (all electrons):
          Atomic-Atomic Spin Densities.
 Mulliken charges and spin densities:
               1          2
     1  C   -0.064580   0.000000
     2  C    0.121625  -0.000000
     3  N   -0.202813   0.000000
     4  C    0.187812  -0.000000
     5  N   -0.188204  -0.000000
     6  C    0.120350  -0.000000
     7  C   -0.162759  -0.000000
     8  C    0.071758   0.000000
     9  C    0.036168  -0.000000
    10  C   -0.165087  -0.000000
    11  S    0.200335   0.000000
    12  C   -0.056930   0.000000
    13  C    0.132099  -0.000000
    14  N   -0.183884  -0.000000
    15  C    0.188024   0.000000
    16  N   -0.198878  -0.000000
    17  C    0.134703   0.000000
    18  C   -0.163067   0.000000
    19  C    0.070902  -0.000000
    20  C    0.036713   0.000000
    21  C   -0.165097  -0.000000
    22  S    0.201011  -0.000000
    23  C   -0.057196   0.000000
    24  C    0.133606  -0.000000
    25  N   -0.198288  -0.000000
    26  C    0.188091   0.000000
    27  N   -0.184554   0.000000
    28  C    0.133220  -0.000000
    29  C   -0.163083   0.000000
    30  C    0.070718  -0.000000
    31  C    0.036761   0.000000
    32  C   -0.165112  -0.000000
    33  S    0.201400   0.000000
    34  C   -0.057201  -0.000000
    35  C    0.134590   0.000000
    36  N   -0.198967  -0.000000
    37  C    0.187992   0.000000
    38  N   -0.183794  -0.000000
    39  C    0.132087   0.000000
    40  C   -0.163118  -0.000000
    41  C    0.071016   0.000000
    42  C    0.036796  -0.000000
    43  C   -0.164980   0.000000
    44  S    0.200093   0.000000
    45  C   -0.057274   0.000000
    46  C    0.134581  -0.000000
    47  N   -0.198788   0.000000
    48  C    0.187906   0.000000
    49  N   -0.183952   0.000000
    50  C    0.131875  -0.000000
    51  C   -0.163282  -0.000000
    52  C    0.070755  -0.000000
    53  C    0.036537   0.000000
    54  C   -0.164684  -0.000000
    55  S    0.200660   0.000000
    56  C   -0.057733   0.000000
    57  C    0.132695  -0.000000
    58  N   -0.184788   0.000000
    59  C    0.187751   0.000000
    60  N   -0.197920  -0.000000
    61  C    0.133156  -0.000000
    62  C   -0.163967  -0.000000
    63  C    0.070094   0.000000
    64  C    0.036576   0.000000
    65  C   -0.163777  -0.000000
    66  S    0.200814   0.000000
    67  C   -0.059209   0.000000
    68  C    0.130611   0.000000
    69  N   -0.184966   0.000000
    70  C    0.196482  -0.000000
    71  N   -0.197612   0.000000
    72  C    0.131009   0.000000
    73  C   -0.171046   0.000000
    74  C    0.043531  -0.000000
    75  C    0.067043   0.000000
    76  C   -0.128881  -0.000000
    77  S    0.191012   0.000000
    78  H    0.003156  -0.000000
    79  H    0.016089   0.000000
    80  H    0.013795   0.000000
    81  H   -0.008969  -0.000000
    82  H   -0.010062   0.000000
    83  H    0.013713  -0.000000
    84  H    0.009741  -0.000000
    85  H   -0.008535   0.000000
    86  H   -0.010220  -0.000000
    87  H    0.015884  -0.000000
    88  H    0.007475  -0.000000
    89  H   -0.009135  -0.000000
    90  H   -0.010044  -0.000000
    91  H    0.009490  -0.000000
    92  H    0.013953   0.000000
    93  H   -0.008449   0.000000
    94  H   -0.009878   0.000000
    95  H    0.009590  -0.000000
    96  H    0.013619   0.000000
    97  H   -0.008941   0.000000
    98  H   -0.010585   0.000000
    99  H    0.006651   0.000000
   100  H    0.015600   0.000000
   101  H   -0.010425   0.000000
   102  H   -0.011364   0.000000
   103  H    0.005421   0.000000
   104  H    0.014133  -0.000000
   105  H   -0.009951   0.000000
   106  H   -0.009965   0.000000
   107  H    0.022722  -0.000000
 Sum of Mulliken charges =  -0.00000  -0.00000
 Mulliken charges and spin densities with hydrogens summed into heavy atoms:
               1          2
     1  C   -0.061425   0.000000
     2  C    0.137714  -0.000000
     3  N   -0.202813   0.000000
     4  C    0.187812  -0.000000
     5  N   -0.188204  -0.000000
     6  C    0.134145   0.000000
     7  C   -0.162759  -0.000000
     8  C    0.062789   0.000000
     9  C    0.026106  -0.000000
    10  C   -0.165087  -0.000000
    11  S    0.200335   0.000000
    12  C   -0.056930   0.000000
    13  C    0.145813  -0.000000
    14  N   -0.183884  -0.000000
    15  C    0.188024   0.000000
    16  N   -0.198878  -0.000000
    17  C    0.144444   0.000000
    18  C   -0.163067   0.000000
    19  C    0.062367  -0.000000
    20  C    0.026493   0.000000
    21  C   -0.165097  -0.000000
    22  S    0.201011  -0.000000
    23  C   -0.057196   0.000000
    24  C    0.149490  -0.000000
    25  N   -0.198288  -0.000000
    26  C    0.188091   0.000000
    27  N   -0.184554   0.000000
    28  C    0.140695  -0.000000
    29  C   -0.163083   0.000000
    30  C    0.061583  -0.000000
    31  C    0.026717   0.000000
    32  C   -0.165112  -0.000000
    33  S    0.201400   0.000000
    34  C   -0.057201  -0.000000
    35  C    0.144080   0.000000
    36  N   -0.198967  -0.000000
    37  C    0.187992   0.000000
    38  N   -0.183794  -0.000000
    39  C    0.146040   0.000000
    40  C   -0.163118  -0.000000
    41  C    0.062567   0.000000
    42  C    0.026919  -0.000000
    43  C   -0.164980   0.000000
    44  S    0.200093   0.000000
    45  C   -0.057274   0.000000
    46  C    0.144171  -0.000000
    47  N   -0.198788   0.000000
    48  C    0.187906   0.000000
    49  N   -0.183952   0.000000
    50  C    0.145494  -0.000000
    51  C   -0.163282  -0.000000
    52  C    0.061814   0.000000
    53  C    0.025951   0.000000
    54  C   -0.164684  -0.000000
    55  S    0.200660   0.000000
    56  C   -0.057733   0.000000
    57  C    0.139347  -0.000000
    58  N   -0.184788   0.000000
    59  C    0.187751   0.000000
    60  N   -0.197920  -0.000000
    61  C    0.148757  -0.000000
    62  C   -0.163967  -0.000000
    63  C    0.059669   0.000000
    64  C    0.025212   0.000000
    65  C   -0.163777  -0.000000
    66  S    0.200814   0.000000
    67  C   -0.059209   0.000000
    68  C    0.136033   0.000000
    69  N   -0.184966   0.000000
    70  C    0.196482  -0.000000
    71  N   -0.197612   0.000000
    72  C    0.145142  -0.000000
    73  C   -0.171046   0.000000
    74  C    0.033580  -0.000000
    75  C    0.057078   0.000000
    76  C   -0.106159  -0.000000
    77  S    0.191012   0.000000
 Electronic spatial extent (au):  <R**2>=         500545.1164
 Charge=             -0.0000 electrons
 Dipole moment (field-independent basis, Debye):
    X=            -12.8543    Y=              0.0056    Z=             -1.2449  Tot=             12.9145
 Quadrupole moment (field-independent basis, Debye-Ang):
   XX=           -308.6101   YY=           -464.0363   ZZ=           -473.6650
   XY=            -41.0948   XZ=             -6.3761   YZ=             -1.7748
 Traceless Quadrupole moment (field-independent basis, Debye-Ang):
   XX=            106.8270   YY=            -48.5991   ZZ=            -58.2279
   XY=            -41.0948   XZ=             -6.3761   YZ=             -1.7748
 Octapole moment (field-independent basis, Debye-Ang**2):
  XXX=          -8067.1411  YYY=             -4.5847  ZZZ=            -10.3043  XYY=           -288.8424
  XXY=            710.6551  XXZ=           -730.0451  XZZ=            118.3353  YZZ=             -5.6299
  YYZ=             10.4193  XYZ=            289.5932
 Hexadecapole moment (field-independent basis, Debye-Ang**3):
 XXXX=        -474138.7314 YYYY=         -10576.1685 ZZZZ=          -7682.4682 XXXY=         -26529.5379
 XXXZ=          14213.3958 YYYX=           -668.9573 YYYZ=           -106.8321 ZZZX=            123.4248
 ZZZY=            210.1733 XXYY=        -110964.8148 XXZZ=        -111049.4244 YYZZ=          -2927.0912
 XXYZ=           -896.4949 YYXZ=            613.0299 ZZXY=            362.4029
 N-N= 9.791960761396D+03 E-N=-3.298430356760D+04  KE= 5.677215541173D+03
 Leave Link  601 at Sat Jul 25 05:59:48 2020, MaxMem=  4026531840 cpu:              15.8 elap:               2.1
 (Enter /opt/ohpc/pub/libs/gaussian/g16-A.03/sandybridge/g16/l9999.exe)

 Test job not archived.
 1\1\GINC-SKYLAKE050\FOpt\ULC-wPBE\CC-pVDZ\C56H30N14S7\RDU230\25-Jul-20
 20\0\\#P uLC-wPBE/cc-pVDZ iop(3/107=0216700000, 3/108=0216700000) opt\
 \H30 C56 S7 N14\\0,1\C,-25.9213731087,3.2365080054,1.0740435863\C,-25.
 3036066022,2.0992764693,0.5502745596\N,-23.9870685475,1.8833279407,0.6
 521720423\C,-23.2804127746,2.8344678466,1.2942853448\N,-23.7651280066,
 3.9678591525,1.8378214947\C,-25.0850656982,4.1511872816,1.7185518965\C
 ,-21.8332466675,2.6102859743,1.4113792378\C,-20.8925503287,3.418544737
 7,2.0164623365\C,-19.580480528,2.8836958626,1.9385729464\C,-19.5309210
 735,1.6696555709,1.2738467392\S,-21.1123895396,1.1848399576,0.73271667
 99\C,-18.3495418345,0.8376156968,1.011455805\C,-18.4000459394,-0.56497
 32721,0.9179641337\N,-17.3292814033,-1.325948873,0.6853751658\C,-16.15
 77247284,-0.6749684473,0.55401347\N,-15.9772775947,0.6586963347,0.6226
 34634\C,-17.0694589824,1.3932944378,0.8392023017\C,-14.964039563,-1.49
 24864054,0.3095849185\C,-14.8800955651,-2.8661450166,0.2023668642\C,-1
 3.5560081363,-3.3160751342,-0.0371440068\C,-12.638549978,-2.2810061095
 ,-0.1106020378\S,-13.4135530344,-0.7382793873,0.1092825944\C,-11.19183
 28121,-2.378349249,-0.3428332749\C,-10.2636788601,-1.4619403666,0.1814
 999289\N,-8.9487380821,-1.5544488365,-0.0243884055\C,-8.5321767256,-2.
 598807027,-0.7663118876\N,-9.3172911371,-3.5412655696,-1.3233906569\C,
 -10.6279350338,-3.4127944036,-1.1119883233\C,-7.0869642514,-2.71720481
 5,-0.9904059681\C,-6.4128304394,-3.6840183037,-1.7089925519\C,-5.00843
 41233,-3.4825291546,-1.7132336113\C,-4.6211733473,-2.362195892,-0.9967
 086857\S,-5.9989549317,-1.5440454046,-0.3174938572\C,-3.2583157274,-1.
 8562851171,-0.789206726\C,-2.240456678,-2.0432592716,-1.741130716\N,-0
 .9897594267,-1.6131422449,-1.567527402\C,-0.7371708258,-0.9577249941,-
 0.4174607061\N,-1.6249173026,-0.7014295858,0.5622776831\C,-2.863104107
 2,-1.1573129863,0.3657751654\C,0.6346193089,-0.4773940395,-0.216778410
 6\C,1.145224983,0.2134121391,0.8637550429\C,2.5232032687,0.5176329905,
 0.7168311919\C,3.0542442323,0.0563861877,-0.4763697414\S,1.8481716751,
 -0.7663988161,-1.4237823288\C,4.4350222067,0.1938128016,-0.9569556096\
 C,5.5291189762,0.2512704274,-0.0755656295\N,6.7901683412,0.3976454986,
 -0.4849437655\C,6.9816286694,0.4729571988,-1.8167868398\N,6.0234565684
 ,0.4151982599,-2.7614815136\C,4.7715784463,0.2837263476,-2.3197770551\
 C,8.365213048,0.6308503115,-2.2786382458\C,8.8231989506,0.7316483649,-
 3.5769559612\C,10.2327512921,0.8759791738,-3.6500640719\C,10.840555867
 3,0.8839354463,-2.4054468573\S,9.6655500413,0.7198784386,-1.1321202578
 \C,12.2724942707,1.0125026585,-2.1062334074\C,13.1453941293,1.73951511
 24,-2.9363336982\N,14.453579172,1.8564816806,-2.7048961463\C,14.916522
 4994,1.2455828625,-1.5965342475\N,14.1836494068,0.536190521,-0.7161626
 985\C,12.8817217593,0.423654278,-0.9845113449\C,16.3520758315,1.364337
 6694,-1.3200045263\C,17.3079334511,2.0364519559,-2.0551069137\C,18.604
 1901662,1.9386941541,-1.4866146508\C,18.6281630339,1.1918064945,-0.320
 3461587\S,17.0414462839,0.5974385311,0.076696895\C,19.7879337808,0.887
 2926564,0.5277658255\C,21.0857698994,0.7624108639,-0.000256487\N,22.16
 20935289,0.5087691969,0.744869426\C,21.9470049192,0.353594534,2.066841
 2301\N,20.7540606015,0.4333768972,2.6894556396\C,19.699738214,0.703661
 242,1.9185171855\C,23.1167544168,0.0692653632,2.9045851141\C,24.432591
 2388,-0.0653417473,2.508434105\C,25.3062261815,-0.3416368706,3.5967544
 295\C,24.6363388736,-0.411484466,4.7983687867\S,22.9427030407,-0.14329
 85841,4.6208872348\H,-27.000802733,3.4023160591,0.9848164311\H,-25.883
 8448421,1.3244707794,0.0256560264\H,-25.4878676133,5.075539826,2.16117
 84392\H,-21.1684148504,4.3599351121,2.5009810643\H,-18.6989837182,3.35
 97021932,2.3817099519\H,-19.3563871791,-1.0970070608,1.0464758428\H,-1
 6.9259466068,2.4845347105,0.8659756424\H,-15.7610688702,-3.5067814505,
 0.3051017022\H,-13.2756848676,-4.37136792,-0.1251497401\H,-10.60155659
 7,-0.6186646673,0.8048353817\H,-11.2740068853,-4.1657390618,-1.5896129
 154\H,-6.9390154754,-4.5066625337,-2.2024130659\H,-4.2960031909,-4.154
 8424223,-2.2035540973\H,-2.452915171,-2.5538941415,-2.693088294\H,-3.5
 861185392,-0.9659355053,1.1749673624\H,0.5211395925,0.4862184519,1.720
 0229063\H,3.1057084469,1.0842398322,1.4514190688\H,5.3763945086,0.1615
 706165,1.0110571099\H,3.9842249833,0.2562452483,-3.0901799427\H,8.1423
 691007,0.6921474685,-4.4325304588\H,10.7923275562,0.9435390045,-4.5893
 550349\H,12.7598847158,2.2621600473,-3.8255991967\H,12.2875314961,-0.1
 742676265,-0.275026145\H,17.0533364791,2.5824438601,-2.968464762\H,19.
 492921913,2.4253763223,-1.90282141\H,21.2562398166,0.8609638101,-1.083
 8550304\H,18.7287804753,0.7886550333,2.4326375656\H,24.7312307155,0.03
 60357182,1.4605939056\H,26.3877196858,-0.484028272,3.4991753559\H,25.0
 546195259,-0.6089845674,5.7898450857\\Version=EM64L-G16RevA.03\State=1
 -A\HF=-5702.660422\S2=0.\S2-1=0.\S2A=0.\RMSD=7.861e-09\RMSF=2.791e-06\
 Dipole=-5.0582352,0.3526099,-0.3253523\Quadrupole=79.3532182,-38.61703
 57,-40.7361825,-17.4642759,-25.6778644,3.6572925\PG=C01 [X(C56H30N14S7
 )]\\@


 THE MORE ACCURATE THE CALCULATIONS BECOME, THE MORE THE CONCEPTS
 TEND TO VANISH INTO THIN AIR.
     -- R.S. MULLIKEN, J.C.P. 43,S2(1965)
 Job cpu time:       2 days  8 hours 33 minutes 38.8 seconds.
 Elapsed time:       0 days  7 hours 12 minutes  1.1 seconds.
 File lengths (MBytes):  RWF=   1772 Int=      0 D2E=      0 Chk=    160 Scr=      8
 Normal termination of Gaussian 16 at Sat Jul 25 05:59:48 2020.
