 Entering Gaussian System, Link 0=g16
 Input=mols_66_5_15_c-c-cOC-cOC_opt_0.gjf
 Output=mols_66_5_15_c-c-cOC-cOC_opt_0.log
 Initial command:
 /opt/ohpc/pub/libs/gaussian/g16-A.03/sandybridge/g16/l1.exe "/mnt/gpfs2_4m/scratch/rdu230/ondemand/projects/dihedral_energies/7trial/wtuning/mols_66_5_15_c-c-cOC-cOC/Gau-329746.inp" -scrdir="/mnt/gpfs2_4m/scratch/rdu230/ondemand/projects/dihedral_energies/7trial/wtuning/mols_66_5_15_c-c-cOC-cOC/"
 Entering Link 1 = /opt/ohpc/pub/libs/gaussian/g16-A.03/sandybridge/g16/l1.exe PID=    329748.
  
 Copyright (c) 1988,1990,1992,1993,1995,1998,2003,2009,2016,
            Gaussian, Inc.  All Rights Reserved.
  
 This is part of the Gaussian(R) 16 program.  It is based on
 the Gaussian(R) 09 system (copyright 2009, Gaussian, Inc.),
 the Gaussian(R) 03 system (copyright 2003, Gaussian, Inc.),
 the Gaussian(R) 98 system (copyright 1998, Gaussian, Inc.),
 the Gaussian(R) 94 system (copyright 1995, Gaussian, Inc.),
 the Gaussian 92(TM) system (copyright 1992, Gaussian, Inc.),
 the Gaussian 90(TM) system (copyright 1990, Gaussian, Inc.),
 the Gaussian 88(TM) system (copyright 1988, Gaussian, Inc.),
 the Gaussian 86(TM) system (copyright 1986, Carnegie Mellon
 University), and the Gaussian 82(TM) system (copyright 1983,
 Carnegie Mellon University). Gaussian is a federally registered
 trademark of Gaussian, Inc.
  
 This software contains proprietary and confidential information,
 including trade secrets, belonging to Gaussian, Inc.
  
 This software is provided under written license and may be
 used, copied, transmitted, or stored only in accord with that
 written license.
  
 The following legend is applicable only to US Government
 contracts under FAR:
  
                    RESTRICTED RIGHTS LEGEND
  
 Use, reproduction and disclosure by the US Government is
 subject to restrictions as set forth in subparagraphs (a)
 and (c) of the Commercial Computer Software - Restricted
 Rights clause in FAR 52.227-19.
  
 Gaussian, Inc.
 340 Quinnipiac St., Bldg. 40, Wallingford CT 06492
  
  
 ---------------------------------------------------------------
 Warning -- This program may not be used in any manner that
 competes with the business of Gaussian, Inc. or will provide
 assistance to any competitor of Gaussian, Inc.  The licensee
 of this program is prohibited from giving any competitor of
 Gaussian, Inc. access to this program.  By using this program,
 the user acknowledges that Gaussian, Inc. is engaged in the
 business of creating and licensing software in the field of
 computational chemistry and represents and warrants to the
 licensee that it is not a competitor of Gaussian, Inc. and that
 it will not use this program in any manner prohibited above.
 ---------------------------------------------------------------
  

 Cite this work as:
 Gaussian 16, Revision A.03,
 M. J. Frisch, G. W. Trucks, H. B. Schlegel, G. E. Scuseria, 
 M. A. Robb, J. R. Cheeseman, G. Scalmani, V. Barone, 
 G. A. Petersson, H. Nakatsuji, X. Li, M. Caricato, A. V. Marenich, 
 J. Bloino, B. G. Janesko, R. Gomperts, B. Mennucci, H. P. Hratchian, 
 J. V. Ortiz, A. F. Izmaylov, J. L. Sonnenberg, D. Williams-Young, 
 F. Ding, F. Lipparini, F. Egidi, J. Goings, B. Peng, A. Petrone, 
 T. Henderson, D. Ranasinghe, V. G. Zakrzewski, J. Gao, N. Rega, 
 G. Zheng, W. Liang, M. Hada, M. Ehara, K. Toyota, R. Fukuda, 
 J. Hasegawa, M. Ishida, T. Nakajima, Y. Honda, O. Kitao, H. Nakai, 
 T. Vreven, K. Throssell, J. A. Montgomery, Jr., J. E. Peralta, 
 F. Ogliaro, M. J. Bearpark, J. J. Heyd, E. N. Brothers, K. N. Kudin, 
 V. N. Staroverov, T. A. Keith, R. Kobayashi, J. Normand, 
 K. Raghavachari, A. P. Rendell, J. C. Burant, S. S. Iyengar, 
 J. Tomasi, M. Cossi, J. M. Millam, M. Klene, C. Adamo, R. Cammi, 
 J. W. Ochterski, R. L. Martin, K. Morokuma, O. Farkas, 
 J. B. Foresman, and D. J. Fox, Gaussian, Inc., Wallingford CT, 2016.
 
 ******************************************
 Gaussian 16:  EM64L-G16RevA.03 25-Dec-2016
                24-Jul-2020 
 ******************************************
 %mem=30GB
 %nproc=8
 Will use up to    8 processors via shared memory.
 ---------------------------------------------------------------
 #P uLC-wPBE/cc-pVDZ iop(3/107=0346300000, 3/108=0346300000) opt
 ---------------------------------------------------------------
 1/18=20,19=15,26=3,38=1/1,3;
 2/9=110,12=2,17=6,18=5,40=1/2;
 3/5=16,11=2,25=1,30=1,71=1,74=-41,107=346300000,108=346300000,116=2/1,2,3;
 4//1;
 5/5=2,38=5/2;
 6/7=2,8=2,9=2,10=2,28=1/1;
 7//1,2,3,16;
 1/18=20,19=15,26=3/3(2);
 2/9=110/2;
 99//99;
 2/9=110/2;
 3/5=16,11=2,25=1,30=1,71=1,74=-41,107=346300000,108=346300000,116=2/1,2,3;
 4/5=5,16=3,69=1/1;
 5/5=2,38=5/2;
 7//1,2,3,16;
 1/18=20,19=15,26=3/3(-5);
 2/9=110/2;
 6/7=2,8=2,9=2,10=2,19=2,28=1/1;
 99/9=1/99;
 Leave Link    1 at Fri Jul 24 20:27:49 2020, MaxMem=  4026531840 cpu:               1.1 elap:               0.2
 (Enter /opt/ohpc/pub/libs/gaussian/g16-A.03/sandybridge/g16/l101.exe)
 -----------
 H62 C70 O10
 -----------
 Symbolic Z-matrix:
 Charge =  0 Multiplicity = 1
 C                     20.69057   0.12045  -1.76277 
 C                     20.14344  -0.80569  -0.76579 
 C                     18.79468  -0.81392  -0.55653 
 O                     18.09957  -1.71007   0.30458 
 C                     18.94369  -2.49847   1.13166 
 C                     17.87357   0.09806  -1.27305 
 C                     18.42056   0.96079  -2.15193 
 C                     19.83872   0.97536  -2.34975 
 C                     16.44418   0.08158  -1.09618 
 C                     15.66246  -0.98386  -1.59779 
 C                     14.24306  -1.07159  -1.4159 
 C                     13.61888  -0.06146  -0.71762 
 C                     14.37176   1.01095  -0.21408 
 C                     15.79264   1.11584  -0.41884 
 O                     16.55225   2.07648   0.11832 
 C                     15.9729   3.11912   0.88006 
 C                     12.14425  -0.09566  -0.54166 
 C                     11.49048  -1.11079   0.1323 
 C                     10.19175  -1.16339   0.33569 
 O                     9.4961   -2.12067   0.95795 
 C                     10.32993  -3.14452   1.6886 
 C                     9.32601  -0.10155  -0.20273 
 C                     9.92599   0.94704  -0.94384 
 C                     11.38632   0.93078  -1.09913 
 C                     7.87067  -0.19342  -0.09803 
 C                     7.11476  -1.1217   -0.84018 
 C                     5.68245  -1.07118  -0.72184 
 C                     5.00972  -0.15592   0.1134 
 C                     5.79057   0.70876   0.78403 
 C                     7.23365   0.76306   0.72308 
 O                     7.97258   1.63897   1.38952 
 C                     7.31534   2.39797   2.49144 
 C                     3.56157  -0.17104   0.20642 
 C                     2.85941   0.89704  -0.22927 
 C                     1.40669   0.94397  -0.11993 
 O                     0.65607   1.99925  -0.50103 
 C                     1.26124   3.2415   -0.6048 
 C                     0.7142   -0.19299   0.22316 
 C                     1.44977  -1.29569   0.64014 
 C                     2.88667  -1.36538   0.57885 
 C                    -0.7847   -0.23428   0.32294 
 C                    -1.46741  -0.37239  -0.84769 
 C                    -2.89397  -0.43047  -0.91342 
 C                    -3.61902  -0.30572   0.26566 
 C                    -2.83957  -0.25508   1.45834 
 C                    -1.48096  -0.23801   1.54876 
 O                    -0.75821  -0.09638   2.63514 
 C                    -1.41117   0.14128   3.91436 
 C                    -5.07202  -0.29916   0.28002 
 C                    -5.82825   0.71921   0.88052 
 C                    -7.17063   0.67474   0.83495 
 O                    -7.96017   1.66507   1.36739 
 C                    -7.28901   2.76506   1.99465 
 C                    -7.88789  -0.36964   0.21066 
 C                    -7.16378  -1.35706  -0.44418 
 C                    -5.79409  -1.35304  -0.38334 
 C                    -9.40061  -0.34954   0.05171 
 C                    -9.98818   0.61279  -0.66222 
 C                    -11.37629   0.63998  -0.8037 
 C                    -12.20405  -0.38179  -0.19144 
 C                    -11.55966  -1.36868   0.60438 
 C                    -10.1988  -1.30702   0.70928 
 O                    -9.51143  -2.28588   1.486 
 C                    -10.10937  -2.67023   2.66132 
 C                    -13.63609  -0.33328  -0.34856 
 C                    -14.27533  -0.3914   -1.54116 
 C                    -15.69653  -0.33434  -1.76923 
 O                    -16.3127  -0.41902  -2.92181 
 C                    -15.54429  -0.26659  -4.10569 
 C                    -16.47778  -0.25811  -0.57318 
 C                    -15.90072  -0.29417   0.63652 
 C                    -14.4894  -0.25744   0.7865 
 C                    -18.01371  -0.2877   -0.70033 
 C                    -18.6073  -1.47396  -1.11274 
 C                    -20.03681  -1.46617  -1.14284 
 C                    -20.76582  -0.33959  -0.79606 
 C                    -20.09732   0.78109  -0.37979 
 C                    -18.74912   0.80213  -0.31783 
 O                    -17.9808   1.95111   0.07075 
 C                    -18.72578   3.16593   0.3668 
 H                     21.75973   0.18718  -1.88671 
 H                     20.84574  -1.44067  -0.32766 
 H                     19.67183  -1.82491   1.77775 
 H                     19.57935  -3.17978   0.51934 
 H                     18.33451  -3.0019    1.8218 
 H                     17.84451   1.6708   -2.63826 
 H                     20.23248   1.76349  -3.05933 
 H                     16.12738  -1.83649  -2.06837 
 H                     13.76543  -1.85681  -1.83013 
 H                     13.80225   1.83908   0.31678 
 H                     15.42814   2.70219   1.7213 
 H                     15.21473   3.74764   0.26106 
 H                     16.69402   3.79275   1.2655 
 H                     12.22684  -1.86528   0.53171 
 H                     9.61087  -3.8076    2.25439 
 H                     10.875   -3.69975   0.99415 
 H                     10.91699  -2.61335   2.39252 
 H                     9.34365   1.74924  -1.37865 
 H                     11.80213   1.78427  -1.7084 
 H                     7.65006  -1.77515  -1.4366 
 H                     5.15888  -1.87296  -1.34244 
 H                     5.21026   1.45376   1.47612 
 H                     8.17512   2.96953   3.03852 
 H                     6.70368   3.14225   2.0466 
 H                     6.82732   1.73399   3.21363 
 H                     3.38002   1.77636  -0.54723 
 H                     1.91521   3.33449  -1.4599 
 H                     0.46143   4.04903  -0.71797 
 H                     1.8183    3.51174   0.29624 
 H                     0.95645  -2.22797   0.96067 
 H                     3.37241  -2.23963   0.90746 
 H                    -0.95614  -0.37856  -1.83383 
 H                    -3.31787  -0.45579  -1.87008 
 H                    -3.47283  -0.24525   2.39975 
 H                    -1.97813   1.00734   3.83525 
 H                    -2.04095  -0.76242   4.18845 
 H                    -0.6297    0.23809   4.71209 
 H                    -5.2117    1.46342   1.33786 
 H                    -8.09589   3.47665   2.44439 
 H                    -6.70184   2.42041   2.84306 
 H                    -6.68688   3.33069   1.38453 
 H                    -7.66401  -2.14486  -0.87108 
 H                    -5.24883  -2.1945   -0.85935 
 H                    -9.40635   1.42878  -1.17226 
 H                    -11.8433   1.44519  -1.35132 
 H                    -12.12631  -2.08775   1.06367 
 H                    -9.39233  -3.07506   3.32503 
 H                    -10.93927  -3.29389   2.50701 
 H                    -10.44114  -1.76131   3.18083 
 H                    -13.65226  -0.36144  -2.44284 
 H                    -14.89739  -1.15482  -4.23257 
 H                    -16.15958  -0.26653  -4.99378 
 H                    -14.92573   0.64457  -4.17675 
 H                    -16.52058  -0.23695   1.62443 
 H                    -14.10989  -0.24045   1.81828 
 H                    -18.04511  -2.29992  -1.41135 
 H                    -20.55192  -2.33759  -1.55377 
 H                    -21.8604  -0.42653  -0.89194 
 H                    -20.77058   1.62688  -0.11204 
 H                    -17.9854   3.89409   0.66695 
 H                    -19.45586   2.96346   1.27678 
 H                    -19.3217   3.46754  -0.52625 
 
 ITRead=  0  0  0  0  0  0  0  0  0  0  0  0  0  0  0  0  0  0  0  0
 ITRead=  0  0  0  0  0  0  0  0  0  0  0  0  0  0  0  0  0  0  0  0
 ITRead=  0  0  0  0  0  0  0  0  0  0  0  0  0  0  0  0  0  0  0  0
 ITRead=  0  0  0  0  0  0  0  0  0  0  0  0  0  0  0  0  0  0  0  0
 ITRead=  0  0  0  0  0  0  0  0  0  0  0  0  0  0  0  0  0  0  0  0
 ITRead=  0  0  0  0  0  0  0  0  0  0  0  0  0  0  0  0  0  0  0  0
 ITRead=  0  0  0  0  0  0  0  0  0  0  0  0  0  0  0  0  0  0  0  0
 ITRead=  0  0
 MicOpt= -1 -1 -1 -1 -1 -1 -1 -1 -1 -1 -1 -1 -1 -1 -1 -1 -1 -1 -1 -1
 MicOpt= -1 -1 -1 -1 -1 -1 -1 -1 -1 -1 -1 -1 -1 -1 -1 -1 -1 -1 -1 -1
 MicOpt= -1 -1 -1 -1 -1 -1 -1 -1 -1 -1 -1 -1 -1 -1 -1 -1 -1 -1 -1 -1
 MicOpt= -1 -1 -1 -1 -1 -1 -1 -1 -1 -1 -1 -1 -1 -1 -1 -1 -1 -1 -1 -1
 MicOpt= -1 -1 -1 -1 -1 -1 -1 -1 -1 -1 -1 -1 -1 -1 -1 -1 -1 -1 -1 -1
 MicOpt= -1 -1 -1 -1 -1 -1 -1 -1 -1 -1 -1 -1 -1 -1 -1 -1 -1 -1 -1 -1
 MicOpt= -1 -1 -1 -1 -1 -1 -1 -1 -1 -1 -1 -1 -1 -1 -1 -1 -1 -1 -1 -1
 MicOpt= -1 -1
 NAtoms=    142 NQM=      142 NQMF=       0 NMMI=      0 NMMIF=      0
                NMic=       0 NMicF=      0.
                    Isotopes and Nuclear Properties:
 (Nuclear quadrupole moments (NQMom) in fm**2, nuclear magnetic moments (NMagM)
  in nuclear magnetons)

  Atom         1           2           3           4           5           6           7           8           9          10
 IAtWgt=          12          12          12          16          12          12          12          12          12          12
 AtmWgt=  12.0000000  12.0000000  12.0000000  15.9949146  12.0000000  12.0000000  12.0000000  12.0000000  12.0000000  12.0000000
 NucSpn=           0           0           0           0           0           0           0           0           0           0
 AtZEff=  -0.0000000  -0.0000000  -0.0000000  -0.0000000  -0.0000000  -0.0000000  -0.0000000  -0.0000000  -0.0000000  -0.0000000
 NQMom=    0.0000000   0.0000000   0.0000000   0.0000000   0.0000000   0.0000000   0.0000000   0.0000000   0.0000000   0.0000000
 NMagM=    0.0000000   0.0000000   0.0000000   0.0000000   0.0000000   0.0000000   0.0000000   0.0000000   0.0000000   0.0000000
 AtZNuc=   6.0000000   6.0000000   6.0000000   8.0000000   6.0000000   6.0000000   6.0000000   6.0000000   6.0000000   6.0000000

  Atom        11          12          13          14          15          16          17          18          19          20
 IAtWgt=          12          12          12          12          16          12          12          12          12          16
 AtmWgt=  12.0000000  12.0000000  12.0000000  12.0000000  15.9949146  12.0000000  12.0000000  12.0000000  12.0000000  15.9949146
 NucSpn=           0           0           0           0           0           0           0           0           0           0
 AtZEff=  -0.0000000  -0.0000000  -0.0000000  -0.0000000  -0.0000000  -0.0000000  -0.0000000  -0.0000000  -0.0000000  -0.0000000
 NQMom=    0.0000000   0.0000000   0.0000000   0.0000000   0.0000000   0.0000000   0.0000000   0.0000000   0.0000000   0.0000000
 NMagM=    0.0000000   0.0000000   0.0000000   0.0000000   0.0000000   0.0000000   0.0000000   0.0000000   0.0000000   0.0000000
 AtZNuc=   6.0000000   6.0000000   6.0000000   6.0000000   8.0000000   6.0000000   6.0000000   6.0000000   6.0000000   8.0000000

  Atom        21          22          23          24          25          26          27          28          29          30
 IAtWgt=          12          12          12          12          12          12          12          12          12          12
 AtmWgt=  12.0000000  12.0000000  12.0000000  12.0000000  12.0000000  12.0000000  12.0000000  12.0000000  12.0000000  12.0000000
 NucSpn=           0           0           0           0           0           0           0           0           0           0
 AtZEff=  -0.0000000  -0.0000000  -0.0000000  -0.0000000  -0.0000000  -0.0000000  -0.0000000  -0.0000000  -0.0000000  -0.0000000
 NQMom=    0.0000000   0.0000000   0.0000000   0.0000000   0.0000000   0.0000000   0.0000000   0.0000000   0.0000000   0.0000000
 NMagM=    0.0000000   0.0000000   0.0000000   0.0000000   0.0000000   0.0000000   0.0000000   0.0000000   0.0000000   0.0000000
 AtZNuc=   6.0000000   6.0000000   6.0000000   6.0000000   6.0000000   6.0000000   6.0000000   6.0000000   6.0000000   6.0000000

  Atom        31          32          33          34          35          36          37          38          39          40
 IAtWgt=          16          12          12          12          12          16          12          12          12          12
 AtmWgt=  15.9949146  12.0000000  12.0000000  12.0000000  12.0000000  15.9949146  12.0000000  12.0000000  12.0000000  12.0000000
 NucSpn=           0           0           0           0           0           0           0           0           0           0
 AtZEff=  -0.0000000  -0.0000000  -0.0000000  -0.0000000  -0.0000000  -0.0000000  -0.0000000  -0.0000000  -0.0000000  -0.0000000
 NQMom=    0.0000000   0.0000000   0.0000000   0.0000000   0.0000000   0.0000000   0.0000000   0.0000000   0.0000000   0.0000000
 NMagM=    0.0000000   0.0000000   0.0000000   0.0000000   0.0000000   0.0000000   0.0000000   0.0000000   0.0000000   0.0000000
 AtZNuc=   8.0000000   6.0000000   6.0000000   6.0000000   6.0000000   8.0000000   6.0000000   6.0000000   6.0000000   6.0000000

  Atom        41          42          43          44          45          46          47          48          49          50
 IAtWgt=          12          12          12          12          12          12          16          12          12          12
 AtmWgt=  12.0000000  12.0000000  12.0000000  12.0000000  12.0000000  12.0000000  15.9949146  12.0000000  12.0000000  12.0000000
 NucSpn=           0           0           0           0           0           0           0           0           0           0
 AtZEff=  -0.0000000  -0.0000000  -0.0000000  -0.0000000  -0.0000000  -0.0000000  -0.0000000  -0.0000000  -0.0000000  -0.0000000
 NQMom=    0.0000000   0.0000000   0.0000000   0.0000000   0.0000000   0.0000000   0.0000000   0.0000000   0.0000000   0.0000000
 NMagM=    0.0000000   0.0000000   0.0000000   0.0000000   0.0000000   0.0000000   0.0000000   0.0000000   0.0000000   0.0000000
 AtZNuc=   6.0000000   6.0000000   6.0000000   6.0000000   6.0000000   6.0000000   8.0000000   6.0000000   6.0000000   6.0000000

  Atom        51          52          53          54          55          56          57          58          59          60
 IAtWgt=          12          16          12          12          12          12          12          12          12          12
 AtmWgt=  12.0000000  15.9949146  12.0000000  12.0000000  12.0000000  12.0000000  12.0000000  12.0000000  12.0000000  12.0000000
 NucSpn=           0           0           0           0           0           0           0           0           0           0
 AtZEff=  -0.0000000  -0.0000000  -0.0000000  -0.0000000  -0.0000000  -0.0000000  -0.0000000  -0.0000000  -0.0000000  -0.0000000
 NQMom=    0.0000000   0.0000000   0.0000000   0.0000000   0.0000000   0.0000000   0.0000000   0.0000000   0.0000000   0.0000000
 NMagM=    0.0000000   0.0000000   0.0000000   0.0000000   0.0000000   0.0000000   0.0000000   0.0000000   0.0000000   0.0000000
 AtZNuc=   6.0000000   8.0000000   6.0000000   6.0000000   6.0000000   6.0000000   6.0000000   6.0000000   6.0000000   6.0000000

  Atom        61          62          63          64          65          66          67          68          69          70
 IAtWgt=          12          12          16          12          12          12          12          16          12          12
 AtmWgt=  12.0000000  12.0000000  15.9949146  12.0000000  12.0000000  12.0000000  12.0000000  15.9949146  12.0000000  12.0000000
 NucSpn=           0           0           0           0           0           0           0           0           0           0
 AtZEff=  -0.0000000  -0.0000000  -0.0000000  -0.0000000  -0.0000000  -0.0000000  -0.0000000  -0.0000000  -0.0000000  -0.0000000
 NQMom=    0.0000000   0.0000000   0.0000000   0.0000000   0.0000000   0.0000000   0.0000000   0.0000000   0.0000000   0.0000000
 NMagM=    0.0000000   0.0000000   0.0000000   0.0000000   0.0000000   0.0000000   0.0000000   0.0000000   0.0000000   0.0000000
 AtZNuc=   6.0000000   6.0000000   8.0000000   6.0000000   6.0000000   6.0000000   6.0000000   8.0000000   6.0000000   6.0000000

  Atom        71          72          73          74          75          76          77          78          79          80
 IAtWgt=          12          12          12          12          12          12          12          12          16          12
 AtmWgt=  12.0000000  12.0000000  12.0000000  12.0000000  12.0000000  12.0000000  12.0000000  12.0000000  15.9949146  12.0000000
 NucSpn=           0           0           0           0           0           0           0           0           0           0
 AtZEff=  -0.0000000  -0.0000000  -0.0000000  -0.0000000  -0.0000000  -0.0000000  -0.0000000  -0.0000000  -0.0000000  -0.0000000
 NQMom=    0.0000000   0.0000000   0.0000000   0.0000000   0.0000000   0.0000000   0.0000000   0.0000000   0.0000000   0.0000000
 NMagM=    0.0000000   0.0000000   0.0000000   0.0000000   0.0000000   0.0000000   0.0000000   0.0000000   0.0000000   0.0000000
 AtZNuc=   6.0000000   6.0000000   6.0000000   6.0000000   6.0000000   6.0000000   6.0000000   6.0000000   8.0000000   6.0000000

  Atom        81          82          83          84          85          86          87          88          89          90
 IAtWgt=           1           1           1           1           1           1           1           1           1           1
 AtmWgt=   1.0078250   1.0078250   1.0078250   1.0078250   1.0078250   1.0078250   1.0078250   1.0078250   1.0078250   1.0078250
 NucSpn=           1           1           1           1           1           1           1           1           1           1
 AtZEff=  -0.0000000  -0.0000000  -0.0000000  -0.0000000  -0.0000000  -0.0000000  -0.0000000  -0.0000000  -0.0000000  -0.0000000
 NQMom=    0.0000000   0.0000000   0.0000000   0.0000000   0.0000000   0.0000000   0.0000000   0.0000000   0.0000000   0.0000000
 NMagM=    2.7928460   2.7928460   2.7928460   2.7928460   2.7928460   2.7928460   2.7928460   2.7928460   2.7928460   2.7928460
 AtZNuc=   1.0000000   1.0000000   1.0000000   1.0000000   1.0000000   1.0000000   1.0000000   1.0000000   1.0000000   1.0000000

  Atom        91          92          93          94          95          96          97          98          99         100
 IAtWgt=           1           1           1           1           1           1           1           1           1           1
 AtmWgt=   1.0078250   1.0078250   1.0078250   1.0078250   1.0078250   1.0078250   1.0078250   1.0078250   1.0078250   1.0078250
 NucSpn=           1           1           1           1           1           1           1           1           1           1
 AtZEff=  -0.0000000  -0.0000000  -0.0000000  -0.0000000  -0.0000000  -0.0000000  -0.0000000  -0.0000000  -0.0000000  -0.0000000
 NQMom=    0.0000000   0.0000000   0.0000000   0.0000000   0.0000000   0.0000000   0.0000000   0.0000000   0.0000000   0.0000000
 NMagM=    2.7928460   2.7928460   2.7928460   2.7928460   2.7928460   2.7928460   2.7928460   2.7928460   2.7928460   2.7928460
 AtZNuc=   1.0000000   1.0000000   1.0000000   1.0000000   1.0000000   1.0000000   1.0000000   1.0000000   1.0000000   1.0000000

  Atom       101         102         103         104         105         106         107         108         109         110
 IAtWgt=           1           1           1           1           1           1           1           1           1           1
 AtmWgt=   1.0078250   1.0078250   1.0078250   1.0078250   1.0078250   1.0078250   1.0078250   1.0078250   1.0078250   1.0078250
 NucSpn=           1           1           1           1           1           1           1           1           1           1
 AtZEff=  -0.0000000  -0.0000000  -0.0000000  -0.0000000  -0.0000000  -0.0000000  -0.0000000  -0.0000000  -0.0000000  -0.0000000
 NQMom=    0.0000000   0.0000000   0.0000000   0.0000000   0.0000000   0.0000000   0.0000000   0.0000000   0.0000000   0.0000000
 NMagM=    2.7928460   2.7928460   2.7928460   2.7928460   2.7928460   2.7928460   2.7928460   2.7928460   2.7928460   2.7928460
 AtZNuc=   1.0000000   1.0000000   1.0000000   1.0000000   1.0000000   1.0000000   1.0000000   1.0000000   1.0000000   1.0000000

  Atom       111         112         113         114         115         116         117         118         119         120
 IAtWgt=           1           1           1           1           1           1           1           1           1           1
 AtmWgt=   1.0078250   1.0078250   1.0078250   1.0078250   1.0078250   1.0078250   1.0078250   1.0078250   1.0078250   1.0078250
 NucSpn=           1           1           1           1           1           1           1           1           1           1
 AtZEff=  -0.0000000  -0.0000000  -0.0000000  -0.0000000  -0.0000000  -0.0000000  -0.0000000  -0.0000000  -0.0000000  -0.0000000
 NQMom=    0.0000000   0.0000000   0.0000000   0.0000000   0.0000000   0.0000000   0.0000000   0.0000000   0.0000000   0.0000000
 NMagM=    2.7928460   2.7928460   2.7928460   2.7928460   2.7928460   2.7928460   2.7928460   2.7928460   2.7928460   2.7928460
 AtZNuc=   1.0000000   1.0000000   1.0000000   1.0000000   1.0000000   1.0000000   1.0000000   1.0000000   1.0000000   1.0000000

  Atom       121         122         123         124         125         126         127         128         129         130
 IAtWgt=           1           1           1           1           1           1           1           1           1           1
 AtmWgt=   1.0078250   1.0078250   1.0078250   1.0078250   1.0078250   1.0078250   1.0078250   1.0078250   1.0078250   1.0078250
 NucSpn=           1           1           1           1           1           1           1           1           1           1
 AtZEff=  -0.0000000  -0.0000000  -0.0000000  -0.0000000  -0.0000000  -0.0000000  -0.0000000  -0.0000000  -0.0000000  -0.0000000
 NQMom=    0.0000000   0.0000000   0.0000000   0.0000000   0.0000000   0.0000000   0.0000000   0.0000000   0.0000000   0.0000000
 NMagM=    2.7928460   2.7928460   2.7928460   2.7928460   2.7928460   2.7928460   2.7928460   2.7928460   2.7928460   2.7928460
 AtZNuc=   1.0000000   1.0000000   1.0000000   1.0000000   1.0000000   1.0000000   1.0000000   1.0000000   1.0000000   1.0000000

  Atom       131         132         133         134         135         136         137         138         139         140
 IAtWgt=           1           1           1           1           1           1           1           1           1           1
 AtmWgt=   1.0078250   1.0078250   1.0078250   1.0078250   1.0078250   1.0078250   1.0078250   1.0078250   1.0078250   1.0078250
 NucSpn=           1           1           1           1           1           1           1           1           1           1
 AtZEff=  -0.0000000  -0.0000000  -0.0000000  -0.0000000  -0.0000000  -0.0000000  -0.0000000  -0.0000000  -0.0000000  -0.0000000
 NQMom=    0.0000000   0.0000000   0.0000000   0.0000000   0.0000000   0.0000000   0.0000000   0.0000000   0.0000000   0.0000000
 NMagM=    2.7928460   2.7928460   2.7928460   2.7928460   2.7928460   2.7928460   2.7928460   2.7928460   2.7928460   2.7928460
 AtZNuc=   1.0000000   1.0000000   1.0000000   1.0000000   1.0000000   1.0000000   1.0000000   1.0000000   1.0000000   1.0000000

  Atom       141         142
 IAtWgt=           1           1
 AtmWgt=   1.0078250   1.0078250
 NucSpn=           1           1
 AtZEff=  -0.0000000  -0.0000000
 NQMom=    0.0000000   0.0000000
 NMagM=    2.7928460   2.7928460
 AtZNuc=   1.0000000   1.0000000
 Leave Link  101 at Fri Jul 24 20:27:49 2020, MaxMem=  4026531840 cpu:               3.3 elap:               0.4
 (Enter /opt/ohpc/pub/libs/gaussian/g16-A.03/sandybridge/g16/l103.exe)

 GradGradGradGradGradGradGradGradGradGradGradGradGradGradGradGradGradGrad
 Berny optimization.
 Initialization pass.
                           ----------------------------
                           !    Initial Parameters    !
                           ! (Angstroms and Degrees)  !
 --------------------------                            --------------------------
 ! Name  Definition              Value          Derivative Info.                !
 --------------------------------------------------------------------------------
 ! R1    R(1,2)                  1.4666         estimate D2E/DX2                !
 ! R2    R(1,8)                  1.342          estimate D2E/DX2                !
 ! R3    R(1,81)                 1.0784         estimate D2E/DX2                !
 ! R4    R(2,3)                  1.3649         estimate D2E/DX2                !
 ! R5    R(2,82)                 1.0433         estimate D2E/DX2                !
 ! R6    R(3,4)                  1.424          estimate D2E/DX2                !
 ! R7    R(3,6)                  1.4811         estimate D2E/DX2                !
 ! R8    R(4,5)                  1.4206         estimate D2E/DX2                !
 ! R9    R(5,83)                 1.1838         estimate D2E/DX2                !
 ! R10   R(5,84)                 1.115          estimate D2E/DX2                !
 ! R11   R(5,85)                 1.0492         estimate D2E/DX2                !
 ! R12   R(6,7)                  1.3476         estimate D2E/DX2                !
 ! R13   R(6,9)                  1.4404         estimate D2E/DX2                !
 ! R14   R(7,8)                  1.432          estimate D2E/DX2                !
 ! R15   R(7,86)                 1.0356         estimate D2E/DX2                !
 ! R16   R(8,87)                 1.1312         estimate D2E/DX2                !
 ! R17   R(9,10)                 1.4134         estimate D2E/DX2                !
 ! R18   R(9,14)                 1.3975         estimate D2E/DX2                !
 ! R19   R(10,11)                1.4337         estimate D2E/DX2                !
 ! R20   R(10,88)                1.0792         estimate D2E/DX2                !
 ! R21   R(11,12)                1.3775         estimate D2E/DX2                !
 ! R22   R(11,89)                1.0081         estimate D2E/DX2                !
 ! R23   R(12,13)                1.4037         estimate D2E/DX2                !
 ! R24   R(12,17)                1.4855         estimate D2E/DX2                !
 ! R25   R(13,14)                1.4394         estimate D2E/DX2                !
 ! R26   R(13,90)                1.1366         estimate D2E/DX2                !
 ! R27   R(14,15)                1.3373         estimate D2E/DX2                !
 ! R28   R(15,16)                1.4153         estimate D2E/DX2                !
 ! R29   R(16,91)                1.0855         estimate D2E/DX2                !
 ! R30   R(16,92)                1.1632         estimate D2E/DX2                !
 ! R31   R(16,93)                1.0594         estimate D2E/DX2                !
 ! R32   R(17,18)                1.3828         estimate D2E/DX2                !
 ! R33   R(17,24)                1.3924         estimate D2E/DX2                !
 ! R34   R(18,19)                1.3156         estimate D2E/DX2                !
 ! R35   R(18,94)                1.1274         estimate D2E/DX2                !
 ! R36   R(19,20)                1.337          estimate D2E/DX2                !
 ! R37   R(19,22)                1.472          estimate D2E/DX2                !
 ! R38   R(20,21)                1.5091         estimate D2E/DX2                !
 ! R39   R(21,95)                1.13           estimate D2E/DX2                !
 ! R40   R(21,96)                1.0429         estimate D2E/DX2                !
 ! R41   R(21,97)                1.0594         estimate D2E/DX2                !
 ! R42   R(22,23)                1.4173         estimate D2E/DX2                !
 ! R43   R(22,25)                1.462          estimate D2E/DX2                !
 ! R44   R(23,24)                1.4687         estimate D2E/DX2                !
 ! R45   R(23,98)                1.0825         estimate D2E/DX2                !
 ! R46   R(24,99)                1.1281         estimate D2E/DX2                !
 ! R47   R(25,26)                1.4085         estimate D2E/DX2                !
 ! R48   R(25,30)                1.4124         estimate D2E/DX2                !
 ! R49   R(26,27)                1.4381         estimate D2E/DX2                !
 ! R50   R(26,100)               1.034          estimate D2E/DX2                !
 ! R51   R(27,28)                1.4099         estimate D2E/DX2                !
 ! R52   R(27,101)               1.1411         estimate D2E/DX2                !
 ! R53   R(28,29)                1.3443         estimate D2E/DX2                !
 ! R54   R(28,33)                1.4512         estimate D2E/DX2                !
 ! R55   R(29,30)                1.4454         estimate D2E/DX2                !
 ! R56   R(29,102)               1.1708         estimate D2E/DX2                !
 ! R57   R(30,31)                1.3257         estimate D2E/DX2                !
 ! R58   R(31,32)                1.4907         estimate D2E/DX2                !
 ! R59   R(32,103)               1.1684         estimate D2E/DX2                !
 ! R60   R(32,104)               1.0611         estimate D2E/DX2                !
 ! R61   R(32,105)               1.0957         estimate D2E/DX2                !
 ! R62   R(33,34)                1.3504         estimate D2E/DX2                !
 ! R63   R(33,40)                1.4215         estimate D2E/DX2                !
 ! R64   R(34,35)                1.4576         estimate D2E/DX2                !
 ! R65   R(34,106)               1.0702         estimate D2E/DX2                !
 ! R66   R(35,36)                1.3499         estimate D2E/DX2                !
 ! R67   R(35,38)                1.3747         estimate D2E/DX2                !
 ! R68   R(36,37)                1.3857         estimate D2E/DX2                !
 ! R69   R(37,107)               1.0805         estimate D2E/DX2                !
 ! R70   R(37,108)               1.1422         estimate D2E/DX2                !
 ! R71   R(37,109)               1.0933         estimate D2E/DX2                !
 ! R72   R(38,39)                1.3896         estimate D2E/DX2                !
 ! R73   R(38,41)                1.5028         estimate D2E/DX2                !
 ! R74   R(39,40)                1.4399         estimate D2E/DX2                !
 ! R75   R(39,110)               1.1024         estimate D2E/DX2                !
 ! R76   R(40,111)               1.0527         estimate D2E/DX2                !
 ! R77   R(41,42)                1.3622         estimate D2E/DX2                !
 ! R78   R(41,46)                1.4098         estimate D2E/DX2                !
 ! R79   R(42,43)                1.4292         estimate D2E/DX2                !
 ! R80   R(42,112)               1.1108         estimate D2E/DX2                !
 ! R81   R(43,44)                1.3898         estimate D2E/DX2                !
 ! R82   R(43,113)               1.0467         estimate D2E/DX2                !
 ! R83   R(44,45)                1.4257         estimate D2E/DX2                !
 ! R84   R(44,49)                1.4531         estimate D2E/DX2                !
 ! R85   R(45,46)                1.3617         estimate D2E/DX2                !
 ! R86   R(45,114)               1.1346         estimate D2E/DX2                !
 ! R87   R(46,47)                1.3125         estimate D2E/DX2                !
 ! R88   R(47,48)                1.4558         estimate D2E/DX2                !
 ! R89   R(48,115)               1.0381         estimate D2E/DX2                !
 ! R90   R(48,116)               1.1351         estimate D2E/DX2                !
 ! R91   R(48,117)               1.1209         estimate D2E/DX2                !
 ! R92   R(49,50)                1.4034         estimate D2E/DX2                !
 ! R93   R(49,56)                1.4395         estimate D2E/DX2                !
 ! R94   R(50,51)                1.3439         estimate D2E/DX2                !
 ! R95   R(50,118)               1.0692         estimate D2E/DX2                !
 ! R96   R(51,52)                1.3739         estimate D2E/DX2                !
 ! R97   R(51,54)                1.4124         estimate D2E/DX2                !
 ! R98   R(52,53)                1.4331         estimate D2E/DX2                !
 ! R99   R(53,119)               1.1661         estimate D2E/DX2                !
 ! R100  R(53,120)               1.0878         estimate D2E/DX2                !
 ! R101  R(53,121)               1.027          estimate D2E/DX2                !
 ! R102  R(54,55)                1.3886         estimate D2E/DX2                !
 ! R103  R(54,57)                1.5212         estimate D2E/DX2                !
 ! R104  R(55,56)                1.371          estimate D2E/DX2                !
 ! R105  R(55,122)               1.0262         estimate D2E/DX2                !
 ! R106  R(56,123)               1.1099         estimate D2E/DX2                !
 ! R107  R(57,58)                1.3345         estimate D2E/DX2                !
 ! R108  R(57,62)                1.4094         estimate D2E/DX2                !
 ! R109  R(58,59)                1.3956         estimate D2E/DX2                !
 ! R110  R(58,124)               1.1245         estimate D2E/DX2                !
 ! R111  R(59,60)                1.4505         estimate D2E/DX2                !
 ! R112  R(59,125)               1.08           estimate D2E/DX2                !
 ! R113  R(60,61)                1.4221         estimate D2E/DX2                !
 ! R114  R(60,65)                1.4414         estimate D2E/DX2                !
 ! R115  R(61,62)                1.3663         estimate D2E/DX2                !
 ! R116  R(61,126)               1.0243         estimate D2E/DX2                !
 ! R117  R(62,63)                1.4262         estimate D2E/DX2                !
 ! R118  R(63,64)                1.3735         estimate D2E/DX2                !
 ! R119  R(64,127)               1.0576         estimate D2E/DX2                !
 ! R120  R(64,128)               1.0495         estimate D2E/DX2                !
 ! R121  R(64,129)               1.0982         estimate D2E/DX2                !
 ! R122  R(65,66)                1.3544         estimate D2E/DX2                !
 ! R123  R(65,72)                1.4221         estimate D2E/DX2                !
 ! R124  R(66,67)                1.4405         estimate D2E/DX2                !
 ! R125  R(66,130)               1.0964         estimate D2E/DX2                !
 ! R126  R(67,68)                1.3097         estimate D2E/DX2                !
 ! R127  R(67,70)                1.4306         estimate D2E/DX2                !
 ! R128  R(68,69)                1.4196         estimate D2E/DX2                !
 ! R129  R(69,131)               1.1061         estimate D2E/DX2                !
 ! R130  R(69,132)               1.0804         estimate D2E/DX2                !
 ! R131  R(69,133)               1.1036         estimate D2E/DX2                !
 ! R132  R(70,71)                1.3408         estimate D2E/DX2                !
 ! R133  R(70,73)                1.5415         estimate D2E/DX2                !
 ! R134  R(71,72)                1.4197         estimate D2E/DX2                !
 ! R135  R(71,134)               1.1677         estimate D2E/DX2                !
 ! R136  R(72,135)               1.0995         estimate D2E/DX2                !
 ! R137  R(73,74)                1.3891         estimate D2E/DX2                !
 ! R138  R(73,78)                1.3693         estimate D2E/DX2                !
 ! R139  R(74,75)                1.4298         estimate D2E/DX2                !
 ! R140  R(74,136)               1.0428         estimate D2E/DX2                !
 ! R141  R(75,76)                1.386          estimate D2E/DX2                !
 ! R142  R(75,137)               1.0925         estimate D2E/DX2                !
 ! R143  R(76,77)                1.3697         estimate D2E/DX2                !
 ! R144  R(76,138)               1.1022         estimate D2E/DX2                !
 ! R145  R(77,78)                1.3498         estimate D2E/DX2                !
 ! R146  R(77,139)               1.1137         estimate D2E/DX2                !
 ! R147  R(78,79)                1.4358         estimate D2E/DX2                !
 ! R148  R(79,80)                1.4555         estimate D2E/DX2                !
 ! R149  R(80,140)               1.081          estimate D2E/DX2                !
 ! R150  R(80,141)               1.1841         estimate D2E/DX2                !
 ! R151  R(80,142)               1.1152         estimate D2E/DX2                !
 ! A1    A(2,1,8)              117.5671         estimate D2E/DX2                !
 ! A2    A(2,1,81)             119.1472         estimate D2E/DX2                !
 ! A3    A(8,1,81)             122.6583         estimate D2E/DX2                !
 ! A4    A(1,2,3)              118.4672         estimate D2E/DX2                !
 ! A5    A(1,2,82)             114.7527         estimate D2E/DX2                !
 ! A6    A(3,2,82)             126.6658         estimate D2E/DX2                !
 ! A7    A(2,3,4)              125.3709         estimate D2E/DX2                !
 ! A8    A(2,3,6)              122.4577         estimate D2E/DX2                !
 ! A9    A(4,3,6)              112.1153         estimate D2E/DX2                !
 ! A10   A(3,4,5)              114.284          estimate D2E/DX2                !
 ! A11   A(4,5,83)             111.56           estimate D2E/DX2                !
 ! A12   A(4,5,84)             110.9862         estimate D2E/DX2                !
 ! A13   A(4,5,85)             107.7126         estimate D2E/DX2                !
 ! A14   A(83,5,84)            107.2618         estimate D2E/DX2                !
 ! A15   A(83,5,85)            105.7323         estimate D2E/DX2                !
 ! A16   A(84,5,85)            113.5188         estimate D2E/DX2                !
 ! A17   A(3,6,7)              117.213          estimate D2E/DX2                !
 ! A18   A(3,6,9)              123.417          estimate D2E/DX2                !
 ! A19   A(7,6,9)              119.3549         estimate D2E/DX2                !
 ! A20   A(6,7,8)              119.9078         estimate D2E/DX2                !
 ! A21   A(6,7,86)             121.2941         estimate D2E/DX2                !
 ! A22   A(8,7,86)             118.6224         estimate D2E/DX2                !
 ! A23   A(1,8,7)              124.175          estimate D2E/DX2                !
 ! A24   A(1,8,87)             119.8166         estimate D2E/DX2                !
 ! A25   A(7,8,87)             116.0057         estimate D2E/DX2                !
 ! A26   A(6,9,10)             120.9229         estimate D2E/DX2                !
 ! A27   A(6,9,14)             120.9109         estimate D2E/DX2                !
 ! A28   A(10,9,14)            118.1657         estimate D2E/DX2                !
 ! A29   A(9,10,11)            123.274          estimate D2E/DX2                !
 ! A30   A(9,10,88)            120.8002         estimate D2E/DX2                !
 ! A31   A(11,10,88)           115.6895         estimate D2E/DX2                !
 ! A32   A(10,11,12)           117.9073         estimate D2E/DX2                !
 ! A33   A(10,11,89)           117.6839         estimate D2E/DX2                !
 ! A34   A(12,11,89)           124.3866         estimate D2E/DX2                !
 ! A35   A(11,12,13)           119.9354         estimate D2E/DX2                !
 ! A36   A(11,12,17)           119.5361         estimate D2E/DX2                !
 ! A37   A(13,12,17)           120.4992         estimate D2E/DX2                !
 ! A38   A(12,13,14)           122.2827         estimate D2E/DX2                !
 ! A39   A(12,13,90)           117.0911         estimate D2E/DX2                !
 ! A40   A(14,13,90)           120.5277         estimate D2E/DX2                !
 ! A41   A(9,14,13)            118.375          estimate D2E/DX2                !
 ! A42   A(9,14,15)            117.4839         estimate D2E/DX2                !
 ! A43   A(13,14,15)           123.7741         estimate D2E/DX2                !
 ! A44   A(14,15,16)           120.856          estimate D2E/DX2                !
 ! A45   A(15,16,91)           109.8517         estimate D2E/DX2                !
 ! A46   A(15,16,92)           112.2389         estimate D2E/DX2                !
 ! A47   A(15,16,93)           112.6818         estimate D2E/DX2                !
 ! A48   A(91,16,92)           107.0286         estimate D2E/DX2                !
 ! A49   A(91,16,93)           107.6906         estimate D2E/DX2                !
 ! A50   A(92,16,93)           107.08           estimate D2E/DX2                !
 ! A51   A(12,17,18)           122.9537         estimate D2E/DX2                !
 ! A52   A(12,17,24)           118.4218         estimate D2E/DX2                !
 ! A53   A(18,17,24)           118.6167         estimate D2E/DX2                !
 ! A54   A(17,18,19)           124.8487         estimate D2E/DX2                !
 ! A55   A(17,18,94)           110.8039         estimate D2E/DX2                !
 ! A56   A(19,18,94)           124.2808         estimate D2E/DX2                !
 ! A57   A(18,19,20)           127.8943         estimate D2E/DX2                !
 ! A58   A(18,19,22)           119.6827         estimate D2E/DX2                !
 ! A59   A(20,19,22)           112.3776         estimate D2E/DX2                !
 ! A60   A(19,20,21)           115.0634         estimate D2E/DX2                !
 ! A61   A(20,21,95)           106.7944         estimate D2E/DX2                !
 ! A62   A(20,21,96)           109.1225         estimate D2E/DX2                !
 ! A63   A(20,21,97)           106.7223         estimate D2E/DX2                !
 ! A64   A(95,21,96)           110.7072         estimate D2E/DX2                !
 ! A65   A(95,21,97)           108.3097         estimate D2E/DX2                !
 ! A66   A(96,21,97)           114.8195         estimate D2E/DX2                !
 ! A67   A(19,22,23)           118.4226         estimate D2E/DX2                !
 ! A68   A(19,22,25)           120.9256         estimate D2E/DX2                !
 ! A69   A(23,22,25)           120.3537         estimate D2E/DX2                !
 ! A70   A(22,23,24)           117.9061         estimate D2E/DX2                !
 ! A71   A(22,23,98)           122.0461         estimate D2E/DX2                !
 ! A72   A(24,23,98)           120.0438         estimate D2E/DX2                !
 ! A73   A(17,24,23)           120.4691         estimate D2E/DX2                !
 ! A74   A(17,24,99)           124.9826         estimate D2E/DX2                !
 ! A75   A(23,24,99)           114.5347         estimate D2E/DX2                !
 ! A76   A(22,25,26)           122.5418         estimate D2E/DX2                !
 ! A77   A(22,25,30)           116.6181         estimate D2E/DX2                !
 ! A78   A(26,25,30)           120.7029         estimate D2E/DX2                !
 ! A79   A(25,26,27)           117.9054         estimate D2E/DX2                !
 ! A80   A(25,26,100)          116.2679         estimate D2E/DX2                !
 ! A81   A(27,26,100)          125.8208         estimate D2E/DX2                !
 ! A82   A(26,27,28)           123.1462         estimate D2E/DX2                !
 ! A83   A(26,27,101)          112.8024         estimate D2E/DX2                !
 ! A84   A(28,27,101)          124.0124         estimate D2E/DX2                !
 ! A85   A(27,28,29)           115.8442         estimate D2E/DX2                !
 ! A86   A(27,28,33)           120.487          estimate D2E/DX2                !
 ! A87   A(29,28,33)           123.6665         estimate D2E/DX2                !
 ! A88   A(28,29,30)           125.6662         estimate D2E/DX2                !
 ! A89   A(28,29,102)          114.6            estimate D2E/DX2                !
 ! A90   A(30,29,102)          119.7279         estimate D2E/DX2                !
 ! A91   A(25,30,29)           116.7032         estimate D2E/DX2                !
 ! A92   A(25,30,31)           119.2297         estimate D2E/DX2                !
 ! A93   A(29,30,31)           124.0657         estimate D2E/DX2                !
 ! A94   A(30,31,32)           117.5328         estimate D2E/DX2                !
 ! A95   A(31,32,103)          105.708          estimate D2E/DX2                !
 ! A96   A(31,32,104)          107.5408         estimate D2E/DX2                !
 ! A97   A(31,32,105)          112.0264         estimate D2E/DX2                !
 ! A98   A(103,32,104)         106.1016         estimate D2E/DX2                !
 ! A99   A(103,32,105)         108.3945         estimate D2E/DX2                !
 ! A100  A(104,32,105)         116.3988         estimate D2E/DX2                !
 ! A101  A(28,33,34)           119.3364         estimate D2E/DX2                !
 ! A102  A(28,33,40)           119.9557         estimate D2E/DX2                !
 ! A103  A(34,33,40)           120.1453         estimate D2E/DX2                !
 ! A104  A(33,34,35)           121.2978         estimate D2E/DX2                !
 ! A105  A(33,34,106)          119.5225         estimate D2E/DX2                !
 ! A106  A(35,34,106)          118.729          estimate D2E/DX2                !
 ! A107  A(34,35,36)           123.9302         estimate D2E/DX2                !
 ! A108  A(34,35,38)           119.6125         estimate D2E/DX2                !
 ! A109  A(36,35,38)           115.9053         estimate D2E/DX2                !
 ! A110  A(35,36,37)           118.6275         estimate D2E/DX2                !
 ! A111  A(36,37,107)          113.6248         estimate D2E/DX2                !
 ! A112  A(36,37,108)          109.5976         estimate D2E/DX2                !
 ! A113  A(36,37,109)          112.4824         estimate D2E/DX2                !
 ! A114  A(107,37,108)         106.5325         estimate D2E/DX2                !
 ! A115  A(107,37,109)         108.8184         estimate D2E/DX2                !
 ! A116  A(108,37,109)         105.2894         estimate D2E/DX2                !
 ! A117  A(35,38,39)           117.6805         estimate D2E/DX2                !
 ! A118  A(35,38,41)           122.8003         estimate D2E/DX2                !
 ! A119  A(39,38,41)           119.095          estimate D2E/DX2                !
 ! A120  A(38,39,40)           123.634          estimate D2E/DX2                !
 ! A121  A(38,39,110)          121.4309         estimate D2E/DX2                !
 ! A122  A(40,39,110)          114.7099         estimate D2E/DX2                !
 ! A123  A(33,40,39)           116.3776         estimate D2E/DX2                !
 ! A124  A(33,40,111)          124.0883         estimate D2E/DX2                !
 ! A125  A(39,40,111)          119.1667         estimate D2E/DX2                !
 ! A126  A(38,41,42)           116.4635         estimate D2E/DX2                !
 ! A127  A(38,41,46)           123.3954         estimate D2E/DX2                !
 ! A128  A(42,41,46)           119.9632         estimate D2E/DX2                !
 ! A129  A(41,42,43)           122.9491         estimate D2E/DX2                !
 ! A130  A(41,42,112)          122.1948         estimate D2E/DX2                !
 ! A131  A(43,42,112)          114.7302         estimate D2E/DX2                !
 ! A132  A(42,43,44)           118.5584         estimate D2E/DX2                !
 ! A133  A(42,43,113)          116.5673         estimate D2E/DX2                !
 ! A134  A(44,43,113)          124.4936         estimate D2E/DX2                !
 ! A135  A(43,44,45)           115.3218         estimate D2E/DX2                !
 ! A136  A(43,44,49)           122.0363         estimate D2E/DX2                !
 ! A137  A(45,44,49)           122.5652         estimate D2E/DX2                !
 ! A138  A(44,45,46)           126.9745         estimate D2E/DX2                !
 ! A139  A(44,45,114)          112.9099         estimate D2E/DX2                !
 ! A140  A(46,45,114)          120.1088         estimate D2E/DX2                !
 ! A141  A(41,46,45)           115.7887         estimate D2E/DX2                !
 ! A142  A(41,46,47)           116.5812         estimate D2E/DX2                !
 ! A143  A(45,46,47)           127.2811         estimate D2E/DX2                !
 ! A144  A(46,47,48)           119.865          estimate D2E/DX2                !
 ! A145  A(47,48,115)          108.3122         estimate D2E/DX2                !
 ! A146  A(47,48,116)          109.3338         estimate D2E/DX2                !
 ! A147  A(47,48,117)          109.0723         estimate D2E/DX2                !
 ! A148  A(115,48,116)         112.3073         estimate D2E/DX2                !
 ! A149  A(115,48,117)         111.2798         estimate D2E/DX2                !
 ! A150  A(116,48,117)         106.4823         estimate D2E/DX2                !
 ! A151  A(44,49,50)           123.1147         estimate D2E/DX2                !
 ! A152  A(44,49,56)           119.5865         estimate D2E/DX2                !
 ! A153  A(50,49,56)           117.2676         estimate D2E/DX2                !
 ! A154  A(49,50,51)           119.9817         estimate D2E/DX2                !
 ! A155  A(49,50,118)          112.1717         estimate D2E/DX2                !
 ! A156  A(51,50,118)          127.8465         estimate D2E/DX2                !
 ! A157  A(50,51,52)           122.4818         estimate D2E/DX2                !
 ! A158  A(50,51,54)           123.1411         estimate D2E/DX2                !
 ! A159  A(52,51,54)           114.3591         estimate D2E/DX2                !
 ! A160  A(51,52,53)           116.9841         estimate D2E/DX2                !
 ! A161  A(52,53,119)          108.2488         estimate D2E/DX2                !
 ! A162  A(52,53,120)          110.5461         estimate D2E/DX2                !
 ! A163  A(52,53,121)          115.9307         estimate D2E/DX2                !
 ! A164  A(119,53,120)         105.4289         estimate D2E/DX2                !
 ! A165  A(119,53,121)         107.3808         estimate D2E/DX2                !
 ! A166  A(120,53,121)         108.7455         estimate D2E/DX2                !
 ! A167  A(51,54,55)           117.9978         estimate D2E/DX2                !
 ! A168  A(51,54,57)           122.7796         estimate D2E/DX2                !
 ! A169  A(55,54,57)           118.6002         estimate D2E/DX2                !
 ! A170  A(54,55,56)           119.8643         estimate D2E/DX2                !
 ! A171  A(54,55,122)          119.2018         estimate D2E/DX2                !
 ! A172  A(56,55,122)          120.5096         estimate D2E/DX2                !
 ! A173  A(49,56,55)           121.5823         estimate D2E/DX2                !
 ! A174  A(49,56,123)          120.4144         estimate D2E/DX2                !
 ! A175  A(55,56,123)          118.0027         estimate D2E/DX2                !
 ! A176  A(54,57,58)           120.216          estimate D2E/DX2                !
 ! A177  A(54,57,62)           120.3627         estimate D2E/DX2                !
 ! A178  A(58,57,62)           119.3493         estimate D2E/DX2                !
 ! A179  A(57,58,59)           120.4122         estimate D2E/DX2                !
 ! A180  A(57,58,124)          122.5535         estimate D2E/DX2                !
 ! A181  A(59,58,124)          117.0343         estimate D2E/DX2                !
 ! A182  A(58,59,60)           120.736          estimate D2E/DX2                !
 ! A183  A(58,59,125)          119.7392         estimate D2E/DX2                !
 ! A184  A(60,59,125)          119.5023         estimate D2E/DX2                !
 ! A185  A(59,60,61)           117.8041         estimate D2E/DX2                !
 ! A186  A(59,60,65)           119.8155         estimate D2E/DX2                !
 ! A187  A(61,60,65)           122.3101         estimate D2E/DX2                !
 ! A188  A(60,61,62)           117.5777         estimate D2E/DX2                !
 ! A189  A(60,61,126)          119.1719         estimate D2E/DX2                !
 ! A190  A(62,61,126)          123.2496         estimate D2E/DX2                !
 ! A191  A(57,62,61)           123.9827         estimate D2E/DX2                !
 ! A192  A(57,62,63)           116.5794         estimate D2E/DX2                !
 ! A193  A(61,62,63)           119.3993         estimate D2E/DX2                !
 ! A194  A(62,63,64)           116.6328         estimate D2E/DX2                !
 ! A195  A(63,64,127)          110.4236         estimate D2E/DX2                !
 ! A196  A(63,64,128)          112.6256         estimate D2E/DX2                !
 ! A197  A(63,64,129)          107.74           estimate D2E/DX2                !
 ! A198  A(127,64,128)         113.6355         estimate D2E/DX2                !
 ! A199  A(127,64,129)         102.9878         estimate D2E/DX2                !
 ! A200  A(128,64,129)         108.8121         estimate D2E/DX2                !
 ! A201  A(60,65,66)           124.2945         estimate D2E/DX2                !
 ! A202  A(60,65,72)           120.7257         estimate D2E/DX2                !
 ! A203  A(66,65,72)           114.9555         estimate D2E/DX2                !
 ! A204  A(65,66,67)           127.1123         estimate D2E/DX2                !
 ! A205  A(65,66,130)          117.0497         estimate D2E/DX2                !
 ! A206  A(67,66,130)          115.4275         estimate D2E/DX2                !
 ! A207  A(66,67,68)           126.9376         estimate D2E/DX2                !
 ! A208  A(66,67,70)           114.1112         estimate D2E/DX2                !
 ! A209  A(68,67,70)           118.8332         estimate D2E/DX2                !
 ! A210  A(67,68,69)           118.1844         estimate D2E/DX2                !
 ! A211  A(68,69,131)          109.0253         estimate D2E/DX2                !
 ! A212  A(68,69,132)          112.1636         estimate D2E/DX2                !
 ! A213  A(68,69,133)          116.4711         estimate D2E/DX2                !
 ! A214  A(131,69,132)         103.8168         estimate D2E/DX2                !
 ! A215  A(131,69,133)         109.1355         estimate D2E/DX2                !
 ! A216  A(132,69,133)         105.4409         estimate D2E/DX2                !
 ! A217  A(67,70,71)           121.1868         estimate D2E/DX2                !
 ! A218  A(67,70,73)           118.3034         estimate D2E/DX2                !
 ! A219  A(71,70,73)           120.1828         estimate D2E/DX2                !
 ! A220  A(70,71,72)           121.4975         estimate D2E/DX2                !
 ! A221  A(70,71,134)          122.2452         estimate D2E/DX2                !
 ! A222  A(72,71,134)          115.9162         estimate D2E/DX2                !
 ! A223  A(65,72,71)           120.7168         estimate D2E/DX2                !
 ! A224  A(65,72,135)          122.8692         estimate D2E/DX2                !
 ! A225  A(71,72,135)          116.2736         estimate D2E/DX2                !
 ! A226  A(70,73,74)           117.8179         estimate D2E/DX2                !
 ! A227  A(70,73,78)           119.7911         estimate D2E/DX2                !
 ! A228  A(74,73,78)           122.2166         estimate D2E/DX2                !
 ! A229  A(73,74,75)           115.3921         estimate D2E/DX2                !
 ! A230  A(73,74,136)          122.0755         estimate D2E/DX2                !
 ! A231  A(75,74,136)          122.4983         estimate D2E/DX2                !
 ! A232  A(74,75,76)           121.6706         estimate D2E/DX2                !
 ! A233  A(74,75,137)          118.3566         estimate D2E/DX2                !
 ! A234  A(76,75,137)          119.6341         estimate D2E/DX2                !
 ! A235  A(75,76,77)           118.9725         estimate D2E/DX2                !
 ! A236  A(75,76,138)          115.8793         estimate D2E/DX2                !
 ! A237  A(77,76,138)          125.1456         estimate D2E/DX2                !
 ! A238  A(76,77,78)           120.9436         estimate D2E/DX2                !
 ! A239  A(76,77,139)          113.5401         estimate D2E/DX2                !
 ! A240  A(78,77,139)          125.5162         estimate D2E/DX2                !
 ! A241  A(73,78,77)           120.7454         estimate D2E/DX2                !
 ! A242  A(73,78,79)           115.1588         estimate D2E/DX2                !
 ! A243  A(77,78,79)           124.0142         estimate D2E/DX2                !
 ! A244  A(78,79,80)           116.6843         estimate D2E/DX2                !
 ! A245  A(79,80,140)          105.554          estimate D2E/DX2                !
 ! A246  A(79,80,141)          109.2193         estimate D2E/DX2                !
 ! A247  A(79,80,142)          109.6553         estimate D2E/DX2                !
 ! A248  A(140,80,141)         108.9114         estimate D2E/DX2                !
 ! A249  A(140,80,142)         113.9651         estimate D2E/DX2                !
 ! A250  A(141,80,142)         109.4021         estimate D2E/DX2                !
 ! D1    D(8,1,2,3)              4.4658         estimate D2E/DX2                !
 ! D2    D(8,1,2,82)          -179.1617         estimate D2E/DX2                !
 ! D3    D(81,1,2,3)           175.6308         estimate D2E/DX2                !
 ! D4    D(81,1,2,82)           -7.9967         estimate D2E/DX2                !
 ! D5    D(2,1,8,7)             -5.726          estimate D2E/DX2                !
 ! D6    D(2,1,8,87)           174.8978         estimate D2E/DX2                !
 ! D7    D(81,1,8,7)          -176.558          estimate D2E/DX2                !
 ! D8    D(81,1,8,87)            4.0658         estimate D2E/DX2                !
 ! D9    D(1,2,3,4)            175.5177         estimate D2E/DX2                !
 ! D10   D(1,2,3,6)             -1.5408         estimate D2E/DX2                !
 ! D11   D(82,2,3,4)            -0.3746         estimate D2E/DX2                !
 ! D12   D(82,2,3,6)          -177.4331         estimate D2E/DX2                !
 ! D13   D(2,3,4,5)              9.7143         estimate D2E/DX2                !
 ! D14   D(6,3,4,5)           -172.9646         estimate D2E/DX2                !
 ! D15   D(2,3,6,7)             -0.3785         estimate D2E/DX2                !
 ! D16   D(2,3,6,9)            178.1955         estimate D2E/DX2                !
 ! D17   D(4,3,6,7)           -177.7897         estimate D2E/DX2                !
 ! D18   D(4,3,6,9)              0.7843         estimate D2E/DX2                !
 ! D19   D(3,4,5,83)            55.5608         estimate D2E/DX2                !
 ! D20   D(3,4,5,84)           -63.9964         estimate D2E/DX2                !
 ! D21   D(3,4,5,85)           171.1709         estimate D2E/DX2                !
 ! D22   D(3,6,7,8)             -0.5626         estimate D2E/DX2                !
 ! D23   D(3,6,7,86)          -175.6782         estimate D2E/DX2                !
 ! D24   D(9,6,7,8)           -179.197          estimate D2E/DX2                !
 ! D25   D(9,6,7,86)             5.6874         estimate D2E/DX2                !
 ! D26   D(3,6,9,10)           -71.1362         estimate D2E/DX2                !
 ! D27   D(3,6,9,14)           108.5873         estimate D2E/DX2                !
 ! D28   D(7,6,9,10)           107.4088         estimate D2E/DX2                !
 ! D29   D(7,6,9,14)           -72.8677         estimate D2E/DX2                !
 ! D30   D(6,7,8,1)              3.8616         estimate D2E/DX2                !
 ! D31   D(6,7,8,87)          -176.7406         estimate D2E/DX2                !
 ! D32   D(86,7,8,1)           179.1071         estimate D2E/DX2                !
 ! D33   D(86,7,8,87)           -1.4951         estimate D2E/DX2                !
 ! D34   D(6,9,10,11)          178.0703         estimate D2E/DX2                !
 ! D35   D(6,9,10,88)            3.8986         estimate D2E/DX2                !
 ! D36   D(14,9,10,11)          -1.6606         estimate D2E/DX2                !
 ! D37   D(14,9,10,88)        -175.8323         estimate D2E/DX2                !
 ! D38   D(6,9,14,13)         -176.8915         estimate D2E/DX2                !
 ! D39   D(6,9,14,15)           -3.5799         estimate D2E/DX2                !
 ! D40   D(10,9,14,13)           2.8394         estimate D2E/DX2                !
 ! D41   D(10,9,14,15)         176.1511         estimate D2E/DX2                !
 ! D42   D(9,10,11,12)           0.0874         estimate D2E/DX2                !
 ! D43   D(9,10,11,89)         178.4506         estimate D2E/DX2                !
 ! D44   D(88,10,11,12)        174.533          estimate D2E/DX2                !
 ! D45   D(88,10,11,89)         -7.1038         estimate D2E/DX2                !
 ! D46   D(10,11,12,13)          0.193          estimate D2E/DX2                !
 ! D47   D(10,11,12,17)        178.2383         estimate D2E/DX2                !
 ! D48   D(89,11,12,13)       -178.0505         estimate D2E/DX2                !
 ! D49   D(89,11,12,17)         -0.0053         estimate D2E/DX2                !
 ! D50   D(11,12,13,14)          1.113          estimate D2E/DX2                !
 ! D51   D(11,12,13,90)        177.5197         estimate D2E/DX2                !
 ! D52   D(17,12,13,14)       -176.9132         estimate D2E/DX2                !
 ! D53   D(17,12,13,90)         -0.5065         estimate D2E/DX2                !
 ! D54   D(11,12,17,18)         61.7823         estimate D2E/DX2                !
 ! D55   D(11,12,17,24)       -117.1886         estimate D2E/DX2                !
 ! D56   D(13,12,17,18)       -120.1837         estimate D2E/DX2                !
 ! D57   D(13,12,17,24)         60.8454         estimate D2E/DX2                !
 ! D58   D(12,13,14,9)          -2.6822         estimate D2E/DX2                !
 ! D59   D(12,13,14,15)       -175.5418         estimate D2E/DX2                !
 ! D60   D(90,13,14,9)        -178.9682         estimate D2E/DX2                !
 ! D61   D(90,13,14,15)          8.1722         estimate D2E/DX2                !
 ! D62   D(9,14,15,16)        -176.6207         estimate D2E/DX2                !
 ! D63   D(13,14,15,16)         -3.7022         estimate D2E/DX2                !
 ! D64   D(14,15,16,91)         58.3366         estimate D2E/DX2                !
 ! D65   D(14,15,16,92)        -60.6101         estimate D2E/DX2                !
 ! D66   D(14,15,16,93)        178.406          estimate D2E/DX2                !
 ! D67   D(12,17,18,19)        178.4099         estimate D2E/DX2                !
 ! D68   D(12,17,18,94)          1.2765         estimate D2E/DX2                !
 ! D69   D(24,17,18,19)         -2.6211         estimate D2E/DX2                !
 ! D70   D(24,17,18,94)       -179.7545         estimate D2E/DX2                !
 ! D71   D(12,17,24,23)       -179.5347         estimate D2E/DX2                !
 ! D72   D(12,17,24,99)          1.8874         estimate D2E/DX2                !
 ! D73   D(18,17,24,23)          1.4489         estimate D2E/DX2                !
 ! D74   D(18,17,24,99)       -177.1289         estimate D2E/DX2                !
 ! D75   D(17,18,19,20)        178.8869         estimate D2E/DX2                !
 ! D76   D(17,18,19,22)          1.5351         estimate D2E/DX2                !
 ! D77   D(94,18,19,20)         -4.3565         estimate D2E/DX2                !
 ! D78   D(94,18,19,22)        178.2916         estimate D2E/DX2                !
 ! D79   D(18,19,20,21)         10.1424         estimate D2E/DX2                !
 ! D80   D(22,19,20,21)       -172.3455         estimate D2E/DX2                !
 ! D81   D(18,19,22,23)          0.6917         estimate D2E/DX2                !
 ! D82   D(18,19,22,25)        174.4424         estimate D2E/DX2                !
 ! D83   D(20,19,22,23)       -177.0485         estimate D2E/DX2                !
 ! D84   D(20,19,22,25)         -3.2978         estimate D2E/DX2                !
 ! D85   D(19,20,21,95)        173.6593         estimate D2E/DX2                !
 ! D86   D(19,20,21,96)        -66.634          estimate D2E/DX2                !
 ! D87   D(19,20,21,97)         57.9812         estimate D2E/DX2                !
 ! D88   D(19,22,23,24)         -1.6636         estimate D2E/DX2                !
 ! D89   D(19,22,23,98)        179.0681         estimate D2E/DX2                !
 ! D90   D(25,22,23,24)       -175.4513         estimate D2E/DX2                !
 ! D91   D(25,22,23,98)          5.2804         estimate D2E/DX2                !
 ! D92   D(19,22,25,26)        -70.3233         estimate D2E/DX2                !
 ! D93   D(19,22,25,30)        113.9114         estimate D2E/DX2                !
 ! D94   D(23,22,25,26)        103.3071         estimate D2E/DX2                !
 ! D95   D(23,22,25,30)        -72.4582         estimate D2E/DX2                !
 ! D96   D(22,23,24,17)          0.6128         estimate D2E/DX2                !
 ! D97   D(22,23,24,99)        179.332          estimate D2E/DX2                !
 ! D98   D(98,23,24,17)        179.8964         estimate D2E/DX2                !
 ! D99   D(98,23,24,99)         -1.3844         estimate D2E/DX2                !
 ! D100  D(22,25,26,27)       -176.2636         estimate D2E/DX2                !
 ! D101  D(22,25,26,100)         2.9091         estimate D2E/DX2                !
 ! D102  D(30,25,26,27)         -0.6671         estimate D2E/DX2                !
 ! D103  D(30,25,26,100)       178.5056         estimate D2E/DX2                !
 ! D104  D(22,25,30,29)        177.5066         estimate D2E/DX2                !
 ! D105  D(22,25,30,31)         -2.9028         estimate D2E/DX2                !
 ! D106  D(26,25,30,29)          1.6583         estimate D2E/DX2                !
 ! D107  D(26,25,30,31)       -178.7511         estimate D2E/DX2                !
 ! D108  D(25,26,27,28)         -1.0555         estimate D2E/DX2                !
 ! D109  D(25,26,27,101)      -178.8658         estimate D2E/DX2                !
 ! D110  D(100,26,27,28)       179.8595         estimate D2E/DX2                !
 ! D111  D(100,26,27,101)        2.0492         estimate D2E/DX2                !
 ! D112  D(26,27,28,29)          1.6065         estimate D2E/DX2                !
 ! D113  D(26,27,28,33)       -178.9226         estimate D2E/DX2                !
 ! D114  D(101,27,28,29)       179.1712         estimate D2E/DX2                !
 ! D115  D(101,27,28,33)        -1.3579         estimate D2E/DX2                !
 ! D116  D(27,28,29,30)         -0.5009         estimate D2E/DX2                !
 ! D117  D(27,28,29,102)      -179.6109         estimate D2E/DX2                !
 ! D118  D(33,28,29,30)       -179.953          estimate D2E/DX2                !
 ! D119  D(33,28,29,102)         0.937          estimate D2E/DX2                !
 ! D120  D(27,28,33,34)       -115.3667         estimate D2E/DX2                !
 ! D121  D(27,28,33,40)         56.0461         estimate D2E/DX2                !
 ! D122  D(29,28,33,34)         64.0611         estimate D2E/DX2                !
 ! D123  D(29,28,33,40)       -124.5261         estimate D2E/DX2                !
 ! D124  D(28,29,30,25)         -1.0984         estimate D2E/DX2                !
 ! D125  D(28,29,30,31)        179.3328         estimate D2E/DX2                !
 ! D126  D(102,29,30,25)       177.9698         estimate D2E/DX2                !
 ! D127  D(102,29,30,31)        -1.599          estimate D2E/DX2                !
 ! D128  D(25,30,31,32)       -165.0512         estimate D2E/DX2                !
 ! D129  D(29,30,31,32)         14.5073         estimate D2E/DX2                !
 ! D130  D(30,31,32,103)       171.2164         estimate D2E/DX2                !
 ! D131  D(30,31,32,104)       -75.7641         estimate D2E/DX2                !
 ! D132  D(30,31,32,105)        53.3516         estimate D2E/DX2                !
 ! D133  D(28,33,34,35)       -178.1634         estimate D2E/DX2                !
 ! D134  D(28,33,34,106)        -5.9656         estimate D2E/DX2                !
 ! D135  D(40,33,34,35)         10.4403         estimate D2E/DX2                !
 ! D136  D(40,33,34,106)      -177.3619         estimate D2E/DX2                !
 ! D137  D(28,33,40,39)       -179.6778         estimate D2E/DX2                !
 ! D138  D(28,33,40,111)         7.3594         estimate D2E/DX2                !
 ! D139  D(34,33,40,39)         -8.335          estimate D2E/DX2                !
 ! D140  D(34,33,40,111)       178.7022         estimate D2E/DX2                !
 ! D141  D(33,34,35,36)        177.9567         estimate D2E/DX2                !
 ! D142  D(33,34,35,38)        -10.9229         estimate D2E/DX2                !
 ! D143  D(106,34,35,36)         5.6985         estimate D2E/DX2                !
 ! D144  D(106,34,35,38)       176.819          estimate D2E/DX2                !
 ! D145  D(34,35,36,37)        -21.1021         estimate D2E/DX2                !
 ! D146  D(38,35,36,37)        167.4777         estimate D2E/DX2                !
 ! D147  D(34,35,38,39)          9.1112         estimate D2E/DX2                !
 ! D148  D(34,35,38,41)       -178.4407         estimate D2E/DX2                !
 ! D149  D(36,35,38,39)       -179.0744         estimate D2E/DX2                !
 ! D150  D(36,35,38,41)         -6.6263         estimate D2E/DX2                !
 ! D151  D(35,36,37,107)        72.7971         estimate D2E/DX2                !
 ! D152  D(35,36,37,108)      -168.1629         estimate D2E/DX2                !
 ! D153  D(35,36,37,109)       -51.4012         estimate D2E/DX2                !
 ! D154  D(35,38,39,40)         -7.7468         estimate D2E/DX2                !
 ! D155  D(35,38,39,110)       177.9975         estimate D2E/DX2                !
 ! D156  D(41,38,39,40)        179.5162         estimate D2E/DX2                !
 ! D157  D(41,38,39,110)         5.2604         estimate D2E/DX2                !
 ! D158  D(35,38,41,42)         80.8582         estimate D2E/DX2                !
 ! D159  D(35,38,41,46)       -104.0023         estimate D2E/DX2                !
 ! D160  D(39,38,41,42)       -106.7957         estimate D2E/DX2                !
 ! D161  D(39,38,41,46)         68.3438         estimate D2E/DX2                !
 ! D162  D(38,39,40,33)          7.1388         estimate D2E/DX2                !
 ! D163  D(38,39,40,111)      -179.5338         estimate D2E/DX2                !
 ! D164  D(110,39,40,33)      -178.2555         estimate D2E/DX2                !
 ! D165  D(110,39,40,111)       -4.9282         estimate D2E/DX2                !
 ! D166  D(38,41,42,43)        179.8568         estimate D2E/DX2                !
 ! D167  D(38,41,42,112)        -4.4397         estimate D2E/DX2                !
 ! D168  D(46,41,42,43)          4.5404         estimate D2E/DX2                !
 ! D169  D(46,41,42,112)      -179.7561         estimate D2E/DX2                !
 ! D170  D(38,41,46,45)        178.9386         estimate D2E/DX2                !
 ! D171  D(38,41,46,47)          5.2209         estimate D2E/DX2                !
 ! D172  D(42,41,46,45)         -6.0843         estimate D2E/DX2                !
 ! D173  D(42,41,46,47)       -179.802          estimate D2E/DX2                !
 ! D174  D(41,42,43,44)          1.7207         estimate D2E/DX2                !
 ! D175  D(41,42,43,113)       174.9594         estimate D2E/DX2                !
 ! D176  D(112,42,43,44)      -174.2768         estimate D2E/DX2                !
 ! D177  D(112,42,43,113)       -1.0381         estimate D2E/DX2                !
 ! D178  D(42,43,44,45)         -5.6631         estimate D2E/DX2                !
 ! D179  D(42,43,44,49)        177.4461         estimate D2E/DX2                !
 ! D180  D(113,43,44,45)      -178.3227         estimate D2E/DX2                !
 ! D181  D(113,43,44,49)         4.7865         estimate D2E/DX2                !
 ! D182  D(43,44,45,46)          4.1017         estimate D2E/DX2                !
 ! D183  D(43,44,45,114)      -174.9438         estimate D2E/DX2                !
 ! D184  D(49,44,45,46)       -179.0257         estimate D2E/DX2                !
 ! D185  D(49,44,45,114)         1.9288         estimate D2E/DX2                !
 ! D186  D(43,44,49,50)       -126.2126         estimate D2E/DX2                !
 ! D187  D(43,44,49,56)         51.6997         estimate D2E/DX2                !
 ! D188  D(45,44,49,50)         57.1224         estimate D2E/DX2                !
 ! D189  D(45,44,49,56)       -124.9652         estimate D2E/DX2                !
 ! D190  D(44,45,46,41)          1.8284         estimate D2E/DX2                !
 ! D191  D(44,45,46,47)        174.7636         estimate D2E/DX2                !
 ! D192  D(114,45,46,41)      -179.188          estimate D2E/DX2                !
 ! D193  D(114,45,46,47)        -6.2528         estimate D2E/DX2                !
 ! D194  D(41,46,47,48)        169.4177         estimate D2E/DX2                !
 ! D195  D(45,46,47,48)         -3.4691         estimate D2E/DX2                !
 ! D196  D(46,47,48,115)       -58.494          estimate D2E/DX2                !
 ! D197  D(46,47,48,116)        64.1784         estimate D2E/DX2                !
 ! D198  D(46,47,48,117)      -179.7532         estimate D2E/DX2                !
 ! D199  D(44,49,50,51)        178.7544         estimate D2E/DX2                !
 ! D200  D(44,49,50,118)        -1.348          estimate D2E/DX2                !
 ! D201  D(56,49,50,51)          0.7968         estimate D2E/DX2                !
 ! D202  D(56,49,50,118)      -179.3055         estimate D2E/DX2                !
 ! D203  D(44,49,56,55)       -177.1862         estimate D2E/DX2                !
 ! D204  D(44,49,56,123)         3.1106         estimate D2E/DX2                !
 ! D205  D(50,49,56,55)          0.8467         estimate D2E/DX2                !
 ! D206  D(50,49,56,123)      -178.8565         estimate D2E/DX2                !
 ! D207  D(49,50,51,52)       -177.8484         estimate D2E/DX2                !
 ! D208  D(49,50,51,54)          0.5212         estimate D2E/DX2                !
 ! D209  D(118,50,51,52)         2.2716         estimate D2E/DX2                !
 ! D210  D(118,50,51,54)      -179.3589         estimate D2E/DX2                !
 ! D211  D(50,51,52,53)         -0.4523         estimate D2E/DX2                !
 ! D212  D(54,51,52,53)       -178.9537         estimate D2E/DX2                !
 ! D213  D(50,51,54,55)         -3.4217         estimate D2E/DX2                !
 ! D214  D(50,51,54,57)       -174.2412         estimate D2E/DX2                !
 ! D215  D(52,51,54,55)        175.0685         estimate D2E/DX2                !
 ! D216  D(52,51,54,57)          4.249          estimate D2E/DX2                !
 ! D217  D(51,52,53,119)      -176.7118         estimate D2E/DX2                !
 ! D218  D(51,52,53,120)       -61.7039         estimate D2E/DX2                !
 ! D219  D(51,52,53,121)        62.6191         estimate D2E/DX2                !
[...]
  Beta virt. eigenvalues --    2.24810   2.25055   2.25272   2.25517   2.25727
  Beta virt. eigenvalues --    2.26193   2.26511   2.27046   2.27786   2.28665
  Beta virt. eigenvalues --    2.28794   2.29194   2.29510   2.29634   2.29851
  Beta virt. eigenvalues --    2.30419   2.30562   2.30766   2.31429   2.31625
  Beta virt. eigenvalues --    2.31874   2.31949   2.32455   2.32812   2.33208
  Beta virt. eigenvalues --    2.33271   2.34054   2.35360   2.35423   2.36150
  Beta virt. eigenvalues --    2.36291   2.36562   2.36657   2.36923   2.37157
  Beta virt. eigenvalues --    2.37367   2.37472   2.39516   2.39768   2.39974
  Beta virt. eigenvalues --    2.40180   2.40359   2.40476   2.40619   2.40853
  Beta virt. eigenvalues --    2.41182   2.41404   2.42507   2.42787   2.42890
  Beta virt. eigenvalues --    2.43187   2.44321   2.44983   2.45880   2.46668
  Beta virt. eigenvalues --    2.47463   2.48100   2.48461   2.48594   2.48663
  Beta virt. eigenvalues --    2.48679   2.48766   2.48826   2.49078   2.49177
  Beta virt. eigenvalues --    2.49504   2.49656   2.49772   2.50302   2.50750
  Beta virt. eigenvalues --    2.51502   2.52388   2.52629   2.52673   2.53042
  Beta virt. eigenvalues --    2.53260   2.53492   2.53913   2.54019   2.54115
  Beta virt. eigenvalues --    2.54182   2.54442   2.54651   2.54906   2.55253
  Beta virt. eigenvalues --    2.55316   2.55406   2.55535   2.55647   2.56641
  Beta virt. eigenvalues --    2.57323   2.57587   2.58054   2.58841   2.59299
  Beta virt. eigenvalues --    2.59610   2.60032   2.60339   2.60862   2.61127
  Beta virt. eigenvalues --    2.61381   2.61424   2.61502   2.61687   2.61957
  Beta virt. eigenvalues --    2.62210   2.62438   2.63222   2.63590   2.64700
  Beta virt. eigenvalues --    2.65231   2.65601   2.66795   2.71229   2.71548
  Beta virt. eigenvalues --    2.72863   2.74473   2.75656   2.75743   2.76018
  Beta virt. eigenvalues --    2.76059   2.76333   2.76801   2.78282   2.78440
  Beta virt. eigenvalues --    2.78831   2.78930   2.79629   2.80119   2.80884
  Beta virt. eigenvalues --    2.81041   2.81434   2.82831   2.83020   2.84024
  Beta virt. eigenvalues --    2.84522   2.84906   2.85047   2.85403   2.86117
  Beta virt. eigenvalues --    2.86151   2.86461   2.86721   2.88097   2.88116
  Beta virt. eigenvalues --    2.89366   2.89561   2.90205   2.90589   2.91961
  Beta virt. eigenvalues --    2.92925   2.93885   2.94163   2.95331   2.95510
  Beta virt. eigenvalues --    2.97826   2.98200   2.98483   2.98690   2.98768
  Beta virt. eigenvalues --    2.98906   2.99026   2.99047   2.99132   2.99480
  Beta virt. eigenvalues --    3.02985   3.03145   3.03801   3.04491   3.12285
  Beta virt. eigenvalues --    3.12293   3.12339   3.12378   3.12496   3.12730
  Beta virt. eigenvalues --    3.12781   3.12825   3.12878   3.12957   3.15222
  Beta virt. eigenvalues --    3.15283   3.15450   3.15622   3.15771   3.16322
  Beta virt. eigenvalues --    3.16421   3.16611   3.16819   3.16990   3.31733
  Beta virt. eigenvalues --    3.32476   3.33025   3.33328   3.38580   3.38604
  Beta virt. eigenvalues --    3.38863   3.39029   3.39391   3.39416   3.50545
  Beta virt. eigenvalues --    3.50591   3.50766   3.50819   3.50940   3.50948
  Beta virt. eigenvalues --    3.50965   3.51018   3.51066   3.51071   3.59828
  Beta virt. eigenvalues --    3.61003   3.62768   3.65080   3.66956   3.70753
  Beta virt. eigenvalues --    3.73297   3.75345   3.76742   3.77145
          Condensed to atoms (all electrons):
          Atomic-Atomic Spin Densities.
 Mulliken charges and spin densities:
               1          2
     1  C    0.012079   0.000000
     2  C   -0.052893  -0.000000
     3  C    0.102298   0.000000
     4  O   -0.243011   0.000000
     5  C    0.051197   0.000000
     6  C   -0.040103  -0.000000
     7  C    0.050136   0.000000
     8  C    0.005392  -0.000000
     9  C   -0.028874   0.000000
    10  C    0.062826  -0.000000
    11  C   -0.008191   0.000000
    12  C   -0.000975   0.000000
    13  C   -0.046131  -0.000000
    14  C    0.111346  -0.000000
    15  O   -0.243582   0.000000
    16  C    0.053429   0.000000
    17  C   -0.000675  -0.000000
    18  C   -0.045584  -0.000000
    19  C    0.110451   0.000000
    20  O   -0.244099  -0.000000
    21  C    0.053432   0.000000
    22  C   -0.029509  -0.000000
    23  C    0.061104   0.000000
    24  C   -0.008012  -0.000000
    25  C   -0.029892   0.000000
    26  C    0.060996  -0.000000
    27  C   -0.004745   0.000000
    28  C   -0.001445  -0.000000
    29  C   -0.047033   0.000000
    30  C    0.109942  -0.000000
    31  O   -0.244404  -0.000000
    32  C    0.054426  -0.000000
    33  C   -0.002946   0.000000
    34  C   -0.047151  -0.000000
    35  C    0.112261  -0.000000
    36  O   -0.243946   0.000000
    37  C    0.054068  -0.000000
    38  C   -0.033050  -0.000000
    39  C    0.062335   0.000000
    40  C   -0.004863  -0.000000
    41  C   -0.033197   0.000000
    42  C    0.062186   0.000000
    43  C   -0.004961  -0.000000
    44  C   -0.002812   0.000000
    45  C   -0.046895  -0.000000
    46  C    0.112186   0.000000
    47  O   -0.244011  -0.000000
    48  C    0.054034  -0.000000
    49  C   -0.002838   0.000000
    50  C   -0.046887  -0.000000
    51  C    0.112292   0.000000
    52  O   -0.243958  -0.000000
    53  C    0.054080   0.000000
    54  C   -0.032925  -0.000000
    55  C    0.061876  -0.000000
    56  C   -0.004927   0.000000
    57  C   -0.032952   0.000000
    58  C    0.061899  -0.000000
    59  C   -0.007810  -0.000000
    60  C   -0.002255   0.000000
    61  C   -0.045242  -0.000000
    62  C    0.112440  -0.000000
    63  O   -0.244225   0.000000
    64  C    0.053216  -0.000000
    65  C   -0.002282  -0.000000
    66  C   -0.045654  -0.000000
    67  C    0.113218  -0.000000
    68  O   -0.243795  -0.000000
    69  C    0.053246   0.000000
    70  C   -0.031209   0.000000
    71  C    0.063351  -0.000000
    72  C   -0.007921   0.000000
    73  C   -0.040523   0.000000
    74  C    0.049714  -0.000000
    75  C    0.005247   0.000000
    76  C    0.011989  -0.000000
    77  C   -0.052884   0.000000
    78  C    0.102587  -0.000000
    79  O   -0.242530  -0.000000
    80  C    0.050986   0.000000
    81  H   -0.005832  -0.000000
    82  H   -0.003393  -0.000000
    83  H    0.046073   0.000000
    84  H    0.044402  -0.000000
    85  H    0.055797  -0.000000
    86  H   -0.015412   0.000000
    87  H   -0.010068   0.000000
    88  H   -0.017066  -0.000000
    89  H   -0.018833  -0.000000
    90  H   -0.008554  -0.000000
    91  H    0.048261  -0.000000
    92  H    0.043941  -0.000000
    93  H    0.055775  -0.000000
    94  H   -0.008356   0.000000
    95  H    0.055912  -0.000000
    96  H    0.044213  -0.000000
    97  H    0.048339  -0.000000
    98  H   -0.017666   0.000000
    99  H   -0.019178   0.000000
   100  H   -0.015949  -0.000000
   101  H   -0.016160   0.000000
   102  H   -0.010639   0.000000
   103  H    0.055162   0.000000
   104  H    0.041063  -0.000000
   105  H    0.048987  -0.000000
   106  H   -0.011329   0.000000
   107  H    0.047572  -0.000000
   108  H    0.056477   0.000000
   109  H    0.042098  -0.000000
   110  H   -0.016048   0.000000
   111  H   -0.016236  -0.000000
   112  H   -0.015823   0.000000
   113  H   -0.016279  -0.000000
   114  H   -0.010636   0.000000
   115  H    0.042258   0.000000
   116  H    0.047540   0.000000
   117  H    0.056368   0.000000
   118  H   -0.010886   0.000000
   119  H    0.056516  -0.000000
   120  H    0.042502  -0.000000
   121  H    0.047036  -0.000000
   122  H   -0.015936   0.000000
   123  H   -0.016057  -0.000000
   124  H   -0.016772  -0.000000
   125  H   -0.018459  -0.000000
   126  H   -0.008698  -0.000000
   127  H    0.056310  -0.000000
   128  H    0.047347   0.000000
   129  H    0.045401   0.000000
   130  H   -0.008653  -0.000000
   131  H    0.047167   0.000000
   132  H    0.055947   0.000000
   133  H    0.045569  -0.000000
   134  H   -0.017072  -0.000000
   135  H   -0.018516   0.000000
   136  H   -0.015486   0.000000
   137  H   -0.010198   0.000000
   138  H   -0.005925   0.000000
   139  H   -0.003416   0.000000
   140  H    0.057014   0.000000
   141  H    0.044121  -0.000000
   142  H    0.045908  -0.000000
 Sum of Mulliken charges =  -0.00000  -0.00000
 Mulliken charges and spin densities with hydrogens summed into heavy atoms:
               1          2
     1  C    0.006247   0.000000
     2  C   -0.056286  -0.000000
     3  C    0.102298   0.000000
     4  O   -0.243011   0.000000
     5  C    0.197469   0.000000
     6  C   -0.040103  -0.000000
     7  C    0.034724   0.000000
     8  C   -0.004676  -0.000000
     9  C   -0.028874   0.000000
    10  C    0.045760  -0.000000
    11  C   -0.027024   0.000000
    12  C   -0.000975   0.000000
    13  C   -0.054685  -0.000000
    14  C    0.111346  -0.000000
    15  O   -0.243582   0.000000
    16  C    0.201406  -0.000000
    17  C   -0.000675  -0.000000
    18  C   -0.053940  -0.000000
    19  C    0.110451   0.000000
    20  O   -0.244099  -0.000000
    21  C    0.201896   0.000000
    22  C   -0.029509  -0.000000
    23  C    0.043439   0.000000
    24  C   -0.027190  -0.000000
    25  C   -0.029892   0.000000
    26  C    0.045046  -0.000000
    27  C   -0.020905   0.000000
    28  C   -0.001445  -0.000000
    29  C   -0.057672   0.000000
    30  C    0.109942  -0.000000
    31  O   -0.244404  -0.000000
    32  C    0.199637  -0.000000
    33  C   -0.002946   0.000000
    34  C   -0.058480  -0.000000
    35  C    0.112261  -0.000000
    36  O   -0.243946   0.000000
    37  C    0.200215  -0.000000
    38  C   -0.033050  -0.000000
    39  C    0.046287   0.000000
    40  C   -0.021099  -0.000000
    41  C   -0.033197   0.000000
    42  C    0.046363   0.000000
    43  C   -0.021239  -0.000000
    44  C   -0.002812   0.000000
    45  C   -0.057531  -0.000000
    46  C    0.112186   0.000000
    47  O   -0.244011  -0.000000
    48  C    0.200200   0.000000
    49  C   -0.002838   0.000000
    50  C   -0.057773  -0.000000
    51  C    0.112292   0.000000
    52  O   -0.243958  -0.000000
    53  C    0.200133   0.000000
    54  C   -0.032925  -0.000000
    55  C    0.045940  -0.000000
    56  C   -0.020984   0.000000
    57  C   -0.032952   0.000000
    58  C    0.045127  -0.000000
    59  C   -0.026269  -0.000000
    60  C   -0.002255   0.000000
    61  C   -0.053939  -0.000000
    62  C    0.112440  -0.000000
    63  O   -0.244225   0.000000
    64  C    0.202274  -0.000000
    65  C   -0.002282  -0.000000
    66  C   -0.054307  -0.000000
    67  C    0.113218  -0.000000
    68  O   -0.243795  -0.000000
    69  C    0.201929   0.000000
    70  C   -0.031209   0.000000
    71  C    0.046279  -0.000000
    72  C   -0.026437   0.000000
    73  C   -0.040523   0.000000
    74  C    0.034228  -0.000000
    75  C   -0.004951   0.000000
    76  C    0.006064  -0.000000
    77  C   -0.056300   0.000000
    78  C    0.102587  -0.000000
    79  O   -0.242530  -0.000000
    80  C    0.198029  -0.000000
 Electronic spatial extent (au):  <R**2>=         319271.4868
 Charge=              0.0000 electrons
 Dipole moment (field-independent basis, Debye):
    X=              0.0766    Y=             -0.1684    Z=              4.5951  Tot=              4.5988
 Quadrupole moment (field-independent basis, Debye-Ang):
   XX=           -408.9427   YY=           -403.6847   ZZ=           -435.2271
   XY=            -10.6443   XZ=              4.3593   YZ=              0.4231
 Traceless Quadrupole moment (field-independent basis, Debye-Ang):
   XX=              7.0088   YY=             12.2668   ZZ=            -19.2756
   XY=            -10.6443   XZ=              4.3593   YZ=              0.4231
 Octapole moment (field-independent basis, Debye-Ang**2):
  XXX=             45.9741  YYY=              5.3156  ZZZ=            123.7402  XYY=            221.2417
  XXY=           -433.7506  XXZ=            735.2546  XZZ=           -229.6412  YZZ=              0.5769
  YYZ=             28.1190  XYZ=             98.5180
 Hexadecapole moment (field-independent basis, Debye-Ang**3):
 XXXX=        -381996.3914 YYYY=          -5780.8120 ZZZZ=          -3989.0881 XXXY=          -7020.6925
 XXXZ=          -2546.8309 YYYX=           -478.8513 YYYZ=             12.3348 ZZZX=             -4.1659
 ZZZY=             -4.9406 XXYY=         -64015.9096 XXZZ=         -68748.8656 YYZZ=          -1646.3086
 XXYZ=          -1428.2533 YYXZ=            543.2435 ZZXY=            132.1792
 N-N= 1.042775017749D+04 E-N=-2.889927219202D+04  KE= 3.431145204598D+03
 Leave Link  601 at Sat Jul 25 03:57:39 2020, MaxMem=  4026531840 cpu:              11.6 elap:               1.6
 (Enter /opt/ohpc/pub/libs/gaussian/g16-A.03/sandybridge/g16/l9999.exe)

 Test job not archived.
 1\1\GINC-SKYLAKE038\FOpt\ULC-wPBE\CC-pVDZ\C70H62O10\RDU230\25-Jul-2020
 \0\\#P uLC-wPBE/cc-pVDZ iop(3/107=0346300000, 3/108=0346300000) opt\\H
 62 C70 O10\\0,1\C,20.7776372309,-0.4949256873,-0.8659470613\C,20.15553
 63845,-1.0127731986,0.268256141\C,18.7667998756,-0.9520900977,0.392470
 9352\O,18.0854799176,-1.4331366453,1.4674918333\C,18.8272630236,-1.992
 0467393,2.5267497202\C,17.9877696891,-0.3678669933,-0.6252484717\C,18.
 6399487324,0.1457936764,-1.7436125002\C,20.0250488333,0.0858850427,-1.
 8766385136\C,16.5023659194,-0.3193538831,-0.5207448817\C,15.7556843159
 ,-1.4841515206,-0.3677693476\C,14.3663794317,-1.4646670793,-0.29728879
 79\C,13.6805634907,-0.2536229503,-0.3753476309\C,14.4145746639,0.92862
 01748,-0.5240812889\C,15.8065652071,0.9024822651,-0.5959744576\O,16.57
 09547463,2.0195650014,-0.729532064\C,15.9208859437,3.2688295348,-0.778
 4143483\C,12.1953663017,-0.204904093,-0.3048455202\C,11.5120519682,-0.
 9878759429,0.6324523632\C,10.1205024807,-0.9592519266,0.7108877291\O,9
 .4061928139,-1.6900128102,1.6084096814\C,10.1123256062,-2.50182083,2.5
 184742335\C,9.3731064775,-0.1388072846,-0.1561986164\C,10.0707990266,0
 .6367611353,-1.0782184144\C,11.4591858282,0.6110600288,-1.1623380764\C
 ,7.8850633477,-0.1182788656,-0.1058671714\C,7.1463890838,-1.2889564344
 ,-0.2563921031\C,5.755416144,-1.2904753367,-0.2398510791\C,5.058656504
 8,-0.0961158908,-0.0652323596\C,5.7836412549,1.0906247673,0.0934723061
 \C,7.1776235728,1.0856691487,0.0755502608\O,7.9326177171,2.2062144998,
 0.2372473766\C,7.2697082953,3.4274174538,0.4686480307\C,3.5712637853,-
 0.0756757373,-0.0440083625\C,2.8683660964,0.9154208335,-0.7387468978\C
 ,1.474505968,0.9431421522,-0.731018664\O,0.74022224,1.8765651694,-1.39
 48925345\C,1.4258483041,2.8838555929,-2.1018445328\C,0.7451518357,-0.0
 275599707,-0.0178793092\C,1.462146609,-1.0016466136,0.6718119576\C,2.8
 527589235,-1.0384382804,0.6625814133\C,-0.7441585374,-0.0291776455,-0.
 0205556765\C,-1.4591764704,-0.0951984759,-1.2134431544\C,-2.8496729935
 ,-0.1296671168,-1.2385812833\C,-3.5700397582,-0.0885207588,-0.04619517
 76\C,-2.8691645236,-0.016006556,1.1631434988\C,-1.475436698,0.01171275
 36,1.1821054686\O,-0.7430230436,0.0727430349,2.327131267\C,-1.43073947
 04,0.142760451,3.5546028899\C,-5.0573699875,-0.1229345545,-0.050844832
 6\C,-5.786282318,0.7360107276,0.7797365068\C,-7.1802968538,0.717250225
 4,0.7819580852\O,-7.9390017677,1.5349173922,1.5610536813\C,-7.28017666
 36,2.4188074527,2.4380546531\C,-7.8836382279,-0.1727884567,-0.05233585
 03\C,-7.1409495402,-1.0234149982,-0.86689874\C,-5.749975912,-1.0048513
 419,-0.8784476455\C,-9.3725600419,-0.1889431038,-0.0819517045\C,-10.09
 66815528,0.9625791699,-0.3787997063\C,-11.4863824167,0.9632893705,-0.4
 428788334\C,-12.196863319,-0.2106620792,-0.1978746891\C,-11.4868674478
 ,-1.3767532533,0.1094089328\C,-10.0939312348,-1.3725745355,0.167026656
 7\O,-9.3533399396,-2.4769471432,0.4530046547\C,-10.0323932439,-3.67675
 42032,0.745444317\C,-13.6832307984,-0.2367657287,-0.2568613965\C,-14.3
 551694989,0.4200727839,-1.293846074\C,-15.7473401059,0.404842551,-1.36
 73133415\O,-16.4517813644,1.0182756884,-2.3558578515\C,-15.7374256035,
 1.7421752707,-3.3314116941\C,-16.5059624568,-0.2729138444,-0.393797966
 3\C,-15.8202725252,-0.9141260762,0.6340990764\C,-14.4311373445,-0.9070
 115232,0.7098058624\C,-17.9930462566,-0.3231895618,-0.4720947812\C,-18
 .6302783946,-0.8454369326,-1.5950570926\C,-20.0181150922,-0.9287630897
 ,-1.6781648249\C,-20.7883637439,-0.4738605413,-0.6175153793\C,-20.1811
 571381,0.0594617349,0.5176222287\C,-18.7898255151,0.1363751264,0.59474
 55144\O,-18.1220581527,0.6440959462,1.6657466927\C,-18.8789386914,1.15
 10315022,2.7404429101\H,21.8666006828,-0.5515045374,-0.9502228342\H,20
 .7645596565,-1.4625579885,1.053788961\H,19.5229827719,-1.2582174696,2.
 9714176487\H,19.3991320785,-2.880916397,2.2048133201\H,18.0938873595,-
 2.294824912,3.2859998777\H,18.0358217329,0.6049510155,-2.5299319539\H,
 20.5096079445,0.4924280529,-2.7677372267\H,16.2865524756,-2.4374655562
 ,-0.3102459958\H,13.8115617008,-2.4019980054,-0.2075295744\H,13.876965
 2156,1.8773748175,-0.5563889381\H,15.3486638199,3.469141725,0.14485055
 09\H,15.241574603,3.345220551,-1.6462923355\H,16.7146556087,4.02106297
 86,-0.8779521112\H,12.0919369909,-1.6038874836,1.3212346869\H,9.352851
 8069,-2.9866919397,3.14608478\H,10.7033292306,-3.2797037722,2.00266317
 22\H,10.7846063517,-1.9066564042,3.1617053345\H,9.5001592372,1.2751469
 212,-1.7569052541\H,11.9709371907,1.2106144351,-1.9193762478\H,7.68576
 57958,-2.2284913473,-0.3979299384\H,5.2079347921,-2.2245824555,-0.3875
 7739\H,5.2370405738,2.0197577635,0.2621751386\H,8.0570285288,4.1838587
 899,0.586338024\H,6.6222769205,3.7117866091,-0.3803869308\H,6.66101465
 49,3.3951598915,1.3897639192\H,3.4317586471,1.6536794908,-1.3115350397
 \H,2.0486237582,2.4663339337,-2.9131762341\H,0.6523987167,3.528419002,
 -2.5402226324\H,2.0638636237,3.4905204519,-1.4345033767\H,0.9056689481
 ,-1.751386792,1.2391403053\H,3.3831927135,-1.8083131101,1.2283021304\H
 ,-0.901313565,-0.1139691211,-2.1526374664\H,-3.3784458419,-0.165814496
 ,-2.1942190982\H,-3.4340348538,-0.0090072043,2.0966382929\H,-2.0713998
 63,1.0407712147,3.6143042546\H,-2.0513251487,-0.7540763853,3.730653126
 9\H,-0.6586381062,0.2019815765,4.333200025\H,-5.242948594,1.4427856796
 ,1.4088655688\H,-8.0703836078,2.9581841667,2.9770456075\H,-6.651473301
 9,1.8781850337,3.1680147\H,-6.6534148801,3.1479524882,1.8939694728\H,-
 7.6770200528,-1.7275798814,-1.5075395263\H,-5.1992625008,-1.6981054956
 ,-1.5189619324\H,-9.5469387557,1.8895577875,-0.5580827975\H,-12.022033
 7366,1.8909033345,-0.6598813086\H,-12.0442624706,-2.298818602,0.280687
 3157\H,-9.2549531612,-4.4201028479,0.9663640145\H,-10.6336258294,-4.02
 87302012,-0.1118333685\H,-10.6899801941,-3.570299648,1.6264968407\H,-1
 3.7667310635,0.9265484399,-2.060310924\H,-15.0609535816,1.0912064366,-
 3.9136252413\H,-16.491345219,2.1691618485,-4.0060152419\H,-15.14937681
 23,2.5625969381,-2.8829578941\H,-16.4009807974,-1.4291760685,1.4031073
 363\H,-13.9274186816,-1.4049568764,1.5421507588\H,-18.0121780856,-1.19
 49668982,-2.4256190435\H,-20.4909830361,-1.3477920058,-2.5697671812\H,
 -21.8796978532,-0.5294140858,-0.6628654336\H,-20.8036223169,0.41532293
 91,1.3399278663\H,-18.15292906,1.5218632504,3.4761775495\H,-19.5003874
 116,0.3683124274,3.2115232152\H,-19.5298296955,1.985918671,2.424906497
 7\\Version=EM64L-G16RevA.03\State=1-A\HF=-3454.6064037\S2=0.\S2-1=0.\S
 2A=0.\RMSD=8.519e-09\RMSF=1.490e-06\Dipole=0.0298356,1.0805134,1.45091
 87\Quadrupole=5.1663299,0.2467938,-5.4131237,-4.1299392,7.4775932,-11.
 4055559\PG=C01 [X(C70H62O10)]\\@


 SOME THINGS ARE EASY, THEY ARE ONLY HARD TO DO.
            -- A. EINSTEIN TO J. O. HIRSCHFELDER
 THE ONLY TROUBLE WITH A SURE THING IS THE UNCERTAINTY.
     -- FROM A TEABAG (BELONGING TO W.H.?)
 Job cpu time:       2 days 11 hours  2 minutes 47.9 seconds.
 Elapsed time:       0 days  7 hours 29 minutes 47.2 seconds.
 File lengths (MBytes):  RWF=   2284 Int=      0 D2E=      0 Chk=    208 Scr=      8
 Normal termination of Gaussian 16 at Sat Jul 25 03:57:39 2020.
