 Entering Gaussian System, Link 0=g16
 Input=mols_55_5_06_CF-COC_opt_0.gjf
 Output=mols_55_5_06_CF-COC_opt_0.log
 Initial command:
 /opt/ohpc/pub/libs/gaussian/g16-A.03/sandybridge/g16/l1.exe "/mnt/gpfs2_4m/scratch/rdu230/ondemand/projects/dihedral_energies/7trial/wtuning/mols_55_5_06_CF-COC/Gau-78850.inp" -scrdir="/mnt/gpfs2_4m/scratch/rdu230/ondemand/projects/dihedral_energies/7trial/wtuning/mols_55_5_06_CF-COC/"
 Entering Link 1 = /opt/ohpc/pub/libs/gaussian/g16-A.03/sandybridge/g16/l1.exe PID=     78851.
  
 Copyright (c) 1988,1990,1992,1993,1995,1998,2003,2009,2016,
            Gaussian, Inc.  All Rights Reserved.
  
 This is part of the Gaussian(R) 16 program.  It is based on
 the Gaussian(R) 09 system (copyright 2009, Gaussian, Inc.),
 the Gaussian(R) 03 system (copyright 2003, Gaussian, Inc.),
 the Gaussian(R) 98 system (copyright 1998, Gaussian, Inc.),
 the Gaussian(R) 94 system (copyright 1995, Gaussian, Inc.),
 the Gaussian 92(TM) system (copyright 1992, Gaussian, Inc.),
 the Gaussian 90(TM) system (copyright 1990, Gaussian, Inc.),
 the Gaussian 88(TM) system (copyright 1988, Gaussian, Inc.),
 the Gaussian 86(TM) system (copyright 1986, Carnegie Mellon
 University), and the Gaussian 82(TM) system (copyright 1983,
 Carnegie Mellon University). Gaussian is a federally registered
 trademark of Gaussian, Inc.
  
 This software contains proprietary and confidential information,
 including trade secrets, belonging to Gaussian, Inc.
  
 This software is provided under written license and may be
 used, copied, transmitted, or stored only in accord with that
 written license.
  
 The following legend is applicable only to US Government
 contracts under FAR:
  
                    RESTRICTED RIGHTS LEGEND
  
 Use, reproduction and disclosure by the US Government is
 subject to restrictions as set forth in subparagraphs (a)
 and (c) of the Commercial Computer Software - Restricted
 Rights clause in FAR 52.227-19.
  
 Gaussian, Inc.
 340 Quinnipiac St., Bldg. 40, Wallingford CT 06492
  
  
 ---------------------------------------------------------------
 Warning -- This program may not be used in any manner that
 competes with the business of Gaussian, Inc. or will provide
 assistance to any competitor of Gaussian, Inc.  The licensee
 of this program is prohibited from giving any competitor of
 Gaussian, Inc. access to this program.  By using this program,
 the user acknowledges that Gaussian, Inc. is engaged in the
 business of creating and licensing software in the field of
 computational chemistry and represents and warrants to the
 licensee that it is not a competitor of Gaussian, Inc. and that
 it will not use this program in any manner prohibited above.
 ---------------------------------------------------------------
  

 Cite this work as:
 Gaussian 16, Revision A.03,
 M. J. Frisch, G. W. Trucks, H. B. Schlegel, G. E. Scuseria, 
 M. A. Robb, J. R. Cheeseman, G. Scalmani, V. Barone, 
 G. A. Petersson, H. Nakatsuji, X. Li, M. Caricato, A. V. Marenich, 
 J. Bloino, B. G. Janesko, R. Gomperts, B. Mennucci, H. P. Hratchian, 
 J. V. Ortiz, A. F. Izmaylov, J. L. Sonnenberg, D. Williams-Young, 
 F. Ding, F. Lipparini, F. Egidi, J. Goings, B. Peng, A. Petrone, 
 T. Henderson, D. Ranasinghe, V. G. Zakrzewski, J. Gao, N. Rega, 
 G. Zheng, W. Liang, M. Hada, M. Ehara, K. Toyota, R. Fukuda, 
 J. Hasegawa, M. Ishida, T. Nakajima, Y. Honda, O. Kitao, H. Nakai, 
 T. Vreven, K. Throssell, J. A. Montgomery, Jr., J. E. Peralta, 
 F. Ogliaro, M. J. Bearpark, J. J. Heyd, E. N. Brothers, K. N. Kudin, 
 V. N. Staroverov, T. A. Keith, R. Kobayashi, J. Normand, 
 K. Raghavachari, A. P. Rendell, J. C. Burant, S. S. Iyengar, 
 J. Tomasi, M. Cossi, J. M. Millam, M. Klene, C. Adamo, R. Cammi, 
 J. W. Ochterski, R. L. Martin, K. Morokuma, O. Farkas, 
 J. B. Foresman, and D. J. Fox, Gaussian, Inc., Wallingford CT, 2016.
 
 ******************************************
 Gaussian 16:  EM64L-G16RevA.03 25-Dec-2016
                24-Jul-2020 
 ******************************************
 %mem=30GB
 %nproc=8
 Will use up to    8 processors via shared memory.
 ---------------------------------------------------------------
 #P uLC-wPBE/cc-pVDZ iop(3/107=0212300000, 3/108=0212300000) opt
 ---------------------------------------------------------------
 1/18=20,19=15,26=3,38=1/1,3;
 2/9=110,12=2,17=6,18=5,40=1/2;
 3/5=16,11=2,25=1,30=1,71=1,74=-41,107=212300000,108=212300000,116=2/1,2,3;
 4//1;
 5/5=2,38=5/2;
 6/7=2,8=2,9=2,10=2,28=1/1;
 7//1,2,3,16;
 1/18=20,19=15,26=3/3(2);
 2/9=110/2;
 99//99;
 2/9=110/2;
 3/5=16,11=2,25=1,30=1,71=1,74=-41,107=212300000,108=212300000,116=2/1,2,3;
 4/5=5,16=3,69=1/1;
 5/5=2,38=5/2;
 7//1,2,3,16;
 1/18=20,19=15,26=3/3(-5);
 2/9=110/2;
 6/7=2,8=2,9=2,10=2,19=2,28=1/1;
 99/9=1/99;
 Leave Link    1 at Fri Jul 24 16:43:31 2020, MaxMem=  4026531840 cpu:               1.9 elap:               0.3
 (Enter /opt/ohpc/pub/libs/gaussian/g16-A.03/sandybridge/g16/l101.exe)
 -----------------
 H27 C45 S10 O5 F5
 -----------------
 Symbolic Z-matrix:
 Charge =  0 Multiplicity = 1
 C                     18.4038  -2.01481   0.02173 
 C                     18.20066  -0.94894   0.87534 
 C                     16.84893  -0.57865   0.93203 
 F                     16.41644   0.41075   1.72867 
 C                     16.03324  -1.41003   0.27703 
 S                     16.83863  -2.59753  -0.6471 
 C                     14.57107  -1.33809   0.15362 
 C                     13.62783  -2.3758    0.48996 
 O                     14.01242  -3.55312   0.86256 
 C                     13.07851  -4.49896   1.12796 
 C                     12.27566  -1.83623   0.27705 
 C                     12.21086  -0.60595  -0.12122 
 S                     13.76574   0.10508  -0.30002 
 C                     11.04554   0.19189  -0.36226 
 C                     10.8982   1.3947   -1.07175 
 C                     9.55945   1.88022  -1.1948 
 F                     9.23834   2.99955  -1.83099 
 C                     8.6678    1.14826  -0.44388 
 S                     9.4697   -0.28245   0.29046 
 C                     7.24304   1.3672   -0.22574 
 C                     6.5966    2.49248   0.13095 
 O                     7.35512   3.56632   0.4793 
 C                     6.72033   4.71096   0.87888 
 C                     5.23936   2.40309   0.20708 
 C                     4.80934   1.1293   -0.26065 
 S                     6.14221   0.08637  -0.60137 
 C                     3.39436   0.71522  -0.33763 
 C                     2.98211  -0.57069  -0.8313 
 C                     1.57232  -0.63979  -0.87931 
 F                     0.90114  -1.70336  -1.31224 
 C                     0.85093   0.5317   -0.41283 
 S                     2.10547   1.68511   0.08744 
 C                    -0.54079   0.74881  -0.3148 
 C                    -1.24898   1.97309  -0.61691 
 O                    -0.49258   3.10586  -0.9626 
 C                    -1.28309   4.30619  -1.03553 
 C                    -2.6642    1.83598  -0.41979 
 C                    -3.04494   0.53578  -0.06893 
 S                    -1.59657  -0.42339   0.07349 
 C                    -4.31112  -0.00801   0.11367 
 C                    -4.74653  -1.28601   0.53315 
 C                    -6.07322  -1.37145   0.69174 
 F                    -6.67305  -2.57145   1.02811 
 C                    -6.80428  -0.19938   0.39967 
 S                    -5.68755   1.03111  -0.06809 
 C                    -8.25124   0.01578   0.3897 
 C                    -9.00177   1.13657   0.77417 
 O                    -8.29486   2.19706   1.21118 
 C                    -9.21263   3.29453   1.56896 
 C                    -10.40407   0.85657   0.62028 
 C                    -10.71639  -0.42828   0.21322 
 S                    -9.32332  -1.26074  -0.05357 
 C                    -12.03898  -0.98335   0.1089 
 C                    -12.40374  -2.32699   0.11434 
 C                    -13.80943  -2.40917  -0.07235 
 F                    -14.42643  -3.659     0.02653 
 C                    -14.50231  -1.27532  -0.24377 
 S                    -13.3753   0.05366  -0.17682 
 C                    -15.89741  -1.07673  -0.36512 
 C                    -16.77557  -0.21587   0.22034 
 O                    -16.28179   0.70362   1.22199 
 C                    -17.16963   1.65329   1.6439 
 C                    -18.1424  -0.29229  -0.17367 
 C                    -18.28037  -1.29172  -1.11299 
 S                    -16.78773  -2.15108  -1.46733 
 H                     19.27937  -2.52185  -0.34956 
 H                     19.00233  -0.4676    1.33027 
 H                     12.39296  -4.21831   1.98826 
 H                     12.39453  -4.71783   0.19582 
 H                     13.48026  -5.45142   1.3533 
 H                     11.43661  -2.47262   0.45857 
 H                     11.72346   1.87863  -1.67503 
 H                     6.0489    5.06555   0.01108 
 H                     7.41697   5.5158    1.11595 
 H                     6.08145   4.53371   1.75415 
 H                     4.5167    3.20782   0.41665 
 H                     3.57564  -1.3899   -1.16041 
 H                    -0.59603   5.08131  -1.2582 
 H                    -1.77241   4.47719   0.02372 
 H                    -2.02979   4.2237   -1.75101 
 H                    -3.29277   2.62657  -0.61029 
 H                    -3.98557  -2.07257   0.72264 
 H                    -8.47818   4.15262   1.89043 
 H                    -9.77205   3.05692   2.37891 
 H                    -9.75495   3.6212    0.6723 
 H                    -11.15167   1.67724   0.91887 
 H                    -11.757   -3.09426   0.23705 
 H                    -18.03731   1.14562   2.19963 
 H                    -16.70578   2.34552   2.32108 
 H                    -17.63891   2.29329   0.84903 
 H                    -18.96931   0.28088   0.1609 
 H                    -19.17156  -1.62616  -1.60073 
 
 ITRead=  0  0  0  0  0  0  0  0  0  0  0  0  0  0  0  0  0  0  0  0
 ITRead=  0  0  0  0  0  0  0  0  0  0  0  0  0  0  0  0  0  0  0  0
 ITRead=  0  0  0  0  0  0  0  0  0  0  0  0  0  0  0  0  0  0  0  0
 ITRead=  0  0  0  0  0  0  0  0  0  0  0  0  0  0  0  0  0  0  0  0
 ITRead=  0  0  0  0  0  0  0  0  0  0  0  0
 MicOpt= -1 -1 -1 -1 -1 -1 -1 -1 -1 -1 -1 -1 -1 -1 -1 -1 -1 -1 -1 -1
 MicOpt= -1 -1 -1 -1 -1 -1 -1 -1 -1 -1 -1 -1 -1 -1 -1 -1 -1 -1 -1 -1
 MicOpt= -1 -1 -1 -1 -1 -1 -1 -1 -1 -1 -1 -1 -1 -1 -1 -1 -1 -1 -1 -1
 MicOpt= -1 -1 -1 -1 -1 -1 -1 -1 -1 -1 -1 -1 -1 -1 -1 -1 -1 -1 -1 -1
 MicOpt= -1 -1 -1 -1 -1 -1 -1 -1 -1 -1 -1 -1
 NAtoms=     92 NQM=       92 NQMF=       0 NMMI=      0 NMMIF=      0
                NMic=       0 NMicF=      0.
                    Isotopes and Nuclear Properties:
 (Nuclear quadrupole moments (NQMom) in fm**2, nuclear magnetic moments (NMagM)
  in nuclear magnetons)

  Atom         1           2           3           4           5           6           7           8           9          10
 IAtWgt=          12          12          12          19          12          32          12          12          16          12
 AtmWgt=  12.0000000  12.0000000  12.0000000  18.9984033  12.0000000  31.9720718  12.0000000  12.0000000  15.9949146  12.0000000
 NucSpn=           0           0           0           1           0           0           0           0           0           0
 AtZEff=  -0.0000000  -0.0000000  -0.0000000  -0.0000000  -0.0000000  -0.0000000  -0.0000000  -0.0000000  -0.0000000  -0.0000000
 NQMom=    0.0000000   0.0000000   0.0000000   0.0000000   0.0000000   0.0000000   0.0000000   0.0000000   0.0000000   0.0000000
 NMagM=    0.0000000   0.0000000   0.0000000   2.6288670   0.0000000   0.0000000   0.0000000   0.0000000   0.0000000   0.0000000
 AtZNuc=   6.0000000   6.0000000   6.0000000   9.0000000   6.0000000  16.0000000   6.0000000   6.0000000   8.0000000   6.0000000

  Atom        11          12          13          14          15          16          17          18          19          20
 IAtWgt=          12          12          32          12          12          12          19          12          32          12
 AtmWgt=  12.0000000  12.0000000  31.9720718  12.0000000  12.0000000  12.0000000  18.9984033  12.0000000  31.9720718  12.0000000
 NucSpn=           0           0           0           0           0           0           1           0           0           0
 AtZEff=  -0.0000000  -0.0000000  -0.0000000  -0.0000000  -0.0000000  -0.0000000  -0.0000000  -0.0000000  -0.0000000  -0.0000000
 NQMom=    0.0000000   0.0000000   0.0000000   0.0000000   0.0000000   0.0000000   0.0000000   0.0000000   0.0000000   0.0000000
 NMagM=    0.0000000   0.0000000   0.0000000   0.0000000   0.0000000   0.0000000   2.6288670   0.0000000   0.0000000   0.0000000
 AtZNuc=   6.0000000   6.0000000  16.0000000   6.0000000   6.0000000   6.0000000   9.0000000   6.0000000  16.0000000   6.0000000

  Atom        21          22          23          24          25          26          27          28          29          30
 IAtWgt=          12          16          12          12          12          32          12          12          12          19
 AtmWgt=  12.0000000  15.9949146  12.0000000  12.0000000  12.0000000  31.9720718  12.0000000  12.0000000  12.0000000  18.9984033
 NucSpn=           0           0           0           0           0           0           0           0           0           1
 AtZEff=  -0.0000000  -0.0000000  -0.0000000  -0.0000000  -0.0000000  -0.0000000  -0.0000000  -0.0000000  -0.0000000  -0.0000000
 NQMom=    0.0000000   0.0000000   0.0000000   0.0000000   0.0000000   0.0000000   0.0000000   0.0000000   0.0000000   0.0000000
 NMagM=    0.0000000   0.0000000   0.0000000   0.0000000   0.0000000   0.0000000   0.0000000   0.0000000   0.0000000   2.6288670
 AtZNuc=   6.0000000   8.0000000   6.0000000   6.0000000   6.0000000  16.0000000   6.0000000   6.0000000   6.0000000   9.0000000

  Atom        31          32          33          34          35          36          37          38          39          40
 IAtWgt=          12          32          12          12          16          12          12          12          32          12
 AtmWgt=  12.0000000  31.9720718  12.0000000  12.0000000  15.9949146  12.0000000  12.0000000  12.0000000  31.9720718  12.0000000
 NucSpn=           0           0           0           0           0           0           0           0           0           0
 AtZEff=  -0.0000000  -0.0000000  -0.0000000  -0.0000000  -0.0000000  -0.0000000  -0.0000000  -0.0000000  -0.0000000  -0.0000000
 NQMom=    0.0000000   0.0000000   0.0000000   0.0000000   0.0000000   0.0000000   0.0000000   0.0000000   0.0000000   0.0000000
 NMagM=    0.0000000   0.0000000   0.0000000   0.0000000   0.0000000   0.0000000   0.0000000   0.0000000   0.0000000   0.0000000
 AtZNuc=   6.0000000  16.0000000   6.0000000   6.0000000   8.0000000   6.0000000   6.0000000   6.0000000  16.0000000   6.0000000

  Atom        41          42          43          44          45          46          47          48          49          50
 IAtWgt=          12          12          19          12          32          12          12          16          12          12
 AtmWgt=  12.0000000  12.0000000  18.9984033  12.0000000  31.9720718  12.0000000  12.0000000  15.9949146  12.0000000  12.0000000
 NucSpn=           0           0           1           0           0           0           0           0           0           0
 AtZEff=  -0.0000000  -0.0000000  -0.0000000  -0.0000000  -0.0000000  -0.0000000  -0.0000000  -0.0000000  -0.0000000  -0.0000000
 NQMom=    0.0000000   0.0000000   0.0000000   0.0000000   0.0000000   0.0000000   0.0000000   0.0000000   0.0000000   0.0000000
 NMagM=    0.0000000   0.0000000   2.6288670   0.0000000   0.0000000   0.0000000   0.0000000   0.0000000   0.0000000   0.0000000
 AtZNuc=   6.0000000   6.0000000   9.0000000   6.0000000  16.0000000   6.0000000   6.0000000   8.0000000   6.0000000   6.0000000

  Atom        51          52          53          54          55          56          57          58          59          60
 IAtWgt=          12          32          12          12          12          19          12          32          12          12
 AtmWgt=  12.0000000  31.9720718  12.0000000  12.0000000  12.0000000  18.9984033  12.0000000  31.9720718  12.0000000  12.0000000
 NucSpn=           0           0           0           0           0           1           0           0           0           0
 AtZEff=  -0.0000000  -0.0000000  -0.0000000  -0.0000000  -0.0000000  -0.0000000  -0.0000000  -0.0000000  -0.0000000  -0.0000000
 NQMom=    0.0000000   0.0000000   0.0000000   0.0000000   0.0000000   0.0000000   0.0000000   0.0000000   0.0000000   0.0000000
 NMagM=    0.0000000   0.0000000   0.0000000   0.0000000   0.0000000   2.6288670   0.0000000   0.0000000   0.0000000   0.0000000
 AtZNuc=   6.0000000  16.0000000   6.0000000   6.0000000   6.0000000   9.0000000   6.0000000  16.0000000   6.0000000   6.0000000

  Atom        61          62          63          64          65          66          67          68          69          70
 IAtWgt=          16          12          12          12          32           1           1           1           1           1
 AtmWgt=  15.9949146  12.0000000  12.0000000  12.0000000  31.9720718   1.0078250   1.0078250   1.0078250   1.0078250   1.0078250
 NucSpn=           0           0           0           0           0           1           1           1           1           1
 AtZEff=  -0.0000000  -0.0000000  -0.0000000  -0.0000000  -0.0000000  -0.0000000  -0.0000000  -0.0000000  -0.0000000  -0.0000000
 NQMom=    0.0000000   0.0000000   0.0000000   0.0000000   0.0000000   0.0000000   0.0000000   0.0000000   0.0000000   0.0000000
 NMagM=    0.0000000   0.0000000   0.0000000   0.0000000   0.0000000   2.7928460   2.7928460   2.7928460   2.7928460   2.7928460
 AtZNuc=   8.0000000   6.0000000   6.0000000   6.0000000  16.0000000   1.0000000   1.0000000   1.0000000   1.0000000   1.0000000

  Atom        71          72          73          74          75          76          77          78          79          80
 IAtWgt=           1           1           1           1           1           1           1           1           1           1
 AtmWgt=   1.0078250   1.0078250   1.0078250   1.0078250   1.0078250   1.0078250   1.0078250   1.0078250   1.0078250   1.0078250
 NucSpn=           1           1           1           1           1           1           1           1           1           1
 AtZEff=  -0.0000000  -0.0000000  -0.0000000  -0.0000000  -0.0000000  -0.0000000  -0.0000000  -0.0000000  -0.0000000  -0.0000000
 NQMom=    0.0000000   0.0000000   0.0000000   0.0000000   0.0000000   0.0000000   0.0000000   0.0000000   0.0000000   0.0000000
 NMagM=    2.7928460   2.7928460   2.7928460   2.7928460   2.7928460   2.7928460   2.7928460   2.7928460   2.7928460   2.7928460
 AtZNuc=   1.0000000   1.0000000   1.0000000   1.0000000   1.0000000   1.0000000   1.0000000   1.0000000   1.0000000   1.0000000

  Atom        81          82          83          84          85          86          87          88          89          90
 IAtWgt=           1           1           1           1           1           1           1           1           1           1
 AtmWgt=   1.0078250   1.0078250   1.0078250   1.0078250   1.0078250   1.0078250   1.0078250   1.0078250   1.0078250   1.0078250
 NucSpn=           1           1           1           1           1           1           1           1           1           1
 AtZEff=  -0.0000000  -0.0000000  -0.0000000  -0.0000000  -0.0000000  -0.0000000  -0.0000000  -0.0000000  -0.0000000  -0.0000000
 NQMom=    0.0000000   0.0000000   0.0000000   0.0000000   0.0000000   0.0000000   0.0000000   0.0000000   0.0000000   0.0000000
 NMagM=    2.7928460   2.7928460   2.7928460   2.7928460   2.7928460   2.7928460   2.7928460   2.7928460   2.7928460   2.7928460
 AtZNuc=   1.0000000   1.0000000   1.0000000   1.0000000   1.0000000   1.0000000   1.0000000   1.0000000   1.0000000   1.0000000

  Atom        91          92
 IAtWgt=           1           1
 AtmWgt=   1.0078250   1.0078250
 NucSpn=           1           1
 AtZEff=  -0.0000000  -0.0000000
 NQMom=    0.0000000   0.0000000
 NMagM=    2.7928460   2.7928460
 AtZNuc=   1.0000000   1.0000000
 Leave Link  101 at Fri Jul 24 16:43:31 2020, MaxMem=  4026531840 cpu:               2.5 elap:               0.4
 (Enter /opt/ohpc/pub/libs/gaussian/g16-A.03/sandybridge/g16/l103.exe)

 GradGradGradGradGradGradGradGradGradGradGradGradGradGradGradGradGradGrad
 Berny optimization.
 Initialization pass.
                           ----------------------------
                           !    Initial Parameters    !
                           ! (Angstroms and Degrees)  !
 --------------------------                            --------------------------
 ! Name  Definition              Value          Derivative Info.                !
 --------------------------------------------------------------------------------
 ! R1    R(1,2)                  1.3806         estimate D2E/DX2                !
 ! R2    R(1,6)                  1.7991         estimate D2E/DX2                !
 ! R3    R(1,66)                 1.0778         estimate D2E/DX2                !
 ! R4    R(2,3)                  1.4027         estimate D2E/DX2                !
 ! R5    R(2,67)                 1.0399         estimate D2E/DX2                !
 ! R6    R(3,4)                  1.3419         estimate D2E/DX2                !
 ! R7    R(3,5)                  1.3363         estimate D2E/DX2                !
 ! R8    R(5,6)                  1.7067         estimate D2E/DX2                !
 ! R9    R(5,7)                  1.4691         estimate D2E/DX2                !
 ! R10   R(7,8)                  1.4421         estimate D2E/DX2                !
 ! R11   R(7,13)                 1.7138         estimate D2E/DX2                !
 ! R12   R(8,9)                  1.2934         estimate D2E/DX2                !
 ! R13   R(8,11)                 1.4713         estimate D2E/DX2                !
 ! R14   R(9,10)                 1.3554         estimate D2E/DX2                !
 ! R15   R(10,68)                1.1353         estimate D2E/DX2                !
 ! R16   R(10,69)                1.1767         estimate D2E/DX2                !
 ! R17   R(10,70)                1.058          estimate D2E/DX2                !
 ! R18   R(11,12)                1.2948         estimate D2E/DX2                !
 ! R19   R(11,71)                1.0686         estimate D2E/DX2                !
 ! R20   R(12,13)                1.7191         estimate D2E/DX2                !
 ! R21   R(12,14)                1.4327         estimate D2E/DX2                !
 ! R22   R(14,15)                1.4042         estimate D2E/DX2                !
 ! R23   R(14,19)                1.7704         estimate D2E/DX2                !
 ! R24   R(15,16)                1.4294         estimate D2E/DX2                !
 ! R25   R(15,72)                1.131          estimate D2E/DX2                !
 ! R26   R(16,17)                1.3269         estimate D2E/DX2                !
 ! R27   R(16,18)                1.3765         estimate D2E/DX2                !
 ! R28   R(18,19)                1.797          estimate D2E/DX2                !
 ! R29   R(18,20)                1.4579         estimate D2E/DX2                !
 ! R30   R(20,21)                1.3459         estimate D2E/DX2                !
 ! R31   R(20,26)                1.7302         estimate D2E/DX2                !
 ! R32   R(21,22)                1.3601         estimate D2E/DX2                !
 ! R33   R(21,24)                1.3623         estimate D2E/DX2                !
 ! R34   R(22,23)                1.3685         estimate D2E/DX2                !
 ! R35   R(23,73)                1.1531         estimate D2E/DX2                !
 ! R36   R(23,74)                1.0905         estimate D2E/DX2                !
 ! R37   R(23,75)                1.098          estimate D2E/DX2                !
 ! R38   R(24,25)                1.4235         estimate D2E/DX2                !
 ! R39   R(24,76)                1.1017         estimate D2E/DX2                !
 ! R40   R(25,26)                1.7264         estimate D2E/DX2                !
 ! R41   R(25,27)                1.4763         estimate D2E/DX2                !
 ! R42   R(27,28)                1.4378         estimate D2E/DX2                !
 ! R43   R(27,32)                1.6681         estimate D2E/DX2                !
 ! R44   R(28,29)                1.4123         estimate D2E/DX2                !
 ! R45   R(28,77)                1.0638         estimate D2E/DX2                !
 ! R46   R(29,30)                1.3301         estimate D2E/DX2                !
 ! R47   R(29,31)                1.4527         estimate D2E/DX2                !
 ! R48   R(31,32)                1.7761         estimate D2E/DX2                !
 ! R49   R(31,33)                1.412          estimate D2E/DX2                !
 ! R50   R(33,34)                1.4463         estimate D2E/DX2                !
 ! R51   R(33,39)                1.6246         estimate D2E/DX2                !
 ! R52   R(34,35)                1.4053         estimate D2E/DX2                !
 ! R53   R(34,37)                1.4354         estimate D2E/DX2                !
 ! R54   R(35,36)                1.4391         estimate D2E/DX2                !
 ! R55   R(36,78)                1.0595         estimate D2E/DX2                !
 ! R56   R(36,79)                1.1793         estimate D2E/DX2                !
 ! R57   R(36,80)                1.0374         estimate D2E/DX2                !
 ! R58   R(37,38)                1.3995         estimate D2E/DX2                !
 ! R59   R(37,81)                1.0278         estimate D2E/DX2                !
 ! R60   R(38,39)                1.743          estimate D2E/DX2                !
 ! R61   R(38,40)                1.3901         estimate D2E/DX2                !
 ! R62   R(40,41)                1.4138         estimate D2E/DX2                !
 ! R63   R(40,45)                1.7342         estimate D2E/DX2                !
 ! R64   R(41,42)                1.3389         estimate D2E/DX2                !
 ! R65   R(41,82)                1.1107         estimate D2E/DX2                !
 ! R66   R(42,43)                1.3831         estimate D2E/DX2                !
 ! R67   R(42,44)                1.4119         estimate D2E/DX2                !
 ! R68   R(44,45)                1.7263         estimate D2E/DX2                !
 ! R69   R(44,46)                1.4629         estimate D2E/DX2                !
 ! R70   R(46,47)                1.4026         estimate D2E/DX2                !
 ! R71   R(46,52)                1.7249         estimate D2E/DX2                !
 ! R72   R(47,48)                1.3474         estimate D2E/DX2                !
 ! R73   R(47,50)                1.4382         estimate D2E/DX2                !
 ! R74   R(48,49)                1.4747         estimate D2E/DX2                !
 ! R75   R(49,83)                1.1743         estimate D2E/DX2                !
 ! R76   R(49,84)                1.0126         estimate D2E/DX2                !
 ! R77   R(49,85)                1.0976         estimate D2E/DX2                !
 ! R78   R(50,51)                1.3835         estimate D2E/DX2                !
 ! R79   R(50,86)                1.1496         estimate D2E/DX2                !
 ! R80   R(51,52)                1.6446         estimate D2E/DX2                !
 ! R81   R(51,53)                1.4381         estimate D2E/DX2                !
 ! R82   R(53,54)                1.3923         estimate D2E/DX2                !
 ! R83   R(53,58)                1.7155         estimate D2E/DX2                !
 ! R84   R(54,55)                1.4204         estimate D2E/DX2                !
 ! R85   R(54,87)                1.011          estimate D2E/DX2                !
 ! R86   R(55,56)                1.3973         estimate D2E/DX2                !
 ! R87   R(55,57)                1.3398         estimate D2E/DX2                !
 ! R88   R(57,58)                1.7438         estimate D2E/DX2                !
 ! R89   R(57,59)                1.4144         estimate D2E/DX2                !
 ! R90   R(59,60)                1.362          estimate D2E/DX2                !
 ! R91   R(59,65)                1.7781         estimate D2E/DX2                !
 ! R92   R(60,61)                1.4466         estimate D2E/DX2                !
 ! R93   R(60,63)                1.4245         estimate D2E/DX2                !
 ! R94   R(61,62)                1.3668         estimate D2E/DX2                !
 ! R95   R(62,88)                1.1487         estimate D2E/DX2                !
 ! R96   R(62,89)                1.0737         estimate D2E/DX2                !
 ! R97   R(62,90)                1.1232         estimate D2E/DX2                !
 ! R98   R(63,64)                1.3785         estimate D2E/DX2                !
 ! R99   R(63,91)                1.0603         estimate D2E/DX2                !
 ! R100  R(64,65)                1.7584         estimate D2E/DX2                !
 ! R101  R(64,92)                1.0696         estimate D2E/DX2                !
 ! A1    A(2,1,6)              110.6041         estimate D2E/DX2                !
 ! A2    A(2,1,66)             134.088          estimate D2E/DX2                !
 ! A3    A(6,1,66)             115.2343         estimate D2E/DX2                !
 ! A4    A(1,2,3)              111.7527         estimate D2E/DX2                !
 ! A5    A(1,2,67)             120.9588         estimate D2E/DX2                !
 ! A6    A(3,2,67)             127.0895         estimate D2E/DX2                !
 ! A7    A(2,3,4)              121.9539         estimate D2E/DX2                !
 ! A8    A(2,3,5)              113.8413         estimate D2E/DX2                !
 ! A9    A(4,3,5)              123.5741         estimate D2E/DX2                !
 ! A10   A(3,5,6)              114.2209         estimate D2E/DX2                !
 ! A11   A(3,5,7)              128.1881         estimate D2E/DX2                !
 ! A12   A(6,5,7)              117.2744         estimate D2E/DX2                !
 ! A13   A(1,6,5)               89.0765         estimate D2E/DX2                !
 ! A14   A(5,7,8)              126.5943         estimate D2E/DX2                !
 ! A15   A(5,7,13)             122.0835         estimate D2E/DX2                !
 ! A16   A(8,7,13)             111.1206         estimate D2E/DX2                !
 ! A17   A(7,8,9)              121.8507         estimate D2E/DX2                !
 ! A18   A(7,8,11)             107.6657         estimate D2E/DX2                !
 ! A19   A(9,8,11)             130.4492         estimate D2E/DX2                !
 ! A20   A(8,9,10)             119.1253         estimate D2E/DX2                !
 ! A21   A(9,10,68)            113.0748         estimate D2E/DX2                !
 ! A22   A(9,10,69)            112.0355         estimate D2E/DX2                !
 ! A23   A(9,10,70)            114.0965         estimate D2E/DX2                !
 ! A24   A(68,10,69)           107.1733         estimate D2E/DX2                !
 ! A25   A(68,10,70)           106.885          estimate D2E/DX2                !
 ! A26   A(69,10,70)           102.8266         estimate D2E/DX2                !
 ! A27   A(8,11,12)            116.038          estimate D2E/DX2                !
 ! A28   A(8,11,71)            118.5944         estimate D2E/DX2                !
 ! A29   A(12,11,71)           125.3676         estimate D2E/DX2                !
 ! A30   A(11,12,13)           112.3175         estimate D2E/DX2                !
 ! A31   A(11,12,14)           128.4337         estimate D2E/DX2                !
 ! A32   A(13,12,14)           119.1999         estimate D2E/DX2                !
 ! A33   A(7,13,12)             92.82           estimate D2E/DX2                !
 ! A34   A(12,14,15)           130.3426         estimate D2E/DX2                !
 ! A35   A(12,14,19)           120.8475         estimate D2E/DX2                !
 ! A36   A(15,14,19)           108.8071         estimate D2E/DX2                !
 ! A37   A(14,15,16)           115.6407         estimate D2E/DX2                !
 ! A38   A(14,15,72)           124.017          estimate D2E/DX2                !
 ! A39   A(16,15,72)           119.4817         estimate D2E/DX2                !
 ! A40   A(15,16,17)           123.6735         estimate D2E/DX2                !
 ! A41   A(15,16,18)           112.2786         estimate D2E/DX2                !
 ! A42   A(17,16,18)           123.5982         estimate D2E/DX2                !
 ! A43   A(16,18,19)           110.9307         estimate D2E/DX2                !
 ! A44   A(16,18,20)           129.4063         estimate D2E/DX2                !
 ! A45   A(19,18,20)           119.6385         estimate D2E/DX2                !
 ! A46   A(14,19,18)            91.9041         estimate D2E/DX2                !
 ! A47   A(18,20,21)           129.3915         estimate D2E/DX2                !
 ! A48   A(18,20,26)           118.5637         estimate D2E/DX2                !
 ! A49   A(21,20,26)           111.7709         estimate D2E/DX2                !
 ! A50   A(20,21,22)           117.3961         estimate D2E/DX2                !
 ! A51   A(20,21,24)           116.0066         estimate D2E/DX2                !
 ! A52   A(22,21,24)           126.3787         estimate D2E/DX2                !
 ! A53   A(21,22,23)           118.4553         estimate D2E/DX2                !
 ! A54   A(22,23,73)           107.9123         estimate D2E/DX2                !
 ! A55   A(22,23,74)           112.6097         estimate D2E/DX2                !
 ! A56   A(22,23,75)           111.5687         estimate D2E/DX2                !
 ! A57   A(73,23,74)           107.9757         estimate D2E/DX2                !
 ! A58   A(73,23,75)           108.1039         estimate D2E/DX2                !
 ! A59   A(74,23,75)           108.5142         estimate D2E/DX2                !
 ! A60   A(21,24,25)           109.9582         estimate D2E/DX2                !
 ! A61   A(21,24,76)           128.0396         estimate D2E/DX2                !
 ! A62   A(25,24,76)           121.1971         estimate D2E/DX2                !
 ! A63   A(24,25,26)           111.8517         estimate D2E/DX2                !
 ! A64   A(24,25,27)           123.8948         estimate D2E/DX2                !
 ! A65   A(26,25,27)           124.073          estimate D2E/DX2                !
 ! A66   A(20,26,25)            90.0664         estimate D2E/DX2                !
 ! A67   A(25,27,28)           122.9268         estimate D2E/DX2                !
 ! A68   A(25,27,32)           124.346          estimate D2E/DX2                !
 ! A69   A(28,27,32)           112.7033         estimate D2E/DX2                !
 ! A70   A(27,28,29)           109.9774         estimate D2E/DX2                !
 ! A71   A(27,28,77)           129.4186         estimate D2E/DX2                !
 ! A72   A(29,28,77)           120.5798         estimate D2E/DX2                !
 ! A73   A(28,29,30)           123.6361         estimate D2E/DX2                !
 ! A74   A(28,29,31)           116.4442         estimate D2E/DX2                !
 ! A75   A(30,29,31)           119.9182         estimate D2E/DX2                !
 ! A76   A(29,31,32)           105.2705         estimate D2E/DX2                !
 ! A77   A(29,31,33)           129.4758         estimate D2E/DX2                !
 ! A78   A(32,31,33)           125.2268         estimate D2E/DX2                !
 ! A79   A(27,32,31)            95.5327         estimate D2E/DX2                !
 ! A80   A(31,33,34)           126.7485         estimate D2E/DX2                !
 ! A81   A(31,33,39)           123.106          estimate D2E/DX2                !
 ! A82   A(34,33,39)           110.0283         estimate D2E/DX2                !
 ! A83   A(33,34,35)           118.046          estimate D2E/DX2                !
 ! A84   A(33,34,37)           111.9146         estimate D2E/DX2                !
 ! A85   A(35,34,37)           129.9            estimate D2E/DX2                !
 ! A86   A(34,35,36)           112.9006         estimate D2E/DX2                !
 ! A87   A(35,36,78)           105.3468         estimate D2E/DX2                !
 ! A88   A(35,36,79)           107.6593         estimate D2E/DX2                !
 ! A89   A(35,36,80)           111.3454         estimate D2E/DX2                !
 ! A90   A(78,36,79)           110.5966         estimate D2E/DX2                !
 ! A91   A(78,36,80)           112.333          estimate D2E/DX2                !
 ! A92   A(79,36,80)           109.4108         estimate D2E/DX2                !
 ! A93   A(34,37,38)           113.0412         estimate D2E/DX2                !
 ! A94   A(34,37,81)           120.2661         estimate D2E/DX2                !
 ! A95   A(38,37,81)           126.4912         estimate D2E/DX2                !
 ! A96   A(37,38,39)           107.7984         estimate D2E/DX2                !
 ! A97   A(37,38,40)           130.1047         estimate D2E/DX2                !
 ! A98   A(39,38,40)           122.0664         estimate D2E/DX2                !
 ! A99   A(33,39,38)            97.09           estimate D2E/DX2                !
 ! A100  A(38,40,41)           132.3082         estimate D2E/DX2                !
 ! A101  A(38,40,45)           118.3466         estimate D2E/DX2                !
 ! A102  A(41,40,45)           109.1661         estimate D2E/DX2                !
 ! A103  A(40,41,42)           113.453          estimate D2E/DX2                !
 ! A104  A(40,41,82)           118.6708         estimate D2E/DX2                !
 ! A105  A(42,41,82)           127.8422         estimate D2E/DX2                !
 ! A106  A(41,42,43)           120.9253         estimate D2E/DX2                !
 ! A107  A(41,42,44)           115.8231         estimate D2E/DX2                !
 ! A108  A(43,42,44)           123.0924         estimate D2E/DX2                !
 ! A109  A(42,44,45)           108.2293         estimate D2E/DX2                !
 ! A110  A(42,44,46)           129.4673         estimate D2E/DX2                !
 ! A111  A(45,44,46)           122.2198         estimate D2E/DX2                !
 ! A112  A(40,45,44)            93.3215         estimate D2E/DX2                !
 ! A113  A(44,46,47)           130.1604         estimate D2E/DX2                !
 ! A114  A(44,46,52)           120.5081         estimate D2E/DX2                !
 ! A115  A(47,46,52)           109.2212         estimate D2E/DX2                !
 ! A116  A(46,47,48)           115.9193         estimate D2E/DX2                !
 ! A117  A(46,47,50)           109.6844         estimate D2E/DX2                !
 ! A118  A(48,47,50)           134.3867         estimate D2E/DX2                !
 ! A119  A(47,48,49)           109.7501         estimate D2E/DX2                !
 ! A120  A(48,49,83)           102.7666         estimate D2E/DX2                !
 ! A121  A(48,49,84)           111.2988         estimate D2E/DX2                !
 ! A122  A(48,49,85)           109.3161         estimate D2E/DX2                !
 ! A123  A(83,49,84)           107.3375         estimate D2E/DX2                !
 ! A124  A(83,49,85)           108.3702         estimate D2E/DX2                !
 ! A125  A(84,49,85)           116.7616         estimate D2E/DX2                !
 ! A126  A(47,50,51)           115.6193         estimate D2E/DX2                !
 ! A127  A(47,50,86)           117.8595         estimate D2E/DX2                !
 ! A128  A(51,50,86)           126.3403         estimate D2E/DX2                !
 ! A129  A(50,51,52)           109.0616         estimate D2E/DX2                !
 ! A130  A(50,51,53)           125.9729         estimate D2E/DX2                !
 ! A131  A(52,51,53)           124.8795         estimate D2E/DX2                !
 ! A132  A(46,52,51)            96.3257         estimate D2E/DX2                !
 ! A133  A(51,53,54)           127.8167         estimate D2E/DX2                !
 ! A134  A(51,53,58)           119.6809         estimate D2E/DX2                !
 ! A135  A(54,53,58)           112.3308         estimate D2E/DX2                !
 ! A136  A(53,54,55)           108.3362         estimate D2E/DX2                !
 ! A137  A(53,54,87)           124.4239         estimate D2E/DX2                !
 ! A138  A(55,54,87)           127.2393         estimate D2E/DX2                !
 ! A139  A(54,55,56)           118.6481         estimate D2E/DX2                !
 ! A140  A(54,55,57)           118.6623         estimate D2E/DX2                !
 ! A141  A(56,55,57)           122.5234         estimate D2E/DX2                !
 ! A142  A(55,57,58)           107.8073         estimate D2E/DX2                !
 ! A143  A(55,57,59)           129.7845         estimate D2E/DX2                !
 ! A144  A(58,57,59)           122.261          estimate D2E/DX2                !
 ! A145  A(53,58,57)            92.8172         estimate D2E/DX2                !
 ! A146  A(57,59,60)           133.4595         estimate D2E/DX2                !
 ! A147  A(57,59,65)           117.5312         estimate D2E/DX2                !
 ! A148  A(60,59,65)           108.9963         estimate D2E/DX2                !
 ! A149  A(59,60,61)           118.6406         estimate D2E/DX2                !
 ! A150  A(59,60,63)           117.7652         estimate D2E/DX2                !
 ! A151  A(61,60,63)           123.5821         estimate D2E/DX2                !
 ! A152  A(60,61,62)           115.6999         estimate D2E/DX2                !
 ! A153  A(61,62,88)           109.4469         estimate D2E/DX2                !
 ! A154  A(61,62,89)           111.2234         estimate D2E/DX2                !
 ! A155  A(61,62,90)           116.6691         estimate D2E/DX2                !
 ! A156  A(88,62,89)           107.8265         estimate D2E/DX2                !
 ! A157  A(88,62,90)           106.1769         estimate D2E/DX2                !
 ! A158  A(89,62,90)           105.0379         estimate D2E/DX2                !
 ! A159  A(60,63,64)           108.8685         estimate D2E/DX2                !
 ! A160  A(60,63,91)           129.1988         estimate D2E/DX2                !
 ! A161  A(64,63,91)           121.9303         estimate D2E/DX2                !
 ! A162  A(63,64,65)           113.9964         estimate D2E/DX2                !
 ! A163  A(63,64,92)           128.3779         estimate D2E/DX2                !
 ! A164  A(65,64,92)           117.5536         estimate D2E/DX2                !
 ! A165  A(59,65,64)            90.2771         estimate D2E/DX2                !
 ! D1    D(6,1,2,3)             -2.8856         estimate D2E/DX2                !
 ! D2    D(6,1,2,67)          -178.1081         estimate D2E/DX2                !
 ! D3    D(66,1,2,3)           173.7468         estimate D2E/DX2                !
 ! D4    D(66,1,2,67)           -1.4757         estimate D2E/DX2                !
 ! D5    D(2,1,6,5)             -1.1085         estimate D2E/DX2                !
 ! D6    D(66,1,6,5)          -178.435          estimate D2E/DX2                !
 ! D7    D(1,2,3,4)            178.0913         estimate D2E/DX2                !
 ! D8    D(1,2,3,5)              6.8926         estimate D2E/DX2                !
 ! D9    D(67,2,3,4)            -7.0456         estimate D2E/DX2                !
 ! D10   D(67,2,3,5)          -178.2443         estimate D2E/DX2                !
 ! D11   D(2,3,5,6)             -7.9432         estimate D2E/DX2                !
 ! D12   D(2,3,5,7)            178.7627         estimate D2E/DX2                !
 ! D13   D(4,3,5,6)           -178.979          estimate D2E/DX2                !
 ! D14   D(4,3,5,7)              7.7269         estimate D2E/DX2                !
 ! D15   D(3,5,6,1)              5.1243         estimate D2E/DX2                !
 ! D16   D(7,5,6,1)            179.1973         estimate D2E/DX2                !
 ! D17   D(3,5,7,8)           -125.2361         estimate D2E/DX2                !
 ! D18   D(3,5,7,13)            49.1351         estimate D2E/DX2                !
 ! D19   D(6,5,7,8)             61.6452         estimate D2E/DX2                !
 ! D20   D(6,5,7,13)          -123.9836         estimate D2E/DX2                !
 ! D21   D(5,7,8,9)             -5.0761         estimate D2E/DX2                !
 ! D22   D(5,7,8,11)           176.8487         estimate D2E/DX2                !
 ! D23   D(13,7,8,9)          -179.965          estimate D2E/DX2                !
 ! D24   D(13,7,8,11)            1.9598         estimate D2E/DX2                !
 ! D25   D(5,7,13,12)         -176.993          estimate D2E/DX2                !
 ! D26   D(8,7,13,12)           -1.8357         estimate D2E/DX2                !
 ! D27   D(7,8,9,10)          -178.0806         estimate D2E/DX2                !
 ! D28   D(11,8,9,10)           -0.4908         estimate D2E/DX2                !
 ! D29   D(7,8,11,12)           -1.1598         estimate D2E/DX2                !
 ! D30   D(7,8,11,71)          178.8817         estimate D2E/DX2                !
 ! D31   D(9,8,11,12)         -179.0113         estimate D2E/DX2                !
 ! D32   D(9,8,11,71)            1.0302         estimate D2E/DX2                !
 ! D33   D(8,9,10,68)          -62.0201         estimate D2E/DX2                !
 ! D34   D(8,9,10,69)           59.2224         estimate D2E/DX2                !
 ! D35   D(8,9,10,70)          175.5422         estimate D2E/DX2                !
 ! D36   D(8,11,12,13)          -0.1845         estimate D2E/DX2                !
 ! D37   D(8,11,12,14)        -177.5855         estimate D2E/DX2                !
 ! D38   D(71,11,12,13)        179.7708         estimate D2E/DX2                !
 ! D39   D(71,11,12,14)          2.3698         estimate D2E/DX2                !
 ! D40   D(11,12,13,7)           1.181          estimate D2E/DX2                !
 ! D41   D(14,12,13,7)         178.8488         estimate D2E/DX2                !
 ! D42   D(11,12,14,15)       -163.405          estimate D2E/DX2                !
 ! D43   D(11,12,14,19)         17.2751         estimate D2E/DX2                !
 ! D44   D(13,12,14,15)         19.3495         estimate D2E/DX2                !
 ! D45   D(13,12,14,19)       -159.9704         estimate D2E/DX2                !
 ! D46   D(12,14,15,16)        175.8348         estimate D2E/DX2                !
 ! D47   D(12,14,15,72)          6.5453         estimate D2E/DX2                !
 ! D48   D(19,14,15,16)         -4.782          estimate D2E/DX2                !
 ! D49   D(19,14,15,72)       -174.0715         estimate D2E/DX2                !
 ! D50   D(12,14,19,18)       -179.6568         estimate D2E/DX2                !
 ! D51   D(15,14,19,18)          0.8908         estimate D2E/DX2                !
 ! D52   D(14,15,16,17)        179.9747         estimate D2E/DX2                !
 ! D53   D(14,15,16,18)          7.4367         estimate D2E/DX2                !
 ! D54   D(72,15,16,17)        -10.2179         estimate D2E/DX2                !
 ! D55   D(72,15,16,18)        177.2442         estimate D2E/DX2                !
 ! D56   D(15,16,18,19)         -6.3436         estimate D2E/DX2                !
 ! D57   D(15,16,18,20)        175.4923         estimate D2E/DX2                !
 ! D58   D(17,16,18,19)       -178.8882         estimate D2E/DX2                !
 ! D59   D(17,16,18,20)          2.9478         estimate D2E/DX2                !
 ! D60   D(16,18,19,14)          3.1752         estimate D2E/DX2                !
 ! D61   D(20,18,19,14)       -178.4569         estimate D2E/DX2                !
 ! D62   D(16,18,20,21)        -49.0004         estimate D2E/DX2                !
 ! D63   D(16,18,20,26)        124.4461         estimate D2E/DX2                !
 ! D64   D(19,18,20,21)        132.9725         estimate D2E/DX2                !
 ! D65   D(19,18,20,26)        -53.581          estimate D2E/DX2                !
 ! D66   D(18,20,21,22)         -7.5895         estimate D2E/DX2                !
 ! D67   D(18,20,21,24)        177.4362         estimate D2E/DX2                !
 ! D68   D(26,20,21,22)        178.607          estimate D2E/DX2                !
 ! D69   D(26,20,21,24)          3.6327         estimate D2E/DX2                !
 ! D70   D(18,20,26,25)       -174.4865         estimate D2E/DX2                !
 ! D71   D(21,20,26,25)          0.0635         estimate D2E/DX2                !
 ! D72   D(20,21,22,23)       -178.3389         estimate D2E/DX2                !
 ! D73   D(24,21,22,23)         -3.9508         estimate D2E/DX2                !
 ! D74   D(20,21,24,25)         -6.1958         estimate D2E/DX2                !
 ! D75   D(20,21,24,76)       -175.8789         estimate D2E/DX2                !
 ! D76   D(22,21,24,25)        179.3479         estimate D2E/DX2                !
 ! D77   D(22,21,24,76)          9.6647         estimate D2E/DX2                !
 ! D78   D(21,22,23,73)        -59.7655         estimate D2E/DX2                !
 ! D79   D(21,22,23,74)       -178.84           estimate D2E/DX2                !
 ! D80   D(21,22,23,75)         58.85           estimate D2E/DX2                !
 ! D81   D(21,24,25,26)          5.9991         estimate D2E/DX2                !
 ! D82   D(21,24,25,27)       -178.715          estimate D2E/DX2                !
 ! D83   D(76,24,25,26)        176.508          estimate D2E/DX2                !
 ! D84   D(76,24,25,27)         -8.2062         estimate D2E/DX2                !
 ! D85   D(24,25,26,20)         -3.4749         estimate D2E/DX2                !
 ! D86   D(27,25,26,20)       -178.7509         estimate D2E/DX2                !
 ! D87   D(24,25,27,28)        179.1069         estimate D2E/DX2                !
 ! D88   D(24,25,27,32)          1.0152         estimate D2E/DX2                !
 ! D89   D(26,25,27,28)         -6.1769         estimate D2E/DX2                !
 ! D90   D(26,25,27,32)        175.7314         estimate D2E/DX2                !
 ! D91   D(25,27,28,29)       -175.5928         estimate D2E/DX2                !
 ! D92   D(25,27,28,77)          2.5895         estimate D2E/DX2                !
 ! D93   D(32,27,28,29)          2.6993         estimate D2E/DX2                !
 ! D94   D(32,27,28,77)       -179.1184         estimate D2E/DX2                !
 ! D95   D(25,27,32,31)        175.6518         estimate D2E/DX2                !
 ! D96   D(28,27,32,31)         -2.612          estimate D2E/DX2                !
 ! D97   D(27,28,29,30)        179.0566         estimate D2E/DX2                !
 ! D98   D(27,28,29,31)         -1.3894         estimate D2E/DX2                !
 ! D99   D(77,28,29,30)          0.6876         estimate D2E/DX2                !
 ! D100  D(77,28,29,31)       -179.7584         estimate D2E/DX2                !
 ! D101  D(28,29,31,32)         -0.4107         estimate D2E/DX2                !
 ! D102  D(28,29,31,33)       -178.5709         estimate D2E/DX2                !
 ! D103  D(30,29,31,32)        179.1609         estimate D2E/DX2                !
 ! D104  D(30,29,31,33)          1.0008         estimate D2E/DX2                !
 ! D105  D(29,31,32,27)          1.7012         estimate D2E/DX2                !
 ! D106  D(33,31,32,27)        179.9627         estimate D2E/DX2                !
 ! D107  D(29,31,33,34)       -140.6611         estimate D2E/DX2                !
 ! D108  D(29,31,33,39)         35.0038         estimate D2E/DX2                !
 ! D109  D(32,31,33,34)         41.5118         estimate D2E/DX2                !
 ! D110  D(32,31,33,39)       -142.8232         estimate D2E/DX2                !
 ! D111  D(31,33,34,35)         -4.5068         estimate D2E/DX2                !
 ! D112  D(31,33,34,37)        179.3611         estimate D2E/DX2                !
 ! D113  D(39,33,34,35)        179.3574         estimate D2E/DX2                !
 ! D114  D(39,33,34,37)          3.2254         estimate D2E/DX2                !
 ! D115  D(31,33,39,38)       -177.681          estimate D2E/DX2                !
 ! D116  D(34,33,39,38)         -1.3772         estimate D2E/DX2                !
 ! D117  D(33,34,35,36)       -170.8512         estimate D2E/DX2                !
 ! D118  D(37,34,35,36)          4.4697         estimate D2E/DX2                !
 ! D119  D(33,34,37,38)         -3.9658         estimate D2E/DX2                !
 ! D120  D(33,34,37,81)       -179.1341         estimate D2E/DX2                !
 ! D121  D(35,34,37,38)       -179.5149         estimate D2E/DX2                !
 ! D122  D(35,34,37,81)          5.3168         estimate D2E/DX2                !
 ! D123  D(34,35,36,78)        177.5505         estimate D2E/DX2                !
 ! D124  D(34,35,36,79)         59.5027         estimate D2E/DX2                !
 ! D125  D(34,35,36,80)        -60.4229         estimate D2E/DX2                !
 ! D126  D(34,37,38,39)          2.8377         estimate D2E/DX2                !
 ! D127  D(34,37,38,40)       -175.1452         estimate D2E/DX2                !
 ! D128  D(81,37,38,39)        177.646          estimate D2E/DX2                !
 ! D129  D(81,37,38,40)         -0.3368         estimate D2E/DX2                !
 ! D130  D(37,38,39,33)         -0.8259         estimate D2E/DX2                !
 ! D131  D(40,38,39,33)        177.3535         estimate D2E/DX2                !
 ! D132  D(37,38,40,41)       -176.1471         estimate D2E/DX2                !
 ! D133  D(37,38,40,45)         -1.6052         estimate D2E/DX2                !
 ! D134  D(39,38,40,41)          6.1194         estimate D2E/DX2                !
 ! D135  D(39,38,40,45)       -179.3387         estimate D2E/DX2                !
 ! D136  D(38,40,41,42)        174.4219         estimate D2E/DX2                !
 ! D137  D(38,40,41,82)         -3.6221         estimate D2E/DX2                !
 ! D138  D(45,40,41,42)         -0.4936         estimate D2E/DX2                !
 ! D139  D(45,40,41,82)       -178.5376         estimate D2E/DX2                !
 ! D140  D(38,40,45,44)       -175.7398         estimate D2E/DX2                !
 ! D141  D(41,40,45,44)         -0.0107         estimate D2E/DX2                !
 ! D142  D(40,41,42,43)        176.4596         estimate D2E/DX2                !
 ! D143  D(40,41,42,44)          0.9071         estimate D2E/DX2                !
 ! D144  D(82,41,42,43)         -5.7137         estimate D2E/DX2                !
 ! D145  D(82,41,42,44)        178.7338         estimate D2E/DX2                !
 ! D146  D(41,42,44,45)         -0.8741         estimate D2E/DX2                !
 ! D147  D(41,42,44,46)        175.8022         estimate D2E/DX2                !
 ! D148  D(43,42,44,45)       -176.32           estimate D2E/DX2                !
 ! D149  D(43,42,44,46)          0.3564         estimate D2E/DX2                !
 ! D150  D(42,44,45,40)          0.4699         estimate D2E/DX2                !
 ! D151  D(46,44,45,40)       -176.4975         estimate D2E/DX2                !
 ! D152  D(42,44,46,47)        143.4182         estimate D2E/DX2                !
 ! D153  D(42,44,46,52)        -32.3228         estimate D2E/DX2                !
 ! D154  D(45,44,46,47)        -40.3138         estimate D2E/DX2                !
 ! D155  D(45,44,46,52)        143.9453         estimate D2E/DX2                !
 ! D156  D(44,46,47,48)          0.7878         estimate D2E/DX2                !
 ! D157  D(44,46,47,50)       -178.2507         estimate D2E/DX2                !
 ! D158  D(52,46,47,48)        176.9023         estimate D2E/DX2                !
 ! D159  D(52,46,47,50)         -2.1362         estimate D2E/DX2                !
 ! D160  D(44,46,52,51)        177.0984         estimate D2E/DX2                !
 ! D161  D(47,46,52,51)          0.5444         estimate D2E/DX2                !
 ! D162  D(46,47,48,49)        179.6436         estimate D2E/DX2                !
 ! D163  D(50,47,48,49)         -1.6233         estimate D2E/DX2                !
 ! D164  D(46,47,50,51)          3.2915         estimate D2E/DX2                !
 ! D165  D(46,47,50,86)        178.7161         estimate D2E/DX2                !
 ! D166  D(48,47,50,51)       -175.4984         estimate D2E/DX2                !
 ! D167  D(48,47,50,86)         -0.0737         estimate D2E/DX2                !
 ! D168  D(47,48,49,83)       -178.0607         estimate D2E/DX2                !
 ! D169  D(47,48,49,84)         67.3388         estimate D2E/DX2                !
 ! D170  D(47,48,49,85)        -63.1099         estimate D2E/DX2                !
 ! D171  D(47,50,51,52)         -2.8538         estimate D2E/DX2                !
 ! D172  D(47,50,51,53)        173.8951         estimate D2E/DX2                !
 ! D173  D(86,50,51,52)       -177.8309         estimate D2E/DX2                !
 ! D174  D(86,50,51,53)         -1.0821         estimate D2E/DX2                !
 ! D175  D(50,51,52,46)          1.2843         estimate D2E/DX2                !
 ! D176  D(53,51,52,46)       -175.5084         estimate D2E/DX2                !
 ! D177  D(50,51,53,54)       -158.316          estimate D2E/DX2                !
 ! D178  D(50,51,53,58)         26.8338         estimate D2E/DX2                !
 ! D179  D(52,51,53,54)         17.9375         estimate D2E/DX2                !
 ! D180  D(52,51,53,58)       -156.9126         estimate D2E/DX2                !
 ! D181  D(51,53,54,55)       -177.41           estimate D2E/DX2                !
 ! D182  D(51,53,54,87)          2.8633         estimate D2E/DX2                !
 ! D183  D(58,53,54,55)         -2.2461         estimate D2E/DX2                !
 ! D184  D(58,53,54,87)        178.0271         estimate D2E/DX2                !
 ! D185  D(51,53,58,57)        177.5784         estimate D2E/DX2                !
 ! D186  D(54,53,58,57)          1.9749         estimate D2E/DX2                !
 ! D187  D(53,54,55,56)       -173.9113         estimate D2E/DX2                !
 ! D188  D(53,54,55,57)          1.5227         estimate D2E/DX2                !
 ! D189  D(87,54,55,56)          5.8056         estimate D2E/DX2                !
 ! D190  D(87,54,55,57)       -178.7604         estimate D2E/DX2                !
 ! D191  D(54,55,57,58)         -0.0914         estimate D2E/DX2                !
 ! D192  D(54,55,57,59)       -175.6776         estimate D2E/DX2                !
 ! D193  D(56,55,57,58)        175.1559         estimate D2E/DX2                !
 ! D194  D(56,55,57,59)         -0.4303         estimate D2E/DX2                !
 ! D195  D(55,57,58,53)         -1.0537         estimate D2E/DX2                !
 ! D196  D(59,57,58,53)        174.936          estimate D2E/DX2                !
 ! D197  D(55,57,59,60)        131.9941         estimate D2E/DX2                !
 ! D198  D(55,57,59,65)        -46.5253         estimate D2E/DX2                !
 ! D199  D(58,57,59,60)        -43.0351         estimate D2E/DX2                !
 ! D200  D(58,57,59,65)        138.4455         estimate D2E/DX2                !
 ! D201  D(57,59,60,61)         -2.2697         estimate D2E/DX2                !
 ! D202  D(57,59,60,63)        178.9522         estimate D2E/DX2                !
 ! D203  D(65,59,60,61)        176.3417         estimate D2E/DX2                !
 ! D204  D(65,59,60,63)         -2.4364         estimate D2E/DX2                !
 ! D205  D(57,59,65,64)       -178.3411         estimate D2E/DX2                !
 ! D206  D(60,59,65,64)          2.7955         estimate D2E/DX2                !
 ! D207  D(59,60,61,62)        171.8412         estimate D2E/DX2                !
 ! D208  D(63,60,61,62)         -9.4567         estimate D2E/DX2                !
 ! D209  D(59,60,63,64)          0.4584         estimate D2E/DX2                !
 ! D210  D(59,60,63,91)        179.8933         estimate D2E/DX2                !
 ! D211  D(61,60,63,64)       -178.2544         estimate D2E/DX2                !
 ! D212  D(61,60,63,91)          1.1806         estimate D2E/DX2                !
 ! D213  D(60,61,62,88)         65.8107         estimate D2E/DX2                !
 ! D214  D(60,61,62,89)       -175.1511         estimate D2E/DX2                !
 ! D215  D(60,61,62,90)        -54.7184         estimate D2E/DX2                !
 ! D216  D(60,63,64,65)          1.8361         estimate D2E/DX2                !
 ! D217  D(60,63,64,92)        178.6386         estimate D2E/DX2                !
 ! D218  D(91,63,64,65)       -177.6479         estimate D2E/DX2                !
 ! D219  D(91,63,64,92)         -0.8454         estimate D2E/DX2                !
 ! D220  D(63,64,65,59)         -2.7255         estimate D2E/DX2                !
 ! D221  D(92,64,65,59)       -179.8985         estimate D2E/DX2                !
 --------------------------------------------------------------------------------
 Trust Radius=3.00D-01 FncErr=1.00D-07 GrdErr=1.00D-06 EigMax=2.50D+02 EigMin=1.00D-04
 Number of steps in this run=    497 maximum allowed number of steps=    552.
 GradGradGradGradGradGradGradGradGradGradGradGradGradGradGradGradGradGrad

 Leave Link  103 at Fri Jul 24 16:43:31 2020, MaxMem=  4026531840 cpu:               0.2 elap:               0.0
 (Enter /opt/ohpc/pub/libs/gaussian/g16-A.03/sandybridge/g16/l202.exe)
 Stoichiometry    C45H27F5O5S10
 Framework group  C1[X(C45H27F5O5S10)]
 Deg. of freedom   270
 Full point group                 C1      NOp   1
 Largest Abelian subgroup         C1      NOp   1
 Largest concise Abelian subgroup C1      NOp   1
                         Standard orientation:                         
 ---------------------------------------------------------------------
 Center     Atomic      Atomic             Coordinates (Angstroms)
 Number     Number       Type             X           Y           Z
 ---------------------------------------------------------------------
      1          6           0       18.398106   -2.007346    0.025570
      2          6           0       18.194388   -0.941213    0.878727
      3          6           0       16.842485   -0.571527    0.935143
      4          9           0       16.409470    0.417996    1.731343
      5          6           0       16.027237   -1.403553    0.280409
      6         16           0       16.833257   -2.591058   -0.643166
      7          6           0       14.565044   -1.332338    0.156847
      8          6           0       13.622254   -2.370347    0.493527
      9          8           0       14.007359   -3.547341    0.866639
     10          6           0       13.073868   -4.493506    1.132342
     11          6           0       12.269860   -1.831491    0.280279
     12          6           0       12.204521   -0.601401   -0.118502
     13         16           0       13.759086    0.110275   -0.297454
     14          6           0       11.038857    0.195801   -0.359966
     15          6           0       10.891019    1.398245   -1.069962
     16          6           0        9.552057    1.883099   -1.193331
     17          9           0        9.230481    3.002023   -1.830006
     18          6           0        8.660682    1.151030   -0.442182
     19         16           0        9.463182   -0.279005    0.292810
     20          6           0        7.235801    1.369405   -0.224263
     21          6           0        6.588808    2.494530    0.131911
     22          8           0        7.346802    3.568867    0.479893
     23          6           0        6.711449    4.713373    0.878950
     24          6           0        5.231605    2.404539    0.207959
     25          6           0        4.802208    1.130363   -0.259281
     26         16           0        6.135599    0.087907   -0.599460
     27          6           0        3.387434    0.715598   -0.336220
     28          6           0        2.975822   -0.570708   -0.829395
     29          6           0        1.566069   -0.640479   -0.877509
     30          9           0        0.895416   -1.704534   -1.310053
     31          6           0        0.844089    0.530873   -0.411571
     32         16           0        2.098050    1.685062    0.088343
     33          6           0       -0.547739    0.747373   -0.313744
     34          6           0       -1.256464    1.971208   -0.616418
     35          8           0       -0.500555    3.104183   -0.962506
     36          6           0       -1.291613    4.304120   -1.035992
     37          6           0       -2.671634    1.833524   -0.419368
     38          6           0       -3.051809    0.533287   -0.068010
     39         16           0       -1.603010   -0.425154    0.074931
     40          6           0       -4.317756   -0.011010    0.114699
     41          6           0       -4.752604   -1.289039    0.534667
     42          6           0       -6.079273   -1.375027    0.693173
     43          9           0       -6.678580   -2.575166    1.029986
     44          6           0       -6.810844   -0.203418    0.400568
     45         16           0       -5.694648    1.027396   -0.067605
     46          6           0       -8.257904    0.011067    0.390380
     47          6           0       -9.008993    1.131663    0.774322
     48          8           0       -8.302605    2.192661    1.210964
     49          6           0       -9.220917    3.289852    1.568213
     50          6           0      -10.411141    0.850956    0.620428
     51          6           0      -10.722838   -0.434200    0.213869
     52         16           0       -9.329353   -1.266129   -0.052465
     53          6           0      -12.045156   -0.989925    0.109652
     54          6           0      -12.409295   -2.333735    0.115611
     55          6           0      -13.814933   -2.416640   -0.071159
     56          9           0      -14.431365   -3.666714    0.028175
     57          6           0      -14.508326   -1.283184   -0.243104
     58         16           0      -13.381937    0.046343   -0.176603
     59          6           0      -15.903503   -1.085293   -0.364657
     60          6           0      -16.782115   -0.224599    0.220368
     61          8           0      -16.288846    0.695529    1.221687
     62          6           0      -17.177169    1.644966    1.643135
     63          6           0      -18.148877   -0.301808   -0.173729
     64          6           0      -18.286303   -1.301687   -1.112646
     65         16           0      -16.793231   -2.160500   -1.466510
     66          1           0       19.273940   -2.514131   -0.345438
     67          1           0       18.995800   -0.459318    1.333525
     68          1           0       12.388105   -4.212816    1.992468
     69          1           0       12.390072   -4.713066    0.200234
     70          1           0       13.476035   -5.445689    1.358109
     71          1           0       11.431086   -2.468197    0.461990
     72          1           0       11.716111    1.882309   -1.673366
     73          1           0        6.039927    5.067300    0.010943
     74          1           0        7.407692    5.518631    1.115745
     75          1           0        6.072568    4.536182    1.754236
     76          1           0        4.508553    3.209024    0.417135
     77          1           0        3.569754   -1.389774   -1.158122
     78          1           0       -0.604898    5.079467   -1.258918
     79          1           0       -1.781114    4.475321    0.023138
     80          1           0       -2.038220    4.220986   -1.751509
     81          1           0       -3.300554    2.623741   -0.610246
     82          1           0       -3.991300   -2.075172    0.724547
     83          1           0       -8.486896    4.148419    1.889403
     84          1           0       -9.780294    3.052312    2.378212
     85          1           0       -9.763305    3.615907    0.671376
     86          1           0      -11.159154    1.671400    0.918612
     87          1           0      -11.762212   -3.100652    0.238692
     88          1           0      -18.044663    1.137117    2.198992
     89          1           0      -16.713696    2.337688    2.320072
     90          1           0      -17.646673    2.284422    0.847961
     91          1           0      -18.976076    0.271116    0.160536
     92          1           0      -19.177288   -1.636735   -1.600335
 ---------------------------------------------------------------------
 Rotational constants (GHZ):           0.1118563           0.0039075           0.0038116
 Leave Link  202 at Fri Jul 24 16:43:32 2020, MaxMem=  4026531840 cpu:               0.1 elap:               0.0
 (Enter /opt/ohpc/pub/libs/gaussian/g16-A.03/sandybridge/g16/l301.exe)
 Standard basis: CC-pVDZ (5D, 7F)
 Ernie: Thresh=  0.10000D-02 Tol=  0.10000D-05 Strict=F.
 Ernie:  210 primitive shells out of 1845 were deleted.
 There are  1150 symmetry adapted cartesian basis functions of A   symmetry.
 There are  1085 symmetry adapted basis functions of A   symmetry.
  1085 basis functions,  2714 primitive gaussians,  1150 cartesian basis functions
   271 alpha electrons      271 beta electrons
       nuclear repulsion energy     10211.2635438504 Hartrees.
 IExCor=32609 DFT=T Ex+Corr=LC-wPBE ExCW=0 ScaHFX=  1.000000
 ScaDFX=  1.000000  0.000000  1.000000  1.000000 ScalE2=  1.000000  1.000000
 IRadAn=      5 IRanWt=     -1 IRanGd=            0 ICorTp=0 IEmpDi=  4
 HFx  wShort=  0.000000 wLong=  0.212300 cFull=  0.000000 cShort=  0.000000 cLong=  1.000000
 DFx  wShort=  0.000000 wLong=  0.212300 cFull=  0.000000 cShort=  0.000000 cLong=  1.000000
 NAtoms=   92 NActive=   92 NUniq=   92 SFac= 1.00D+00 NAtFMM=   60 NAOKFM=T Big=T
 Integral buffers will be    131072 words long.
 Raffenetti 2 integral format.
 Two-electron integral symmetry is turned on.
 Leave Link  301 at Fri Jul 24 16:43:32 2020, MaxMem=  4026531840 cpu:               0.5 elap:               0.1
 (Enter /opt/ohpc/pub/libs/gaussian/g16-A.03/sandybridge/g16/l302.exe)
 NPDir=0 NMtPBC=     1 NCelOv=     1 NCel=       1 NClECP=     1 NCelD=      1
         NCelK=      1 NCelE2=     1 NClLst=     1 CellRange=     0.0.
 One-electron integrals computed using PRISM.
 One-electron integral symmetry used in STVInt
 NBasis=  1085 RedAO= T EigKep=  2.93D-04  NBF=  1085
 NBsUse=  1085 1.00D-06 EigRej= -1.00D+00 NBFU=  1085
 Precomputing XC quadrature grid using
 IXCGrd= 4 IRadAn=           5 IRanWt=          -1 IRanGd=           0 AccXCQ= 0.00D+00.
 Generated NRdTot=       0 NPtTot=           0 NUsed=           0 NTot=          32
 NSgBfM=   710   710   710   710   710 MxSgAt=    92 MxSgA2=    85.
 Leave Link  302 at Fri Jul 24 16:43:36 2020, MaxMem=  4026531840 cpu:              32.8 elap:               4.1
 (Enter /opt/ohpc/pub/libs/gaussian/g16-A.03/sandybridge/g16/l303.exe)
 DipDrv:  MaxL=1.
 Leave Link  303 at Fri Jul 24 16:43:36 2020, MaxMem=  4026531840 cpu:               2.0 elap:               0.3
 (Enter /opt/ohpc/pub/libs/gaussian/g16-A.03/sandybridge/g16/l401.exe)
 ExpMin= 1.22D-01 ExpMax= 1.11D+05 ExpMxC= 1.07D+03 IAcc=3 IRadAn=         5 AccDes= 0.00D+00
 Harris functional with IExCor=32609 and IRadAn=       5 diagonalized for initial guess.
 HarFok:  IExCor=32609 AccDes= 0.00D+00 IRadAn=         5 IDoV= 1 UseB2=F ITyADJ=14
 ICtDFT=  3500011 ScaDFX=  1.000000  1.000000  1.000000  1.000000
 FoFCou: FMM=F IPFlag=           0 FMFlag=      100000 FMFlg1=        2001
         NFxFlg=           0 DoJE=T BraDBF=F KetDBF=T FulRan=T
         wScrn=  0.000000 ICntrl=       500 IOpCl=  0 I1Cent=   200000004 NGrid=           0
         NMat0=    1 NMatS0=      1 NMatT0=    0 NMatD0=    1 NMtDS0=    0 NMtDT0=    0
 Petite list used in FoFCou.
 Harris En= -6584.24922141558    
 JPrj=0 DoOrth=F DoCkMO=F.
 Initial guess <Sx>= 0.0000 <Sy>= 0.0000 <Sz>= 0.0000 <S**2>=-0.0000 S=-0.0000
 Leave Link  401 at Fri Jul 24 16:43:48 2020, MaxMem=  4026531840 cpu:              97.6 elap:              12.3
 (Enter /opt/ohpc/pub/libs/gaussian/g16-A.03/sandybridge/g16/l502.exe)
 Integral symmetry usage will be decided dynamically.
 UHF open shell SCF:
 Using DIIS extrapolation, IDIIS=  1040.
 NGot=  4026531840 LenX=  4023866140 LenY=  4022542490
 Requested convergence on RMS density matrix=1.00D-08 within 128 cycles.
 Requested convergence on MAX density matrix=1.00D-06.
 Requested convergence on             energy=1.00D-06.
 No special actions if energy rises.
 Fock matrices will be formed incrementally for  20 cycles.
 Integral accuracy reduced to 1.0D-05 until final iterations.

 Cycle   1  Pass 0  IDiag  1:
 FoFJK:  IHMeth= 1 ICntrl=       0 DoSepK=T KAlg= 0 I1Cent=           0 FoldK=F
 IRaf=         1 NMat=       1 IRICut=       1 DoRegI=T DoRafI=F ISym2E= 0 IDoP0=0 IntGTp=1.
 FoFCou: FMM=T IPFlag=           0 FMFlag=      100000 FMFlg1=        2001
         NFxFlg=           0 DoJE=T BraDBF=F KetDBF=F FulRan=T
         wScrn=  0.000000 ICntrl=       500 IOpCl=  0 I1Cent=           0 NGrid=           0
         NMat0=    1 NMatS0=      1 NMatT0=    0 NMatD0=    1 NMtDS0=    0 NMtDT0=    0
 Symmetry not used in FoFCou.
 FMM levels:  10  Number of levels for PrismC:   9
 E= -6583.22124429148    
 DIIS: error= 1.68D-02 at cycle   1 NSaved=   1.
 NSaved= 1 IEnMin= 1 EnMin= -6583.22124429148     IErMin= 1 ErrMin= 1.68D-02
 ErrMax= 1.68D-02  0.00D+00 EMaxC= 1.00D-01 BMatC= 4.97D+00 BMatP= 4.97D+00
 IDIUse=3 WtCom= 8.32D-01 WtEn= 1.68D-01
 Coeff-Com:  0.100D+01
 Coeff-En:   0.100D+01
 Coeff:      0.100D+01
 Gap=     0.145 Goal=   None    Shift=    0.000
 Gap=     0.145 Goal=   None    Shift=    0.000
 GapD=    0.145 DampG=1.000 DampE=0.500 DampFc=0.5000 IDamp=-1.
 Damping current iteration by 5.00D-01
 RMSDP=2.32D-03 MaxDP=1.49D-01              OVMax= 2.42D-01

 Cycle   2  Pass 0  IDiag  1:
 RMSU=  1.16D-03    CP:  9.93D-01
 E= -6583.90087325264     Delta-E=       -0.679628961156 Rises=F Damp=T
 DIIS: error= 2.78D-03 at cycle   2 NSaved=   2.
 NSaved= 2 IEnMin= 2 EnMin= -6583.90087325264     IErMin= 2 ErrMin= 2.78D-03
 ErrMax= 2.78D-03  0.00D+00 EMaxC= 1.00D-01 BMatC= 1.54D-01 BMatP= 4.97D+00
 IDIUse=3 WtCom= 9.72D-01 WtEn= 2.78D-02
 Coeff-Com:  0.309D-01 0.969D+00
 Coeff-En:   0.303D-01 0.970D+00
 Coeff:      0.309D-01 0.969D+00
 Gap=     0.190 Goal=   None    Shift=    0.000
 Gap=     0.190 Goal=   None    Shift=    0.000
 RMSDP=5.04D-04 MaxDP=2.51D-02 DE=-6.80D-01 OVMax= 1.32D-01

 Cycle   3  Pass 0  IDiag  1:
 RMSU=  5.02D-04    CP:  9.92D-01  1.03D+00
 E= -6584.62523702814     Delta-E=       -0.724363775502 Rises=F Damp=F
 DIIS: error= 1.68D-03 at cycle   3 NSaved=   3.
 NSaved= 3 IEnMin= 3 EnMin= -6584.62523702814     IErMin= 3 ErrMin= 1.68D-03
 ErrMax= 1.68D-03  0.00D+00 EMaxC= 1.00D-01 BMatC= 4.91D-02 BMatP= 1.54D-01
 IDIUse=3 WtCom= 9.83D-01 WtEn= 1.68D-02
 Coeff-Com:  0.703D-02 0.311D+00 0.682D+00
 Coeff-En:   0.000D+00 0.000D+00 0.100D+01
 Coeff:      0.691D-02 0.306D+00 0.687D+00
 Gap=     0.190 Goal=   None    Shift=    0.000
 Gap=     0.190 Goal=   None    Shift=    0.000
 RMSDP=1.76D-04 MaxDP=1.38D-02 DE=-7.24D-01 OVMax= 2.55D-02

 Cycle   4  Pass 0  IDiag  1:
 RMSU=  1.56D-04    CP:  9.91D-01  1.06D+00  8.50D-01
 E= -6584.63398377255     Delta-E=       -0.008746744410 Rises=F Damp=F
 DIIS: error= 1.09D-03 at cycle   4 NSaved=   4.
 NSaved= 4 IEnMin= 4 EnMin= -6584.63398377255     IErMin= 4 ErrMin= 1.09D-03
 ErrMax= 1.09D-03  0.00D+00 EMaxC= 1.00D-01 BMatC= 2.09D-02 BMatP= 4.91D-02
 IDIUse=3 WtCom= 9.89D-01 WtEn= 1.09D-02
 Coeff-Com:  0.749D-02 0.281D-01 0.382D+00 0.582D+00
 Coeff-En:   0.000D+00 0.000D+00 0.241D+00 0.759D+00
 Coeff:      0.741D-02 0.278D-01 0.381D+00 0.584D+00
 Gap=     0.191 Goal=   None    Shift=    0.000
 Gap=     0.191 Goal=   None    Shift=    0.000
 RMSDP=8.44D-05 MaxDP=6.59D-03 DE=-8.75D-03 OVMax= 1.34D-02

 Cycle   5  Pass 0  IDiag  1:
 RMSU=  6.09D-05    CP:  9.91D-01  1.05D+00  9.38D-01  7.63D-01
 E= -6584.63939288454     Delta-E=       -0.005409111989 Rises=F Damp=F
 DIIS: error= 3.94D-04 at cycle   5 NSaved=   5.
 NSaved= 5 IEnMin= 5 EnMin= -6584.63939288454     IErMin= 5 ErrMin= 3.94D-04
 ErrMax= 3.94D-04  0.00D+00 EMaxC= 1.00D-01 BMatC= 1.77D-03 BMatP= 2.09D-02
 IDIUse=3 WtCom= 9.96D-01 WtEn= 3.94D-03
 Coeff-Com:  0.622D-02-0.299D-01 0.885D-01 0.255D+00 0.680D+00
 Coeff-En:   0.000D+00 0.000D+00 0.000D+00 0.000D+00 0.100D+01
 Coeff:      0.619D-02-0.298D-01 0.882D-01 0.254D+00 0.681D+00
 Gap=     0.193 Goal=   None    Shift=    0.000
 Gap=     0.193 Goal=   None    Shift=    0.000
 RMSDP=3.32D-05 MaxDP=2.65D-03 DE=-5.41D-03 OVMax= 5.70D-03

 Cycle   6  Pass 0  IDiag  1:
 RMSU=  2.61D-05    CP:  9.91D-01  1.05D+00  9.60D-01  8.73D-01  9.69D-01
 E= -6584.63996986964     Delta-E=       -0.000576985098 Rises=F Damp=F
 DIIS: error= 1.90D-04 at cycle   6 NSaved=   6.
 NSaved= 6 IEnMin= 6 EnMin= -6584.63996986964     IErMin= 6 ErrMin= 1.90D-04
 ErrMax= 1.90D-04  0.00D+00 EMaxC= 1.00D-01 BMatC= 4.92D-04 BMatP= 1.77D-03
 IDIUse=3 WtCom= 9.98D-01 WtEn= 1.90D-03
 Coeff-Com:  0.324D-02-0.261D-01-0.264D-01 0.246D-01 0.380D+00 0.645D+00
 Coeff-En:   0.000D+00 0.000D+00 0.000D+00 0.000D+00 0.000D+00 0.100D+01
 Coeff:      0.323D-02-0.260D-01-0.263D-01 0.246D-01 0.379D+00 0.646D+00
 Gap=     0.194 Goal=   None    Shift=    0.000
 Gap=     0.194 Goal=   None    Shift=    0.000
 RMSDP=1.88D-05 MaxDP=1.09D-03 DE=-5.77D-04 OVMax= 3.17D-03

 Cycle   7  Pass 0  IDiag  1:
 RMSU=  1.29D-05    CP:  9.91D-01  1.05D+00  9.69D-01  9.09D-01  1.15D+00
                    CP:  9.15D-01
 E= -6584.64016699579     Delta-E=       -0.000197126152 Rises=F Damp=F
 DIIS: error= 6.73D-05 at cycle   7 NSaved=   7.
 NSaved= 7 IEnMin= 7 EnMin= -6584.64016699579     IErMin= 7 ErrMin= 6.73D-05
 ErrMax= 6.73D-05  0.00D+00 EMaxC= 1.00D-01 BMatC= 5.57D-05 BMatP= 4.92D-04
 IDIUse=1 WtCom= 1.00D+00 WtEn= 0.00D+00
 Coeff-Com:  0.406D-03-0.526D-02-0.219D-01-0.357D-01 0.668D-02 0.245D+00
 Coeff-Com:  0.811D+00
 Coeff:      0.406D-03-0.526D-02-0.219D-01-0.357D-01 0.668D-02 0.245D+00
 Coeff:      0.811D+00
 Gap=     0.194 Goal=   None    Shift=    0.000
 Gap=     0.194 Goal=   None    Shift=    0.000
 RMSDP=1.24D-05 MaxDP=4.93D-04 DE=-1.97D-04 OVMax= 1.78D-03

 Cycle   8  Pass 0  IDiag  1:
 RMSU=  9.27D-06    CP:  9.91D-01  1.05D+00  9.73D-01  9.24D-01  1.21D+00
                    CP:  1.15D+00  1.19D+00
 E= -6584.64020367741     Delta-E=       -0.000036681624 Rises=F Damp=F
 DIIS: error= 2.88D-05 at cycle   8 NSaved=   8.
 NSaved= 8 IEnMin= 8 EnMin= -6584.64020367741     IErMin= 8 ErrMin= 2.88D-05
 ErrMax= 2.88D-05  0.00D+00 EMaxC= 1.00D-01 BMatC= 1.65D-05 BMatP= 5.57D-05
 IDIUse=1 WtCom= 1.00D+00 WtEn= 0.00D+00
 Coeff-Com: -0.351D-03 0.209D-02-0.543D-02-0.232D-01-0.726D-01 0.200D-03
 Coeff-Com:  0.416D+00 0.683D+00
 Coeff:     -0.351D-03 0.209D-02-0.543D-02-0.232D-01-0.726D-01 0.200D-03
 Coeff:      0.416D+00 0.683D+00
 Gap=     0.194 Goal=   None    Shift=    0.000
 Gap=     0.194 Goal=   None    Shift=    0.000
 RMSDP=9.70D-06 MaxDP=2.61D-04 DE=-3.67D-05 OVMax= 8.37D-04

 Initial convergence to 1.0D-05 achieved.  Increase integral accuracy.
 Cycle   9  Pass 1  IDiag  1:
 E= -6584.63937795819     Delta-E=        0.000825719224 Rises=F Damp=F
 DIIS: error= 2.51D-04 at cycle   1 NSaved=   1.
 NSaved= 1 IEnMin= 1 EnMin= -6584.63937795819     IErMin= 1 ErrMin= 2.51D-04
 ErrMax= 2.51D-04  0.00D+00 EMaxC= 1.00D-01 BMatC= 1.54D-04 BMatP= 1.54D-04
 IDIUse=3 WtCom= 9.97D-01 WtEn= 2.51D-03
 Coeff-Com:  0.100D+01
 Coeff-En:   0.100D+01
 Coeff:      0.100D+01
 Gap=     0.194 Goal=   None    Shift=    0.000
 Gap=     0.194 Goal=   None    Shift=    0.000
 RMSDP=9.70D-06 MaxDP=2.61D-04 DE= 8.26D-04 OVMax= 4.16D-04

 Cycle  10  Pass 1  IDiag  1:
 RMSU=  9.59D-05    CP:  1.00D+00
 E= -6584.63940896193     Delta-E=       -0.000031003739 Rises=F Damp=F
 DIIS: error= 1.40D-05 at cycle   2 NSaved=   2.
[...]
 
              Baa    -0.0000    -0.000    -0.000    -0.000  0.6109 -0.4103  0.6771
    34 C(13)  Bbb    -0.0000    -0.000    -0.000    -0.000  0.6459  0.7529 -0.1265
              Bcc     0.0000     0.000     0.000     0.000 -0.4579  0.5147  0.7249
 
              Baa    -0.0000     0.000     0.000     0.000  0.8660  0.1477  0.4778
    35 O(17)  Bbb    -0.0000     0.000     0.000     0.000 -0.3409 -0.5247  0.7801
              Bcc     0.0000    -0.000    -0.000    -0.000 -0.3659  0.8384  0.4040
 
              Baa    -0.0000    -0.000    -0.000    -0.000  0.4708  0.8539 -0.2218
    36 C(13)  Bbb     0.0000     0.000     0.000     0.000  0.8353 -0.5124 -0.1995
              Bcc     0.0000     0.000     0.000     0.000  0.2840  0.0913  0.9545
 
              Baa    -0.0000    -0.000    -0.000    -0.000  0.2913 -0.3983  0.8698
    37 C(13)  Bbb    -0.0000    -0.000    -0.000    -0.000  0.3635  0.8871  0.2845
              Bcc     0.0000     0.000     0.000     0.000  0.8849 -0.2333 -0.4032
 
              Baa    -0.0000    -0.000    -0.000    -0.000  0.8366  0.4747  0.2733
    38 C(13)  Bbb    -0.0000    -0.000    -0.000    -0.000  0.0421 -0.5532  0.8320
              Bcc     0.0000     0.000     0.000     0.000 -0.5462  0.6845  0.4829
 
              Baa    -0.0000    -0.000    -0.000    -0.000  0.5590 -0.1348  0.8181
    39 S(33)  Bbb    -0.0000    -0.000    -0.000    -0.000  0.3142  0.9476 -0.0585
              Bcc     0.0000     0.000     0.000     0.000  0.7673 -0.2897 -0.5721
 
              Baa    -0.0000    -0.000    -0.000    -0.000  0.6598  0.7423  0.1170
    40 C(13)  Bbb     0.0000     0.000     0.000     0.000  0.6985 -0.6632  0.2688
              Bcc     0.0000     0.000     0.000     0.000 -0.2771  0.0957  0.9561
 
              Baa    -0.0000    -0.000    -0.000    -0.000 -0.0702  0.9549  0.2885
    41 C(13)  Bbb    -0.0000    -0.000    -0.000    -0.000  0.9974  0.0630  0.0339
              Bcc     0.0000     0.000     0.000     0.000 -0.0142 -0.2901  0.9569
 
              Baa    -0.0000    -0.000    -0.000    -0.000  0.9227  0.3852 -0.0119
    42 C(13)  Bbb     0.0000     0.000     0.000     0.000 -0.0317  0.1065  0.9938
              Bcc     0.0000     0.000     0.000     0.000 -0.3841  0.9167 -0.1105
 
              Baa    -0.0000    -0.000    -0.000    -0.000 -0.0624  0.9755  0.2111
    43 F(19)  Bbb     0.0000     0.000     0.000     0.000  0.9199 -0.0258  0.3912
              Bcc     0.0000     0.000     0.000     0.000 -0.3871 -0.2186  0.8958
 
              Baa    -0.0000    -0.000    -0.000    -0.000  0.7310  0.6763 -0.0903
    44 C(13)  Bbb    -0.0000    -0.000    -0.000    -0.000  0.4323 -0.3567  0.8282
              Bcc     0.0000     0.000     0.000     0.000 -0.5279  0.6445  0.5532
 
              Baa    -0.0000    -0.000    -0.000    -0.000  0.7169 -0.2955 -0.6314
    45 S(33)  Bbb    -0.0000    -0.000    -0.000    -0.000  0.5387 -0.3401  0.7708
              Bcc     0.0000     0.000     0.000     0.000  0.4425  0.8928  0.0846
 
              Baa    -0.0000    -0.000    -0.000    -0.000 -0.5972  0.8021  0.0048
    46 C(13)  Bbb    -0.0000    -0.000    -0.000    -0.000 -0.0241 -0.0239  0.9994
              Bcc     0.0000     0.000     0.000     0.000  0.8017  0.5967  0.0336
 
              Baa    -0.0000    -0.000    -0.000    -0.000  0.8882  0.4589 -0.0216
    47 C(13)  Bbb    -0.0000    -0.000    -0.000    -0.000  0.2697 -0.4829  0.8331
              Bcc     0.0000     0.000     0.000     0.000 -0.3719  0.7458  0.5527
 
              Baa    -0.0000     0.000     0.000     0.000  0.9123 -0.4083  0.0317
    48 O(17)  Bbb     0.0000    -0.000    -0.000    -0.000  0.0953  0.2870  0.9532
              Bcc     0.0000    -0.000    -0.000    -0.000  0.3983  0.8666 -0.3008
 
              Baa    -0.0000    -0.000    -0.000    -0.000  0.6702 -0.0882  0.7369
    49 C(13)  Bbb    -0.0000    -0.000    -0.000    -0.000  0.5099  0.7762 -0.3708
              Bcc     0.0000     0.000     0.000     0.000 -0.5393  0.6242  0.5652
 
              Baa    -0.0000    -0.000    -0.000    -0.000 -0.2303  0.8983  0.3741
    50 C(13)  Bbb     0.0000     0.000     0.000     0.000  0.1961 -0.3337  0.9220
              Bcc     0.0000     0.000     0.000     0.000  0.9531  0.2858 -0.0993
 
              Baa    -0.0000    -0.000    -0.000    -0.000  0.9053  0.4217  0.0514
    51 C(13)  Bbb     0.0000     0.000     0.000     0.000 -0.4153  0.9040 -0.1014
              Bcc     0.0000     0.000     0.000     0.000 -0.0892  0.0705  0.9935
 
              Baa    -0.0000    -0.000    -0.000    -0.000  0.8439 -0.0343 -0.5354
    52 S(33)  Bbb     0.0000     0.000     0.000     0.000  0.5364  0.0281  0.8435
              Bcc     0.0000     0.000     0.000     0.000  0.0139  0.9990 -0.0421
 
              Baa    -0.0000    -0.000    -0.000    -0.000 -0.2391  0.9677 -0.0803
    53 C(13)  Bbb     0.0000     0.000     0.000     0.000 -0.3315 -0.0037  0.9435
              Bcc     0.0000     0.000     0.000     0.000  0.9127  0.2522  0.3216
 
              Baa    -0.0000    -0.000    -0.000    -0.000  0.2756  0.9251 -0.2614
    54 C(13)  Bbb     0.0000     0.000     0.000     0.000  0.2732  0.1854  0.9439
              Bcc     0.0000     0.000     0.000     0.000  0.9216 -0.3315 -0.2016
 
              Baa    -0.0000    -0.000    -0.000    -0.000 -0.0484  0.5122  0.8575
    55 C(13)  Bbb    -0.0000    -0.000    -0.000    -0.000  0.7701  0.5658 -0.2945
              Bcc     0.0000     0.000     0.000     0.000 -0.6360  0.6461 -0.4219
 
              Baa    -0.0000    -0.000    -0.000    -0.000  0.8827 -0.3675  0.2927
    56 F(19)  Bbb     0.0000     0.000     0.000     0.000  0.4325  0.8791 -0.2003
              Bcc     0.0000     0.000     0.000     0.000 -0.1838  0.3034  0.9350
 
              Baa    -0.0000    -0.000    -0.000    -0.000  0.9461  0.3164 -0.0687
    57 C(13)  Bbb     0.0000     0.000     0.000     0.000  0.1168 -0.1356  0.9839
              Bcc     0.0000     0.000     0.000     0.000 -0.3020  0.9389  0.1652
 
              Baa    -0.0000    -0.000    -0.000    -0.000  0.9182  0.3764  0.1234
    58 S(33)  Bbb     0.0000     0.000     0.000     0.000 -0.1317 -0.0039  0.9913
              Bcc     0.0000     0.000     0.000     0.000 -0.3736  0.9264 -0.0460
 
              Baa    -0.0000    -0.000    -0.000    -0.000 -0.0039  0.3381  0.9411
    59 C(13)  Bbb    -0.0000    -0.000    -0.000    -0.000  0.5099  0.8103 -0.2890
              Bcc     0.0000     0.000     0.000     0.000  0.8602 -0.4787  0.1755
 
              Baa    -0.0000    -0.000    -0.000    -0.000 -0.6327  0.6582 -0.4079
    60 C(13)  Bbb     0.0000     0.000     0.000     0.000  0.7643  0.6154 -0.1925
              Bcc     0.0000     0.000     0.000     0.000 -0.1243  0.4336  0.8925
 
              Baa    -0.0000     0.000     0.000     0.000  0.3471  0.9377 -0.0126
    61 O(17)  Bbb    -0.0000     0.000     0.000     0.000  0.0552 -0.0071  0.9984
              Bcc     0.0000    -0.000    -0.000    -0.000  0.9362 -0.3473 -0.0543
 
              Baa    -0.0000    -0.000    -0.000    -0.000  0.9125  0.3995  0.0877
    62 C(13)  Bbb     0.0000     0.000     0.000     0.000 -0.1179  0.0517  0.9917
              Bcc     0.0000     0.000     0.000     0.000 -0.3916  0.9153 -0.0943
 
              Baa    -0.0000    -0.000    -0.000    -0.000 -0.3169  0.9357 -0.1550
    63 C(13)  Bbb    -0.0000    -0.000    -0.000    -0.000 -0.0628  0.1424  0.9878
              Bcc     0.0000     0.000     0.000     0.000  0.9464  0.3227  0.0137
 
              Baa    -0.0000    -0.000    -0.000    -0.000  0.8359  0.5230 -0.1668
    64 C(13)  Bbb    -0.0000    -0.000    -0.000    -0.000 -0.5337  0.7030 -0.4701
              Bcc     0.0000     0.000     0.000     0.000 -0.1286  0.4820  0.8667
 
              Baa    -0.0000    -0.000    -0.000    -0.000 -0.4889  0.6344  0.5988
    65 S(33)  Bbb    -0.0000    -0.000    -0.000    -0.000  0.3295 -0.5013  0.8001
              Bcc     0.0000     0.000     0.000     0.000  0.8077  0.5885  0.0360
 
              Baa    -0.0000    -0.000    -0.000    -0.000  0.9667 -0.1623  0.1979
    66 H(1)   Bbb     0.0000     0.000     0.000     0.000 -0.2195 -0.1285  0.9671
              Bcc     0.0000     0.000     0.000     0.000  0.1315  0.9783  0.1599
 
              Baa    -0.0000    -0.000    -0.000    -0.000 -0.4129  0.9015  0.1299
    67 H(1)   Bbb    -0.0000    -0.000    -0.000    -0.000  0.1607 -0.0683  0.9846
              Bcc     0.0000     0.000     0.000     0.000  0.8965  0.4274 -0.1166
 
              Baa    -0.0000    -0.000    -0.000    -0.000  0.6614  0.4842 -0.5728
    68 H(1)   Bbb    -0.0000    -0.000    -0.000    -0.000  0.7407 -0.3021  0.6000
              Bcc     0.0000     0.000     0.000     0.000 -0.1175  0.8211  0.5585
 
              Baa    -0.0000    -0.000    -0.000    -0.000 -0.4527  0.6849  0.5709
    69 H(1)   Bbb    -0.0000    -0.000    -0.000    -0.000  0.6524  0.6909 -0.3116
              Bcc     0.0000     0.000     0.000     0.000  0.6078 -0.2314  0.7596
 
              Baa    -0.0000    -0.000    -0.000    -0.000  0.8979  0.3270 -0.2947
    70 H(1)   Bbb    -0.0000    -0.000    -0.000    -0.000  0.0989  0.5025  0.8589
              Bcc     0.0000     0.000     0.000     0.000 -0.4290  0.8003 -0.4189
 
              Baa    -0.0000    -0.000    -0.000    -0.000 -0.1758  0.1341  0.9753
    71 H(1)   Bbb    -0.0000    -0.000    -0.000    -0.000  0.7543 -0.6182  0.2210
              Bcc     0.0000     0.000     0.000     0.000  0.6326  0.7745  0.0075
 
              Baa    -0.0000    -0.000    -0.000    -0.000 -0.5026  0.7889 -0.3535
    72 H(1)   Bbb    -0.0000    -0.000    -0.000    -0.000  0.1278  0.4722  0.8722
              Bcc     0.0000     0.000     0.000     0.000  0.8550  0.3932 -0.3382
 
              Baa    -0.0000    -0.000    -0.000    -0.000  0.8651 -0.4232  0.2691
    73 H(1)   Bbb     0.0000     0.000     0.000     0.000  0.4671  0.8752 -0.1254
              Bcc     0.0000     0.000     0.000     0.000 -0.1825  0.2342  0.9549
 
              Baa    -0.0000    -0.000    -0.000    -0.000  0.0370  0.5358  0.8435
    74 H(1)   Bbb    -0.0000    -0.000    -0.000    -0.000 -0.5560  0.7125 -0.4281
              Bcc     0.0000     0.000     0.000     0.000  0.8304  0.4531 -0.3243
 
              Baa    -0.0000    -0.000    -0.000    -0.000 -0.1497  0.7967  0.5855
    75 H(1)   Bbb    -0.0000    -0.000    -0.000    -0.000  0.7751 -0.2731  0.5698
              Bcc     0.0000     0.000     0.000     0.000  0.6139  0.5391 -0.5766
 
              Baa    -0.0000    -0.000    -0.000    -0.000 -0.2080 -0.3901  0.8970
    76 H(1)   Bbb    -0.0000    -0.000    -0.000    -0.000  0.7267  0.5522  0.4086
              Bcc     0.0000     0.000     0.000     0.000 -0.6547  0.7368  0.1686
 
              Baa    -0.0000    -0.000    -0.000    -0.000 -0.3606  0.6761  0.6426
    77 H(1)   Bbb     0.0000     0.000     0.000     0.000  0.1355 -0.6436  0.7532
              Bcc     0.0000     0.000     0.000     0.000  0.9228  0.3587  0.1404
 
              Baa    -0.0000    -0.000    -0.000    -0.000  0.0835  0.9779 -0.1918
    78 H(1)   Bbb    -0.0000    -0.000    -0.000    -0.000 -0.6213  0.2015  0.7572
              Bcc     0.0000     0.000     0.000     0.000  0.7791  0.0559  0.6243
 
              Baa    -0.0000    -0.000    -0.000    -0.000 -0.4523 -0.1079  0.8853
    79 H(1)   Bbb     0.0000     0.000     0.000     0.000 -0.6750  0.6901 -0.2608
              Bcc     0.0000     0.000     0.000     0.000  0.5828  0.7156  0.3850
 
              Baa    -0.0000    -0.000    -0.000    -0.000  0.0837  0.8458 -0.5268
    80 H(1)   Bbb     0.0000     0.000     0.000     0.000 -0.0675  0.5323  0.8439
              Bcc     0.0000     0.000     0.000     0.000  0.9942 -0.0350  0.1017
 
              Baa    -0.0000    -0.000    -0.000    -0.000  0.3222  0.7184 -0.6165
    81 H(1)   Bbb    -0.0000    -0.000    -0.000    -0.000  0.9192 -0.0818  0.3852
              Bcc     0.0000     0.000     0.000     0.000 -0.2263  0.6908  0.6867
 
              Baa    -0.0000    -0.000    -0.000    -0.000  0.7013 -0.6830 -0.2040
    82 H(1)   Bbb     0.0000     0.000     0.000     0.000  0.1358 -0.1529  0.9789
              Bcc     0.0000     0.000     0.000     0.000  0.6998  0.7142  0.0145
 
              Baa    -0.0000    -0.000    -0.000    -0.000  0.5223 -0.0779  0.8492
    83 H(1)   Bbb    -0.0000    -0.000    -0.000    -0.000  0.6505 -0.6075 -0.4558
              Bcc     0.0000     0.000     0.000     0.000  0.5514  0.7905 -0.2666
 
              Baa    -0.0000    -0.000    -0.000    -0.000  0.7698 -0.2580  0.5838
    84 H(1)   Bbb    -0.0000    -0.000    -0.000    -0.000  0.2816  0.9581  0.0521
              Bcc     0.0000     0.000     0.000     0.000 -0.5728  0.1243  0.8102
 
              Baa    -0.0000    -0.000    -0.000    -0.000  0.7173  0.6871 -0.1153
    85 H(1)   Bbb    -0.0000    -0.000    -0.000    -0.000 -0.1314  0.2960  0.9461
              Bcc     0.0000     0.000     0.000     0.000  0.6842 -0.6635  0.3026
 
              Baa    -0.0000    -0.000    -0.000    -0.000  0.8557 -0.2827 -0.4335
    86 H(1)   Bbb     0.0000     0.000     0.000     0.000  0.1316 -0.6913  0.7105
              Bcc     0.0000     0.000     0.000     0.000  0.5005  0.6650  0.5543
 
              Baa    -0.0000    -0.000    -0.000    -0.000 -0.5460  0.2363  0.8037
    87 H(1)   Bbb     0.0000     0.000     0.000     0.000  0.6443  0.7317  0.2226
              Bcc     0.0000     0.000     0.000     0.000 -0.5355  0.6394 -0.5518
 
              Baa    -0.0000    -0.000    -0.000    -0.000 -0.0065  0.4193  0.9078
    88 H(1)   Bbb     0.0000     0.000     0.000     0.000  0.3303  0.8578 -0.3938
              Bcc     0.0000     0.000     0.000     0.000  0.9438 -0.2973  0.1441
 
              Baa    -0.0000    -0.000    -0.000    -0.000  0.8846  0.4327  0.1741
    89 H(1)   Bbb     0.0000     0.000     0.000     0.000 -0.2745  0.1814  0.9443
              Bcc     0.0000     0.000     0.000     0.000 -0.3770  0.8831 -0.2793
 
              Baa    -0.0000    -0.000    -0.000    -0.000 -0.2183 -0.0490  0.9746
    90 H(1)   Bbb     0.0000     0.000     0.000     0.000  0.2987  0.9474  0.1146
              Bcc     0.0000     0.000     0.000     0.000  0.9290 -0.3162  0.1922
 
              Baa    -0.0000    -0.000    -0.000    -0.000 -0.1492  0.2424  0.9586
    91 H(1)   Bbb     0.0000     0.000     0.000     0.000  0.9804 -0.0895  0.1753
              Bcc     0.0000     0.000     0.000     0.000  0.1283  0.9660 -0.2243
 
              Baa    -0.0000    -0.000    -0.000    -0.000  0.0127  0.8254  0.5644
    92 H(1)   Bbb    -0.0000    -0.000    -0.000    -0.000  0.1655 -0.5584  0.8129
              Bcc     0.0000     0.000     0.000     0.000  0.9861  0.0831 -0.1436
 

 ---------------------------------------------------------------------------------

 No NMR shielding tensors so no spin-rotation constants.
 Leave Link  601 at Sat Jul 25 03:42:55 2020, MaxMem=  4026531840 cpu:              14.0 elap:               1.9
 (Enter /opt/ohpc/pub/libs/gaussian/g16-A.03/sandybridge/g16/l9999.exe)

 Test job not archived.
 1\1\GINC-SKYLAKE039\FOpt\ULC-wPBE\CC-pVDZ\C45H27F5O5S10\RDU230\25-Jul-
 2020\0\\#P uLC-wPBE/cc-pVDZ iop(3/107=0212300000, 3/108=0212300000) op
 t\\H27 C45 S10 O5 F5\\0,1\C,18.3070662482,-2.1948493722,0.7876506565\C
 ,18.2635743677,-0.8576735635,0.4817336081\C,16.9270885475,-0.435561306
 6,0.2602971218\F,16.6170942612,0.8427992418,-0.0568971279\C,15.9579436
 957,-1.4128614997,0.3890815548\S,16.738777601,-2.9225034444,0.80342423
 35\C,14.5224681783,-1.2750093414,0.2217959861\C,13.5491639494,-2.26008
 71743,0.3534668257\O,13.9264438053,-3.5278560261,0.6767286015\C,12.891
 9626557,-4.4959562722,0.7984229492\C,12.224638374,-1.7949029735,0.1113
 564641\C,12.1888753094,-0.4493053775,-0.2028061805\S,13.779094695,0.25
 0936025,-0.1885723044\C,11.0267085351,0.372156355,-0.5153900478\C,10.9
 65985456,1.5348102531,-1.257094465\C,9.6399351973,2.0303870176,-1.3576
 096807\F,9.3486274693,3.1278797487,-2.0753117155\C,8.677880409,1.28537
 28221,-0.7058002539\S,9.4493754216,-0.0702088037,0.0846991418\C,7.2450
 66352,1.5195508386,-0.6226597957\C,6.5921209996,2.7250811402,-0.391197
 4044\O,7.313660164,3.8568413911,-0.1903413813\C,6.576600676,5.05375849
 88,0.0169007615\C,5.1693626049,2.602396756,-0.3812201143\C,4.742213121
 8,1.3037803391,-0.5882513618\S,6.0878387174,0.2261896943,-0.8051830924
 \C,3.375847111,0.7994296133,-0.6309081549\C,2.8918780642,-0.3199032708
 ,-1.2783339331\C,1.4993045067,-0.4686801157,-1.0813786583\F,0.80084646
 21,-1.4885771156,-1.628797263\C,0.8890094304,0.5007717479,-0.306314497
 8\S,2.1060221834,1.6416725848,0.2216366853\C,-0.511658717,0.6099427456
 ,0.0497861574\C,-1.1176486841,1.5821140221,0.8399741065\O,-0.353919675
 5,2.5775998754,1.3691827532\C,-1.0180806306,3.5333776151,2.1861749568\
 C,-2.5189130448,1.3936748676,1.0098384785\C,-2.9845441342,0.2752100376
 ,0.3430048521\S,-1.704804264,-0.5389830164,-0.5058400575\C,-4.34611030
 95,-0.2379979437,0.2870254849\C,-4.768598218,-1.5319954938,0.054012064
 2\C,-6.1791978613,-1.6274922533,0.081973279\F,-6.8241152199,-2.7997455
 187,-0.1110114265\C,-6.8627175692,-0.4514081997,0.3327406379\S,-5.6987
 315675,0.8412811984,0.522548268\C,-8.2949737519,-0.2530803863,0.430430
 3263\C,-8.9775249604,0.93666208,0.6654513281\O,-8.2678828687,2.0872015
 893,0.8315159328\C,-9.0138528849,3.2749614761,1.0650987374\C,-10.39286
 57139,0.7873614723,0.7164183635\C,-10.7919666603,-0.5211677241,0.51478
 44742\S,-9.4305783866,-1.5684567567,0.2486114895\C,-12.1459035764,-1.0
 575776214,0.4984569616\C,-12.5640012627,-2.3452673542,0.7694993092\C,-
 13.9681991647,-2.4681076894,0.649797439\F,-14.6088380829,-3.6364276464
 ,0.8782057981\C,-14.6503422465,-1.3180580502,0.2987391493\S,-13.492071
 3886,-0.0244268716,0.0862375512\C,-16.0796797784,-1.1444773803,0.11581
 35053\C,-16.7558927277,0.0130140905,-0.25493937\O,-16.0464457042,1.153
 5534419,-0.4864392748\C,-16.7861357045,2.3016663886,-0.879970784\C,-18
 .1719828698,-0.1555339669,-0.3478704095\C,-18.5518382153,-1.4409234878
 ,-0.0458523815\S,-17.215300364,-2.4511382287,0.3503996\H,19.186788014,
 -2.8050290762,1.0090257963\H,19.1294572764,-0.1927559436,0.4137799211\
 H,12.171379846,-4.2219651781,1.5960629119\H,12.3470868621,-4.630600700
 7,-0.1584462155\H,13.3896630766,-5.4418918365,1.0683335442\H,11.327883
 7348,-2.4209328644,0.138593457\H,11.8239610207,2.0022856585,-1.7502548
 028\H,5.9409810085,5.2992025267,-0.858855749\H,7.3251269645,5.85155589
 79,0.1540246578\H,5.9409799944,4.9919357834,0.9246143509\H,4.472734882
 9,3.434776274,-0.2439924651\H,3.493196869,-0.9980399464,-1.8914388779\
 H,-0.2431561137,4.2455759346,2.5142589673\H,-1.4764067083,3.0570777745
 ,3.0769437629\H,-1.7992551122,4.0792937177,1.6184597822\H,-3.165914440
 8,2.0313128522,1.61925735\H,-4.1063262343,-2.3879811669,-0.1073600812\
 H,-8.2738235979,4.0865971943,1.1601888979\H,-9.6033226893,3.2066029379
 ,2.0023497169\H,-9.6946309388,3.4992435134,0.2185443053\H,-11.09996068
 55,1.5968212683,0.9197762824\H,-11.9066981468,-3.1683816906,1.06586006
 94\H,-17.5092083537,2.6080590492,-0.0962515158\H,-16.0468807153,3.1066
 411255,-1.0254085886\H,-17.3284731528,2.1290466784,-1.8322265635\H,-18
 .8789900869,0.6315281869,-0.6246168724\H,-19.5645509357,-1.8526776912,
 -0.0367384997\\Version=EM64L-G16RevA.03\State=1-A\HF=-6584.8082837\S2=
 0.\S2-1=0.\S2A=0.\RMSD=3.578e-09\RMSF=9.473e-07\Dipole=-2.0309931,2.09
 57128,0.8729069\Quadrupole=32.9519066,4.7339506,-37.6858572,-65.015883
 9,10.1634841,4.555741\PG=C01 [X(C45H27F5O5S10)]\\@


 KNOWLEDGE IS EXPERIMENT'S DAUGHTER.
 -- LEONARDO DA VINCI, IN "PENSIERI" CA. 1492
 Job cpu time:       3 days 14 hours 12 minutes 34.3 seconds.
 Elapsed time:       0 days 10 hours 59 minutes 18.9 seconds.
 File lengths (MBytes):  RWF=   1340 Int=      0 D2E=      0 Chk=    120 Scr=      8
 Normal termination of Gaussian 16 at Sat Jul 25 03:42:55 2020.
