 Entering Gaussian System, Link 0=g16
 Input=mols_55_5_00_C-C_opt_0.gjf
 Output=mols_55_5_00_C-C_opt_0.log
 Initial command:
 /opt/ohpc/pub/libs/gaussian/g16-A.03/sandybridge/g16/l1.exe "/mnt/gpfs2_4m/scratch/rdu230/ondemand/projects/dihedral_energies/7trial/wtuning/mols_55_5_00_C-C/Gau-220029.inp" -scrdir="/mnt/gpfs2_4m/scratch/rdu230/ondemand/projects/dihedral_energies/7trial/wtuning/mols_55_5_00_C-C/"
 Entering Link 1 = /opt/ohpc/pub/libs/gaussian/g16-A.03/sandybridge/g16/l1.exe PID=    220032.
  
 Copyright (c) 1988,1990,1992,1993,1995,1998,2003,2009,2016,
            Gaussian, Inc.  All Rights Reserved.
  
 This is part of the Gaussian(R) 16 program.  It is based on
 the Gaussian(R) 09 system (copyright 2009, Gaussian, Inc.),
 the Gaussian(R) 03 system (copyright 2003, Gaussian, Inc.),
 the Gaussian(R) 98 system (copyright 1998, Gaussian, Inc.),
 the Gaussian(R) 94 system (copyright 1995, Gaussian, Inc.),
 the Gaussian 92(TM) system (copyright 1992, Gaussian, Inc.),
 the Gaussian 90(TM) system (copyright 1990, Gaussian, Inc.),
 the Gaussian 88(TM) system (copyright 1988, Gaussian, Inc.),
 the Gaussian 86(TM) system (copyright 1986, Carnegie Mellon
 University), and the Gaussian 82(TM) system (copyright 1983,
 Carnegie Mellon University). Gaussian is a federally registered
 trademark of Gaussian, Inc.
  
 This software contains proprietary and confidential information,
 including trade secrets, belonging to Gaussian, Inc.
  
 This software is provided under written license and may be
 used, copied, transmitted, or stored only in accord with that
 written license.
  
 The following legend is applicable only to US Government
 contracts under FAR:
  
                    RESTRICTED RIGHTS LEGEND
  
 Use, reproduction and disclosure by the US Government is
 subject to restrictions as set forth in subparagraphs (a)
 and (c) of the Commercial Computer Software - Restricted
 Rights clause in FAR 52.227-19.
  
 Gaussian, Inc.
 340 Quinnipiac St., Bldg. 40, Wallingford CT 06492
  
  
 ---------------------------------------------------------------
 Warning -- This program may not be used in any manner that
 competes with the business of Gaussian, Inc. or will provide
 assistance to any competitor of Gaussian, Inc.  The licensee
 of this program is prohibited from giving any competitor of
 Gaussian, Inc. access to this program.  By using this program,
 the user acknowledges that Gaussian, Inc. is engaged in the
 business of creating and licensing software in the field of
 computational chemistry and represents and warrants to the
 licensee that it is not a competitor of Gaussian, Inc. and that
 it will not use this program in any manner prohibited above.
 ---------------------------------------------------------------
  

 Cite this work as:
 Gaussian 16, Revision A.03,
 M. J. Frisch, G. W. Trucks, H. B. Schlegel, G. E. Scuseria, 
 M. A. Robb, J. R. Cheeseman, G. Scalmani, V. Barone, 
 G. A. Petersson, H. Nakatsuji, X. Li, M. Caricato, A. V. Marenich, 
 J. Bloino, B. G. Janesko, R. Gomperts, B. Mennucci, H. P. Hratchian, 
 J. V. Ortiz, A. F. Izmaylov, J. L. Sonnenberg, D. Williams-Young, 
 F. Ding, F. Lipparini, F. Egidi, J. Goings, B. Peng, A. Petrone, 
 T. Henderson, D. Ranasinghe, V. G. Zakrzewski, J. Gao, N. Rega, 
 G. Zheng, W. Liang, M. Hada, M. Ehara, K. Toyota, R. Fukuda, 
 J. Hasegawa, M. Ishida, T. Nakajima, Y. Honda, O. Kitao, H. Nakai, 
 T. Vreven, K. Throssell, J. A. Montgomery, Jr., J. E. Peralta, 
 F. Ogliaro, M. J. Bearpark, J. J. Heyd, E. N. Brothers, K. N. Kudin, 
 V. N. Staroverov, T. A. Keith, R. Kobayashi, J. Normand, 
 K. Raghavachari, A. P. Rendell, J. C. Burant, S. S. Iyengar, 
 J. Tomasi, M. Cossi, J. M. Millam, M. Klene, C. Adamo, R. Cammi, 
 J. W. Ochterski, R. L. Martin, K. Morokuma, O. Farkas, 
 J. B. Foresman, and D. J. Fox, Gaussian, Inc., Wallingford CT, 2016.
 
 ******************************************
 Gaussian 16:  EM64L-G16RevA.03 25-Dec-2016
                24-Jul-2020 
 ******************************************
 %mem=30GB
 %nproc=8
 Will use up to    8 processors via shared memory.
 ---------------------------------------------------------------
 #P uLC-wPBE/cc-pVDZ iop(3/107=0319800000, 3/108=0319800000) opt
 ---------------------------------------------------------------
 1/18=20,19=15,26=3,38=1/1,3;
 2/9=110,12=2,17=6,18=5,40=1/2;
 3/5=16,11=2,25=1,30=1,71=1,74=-41,107=319800000,108=319800000,116=2/1,2,3;
 4//1;
 5/5=2,38=5/2;
 6/7=2,8=2,9=2,10=2,28=1/1;
 7//1,2,3,16;
 1/18=20,19=15,26=3/3(2);
 2/9=110/2;
 99//99;
 2/9=110/2;
 3/5=16,11=2,25=1,30=1,71=1,74=-41,107=319800000,108=319800000,116=2/1,2,3;
 4/5=5,16=3,69=1/1;
 5/5=2,38=5/2;
 7//1,2,3,16;
 1/18=20,19=15,26=3/3(-5);
 2/9=110/2;
 6/7=2,8=2,9=2,10=2,19=2,28=1/1;
 99/9=1/99;
 Leave Link    1 at Fri Jul 24 12:28:09 2020, MaxMem=  4026531840 cpu:               3.9 elap:               0.6
 (Enter /opt/ohpc/pub/libs/gaussian/g16-A.03/sandybridge/g16/l101.exe)
 -----------
 H22 C40 S10
 -----------
 Symbolic Z-matrix:
 Charge =  0 Multiplicity = 1
 C                     18.23559   2.20705  -0.05268 
 C                     18.16595   0.82626  -0.05133 
 C                     16.82119   0.253    -0.02708 
 C                     15.87827   1.27804  -0.00407 
 S                     16.67333   2.78967  -0.09582 
 C                     14.42877   1.12964  -0.00776 
 C                     13.45622   2.14806  -0.10646 
 C                     12.18315   1.65629  -0.14298 
 C                     12.09173   0.27741  -0.03142 
 S                     13.68313  -0.38593   0.12648 
 C                     10.91838  -0.5794    0.02864 
 C                     10.85869  -1.92091   0.35042 
 C                     9.54002  -2.39465   0.28684 
 C                     8.57225  -1.46144   0.11193 
 S                     9.37261   0.01735  -0.13322 
 C                     7.1498   -1.65826  -0.06377 
 C                     6.49792  -2.88138  -0.18419 
 C                     5.08386  -2.72676  -0.26175 
 C                     4.60968  -1.38654  -0.03303 
 S                     5.99843  -0.37915   0.19244 
 C                     3.30885  -0.89827   0.04123 
 C                     2.90391   0.50392   0.11909 
 C                     1.43613   0.58358   0.123 
 C                     0.79954  -0.63585   0.07471 
 S                     1.96608  -1.91811  -0.1051 
 C                    -0.57274  -0.82252   0.02119 
 C                    -1.3103   -2.05162   0.04048 
 C                    -2.75749  -1.90586   0.00713 
 C                    -3.07088  -0.55844   0.00637 
 S                    -1.77156   0.45275   0.01328 
 C                    -4.43023  -0.07206   0.05216 
 C                    -4.85077   1.24939   0.10695 
 C                    -6.30893   1.42075   0.11132 
 C                    -7.0117    0.21012   0.03454 
 S                    -5.80265  -1.07293  -0.04417 
 C                    -8.4215   -0.04107  -0.03109 
 C                    -9.07386  -1.26067  -0.07612 
 C                    -10.48538  -1.04116  -0.00956 
 C                    -10.8955   0.28772   0.02461 
 S                    -9.49119   1.3108    0.01646 
 C                    -12.21441   0.76321  -0.03249 
 C                    -12.66036   2.10306   0.09182 
 C                    -14.09976   2.21361   0.01035 
 C                    -14.77494   1.03779  -0.03227 
 S                    -13.64306  -0.24954  -0.06643 
 C                    -16.19403   0.82765  -0.05727 
 C                    -17.12363   1.80704   0.11169 
 C                    -18.45364   1.35      0.0131 
 C                    -18.45297  -0.05714  -0.10297 
 S                    -16.89239  -0.74179  -0.1635 
 H                     19.07179   2.82609  -0.04937 
 H                     19.0944   0.12275  -0.03379 
 H                     16.61815  -0.77256  -0.04469 
 H                     13.70368   3.2449   -0.22129 
 H                     11.31585   2.25471  -0.12606 
 H                     11.69859  -2.53705   0.49668 
 H                     9.26606  -3.46673   0.50041 
 H                     6.96206  -3.76873  -0.31599 
 H                     4.38931  -3.56033  -0.40999 
 H                     3.58267   1.24447   0.1828 
 H                     1.01627   1.52328   0.19964 
 H                    -0.81617  -3.01518  -0.07251 
 H                    -3.40926  -2.68977  -0.01833 
 H                    -4.20701   2.1567    0.07926 
 H                    -6.7795    2.42028   0.12791 
 H                    -8.58657  -2.20432  -0.11895 
 H                    -11.17877  -1.87832  -0.11055 
 H                    -11.92037   2.92769   0.05732 
 H                    -14.55452   3.18821   0.11477 
 H                    -16.96082   2.89838   0.18607 
 H                    -19.39136   1.91959   0.03606 
 H                    -19.36722  -0.66334  -0.14935 
 
 ITRead=  0  0  0  0  0  0  0  0  0  0  0  0  0  0  0  0  0  0  0  0
 ITRead=  0  0  0  0  0  0  0  0  0  0  0  0  0  0  0  0  0  0  0  0
 ITRead=  0  0  0  0  0  0  0  0  0  0  0  0  0  0  0  0  0  0  0  0
 ITRead=  0  0  0  0  0  0  0  0  0  0  0  0
 MicOpt= -1 -1 -1 -1 -1 -1 -1 -1 -1 -1 -1 -1 -1 -1 -1 -1 -1 -1 -1 -1
 MicOpt= -1 -1 -1 -1 -1 -1 -1 -1 -1 -1 -1 -1 -1 -1 -1 -1 -1 -1 -1 -1
 MicOpt= -1 -1 -1 -1 -1 -1 -1 -1 -1 -1 -1 -1 -1 -1 -1 -1 -1 -1 -1 -1
 MicOpt= -1 -1 -1 -1 -1 -1 -1 -1 -1 -1 -1 -1
 NAtoms=     72 NQM=       72 NQMF=       0 NMMI=      0 NMMIF=      0
                NMic=       0 NMicF=      0.
                    Isotopes and Nuclear Properties:
 (Nuclear quadrupole moments (NQMom) in fm**2, nuclear magnetic moments (NMagM)
  in nuclear magnetons)

  Atom         1           2           3           4           5           6           7           8           9          10
 IAtWgt=          12          12          12          12          32          12          12          12          12          32
 AtmWgt=  12.0000000  12.0000000  12.0000000  12.0000000  31.9720718  12.0000000  12.0000000  12.0000000  12.0000000  31.9720718
 NucSpn=           0           0           0           0           0           0           0           0           0           0
 AtZEff=  -0.0000000  -0.0000000  -0.0000000  -0.0000000  -0.0000000  -0.0000000  -0.0000000  -0.0000000  -0.0000000  -0.0000000
 NQMom=    0.0000000   0.0000000   0.0000000   0.0000000   0.0000000   0.0000000   0.0000000   0.0000000   0.0000000   0.0000000
 NMagM=    0.0000000   0.0000000   0.0000000   0.0000000   0.0000000   0.0000000   0.0000000   0.0000000   0.0000000   0.0000000
 AtZNuc=   6.0000000   6.0000000   6.0000000   6.0000000  16.0000000   6.0000000   6.0000000   6.0000000   6.0000000  16.0000000

  Atom        11          12          13          14          15          16          17          18          19          20
 IAtWgt=          12          12          12          12          32          12          12          12          12          32
 AtmWgt=  12.0000000  12.0000000  12.0000000  12.0000000  31.9720718  12.0000000  12.0000000  12.0000000  12.0000000  31.9720718
 NucSpn=           0           0           0           0           0           0           0           0           0           0
 AtZEff=  -0.0000000  -0.0000000  -0.0000000  -0.0000000  -0.0000000  -0.0000000  -0.0000000  -0.0000000  -0.0000000  -0.0000000
 NQMom=    0.0000000   0.0000000   0.0000000   0.0000000   0.0000000   0.0000000   0.0000000   0.0000000   0.0000000   0.0000000
 NMagM=    0.0000000   0.0000000   0.0000000   0.0000000   0.0000000   0.0000000   0.0000000   0.0000000   0.0000000   0.0000000
 AtZNuc=   6.0000000   6.0000000   6.0000000   6.0000000  16.0000000   6.0000000   6.0000000   6.0000000   6.0000000  16.0000000

  Atom        21          22          23          24          25          26          27          28          29          30
 IAtWgt=          12          12          12          12          32          12          12          12          12          32
 AtmWgt=  12.0000000  12.0000000  12.0000000  12.0000000  31.9720718  12.0000000  12.0000000  12.0000000  12.0000000  31.9720718
 NucSpn=           0           0           0           0           0           0           0           0           0           0
 AtZEff=  -0.0000000  -0.0000000  -0.0000000  -0.0000000  -0.0000000  -0.0000000  -0.0000000  -0.0000000  -0.0000000  -0.0000000
 NQMom=    0.0000000   0.0000000   0.0000000   0.0000000   0.0000000   0.0000000   0.0000000   0.0000000   0.0000000   0.0000000
 NMagM=    0.0000000   0.0000000   0.0000000   0.0000000   0.0000000   0.0000000   0.0000000   0.0000000   0.0000000   0.0000000
 AtZNuc=   6.0000000   6.0000000   6.0000000   6.0000000  16.0000000   6.0000000   6.0000000   6.0000000   6.0000000  16.0000000

  Atom        31          32          33          34          35          36          37          38          39          40
 IAtWgt=          12          12          12          12          32          12          12          12          12          32
 AtmWgt=  12.0000000  12.0000000  12.0000000  12.0000000  31.9720718  12.0000000  12.0000000  12.0000000  12.0000000  31.9720718
 NucSpn=           0           0           0           0           0           0           0           0           0           0
 AtZEff=  -0.0000000  -0.0000000  -0.0000000  -0.0000000  -0.0000000  -0.0000000  -0.0000000  -0.0000000  -0.0000000  -0.0000000
 NQMom=    0.0000000   0.0000000   0.0000000   0.0000000   0.0000000   0.0000000   0.0000000   0.0000000   0.0000000   0.0000000
 NMagM=    0.0000000   0.0000000   0.0000000   0.0000000   0.0000000   0.0000000   0.0000000   0.0000000   0.0000000   0.0000000
 AtZNuc=   6.0000000   6.0000000   6.0000000   6.0000000  16.0000000   6.0000000   6.0000000   6.0000000   6.0000000  16.0000000

  Atom        41          42          43          44          45          46          47          48          49          50
 IAtWgt=          12          12          12          12          32          12          12          12          12          32
 AtmWgt=  12.0000000  12.0000000  12.0000000  12.0000000  31.9720718  12.0000000  12.0000000  12.0000000  12.0000000  31.9720718
 NucSpn=           0           0           0           0           0           0           0           0           0           0
 AtZEff=  -0.0000000  -0.0000000  -0.0000000  -0.0000000  -0.0000000  -0.0000000  -0.0000000  -0.0000000  -0.0000000  -0.0000000
 NQMom=    0.0000000   0.0000000   0.0000000   0.0000000   0.0000000   0.0000000   0.0000000   0.0000000   0.0000000   0.0000000
 NMagM=    0.0000000   0.0000000   0.0000000   0.0000000   0.0000000   0.0000000   0.0000000   0.0000000   0.0000000   0.0000000
 AtZNuc=   6.0000000   6.0000000   6.0000000   6.0000000  16.0000000   6.0000000   6.0000000   6.0000000   6.0000000  16.0000000

  Atom        51          52          53          54          55          56          57          58          59          60
 IAtWgt=           1           1           1           1           1           1           1           1           1           1
 AtmWgt=   1.0078250   1.0078250   1.0078250   1.0078250   1.0078250   1.0078250   1.0078250   1.0078250   1.0078250   1.0078250
 NucSpn=           1           1           1           1           1           1           1           1           1           1
 AtZEff=  -0.0000000  -0.0000000  -0.0000000  -0.0000000  -0.0000000  -0.0000000  -0.0000000  -0.0000000  -0.0000000  -0.0000000
 NQMom=    0.0000000   0.0000000   0.0000000   0.0000000   0.0000000   0.0000000   0.0000000   0.0000000   0.0000000   0.0000000
 NMagM=    2.7928460   2.7928460   2.7928460   2.7928460   2.7928460   2.7928460   2.7928460   2.7928460   2.7928460   2.7928460
 AtZNuc=   1.0000000   1.0000000   1.0000000   1.0000000   1.0000000   1.0000000   1.0000000   1.0000000   1.0000000   1.0000000

  Atom        61          62          63          64          65          66          67          68          69          70
 IAtWgt=           1           1           1           1           1           1           1           1           1           1
 AtmWgt=   1.0078250   1.0078250   1.0078250   1.0078250   1.0078250   1.0078250   1.0078250   1.0078250   1.0078250   1.0078250
 NucSpn=           1           1           1           1           1           1           1           1           1           1
 AtZEff=  -0.0000000  -0.0000000  -0.0000000  -0.0000000  -0.0000000  -0.0000000  -0.0000000  -0.0000000  -0.0000000  -0.0000000
 NQMom=    0.0000000   0.0000000   0.0000000   0.0000000   0.0000000   0.0000000   0.0000000   0.0000000   0.0000000   0.0000000
 NMagM=    2.7928460   2.7928460   2.7928460   2.7928460   2.7928460   2.7928460   2.7928460   2.7928460   2.7928460   2.7928460
 AtZNuc=   1.0000000   1.0000000   1.0000000   1.0000000   1.0000000   1.0000000   1.0000000   1.0000000   1.0000000   1.0000000

  Atom        71          72
 IAtWgt=           1           1
 AtmWgt=   1.0078250   1.0078250
 NucSpn=           1           1
 AtZEff=  -0.0000000  -0.0000000
 NQMom=    0.0000000   0.0000000
 NMagM=    2.7928460   2.7928460
 AtZNuc=   1.0000000   1.0000000
 Leave Link  101 at Fri Jul 24 12:28:10 2020, MaxMem=  4026531840 cpu:               2.9 elap:               0.4
 (Enter /opt/ohpc/pub/libs/gaussian/g16-A.03/sandybridge/g16/l103.exe)

 GradGradGradGradGradGradGradGradGradGradGradGradGradGradGradGradGradGrad
 Berny optimization.
 Initialization pass.
                           ----------------------------
                           !    Initial Parameters    !
                           ! (Angstroms and Degrees)  !
 --------------------------                            --------------------------
 ! Name  Definition              Value          Derivative Info.                !
 --------------------------------------------------------------------------------
 ! R1    R(1,2)                  1.3825         estimate D2E/DX2                !
 ! R2    R(1,5)                  1.6679         estimate D2E/DX2                !
 ! R3    R(1,51)                 1.0404         estimate D2E/DX2                !
 ! R4    R(2,3)                  1.462          estimate D2E/DX2                !
 ! R5    R(2,52)                 1.165          estimate D2E/DX2                !
 ! R6    R(3,4)                  1.393          estimate D2E/DX2                !
 ! R7    R(3,53)                 1.0456         estimate D2E/DX2                !
 ! R8    R(4,5)                  1.7104         estimate D2E/DX2                !
 ! R9    R(4,6)                  1.4571         estimate D2E/DX2                !
 ! R10   R(6,7)                  1.4116         estimate D2E/DX2                !
 ! R11   R(6,10)                 1.6944         estimate D2E/DX2                !
 ! R12   R(7,8)                  1.3652         estimate D2E/DX2                !
 ! R13   R(7,54)                 1.1303         estimate D2E/DX2                !
 ! R14   R(8,9)                  1.3864         estimate D2E/DX2                !
 ! R15   R(8,55)                 1.0538         estimate D2E/DX2                !
 ! R16   R(9,10)                 1.7313         estimate D2E/DX2                !
 ! R17   R(9,11)                 1.4541         estimate D2E/DX2                !
 ! R18   R(11,12)                1.3808         estimate D2E/DX2                !
 ! R19   R(11,15)                1.6648         estimate D2E/DX2                !
 ! R20   R(12,13)                1.4026         estimate D2E/DX2                !
 ! R21   R(12,56)                1.0519         estimate D2E/DX2                !
 ! R22   R(13,14)                1.3557         estimate D2E/DX2                !
 ! R23   R(13,57)                1.127          estimate D2E/DX2                !
 ! R24   R(14,15)                1.6993         estimate D2E/DX2                !
 ! R25   R(14,16)                1.4467         estimate D2E/DX2                !
 ! R26   R(16,17)                1.3912         estimate D2E/DX2                !
 ! R27   R(16,20)                1.7399         estimate D2E/DX2                !
 ! R28   R(17,18)                1.4246         estimate D2E/DX2                !
 ! R29   R(17,58)                1.01           estimate D2E/DX2                !
 ! R30   R(18,19)                1.4399         estimate D2E/DX2                !
 ! R31   R(18,59)                1.0951         estimate D2E/DX2                !
 ! R32   R(19,20)                1.7304         estimate D2E/DX2                !
 ! R33   R(19,21)                1.3914         estimate D2E/DX2                !
 ! R34   R(21,22)                1.4616         estimate D2E/DX2                !
 ! R35   R(21,25)                1.6925         estimate D2E/DX2                !
 ! R36   R(22,23)                1.47           estimate D2E/DX2                !
 ! R37   R(22,60)                1.0066         estimate D2E/DX2                !
 ! R38   R(23,24)                1.3764         estimate D2E/DX2                !
 ! R39   R(23,61)                1.0321         estimate D2E/DX2                !
 ! R40   R(24,25)                1.7428         estimate D2E/DX2                !
 ! R41   R(24,26)                1.386          estimate D2E/DX2                !
 ! R42   R(26,27)                1.4335         estimate D2E/DX2                !
 ! R43   R(26,30)                1.7503         estimate D2E/DX2                !
 ! R44   R(27,28)                1.4549         estimate D2E/DX2                !
 ! R45   R(27,62)                1.0887         estimate D2E/DX2                !
 ! R46   R(28,29)                1.3834         estimate D2E/DX2                !
 ! R47   R(28,63)                1.0198         estimate D2E/DX2                !
 ! R48   R(29,30)                1.6464         estimate D2E/DX2                !
 ! R49   R(29,31)                1.4445         estimate D2E/DX2                !
 ! R50   R(31,32)                1.3878         estimate D2E/DX2                !
 ! R51   R(31,35)                1.7013         estimate D2E/DX2                !
 ! R52   R(32,33)                1.4682         estimate D2E/DX2                !
 ! R53   R(32,64)                1.1128         estimate D2E/DX2                !
 ! R54   R(33,34)                1.4019         estimate D2E/DX2                !
 ! R55   R(33,65)                1.1049         estimate D2E/DX2                !
 ! R56   R(34,35)                1.7647         estimate D2E/DX2                !
 ! R57   R(34,36)                1.4335         estimate D2E/DX2                !
 ! R58   R(36,37)                1.3838         estimate D2E/DX2                !
 ! R59   R(36,40)                1.7245         estimate D2E/DX2                !
 ! R60   R(37,38)                1.43           estimate D2E/DX2                !
 ! R61   R(37,66)                1.0629         estimate D2E/DX2                !
 ! R62   R(38,39)                1.3911         estimate D2E/DX2                !
 ! R63   R(38,67)                1.0917         estimate D2E/DX2                !
 ! R64   R(39,40)                1.7375         estimate D2E/DX2                !
 ! R65   R(39,41)                1.4032         estimate D2E/DX2                !
 ! R66   R(41,42)                1.4176         estimate D2E/DX2                !
 ! R67   R(41,45)                1.7515         estimate D2E/DX2                !
 ! R68   R(42,43)                1.4459         estimate D2E/DX2                !
 ! R69   R(42,68)                1.1085         estimate D2E/DX2                !
 ! R70   R(43,44)                1.3566         estimate D2E/DX2                !
 ! R71   R(43,69)                1.0805         estimate D2E/DX2                !
 ! R72   R(44,45)                1.7145         estimate D2E/DX2                !
 ! R73   R(44,46)                1.4348         estimate D2E/DX2                !
 ! R74   R(46,47)                1.3608         estimate D2E/DX2                !
 ! R75   R(46,50)                1.7211         estimate D2E/DX2                !
 ! R76   R(47,48)                1.4098         estimate D2E/DX2                !
 ! R77   R(47,70)                1.1059         estimate D2E/DX2                !
 ! R78   R(48,49)                1.4119         estimate D2E/DX2                !
 ! R79   R(48,71)                1.0974         estimate D2E/DX2                !
 ! R80   R(49,50)                1.7052         estimate D2E/DX2                !
 ! R81   R(49,72)                1.0979         estimate D2E/DX2                !
 ! A1    A(2,1,5)              107.5603         estimate D2E/DX2                !
 ! A2    A(2,1,51)             129.3993         estimate D2E/DX2                !
 ! A3    A(5,1,51)             123.0283         estimate D2E/DX2                !
 ! A4    A(1,2,3)              115.9727         estimate D2E/DX2                !
 ! A5    A(1,2,52)             124.2615         estimate D2E/DX2                !
 ! A6    A(3,2,52)             119.7348         estimate D2E/DX2                !
 ! A7    A(2,3,4)              109.5336         estimate D2E/DX2                !
 ! A8    A(2,3,53)             124.2572         estimate D2E/DX2                !
 ! A9    A(4,3,53)             126.1981         estimate D2E/DX2                !
 ! A10   A(3,4,5)              109.5602         estimate D2E/DX2                !
 ! A11   A(3,4,6)              126.7562         estimate D2E/DX2                !
 ! A12   A(5,4,6)              123.5243         estimate D2E/DX2                !
 ! A13   A(1,5,4)               97.1977         estimate D2E/DX2                !
 ! A14   A(4,6,7)              127.7383         estimate D2E/DX2                !
 ! A15   A(4,6,10)             121.9157         estimate D2E/DX2                !
 ! A16   A(7,6,10)             110.3444         estimate D2E/DX2                !
 ! A17   A(6,7,8)              112.6088         estimate D2E/DX2                !
 ! A18   A(6,7,54)             123.8054         estimate D2E/DX2                !
 ! A19   A(8,7,54)             123.4353         estimate D2E/DX2                !
 ! A20   A(7,8,9)              114.6822         estimate D2E/DX2                !
 ! A21   A(7,8,55)             124.2256         estimate D2E/DX2                !
 ! A22   A(9,8,55)             120.6106         estimate D2E/DX2                !
 ! A23   A(8,9,10)             109.1343         estimate D2E/DX2                !
 ! A24   A(8,9,11)             129.9832         estimate D2E/DX2                !
 ! A25   A(10,9,11)            120.8088         estimate D2E/DX2                !
 ! A26   A(6,10,9)              93.1281         estimate D2E/DX2                !
 ! A27   A(9,11,12)            128.0931         estimate D2E/DX2                !
 ! A28   A(9,11,15)            122.2746         estimate D2E/DX2                !
 ! A29   A(12,11,15)           109.3145         estimate D2E/DX2                !
 ! A30   A(11,12,13)           110.9899         estimate D2E/DX2                !
 ! A31   A(11,12,56)           124.5381         estimate D2E/DX2                !
 ! A32   A(13,12,56)           123.9964         estimate D2E/DX2                !
 ! A33   A(12,13,14)           116.3888         estimate D2E/DX2                !
 ! A34   A(12,13,57)           122.7696         estimate D2E/DX2                !
 ! A35   A(14,13,57)           120.3806         estimate D2E/DX2                !
 ! A36   A(13,14,15)           106.3452         estimate D2E/DX2                !
 ! A37   A(13,14,16)           128.5999         estimate D2E/DX2                !
 ! A38   A(15,14,16)           124.3315         estimate D2E/DX2                !
 ! A39   A(11,15,14)            96.3934         estimate D2E/DX2                !
 ! A40   A(14,16,17)           126.2164         estimate D2E/DX2                !
 ! A41   A(14,16,20)           122.1904         estimate D2E/DX2                !
 ! A42   A(17,16,20)           110.4258         estimate D2E/DX2                !
 ! A43   A(16,17,18)           111.987          estimate D2E/DX2                !
 ! A44   A(16,17,58)           124.6352         estimate D2E/DX2                !
 ! A45   A(18,17,58)           122.982          estimate D2E/DX2                !
 ! A46   A(17,18,19)           114.7873         estimate D2E/DX2                !
 ! A47   A(17,18,59)           123.6626         estimate D2E/DX2                !
 ! A48   A(19,18,59)           121.408          estimate D2E/DX2                !
 ! A49   A(18,19,20)           107.3533         estimate D2E/DX2                !
 ! A50   A(18,19,21)           130.0131         estimate D2E/DX2                !
 ! A51   A(20,19,21)           122.6197         estimate D2E/DX2                !
 ! A52   A(16,20,19)            94.8137         estimate D2E/DX2                !
 ! A53   A(19,21,22)           126.7637         estimate D2E/DX2                !
 ! A54   A(19,21,25)           121.7119         estimate D2E/DX2                !
 ! A55   A(22,21,25)           111.2777         estimate D2E/DX2                !
 ! A56   A(21,22,23)           109.195          estimate D2E/DX2                !
 ! A57   A(21,22,60)           121.4918         estimate D2E/DX2                !
 ! A58   A(23,22,60)           129.2932         estimate D2E/DX2                !
 ! A59   A(22,23,24)           114.4377         estimate D2E/DX2                !
 ! A60   A(22,23,61)           117.1131         estimate D2E/DX2                !
 ! A61   A(24,23,61)           128.3959         estimate D2E/DX2                !
 ! A62   A(23,24,25)           110.2352         estimate D2E/DX2                !
 ! A63   A(23,24,26)           125.3529         estimate D2E/DX2                !
 ! A64   A(25,24,26)           124.0324         estimate D2E/DX2                !
 ! A65   A(21,25,24)            94.5184         estimate D2E/DX2                !
 ! A66   A(24,26,27)           128.6371         estimate D2E/DX2                !
 ! A67   A(24,26,30)           125.4649         estimate D2E/DX2                !
 ! A68   A(27,26,30)           105.8048         estimate D2E/DX2                !
 ! A69   A(26,27,28)           115.1863         estimate D2E/DX2                !
 ! A70   A(26,27,62)           121.5943         estimate D2E/DX2                !
 ! A71   A(28,27,62)           122.5295         estimate D2E/DX2                !
 ! A72   A(27,28,29)           108.8408         estimate D2E/DX2                !
 ! A73   A(27,28,63)           124.007          estimate D2E/DX2                !
 ! A74   A(29,28,63)           127.1507         estimate D2E/DX2                !
 ! A75   A(28,29,30)           114.7977         estimate D2E/DX2                !
 ! A76   A(28,29,31)           122.761          estimate D2E/DX2                !
 ! A77   A(30,29,31)           122.3936         estimate D2E/DX2                !
 ! A78   A(26,30,29)            95.3396         estimate D2E/DX2                !
 ! A79   A(29,31,32)           127.3745         estimate D2E/DX2                !
 ! A80   A(29,31,35)           124.0041         estimate D2E/DX2                !
 ! A81   A(32,31,35)           108.5389         estimate D2E/DX2                !
 ! A82   A(31,32,33)           114.3427         estimate D2E/DX2                !
 ! A83   A(31,32,64)           126.8732         estimate D2E/DX2                !
 ! A84   A(33,32,64)           118.6488         estimate D2E/DX2                !
 ! A85   A(32,33,34)           113.3852         estimate D2E/DX2                !
 ! A86   A(32,33,65)           121.912          estimate D2E/DX2                !
 ! A87   A(34,33,65)           124.6475         estimate D2E/DX2                !
 ! A88   A(33,34,35)           106.6691         estimate D2E/DX2                !
 ! A89   A(33,34,36)           130.3026         estimate D2E/DX2                !
 ! A90   A(35,34,36)           122.9805         estimate D2E/DX2                !
 ! A91   A(31,35,34)            97.032          estimate D2E/DX2                !
 ! A92   A(34,36,37)           128.282          estimate D2E/DX2                !
 ! A93   A(34,36,40)           118.1246         estimate D2E/DX2                !
 ! A94   A(37,36,40)           113.5383         estimate D2E/DX2                !
 ! A95   A(36,37,38)           109.1782         estimate D2E/DX2                !
 ! A96   A(36,37,66)           124.5852         estimate D2E/DX2                !
 ! A97   A(38,37,66)           126.2044         estimate D2E/DX2                !
 ! A98   A(37,38,39)           116.0251         estimate D2E/DX2                !
 ! A99   A(37,38,67)           120.325          estimate D2E/DX2                !
 ! A100  A(39,38,67)           123.1982         estimate D2E/DX2                !
 ! A101  A(38,39,40)           108.9099         estimate D2E/DX2                !
 ! A102  A(38,39,41)           126.8564         estimate D2E/DX2                !
 ! A103  A(40,39,41)           124.0545         estimate D2E/DX2                !
 ! A104  A(36,40,39)            92.2852         estimate D2E/DX2                !
 ! A105  A(39,41,42)           127.7649         estimate D2E/DX2                !
 ! A106  A(39,41,45)           124.857          estimate D2E/DX2                !
 ! A107  A(42,41,45)           106.9541         estimate D2E/DX2                !
 ! A108  A(41,42,43)           112.3643         estimate D2E/DX2                !
 ! A109  A(41,42,68)           119.3659         estimate D2E/DX2                !
 ! A110  A(43,42,68)           127.294          estimate D2E/DX2                !
 ! A111  A(42,43,44)           115.5288         estimate D2E/DX2                !
 ! A112  A(42,43,69)           118.8474         estimate D2E/DX2                !
 ! A113  A(44,43,69)           125.1249         estimate D2E/DX2                !
 ! A114  A(43,44,45)           108.8359         estimate D2E/DX2                !
 ! A115  A(43,44,46)           128.2994         estimate D2E/DX2                !
 ! A116  A(45,44,46)           122.8631         estimate D2E/DX2                !
 ! A117  A(41,45,44)            95.9664         estimate D2E/DX2                !
 ! A118  A(44,46,47)           124.6149         estimate D2E/DX2                !
 ! A119  A(44,46,50)           122.4095         estimate D2E/DX2                !
 ! A120  A(47,46,50)           112.7531         estimate D2E/DX2                !
 ! A121  A(46,47,48)           113.7311         estimate D2E/DX2                !
 ! A122  A(46,47,70)           128.1699         estimate D2E/DX2                !
 ! A123  A(48,47,70)           117.6129         estimate D2E/DX2                !
 ! A124  A(47,48,49)           109.1712         estimate D2E/DX2                !
 ! A125  A(47,48,71)           129.5243         estimate D2E/DX2                !
 ! A126  A(49,48,71)           121.2925         estimate D2E/DX2                !
 ! A127  A(48,49,50)           113.7968         estimate D2E/DX2                !
 ! A128  A(48,49,72)           123.5961         estimate D2E/DX2                !
 ! A129  A(50,49,72)           122.607          estimate D2E/DX2                !
 ! A130  A(46,50,49)            90.1738         estimate D2E/DX2                !
 ! D1    D(5,1,2,3)             -2.5664         estimate D2E/DX2                !
 ! D2    D(5,1,2,52)           179.4686         estimate D2E/DX2                !
 ! D3    D(51,1,2,3)           178.688          estimate D2E/DX2                !
 ! D4    D(51,1,2,52)            0.723          estimate D2E/DX2                !
 ! D5    D(2,1,5,4)              3.6981         estimate D2E/DX2                !
 ! D6    D(51,1,5,4)          -177.458          estimate D2E/DX2                !
 ! D7    D(1,2,3,4)             -0.2668         estimate D2E/DX2                !
 ! D8    D(1,2,3,53)           178.5852         estimate D2E/DX2                !
 ! D9    D(52,2,3,4)           177.7963         estimate D2E/DX2                !
 ! D10   D(52,2,3,53)           -3.3517         estimate D2E/DX2                !
 ! D11   D(2,3,4,5)              2.9283         estimate D2E/DX2                !
 ! D12   D(2,3,4,6)            178.4388         estimate D2E/DX2                !
 ! D13   D(53,3,4,5)          -175.8959         estimate D2E/DX2                !
 ! D14   D(53,3,4,6)            -0.3854         estimate D2E/DX2                !
 ! D15   D(3,4,5,1)             -3.9848         estimate D2E/DX2                !
 ! D16   D(6,4,5,1)           -179.6704         estimate D2E/DX2                !
 ! D17   D(3,4,6,7)           -173.7508         estimate D2E/DX2                !
 ! D18   D(3,4,6,10)             6.737          estimate D2E/DX2                !
 ! D19   D(5,4,6,7)              1.1732         estimate D2E/DX2                !
 ! D20   D(5,4,6,10)          -178.339          estimate D2E/DX2                !
 ! D21   D(4,6,7,8)            177.0829         estimate D2E/DX2                !
 ! D22   D(4,6,7,54)             1.4132         estimate D2E/DX2                !
 ! D23   D(10,6,7,8)            -3.3587         estimate D2E/DX2                !
 ! D24   D(10,6,7,54)         -179.0284         estimate D2E/DX2                !
 ! D25   D(4,6,10,9)          -177.5024         estimate D2E/DX2                !
 ! D26   D(7,6,10,9)             2.909          estimate D2E/DX2                !
 ! D27   D(6,7,8,9)              2.0858         estimate D2E/DX2                !
 ! D28   D(6,7,8,55)           174.1383         estimate D2E/DX2                !
 ! D29   D(54,7,8,9)           177.7741         estimate D2E/DX2                !
 ! D30   D(54,7,8,55)          -10.1735         estimate D2E/DX2                !
 ! D31   D(7,8,9,10)             0.1261         estimate D2E/DX2                !
 ! D32   D(7,8,9,11)           176.9597         estimate D2E/DX2                !
 ! D33   D(55,8,9,10)         -172.2405         estimate D2E/DX2                !
 ! D34   D(55,8,9,11)            4.593          estimate D2E/DX2                !
 ! D35   D(8,9,10,6)            -1.7763         estimate D2E/DX2                !
 ! D36   D(11,9,10,6)         -178.9517         estimate D2E/DX2                !
 ! D37   D(8,9,11,12)         -168.7353         estimate D2E/DX2                !
 ! D38   D(8,9,11,15)            4.0769         estimate D2E/DX2                !
 ! D39   D(10,9,11,12)           7.7813         estimate D2E/DX2                !
 ! D40   D(10,9,11,15)        -179.4065         estimate D2E/DX2                !
 ! D41   D(9,11,12,13)        -179.5388         estimate D2E/DX2                !
 ! D42   D(9,11,12,56)          -7.1982         estimate D2E/DX2                !
 ! D43   D(15,11,12,13)          6.8976         estimate D2E/DX2                !
 ! D44   D(15,11,12,56)        179.2381         estimate D2E/DX2                !
 ! D45   D(9,11,15,14)        -177.3381         estimate D2E/DX2                !
 ! D46   D(12,11,15,14)         -3.3275         estimate D2E/DX2                !
 ! D47   D(11,12,13,14)         -8.5132         estimate D2E/DX2                !
 ! D48   D(11,12,13,57)        179.2615         estimate D2E/DX2                !
 ! D49   D(56,12,13,14)        179.0967         estimate D2E/DX2                !
 ! D50   D(56,12,13,57)          6.8715         estimate D2E/DX2                !
 ! D51   D(12,13,14,15)          5.7394         estimate D2E/DX2                !
 ! D52   D(12,13,14,16)        176.1952         estimate D2E/DX2                !
 ! D53   D(57,13,14,15)        178.1626         estimate D2E/DX2                !
 ! D54   D(57,13,14,16)        -11.3816         estimate D2E/DX2                !
 ! D55   D(13,14,15,11)         -1.2723         estimate D2E/DX2                !
 ! D56   D(16,14,15,11)       -172.2442         estimate D2E/DX2                !
 ! D57   D(13,14,16,17)         -4.9947         estimate D2E/DX2                !
 ! D58   D(13,14,16,20)        161.4496         estimate D2E/DX2                !
 ! D59   D(15,14,16,17)        163.8965         estimate D2E/DX2                !
 ! D60   D(15,14,16,20)        -29.6591         estimate D2E/DX2                !
 ! D61   D(14,16,17,18)        176.3488         estimate D2E/DX2                !
 ! D62   D(14,16,17,58)        -10.7101         estimate D2E/DX2                !
 ! D63   D(20,16,17,18)          8.569          estimate D2E/DX2                !
 ! D64   D(20,16,17,58)       -178.4899         estimate D2E/DX2                !
 ! D65   D(14,16,20,19)       -174.5059         estimate D2E/DX2                !
 ! D66   D(17,16,20,19)         -6.1477         estimate D2E/DX2                !
 ! D67   D(16,17,18,19)         -7.4624         estimate D2E/DX2                !
 ! D68   D(16,17,18,59)        176.827          estimate D2E/DX2                !
 ! D69   D(58,17,18,19)        179.4607         estimate D2E/DX2                !
 ! D70   D(58,17,18,59)          3.7501         estimate D2E/DX2                !
 ! D71   D(17,18,19,20)          2.713          estimate D2E/DX2                !
 ! D72   D(17,18,19,21)       -175.9366         estimate D2E/DX2                !
 ! D73   D(59,18,19,20)        178.5302         estimate D2E/DX2                !
 ! D74   D(59,18,19,21)         -0.1195         estimate D2E/DX2                !
 ! D75   D(18,19,20,16)          1.9293         estimate D2E/DX2                !
 ! D76   D(21,19,20,16)       -179.2986         estimate D2E/DX2                !
 ! D77   D(18,19,21,22)       -172.1567         estimate D2E/DX2                !
 ! D78   D(18,19,21,25)          1.6245         estimate D2E/DX2                !
 ! D79   D(20,19,21,22)          9.3736         estimate D2E/DX2                !
 ! D80   D(20,19,21,25)       -176.8452         estimate D2E/DX2                !
 ! D81   D(19,21,22,23)        177.5588         estimate D2E/DX2                !
 ! D82   D(19,21,22,60)         -3.9264         estimate D2E/DX2                !
 ! D83   D(25,21,22,23)          3.2342         estimate D2E/DX2                !
 ! D84   D(25,21,22,60)       -178.2509         estimate D2E/DX2                !
 ! D85   D(19,21,25,24)       -179.6626         estimate D2E/DX2                !
 ! D86   D(22,21,25,24)         -5.0062         estimate D2E/DX2                !
 ! D87   D(21,22,23,24)          0.9026         estimate D2E/DX2                !
 ! D88   D(21,22,23,61)        178.4734         estimate D2E/DX2                !
 ! D89   D(60,22,23,24)       -177.461          estimate D2E/DX2                !
 ! D90   D(60,22,23,61)          0.1097         estimate D2E/DX2                !
 ! D91   D(22,23,24,25)         -4.4895         estimate D2E/DX2                !
 ! D92   D(22,23,24,26)       -177.6306         estimate D2E/DX2                !
 ! D93   D(61,23,24,25)        178.2696         estimate D2E/DX2                !
 ! D94   D(61,23,24,26)          5.1285         estimate D2E/DX2                !
 ! D95   D(23,24,25,21)          5.5104         estimate D2E/DX2                !
 ! D96   D(26,24,25,21)        178.7605         estimate D2E/DX2                !
 ! D97   D(23,24,26,27)       -176.3454         estimate D2E/DX2                !
 ! D98   D(23,24,26,30)         -0.364          estimate D2E/DX2                !
 ! D99   D(25,24,26,27)         11.4256         estimate D2E/DX2                !
 ! D100  D(25,24,26,30)       -172.593          estimate D2E/DX2                !
 ! D101  D(24,26,27,28)        178.3628         estimate D2E/DX2                !
 ! D102  D(24,26,27,62)        -10.9283         estimate D2E/DX2                !
 ! D103  D(30,26,27,28)          1.7637         estimate D2E/DX2                !
 ! D104  D(30,26,27,62)        172.4725         estimate D2E/DX2                !
 ! D105  D(24,26,30,29)       -177.6844         estimate D2E/DX2                !
 ! D106  D(27,26,30,29)         -0.9458         estimate D2E/DX2                !
 ! D107  D(26,27,28,29)         -1.8848         estimate D2E/DX2                !
 ! D108  D(26,27,28,63)        177.6894         estimate D2E/DX2                !
 ! D109  D(62,27,28,29)       -172.4973         estimate D2E/DX2                !
 ! D110  D(62,27,28,63)          7.0769         estimate D2E/DX2                !
 ! D111  D(27,28,29,30)          1.0969         estimate D2E/DX2                !
 ! D112  D(27,28,29,31)       -176.4421         estimate D2E/DX2                !
 ! D113  D(63,28,29,30)       -178.4603         estimate D2E/DX2                !
 ! D114  D(63,28,29,31)          4.0008         estimate D2E/DX2                !
 ! D115  D(28,29,30,26)         -0.091          estimate D2E/DX2                !
 ! D116  D(31,29,30,26)        177.458          estimate D2E/DX2                !
 ! D117  D(28,29,31,32)        177.333          estimate D2E/DX2                !
 ! D118  D(28,29,31,35)         -6.3559         estimate D2E/DX2                !
 ! D119  D(30,29,31,32)         -0.021          estimate D2E/DX2                !
 ! D120  D(30,29,31,35)        176.29           estimate D2E/DX2                !
 ! D121  D(29,31,32,33)        178.6047         estimate D2E/DX2                !
 ! D122  D(29,31,32,64)          2.925          estimate D2E/DX2                !
 ! D123  D(35,31,32,33)          1.8297         estimate D2E/DX2                !
 ! D124  D(35,31,32,64)       -173.85           estimate D2E/DX2                !
 ! D125  D(29,31,35,34)       -178.5901         estimate D2E/DX2                !
 ! D126  D(32,31,35,34)         -1.6815         estimate D2E/DX2                !
 ! D127  D(31,32,33,34)         -1.0887         estimate D2E/DX2                !
 ! D128  D(31,32,33,65)       -178.5013         estimate D2E/DX2                !
 ! D129  D(64,32,33,34)        174.9738         estimate D2E/DX2                !
 ! D130  D(64,32,33,65)         -2.4389         estimate D2E/DX2                !
 ! D131  D(32,33,34,35)         -0.1857         estimate D2E/DX2                !
 ! D132  D(32,33,34,36)       -177.6755         estimate D2E/DX2                !
 ! D133  D(65,33,34,35)        177.1445         estimate D2E/DX2                !
 ! D134  D(65,33,34,36)         -0.3452         estimate D2E/DX2                !
 ! D135  D(33,34,35,31)          1.0764         estimate D2E/DX2                !
 ! D136  D(36,34,35,31)        178.7943         estimate D2E/DX2                !
 ! D137  D(33,34,36,37)       -178.413          estimate D2E/DX2                !
 ! D138  D(33,34,36,40)         -1.306          estimate D2E/DX2                !
 ! D139  D(35,34,36,37)          4.454          estimate D2E/DX2                !
 ! D140  D(35,34,36,40)       -178.439          estimate D2E/DX2                !
 ! D141  D(34,36,37,38)        174.6526         estimate D2E/DX2                !
 ! D142  D(34,36,37,66)         -3.3914         estimate D2E/DX2                !
 ! D143  D(40,36,37,38)         -2.5646         estimate D2E/DX2                !
 ! D144  D(40,36,37,66)        179.3915         estimate D2E/DX2                !
 ! D145  D(34,36,40,39)       -175.9711         estimate D2E/DX2                !
 ! D146  D(37,36,40,39)          1.5522         estimate D2E/DX2                !
 ! D147  D(36,37,38,39)          2.6418         estimate D2E/DX2                !
 ! D148  D(36,37,38,67)        175.1735         estimate D2E/DX2                !
 ! D149  D(66,37,38,39)       -179.3539         estimate D2E/DX2                !
 ! D150  D(66,37,38,67)         -6.8223         estimate D2E/DX2                !
 ! D151  D(37,38,39,40)         -1.5155         estimate D2E/DX2                !
 ! D152  D(37,38,39,41)        173.7449         estimate D2E/DX2                !
 ! D153  D(67,38,39,40)       -173.8102         estimate D2E/DX2                !
 ! D154  D(67,38,39,41)          1.4502         estimate D2E/DX2                !
 ! D155  D(38,39,40,36)         -0.0093         estimate D2E/DX2                !
 ! D156  D(41,39,40,36)       -175.4324         estimate D2E/DX2                !
 ! D157  D(38,39,41,42)        175.3152         estimate D2E/DX2                !
 ! D158  D(38,39,41,45)          3.7825         estimate D2E/DX2                !
 ! D159  D(40,39,41,42)        -10.0985         estimate D2E/DX2                !
 ! D160  D(40,39,41,45)        178.3687         estimate D2E/DX2                !
 ! D161  D(39,41,42,43)       -178.7038         estimate D2E/DX2                !
 ! D162  D(39,41,42,68)         11.7823         estimate D2E/DX2                !
 ! D163  D(45,41,42,43)         -5.9605         estimate D2E/DX2                !
 ! D164  D(45,41,42,68)       -175.4744         estimate D2E/DX2                !
 ! D165  D(39,41,45,44)        176.6672         estimate D2E/DX2                !
 ! D166  D(42,41,45,44)          3.6568         estimate D2E/DX2                !
 ! D167  D(41,42,43,44)          6.3337         estimate D2E/DX2                !
 ! D168  D(41,42,43,69)        178.6475         estimate D2E/DX2                !
 ! D169  D(68,42,43,44)        174.8332         estimate D2E/DX2                !
 ! D170  D(68,42,43,69)        -12.853          estimate D2E/DX2                !
 ! D171  D(42,43,44,45)         -3.3124         estimate D2E/DX2                !
 ! D172  D(42,43,44,46)        177.13           estimate D2E/DX2                !
 ! D173  D(69,43,44,45)       -175.0774         estimate D2E/DX2                !
 ! D174  D(69,43,44,46)          5.365          estimate D2E/DX2                !
 ! D175  D(43,44,45,41)         -0.2771         estimate D2E/DX2                !
 ! D176  D(46,44,45,41)        179.3096         estimate D2E/DX2                !
 ! D177  D(43,44,46,47)         -7.8697         estimate D2E/DX2                !
 ! D178  D(43,44,46,50)        177.9481         estimate D2E/DX2                !
 ! D179  D(45,44,46,47)        172.6288         estimate D2E/DX2                !
 ! D180  D(45,44,46,50)         -1.5535         estimate D2E/DX2                !
 ! D181  D(44,46,47,48)        178.5979         estimate D2E/DX2                !
 ! D182  D(44,46,47,70)          6.8777         estimate D2E/DX2                !
 ! D183  D(50,46,47,48)         -6.7266         estimate D2E/DX2                !
 ! D184  D(50,46,47,70)       -178.4469         estimate D2E/DX2                !
 ! D185  D(44,46,50,49)        179.0163         estimate D2E/DX2                !
 ! D186  D(47,46,50,49)          4.2064         estimate D2E/DX2                !
 ! D187  D(46,47,48,49)          5.9953         estimate D2E/DX2                !
 ! D188  D(46,47,48,71)       -175.2776         estimate D2E/DX2                !
 ! D189  D(70,47,48,49)        178.6546         estimate D2E/DX2                !
 ! D190  D(70,47,48,71)         -2.6182         estimate D2E/DX2                !
 ! D191  D(47,48,49,50)         -2.7599         estimate D2E/DX2                !
 ! D192  D(47,48,49,72)        177.1616         estimate D2E/DX2                !
 ! D193  D(71,48,49,50)        178.3891         estimate D2E/DX2                !
 ! D194  D(71,48,49,72)         -1.6894         estimate D2E/DX2                !
 ! D195  D(48,49,50,46)         -0.7108         estimate D2E/DX2                !
 ! D196  D(72,49,50,46)        179.3668         estimate D2E/DX2                !
 --------------------------------------------------------------------------------
 Trust Radius=3.00D-01 FncErr=1.00D-07 GrdErr=1.00D-06 EigMax=2.50D+02 EigMin=1.00D-04
 Number of steps in this run=    417 maximum allowed number of steps=    432.
 GradGradGradGradGradGradGradGradGradGradGradGradGradGradGradGradGradGrad

 Leave Link  103 at Fri Jul 24 12:28:10 2020, MaxMem=  4026531840 cpu:               0.1 elap:               0.1
 (Enter /opt/ohpc/pub/libs/gaussian/g16-A.03/sandybridge/g16/l202.exe)
 Stoichiometry    C40H22S10
 Framework group  C1[X(C40H22S10)]
 Deg. of freedom   210
 Full point group                 C1      NOp   1
 Largest Abelian subgroup         C1      NOp   1
 Largest concise Abelian subgroup C1      NOp   1
                         Standard orientation:                         
 ---------------------------------------------------------------------
 Center     Atomic      Atomic             Coordinates (Angstroms)
 Number     Number       Type             X           Y           Z
 ---------------------------------------------------------------------
      1          6           0       18.235225    2.220213   -0.069544
      2          6           0       18.166234    0.839392   -0.066258
      3          6           0       16.821773    0.265535   -0.040021
      4          6           0       15.878384    1.290166   -0.017545
      5         16           0       16.672658    2.802039   -0.112060
      6          6           0       14.428953    1.141082   -0.019735
      7          6           0       13.455844    2.158908   -0.118931
      8          6           0       12.182966    1.666498   -0.153642
      9          6           0       12.092291    0.287727   -0.040128
     10         16           0       13.684151   -0.374650    0.117235
     11          6           0       10.919399   -0.569550    0.022145
     12          6           0       10.860633   -1.910647    0.345795
     13          6           0        9.542123   -2.385092    0.284052
     14          6           0        8.573761   -1.452575    0.108751
     15         16           0        9.373208    0.026259   -0.139123
     16          6           0        7.151247   -1.650300   -0.065402
     17          6           0        6.499829   -2.873885   -0.183576
     18          6           0        5.085632   -2.720031   -0.260075
     19          6           0        4.611025   -1.379721   -0.032737
     20         16           0        5.999503   -0.371385    0.190112
     21          6           0        3.310034   -0.891962    0.042030
     22          6           0        2.904511    0.510135    0.118356
     23          6           0        1.436693    0.589117    0.123483
     24          6           0        0.800632   -0.630671    0.077417
     25         16           0        1.967612   -1.912633   -0.101702
     26          6           0       -0.571607   -0.818062    0.025386
     27          6           0       -1.308567   -2.047478    0.047008
     28          6           0       -2.755854   -1.902433    0.014771
     29          6           0       -3.069879   -0.555163    0.012461
     30         16           0       -1.771031    0.456634    0.016838
     31          6           0       -4.429418   -0.069360    0.058824
     32          6           0       -4.850523    1.251960    0.112200
     33          6           0       -6.308759    1.422644    0.117655
     34          6           0       -7.011035    0.211584    0.043148
     35         16           0       -5.801453   -1.071008   -0.034919
     36          6           0       -8.420779   -0.040354   -0.020867
     37          6           0       -9.072602   -1.260321   -0.063658
     38          6           0      -10.484165   -1.041380    0.003880
     39          6           0      -10.894880    0.287353    0.036616
     40         16           0       -9.491052    1.311083    0.025813
     41          6           0      -12.214057    0.762150   -0.019936
     42          6           0      -12.660530    2.101958    0.102956
     43          6           0      -14.100056    2.211728    0.022636
     44          6           0      -14.774719    1.035535   -0.017786
     45         16           0      -13.642268   -0.251318   -0.051220
     46          6           0      -16.193731    0.824691   -0.041216
     47          6           0      -17.123633    1.803873    0.127251
     48          6           0      -18.453525    1.346076    0.030481
     49          6           0      -18.452299   -0.061212   -0.083686
     50         16           0      -16.891453   -0.745217   -0.144688
     51          1           0       19.071138    2.839648   -0.067822
     52          1           0       19.095029    0.136339   -0.048607
     53          1           0       16.619189   -0.760137   -0.056061
     54          1           0       13.702685    3.255709   -0.235470
     55          1           0       11.315404    2.264535   -0.136745
     56          1           0       11.700951   -2.526199    0.492135
     57          1           0        9.268861   -3.457012    0.499319
     58          1           0        6.964271   -3.761196   -0.314593
     59          1           0        4.391342   -3.554127   -0.406560
     60          1           0        3.582982    1.251099    0.180458
     61          1           0        1.016464    1.528726    0.199229
     62          1           0       -0.814094   -3.010957   -0.065121
     63          1           0       -3.407279   -2.686682   -0.009048
     64          1           0       -4.207216    2.159541    0.082701
     65          1           0       -6.779783    2.421980    0.133318
     66          1           0       -8.584912   -2.203800   -0.105651
     67          1           0      -11.177249   -1.878996   -0.095355
     68          1           0      -11.920956    2.926891    0.066674
     69          1           0      -14.555172    3.186247    0.126150
     70          1           0      -16.961276    2.895391    0.200014
     71          1           0      -19.391489    1.915257    0.053518
     72          1           0      -19.366305   -0.667908   -0.128418
 ---------------------------------------------------------------------
 Rotational constants (GHZ):           0.3100830           0.0050177           0.0049388
 Leave Link  202 at Fri Jul 24 12:28:10 2020, MaxMem=  4026531840 cpu:               0.2 elap:               0.0
 (Enter /opt/ohpc/pub/libs/gaussian/g16-A.03/sandybridge/g16/l301.exe)
 Standard basis: CC-pVDZ (5D, 7F)
 Ernie: Thresh=  0.10000D-02 Tol=  0.10000D-05 Strict=F.
 Ernie:  180 primitive shells out of 1490 were deleted.
 There are   900 symmetry adapted cartesian basis functions of A   symmetry.
 There are   850 symmetry adapted basis functions of A   symmetry.
   850 basis functions,  2184 primitive gaussians,   900 cartesian basis functions
   211 alpha electrons      211 beta electrons
       nuclear repulsion energy      6530.9334664153 Hartrees.
 IExCor=32609 DFT=T Ex+Corr=LC-wPBE ExCW=0 ScaHFX=  1.000000
 ScaDFX=  1.000000  0.000000  1.000000  1.000000 ScalE2=  1.000000  1.000000
 IRadAn=      5 IRanWt=     -1 IRanGd=            0 ICorTp=0 IEmpDi=  4
 HFx  wShort=  0.000000 wLong=  0.319800 cFull=  0.000000 cShort=  0.000000 cLong=  1.000000
 DFx  wShort=  0.000000 wLong=  0.319800 cFull=  0.000000 cShort=  0.000000 cLong=  1.000000
 NAtoms=   72 NActive=   72 NUniq=   72 SFac= 1.00D+00 NAtFMM=   60 NAOKFM=T Big=T
 Integral buffers will be    131072 words long.
 Raffenetti 2 integral format.
 Two-electron integral symmetry is turned on.
 Leave Link  301 at Fri Jul 24 12:28:10 2020, MaxMem=  4026531840 cpu:               0.4 elap:               0.1
 (Enter /opt/ohpc/pub/libs/gaussian/g16-A.03/sandybridge/g16/l302.exe)
 NPDir=0 NMtPBC=     1 NCelOv=     1 NCel=       1 NClECP=     1 NCelD=      1
         NCelK=      1 NCelE2=     1 NClLst=     1 CellRange=     0.0.
 One-electron integrals computed using PRISM.
 One-electron integral symmetry used in STVInt
 NBasis=   850 RedAO= T EigKep=  2.74D-04  NBF=   850
 NBsUse=   850 1.00D-06 EigRej= -1.00D+00 NBFU=   850
 Precomputing XC quadrature grid using
 IXCGrd= 4 IRadAn=           5 IRanWt=          -1 IRanGd=           0 AccXCQ= 0.00D+00.
 Generated NRdTot=       0 NPtTot=           0 NUsed=           0 NTot=          32
 NSgBfM=   544   544   544   544   544 MxSgAt=    72 MxSgA2=    66.
 Leave Link  302 at Fri Jul 24 12:28:12 2020, MaxMem=  4026531840 cpu:              17.7 elap:               2.3
 (Enter /opt/ohpc/pub/libs/gaussian/g16-A.03/sandybridge/g16/l303.exe)
 DipDrv:  MaxL=1.
 Leave Link  303 at Fri Jul 24 12:28:12 2020, MaxMem=  4026531840 cpu:               1.3 elap:               0.2
 (Enter /opt/ohpc/pub/libs/gaussian/g16-A.03/sandybridge/g16/l401.exe)
 ExpMin= 1.22D-01 ExpMax= 1.11D+05 ExpMxC= 1.07D+03 IAcc=3 IRadAn=         5 AccDes= 0.00D+00
 Harris functional with IExCor=32609 and IRadAn=       5 diagonalized for initial guess.
 HarFok:  IExCor=32609 AccDes= 0.00D+00 IRadAn=         5 IDoV= 1 UseB2=F ITyADJ=14
 ICtDFT=  3500011 ScaDFX=  1.000000  1.000000  1.000000  1.000000
 FoFCou: FMM=F IPFlag=           0 FMFlag=      100000 FMFlg1=        2001
         NFxFlg=           0 DoJE=T BraDBF=F KetDBF=T FulRan=T
         wScrn=  0.000000 ICntrl=       500 IOpCl=  0 I1Cent=   200000004 NGrid=           0
         NMat0=    1 NMatS0=      1 NMatT0=    0 NMatD0=    1 NMtDS0=    0 NMtDT0=    0
 Petite list used in FoFCou.
 Harris En= -5516.47339524577    
 JPrj=0 DoOrth=F DoCkMO=F.
 Initial guess <Sx>= 0.0000 <Sy>= 0.0000 <Sz>= 0.0000 <S**2>=-0.0000 S=-0.0000
 Leave Link  401 at Fri Jul 24 12:28:20 2020, MaxMem=  4026531840 cpu:              61.3 elap:               7.7
 (Enter /opt/ohpc/pub/libs/gaussian/g16-A.03/sandybridge/g16/l502.exe)
 Integral symmetry usage will be decided dynamically.
 UHF open shell SCF:
 Using DIIS extrapolation, IDIIS=  1040.
 NGot=  4026531840 LenX=  4024895744 LenY=  4024084844
 Requested convergence on RMS density matrix=1.00D-08 within 128 cycles.
 Requested convergence on MAX density matrix=1.00D-06.
 Requested convergence on             energy=1.00D-06.
 No special actions if energy rises.
 Fock matrices will be formed incrementally for  20 cycles.
 Integral accuracy reduced to 1.0D-05 until final iterations.

 Cycle   1  Pass 0  IDiag  1:
 FoFJK:  IHMeth= 1 ICntrl=       0 DoSepK=T KAlg= 0 I1Cent=           0 FoldK=F
 IRaf=         1 NMat=       1 IRICut=       1 DoRegI=T DoRafI=F ISym2E= 0 IDoP0=0 IntGTp=1.
 FoFCou: FMM=T IPFlag=           0 FMFlag=      100000 FMFlg1=        2001
         NFxFlg=           0 DoJE=T BraDBF=F KetDBF=F FulRan=T
         wScrn=  0.000000 ICntrl=       500 IOpCl=  0 I1Cent=           0 NGrid=           0
         NMat0=    1 NMatS0=      1 NMatT0=    0 NMatD0=    1 NMtDS0=    0 NMtDT0=    0
 Symmetry not used in FoFCou.
 FMM levels:  10  Number of levels for PrismC:   9
 E= -5515.30783983192    
 DIIS: error= 2.70D-02 at cycle   1 NSaved=   1.
 NSaved= 1 IEnMin= 1 EnMin= -5515.30783983192     IErMin= 1 ErrMin= 2.70D-02
 ErrMax= 2.70D-02  0.00D+00 EMaxC= 1.00D-01 BMatC= 5.28D+00 BMatP= 5.28D+00
 IDIUse=3 WtCom= 7.30D-01 WtEn= 2.70D-01
 Coeff-Com:  0.100D+01
 Coeff-En:   0.100D+01
 Coeff:      0.100D+01
 Gap=     0.103 Goal=   None    Shift=    0.000
 Gap=     0.103 Goal=   None    Shift=    0.000
 GapD=    0.103 DampG=1.000 DampE=0.500 DampFc=0.5000 IDamp=-1.
 Damping current iteration by 5.00D-01
 RMSDP=3.01D-03 MaxDP=1.58D-01              OVMax= 3.41D-01

 Cycle   2  Pass 0  IDiag  1:
 RMSU=  1.49D-03    CP:  9.84D-01
 E= -5516.10687132796     Delta-E=       -0.799031496044 Rises=F Damp=T
 DIIS: error= 4.59D-03 at cycle   2 NSaved=   2.
 NSaved= 2 IEnMin= 2 EnMin= -5516.10687132796     IErMin= 2 ErrMin= 4.59D-03
 ErrMax= 4.59D-03  0.00D+00 EMaxC= 1.00D-01 BMatC= 1.45D-01 BMatP= 5.28D+00
 IDIUse=3 WtCom= 9.54D-01 WtEn= 4.59D-02
 Coeff-Com: -0.135D-01 0.101D+01
 Coeff-En:   0.000D+00 0.100D+01
 Coeff:     -0.129D-01 0.101D+01
 Gap=     0.201 Goal=   None    Shift=    0.000
 Gap=     0.201 Goal=   None    Shift=    0.000
 RMSDP=7.13D-04 MaxDP=3.37D-02 DE=-7.99D-01 OVMax= 1.40D-01

 Cycle   3  Pass 0  IDiag  1:
 RMSU=  6.89D-04    CP:  9.75D-01  1.09D+00
 E= -5516.89528801460     Delta-E=       -0.788416686635 Rises=F Damp=F
 DIIS: error= 2.39D-03 at cycle   3 NSaved=   3.
 NSaved= 3 IEnMin= 3 EnMin= -5516.89528801460     IErMin= 3 ErrMin= 2.39D-03
 ErrMax= 2.39D-03  0.00D+00 EMaxC= 1.00D-01 BMatC= 3.50D-02 BMatP= 1.45D-01
 IDIUse=3 WtCom= 9.76D-01 WtEn= 2.39D-02
 Coeff-Com: -0.221D-02 0.244D+00 0.758D+00
 Coeff-En:   0.000D+00 0.000D+00 0.100D+01
 Coeff:     -0.215D-02 0.239D+00 0.764D+00
 Gap=     0.212 Goal=   None    Shift=    0.000
 Gap=     0.212 Goal=   None    Shift=    0.000
 RMSDP=1.94D-04 MaxDP=1.61D-02 DE=-7.88D-01 OVMax= 2.61D-02

 Cycle   4  Pass 0  IDiag  1:
 RMSU=  1.91D-04    CP:  9.75D-01  1.11D+00  9.73D-01
 E= -5516.90465463716     Delta-E=       -0.009366622558 Rises=F Damp=F
 DIIS: error= 2.11D-03 at cycle   4 NSaved=   4.
 NSaved= 4 IEnMin= 4 EnMin= -5516.90465463716     IErMin= 4 ErrMin= 2.11D-03
 ErrMax= 2.11D-03  0.00D+00 EMaxC= 1.00D-01 BMatC= 1.31D-02 BMatP= 3.50D-02
 IDIUse=3 WtCom= 9.79D-01 WtEn= 2.11D-02
 Coeff-Com:  0.994D-02-0.521D-01 0.346D+00 0.696D+00
 Coeff-En:   0.000D+00 0.000D+00 0.152D-01 0.985D+00
 Coeff:      0.973D-02-0.510D-01 0.339D+00 0.703D+00
 Gap=     0.216 Goal=   None    Shift=    0.000
 Gap=     0.216 Goal=   None    Shift=    0.000
 RMSDP=9.82D-05 MaxDP=5.78D-03 DE=-9.37D-03 OVMax= 1.42D-02

 Cycle   5  Pass 0  IDiag  1:
 RMSU=  7.65D-05    CP:  9.75D-01  1.10D+00  1.05D+00  8.84D-01
 E= -5516.90916548809     Delta-E=       -0.004510850937 Rises=F Damp=F
 DIIS: error= 3.61D-04 at cycle   5 NSaved=   5.
 NSaved= 5 IEnMin= 5 EnMin= -5516.90916548809     IErMin= 5 ErrMin= 3.61D-04
 ErrMax= 3.61D-04  0.00D+00 EMaxC= 1.00D-01 BMatC= 8.90D-04 BMatP= 1.31D-02
 IDIUse=3 WtCom= 9.96D-01 WtEn= 3.61D-03
 Coeff-Com:  0.581D-02-0.440D-01-0.115D-01 0.159D+00 0.891D+00
 Coeff-En:   0.000D+00 0.000D+00 0.000D+00 0.000D+00 0.100D+01
 Coeff:      0.579D-02-0.439D-01-0.115D-01 0.158D+00 0.892D+00
 Gap=     0.218 Goal=   None    Shift=    0.000
 Gap=     0.218 Goal=   None    Shift=    0.000
 RMSDP=4.22D-05 MaxDP=2.04D-03 DE=-4.51D-03 OVMax= 8.15D-03

 Cycle   6  Pass 0  IDiag  1:
 RMSU=  2.79D-05    CP:  9.75D-01  1.10D+00  1.08D+00  1.00D+00  1.16D+00
 E= -5516.90975912658     Delta-E=       -0.000593638484 Rises=F Damp=F
 DIIS: error= 1.94D-04 at cycle   6 NSaved=   6.
 NSaved= 6 IEnMin= 6 EnMin= -5516.90975912658     IErMin= 6 ErrMin= 1.94D-04
 ErrMax= 1.94D-04  0.00D+00 EMaxC= 1.00D-01 BMatC= 2.44D-04 BMatP= 8.90D-04
 IDIUse=3 WtCom= 9.98D-01 WtEn= 1.94D-03
 Coeff-Com:  0.197D-02-0.140D-01-0.512D-01-0.284D-01 0.367D+00 0.724D+00
 Coeff-En:   0.000D+00 0.000D+00 0.000D+00 0.000D+00 0.000D+00 0.100D+01
 Coeff:      0.197D-02-0.140D-01-0.511D-01-0.283D-01 0.366D+00 0.725D+00
 Gap=     0.218 Goal=   None    Shift=    0.000
 Gap=     0.218 Goal=   None    Shift=    0.000
 RMSDP=1.99D-05 MaxDP=1.13D-03 DE=-5.94D-04 OVMax= 3.47D-03

 Cycle   7  Pass 0  IDiag  1:
 RMSU=  1.48D-05    CP:  9.75D-01  1.10D+00  1.09D+00  1.03D+00  1.29D+00
                    CP:  1.08D+00
 E= -5516.90990648006     Delta-E=       -0.000147353481 Rises=F Damp=F
 DIIS: error= 1.27D-04 at cycle   7 NSaved=   7.
 NSaved= 7 IEnMin= 7 EnMin= -5516.90990648006     IErMin= 7 ErrMin= 1.27D-04
 ErrMax= 1.27D-04  0.00D+00 EMaxC= 1.00D-01 BMatC= 5.24D-05 BMatP= 2.44D-04
 IDIUse=3 WtCom= 9.99D-01 WtEn= 1.27D-03
 Coeff-Com: -0.246D-03 0.422D-02-0.154D-01-0.496D-01-0.927D-01 0.288D+00
 Coeff-Com:  0.865D+00
 Coeff-En:   0.000D+00 0.000D+00 0.000D+00 0.000D+00 0.000D+00 0.000D+00
 Coeff-En:   0.100D+01
 Coeff:     -0.245D-03 0.422D-02-0.154D-01-0.495D-01-0.926D-01 0.288D+00
 Coeff:      0.866D+00
 Gap=     0.219 Goal=   None    Shift=    0.000
 Gap=     0.219 Goal=   None    Shift=    0.000
 RMSDP=1.41D-05 MaxDP=5.67D-04 DE=-1.47D-04 OVMax= 2.47D-03

 Cycle   8  Pass 0  IDiag  1:
 RMSU=  8.80D-06    CP:  9.75D-01  1.10D+00  1.09D+00  1.05D+00  1.36D+00
                    CP:  1.37D+00  1.19D+00
 E= -5516.90994632162     Delta-E=       -0.000039841561 Rises=F Damp=F
 DIIS: error= 4.26D-05 at cycle   8 NSaved=   8.
 NSaved= 8 IEnMin= 8 EnMin= -5516.90994632162     IErMin= 8 ErrMin= 4.26D-05
 ErrMax= 4.26D-05  0.00D+00 EMaxC= 1.00D-01 BMatC= 1.11D-05 BMatP= 5.24D-05
 IDIUse=1 WtCom= 1.00D+00 WtEn= 0.00D+00
 Coeff-Com: -0.262D-03 0.347D-02 0.514D-03-0.172D-01-0.911D-01 0.187D-01
 Coeff-Com:  0.375D+00 0.711D+00
 Coeff:     -0.262D-03 0.347D-02 0.514D-03-0.172D-01-0.911D-01 0.187D-01
 Coeff:      0.375D+00 0.711D+00
 Gap=     0.219 Goal=   None    Shift=    0.000
 Gap=     0.219 Goal=   None    Shift=    0.000
 RMSDP=8.31D-06 MaxDP=1.76D-04 DE=-3.98D-05 OVMax= 7.86D-04

 Initial convergence to 1.0D-05 achieved.  Increase integral accuracy.
 Cycle   9  Pass 1  IDiag  1:
 E= -5516.90917964567     Delta-E=        0.000766675952 Rises=F Damp=F
 DIIS: error= 2.39D-04 at cycle   1 NSaved=   1.
 NSaved= 1 IEnMin= 1 EnMin= -5516.90917964567     IErMin= 1 ErrMin= 2.39D-04
 ErrMax= 2.39D-04  0.00D+00 EMaxC= 1.00D-01 BMatC= 8.74D-05 BMatP= 8.74D-05
 IDIUse=3 WtCom= 9.98D-01 WtEn= 2.39D-03
 Coeff-Com:  0.100D+01
 Coeff-En:   0.100D+01
 Coeff:      0.100D+01
 Gap=     0.219 Goal=   None    Shift=    0.000
 Gap=     0.219 Goal=   None    Shift=    0.000
 RMSDP=8.31D-06 MaxDP=1.76D-04 DE= 7.67D-04 OVMax= 3.19D-04

 Cycle  10  Pass 1  IDiag  1:
 RMSU=  8.19D-05    CP:  1.00D+00
 E= -5516.90919570450     Delta-E=       -0.000016058833 Rises=F Damp=F
 DIIS: error= 1.68D-05 at cycle   2 NSaved=   2.
 NSaved= 2 IEnMin= 2 EnMin= -5516.90919570450     IErMin= 2 ErrMin= 1.68D-05
 ErrMax= 1.68D-05  0.00D+00 EMaxC= 1.00D-01 BMatC= 2.33D-06 BMatP= 8.74D-05
 IDIUse=1 WtCom= 1.00D+00 WtEn= 0.00D+00
 Coeff-Com:  0.994D-02 0.990D+00
 Coeff:      0.994D-02 0.990D+00
 Gap=     0.219 Goal=   None    Shift=    0.000
 Gap=     0.219 Goal=   None    Shift=    0.000
 RMSDP=4.30D-06 MaxDP=1.53D-04 DE=-1.61D-05 OVMax= 2.85D-04

 Cycle  11  Pass 1  IDiag  1:
 RMSU=  2.51D-06    CP:  1.00D+00  1.04D+00
 E= -5516.90919542272     Delta-E=        0.000000281780 Rises=F Damp=F
 DIIS: error= 2.98D-05 at cycle   3 NSaved=   3.
 NSaved= 3 IEnMin= 2 EnMin= -5516.90919570450     IErMin= 2 ErrMin= 1.68D-05
 ErrMax= 2.98D-05  0.00D+00 EMaxC= 1.00D-01 BMatC= 4.10D-06 BMatP= 2.33D-06
 IDIUse=1 WtCom= 1.00D+00 WtEn= 0.00D+00
 Coeff-Com: -0.202D-01 0.584D+00 0.436D+00
 Coeff:     -0.202D-01 0.584D+00 0.436D+00
 Gap=     0.219 Goal=   None    Shift=    0.000
 Gap=     0.219 Goal=   None    Shift=    0.000
 RMSDP=1.24D-06 MaxDP=1.01D-04 DE= 2.82D-07 OVMax= 1.65D-04

 Cycle  12  Pass 1  IDiag  1:
 RMSU=  8.89D-07    CP:  1.00D+00  1.05D+00  6.68D-01
 E= -5516.90919651991     Delta-E=       -0.000001097191 Rises=F Damp=F
 DIIS: error= 4.05D-06 at cycle   4 NSaved=   4.
 NSaved= 4 IEnMin= 4 EnMin= -5516.90919651991     IErMin= 4 ErrMin= 4.05D-06
 ErrMax= 4.05D-06  0.00D+00 EMaxC= 1.00D-01 BMatC= 5.09D-08 BMatP= 2.33D-06
 IDIUse=1 WtCom= 1.00D+00 WtEn= 0.00D+00
 Coeff-Com: -0.550D-02 0.114D+00 0.108D+00 0.783D+00
 Coeff:     -0.550D-02 0.114D+00 0.108D+00 0.783D+00
 Gap=     0.219 Goal=   None    Shift=    0.000
 Gap=     0.219 Goal=   None    Shift=    0.000
 RMSDP=2.98D-07 MaxDP=1.39D-05 DE=-1.10D-06 OVMax= 4.54D-05

 Cycle  13  Pass 1  IDiag  1:
 RMSU=  2.39D-07    CP:  1.00D+00  1.05D+00  7.15D-01  1.13D+00
 E= -5516.90919655650     Delta-E=       -0.000000036587 Rises=F Damp=F
 DIIS: error= 2.74D-06 at cycle   5 NSaved=   5.
 NSaved= 5 IEnMin= 5 EnMin= -5516.90919655650     IErMin= 5 ErrMin= 2.74D-06
 ErrMax= 2.74D-06  0.00D+00 EMaxC= 1.00D-01 BMatC= 2.09D-08 BMatP= 5.09D-08
 IDIUse=1 WtCom= 1.00D+00 WtEn= 0.00D+00
 Coeff-Com:  0.656D-02-0.212D+00-0.149D+00 0.358D+00 0.996D+00
 Coeff:      0.656D-02-0.212D+00-0.149D+00 0.358D+00 0.996D+00
 Gap=     0.219 Goal=   None    Shift=    0.000
 Gap=     0.219 Goal=   None    Shift=    0.000
 RMSDP=3.02D-07 MaxDP=1.63D-05 DE=-3.66D-08 OVMax= 5.70D-05

 Cycle  14  Pass 1  IDiag  1:
 RMSU=  1.88D-07    CP:  1.00D+00  1.05D+00  7.55D-01  1.33D+00  1.49D+00
 E= -5516.90919658604     Delta-E=       -0.000000029542 Rises=F Damp=F
 DIIS: error= 8.63D-07 at cycle   6 NSaved=   6.
 NSaved= 6 IEnMin= 6 EnMin= -5516.90919658604     IErMin= 6 ErrMin= 8.63D-07
 ErrMax= 8.63D-07  0.00D+00 EMaxC= 1.00D-01 BMatC= 2.18D-09 BMatP= 2.09D-08
 IDIUse=1 WtCom= 1.00D+00 WtEn= 0.00D+00
 Coeff-Com:  0.253D-02-0.738D-01-0.559D-01-0.633D-02 0.300D+00 0.834D+00
 Coeff:      0.253D-02-0.738D-01-0.559D-01-0.633D-02 0.300D+00 0.834D+00
 Gap=     0.219 Goal=   None    Shift=    0.000
 Gap=     0.219 Goal=   None    Shift=    0.000
 RMSDP=8.44D-08 MaxDP=4.84D-06 DE=-2.95D-08 OVMax= 1.71D-05

 Cycle  15  Pass 1  IDiag  1:
 RMSU=  4.23D-08    CP:  1.00D+00  1.05D+00  7.60D-01  1.35D+00  1.74D+00
                    CP:  1.17D+00
 E= -5516.90919658129     Delta-E=        0.000000004755 Rises=F Damp=F
 DIIS: error= 2.39D-07 at cycle   7 NSaved=   7.
 NSaved= 7 IEnMin= 6 EnMin= -5516.90919658604     IErMin= 7 ErrMin= 2.39D-07
 ErrMax= 2.39D-07  0.00D+00 EMaxC= 1.00D-01 BMatC= 5.26D-10 BMatP= 2.18D-09
 IDIUse=1 WtCom= 1.00D+00 WtEn= 0.00D+00
 Coeff-Com: -0.315D-03 0.136D-01 0.761D-02-0.847D-01-0.840D-01 0.370D+00
 Coeff-Com:  0.778D+00
 Coeff:     -0.315D-03 0.136D-01 0.761D-02-0.847D-01-0.840D-01 0.370D+00
 Coeff:      0.778D+00
 Gap=     0.219 Goal=   None    Shift=    0.000
 Gap=     0.219 Goal=   None    Shift=    0.000
 RMSDP=3.58D-08 MaxDP=1.74D-06 DE= 4.75D-09 OVMax= 6.13D-06

 Cycle  16  Pass 1  IDiag  1:
 RMSU=  1.52D-08    CP:  1.00D+00  1.05D+00  7.60D-01  1.36D+00  1.81D+00
                    CP:  1.30D+00  9.60D-01
 E= -5516.90919658154     Delta-E=       -0.000000000253 Rises=F Damp=F
 DIIS: error= 5.43D-08 at cycle   8 NSaved=   8.
 NSaved= 8 IEnMin= 6 EnMin= -5516.90919658604     IErMin= 8 ErrMin= 5.43D-08
 ErrMax= 5.43D-08  0.00D+00 EMaxC= 1.00D-01 BMatC= 2.06D-11 BMatP= 5.26D-10
 IDIUse=1 WtCom= 1.00D+00 WtEn= 0.00D+00
 Coeff-Com: -0.209D-03 0.746D-02 0.478D-02-0.259D-01-0.392D-01 0.760D-01
 Coeff-Com:  0.230D+00 0.747D+00
 Coeff:     -0.209D-03 0.746D-02 0.478D-02-0.259D-01-0.392D-01 0.760D-01
 Coeff:      0.230D+00 0.747D+00
 Gap=     0.219 Goal=   None    Shift=    0.000
 Gap=     0.219 Goal=   None    Shift=    0.000
 RMSDP=6.18D-09 MaxDP=3.36D-07 DE=-2.53D-10 OVMax= 1.43D-06

 SCF Done:  E(ULC-wPBE) =  -5516.90919658     A.U. after   16 cycles
            NFock= 16  Conv=0.62D-08     -V/T= 2.0034
 <Sx>= 0.0000 <Sy>= 0.0000 <Sz>= 0.0000 <S**2>=-0.0000 S=-0.0000
 <L.S>= 0.000000000000E+00
 KE= 5.498260610664D+03 PE=-2.608617999665D+04 EE= 8.540076722992D+03
 Annihilation of the first spin contaminant:
 S**2 before annihilation    -0.0000,   after     0.0000
 Leave Link  502 at Fri Jul 24 12:36:21 2020, MaxMem=  4026531840 cpu:            3762.0 elap:             480.5
 (Enter /opt/ohpc/pub/libs/gaussian/g16-A.03/sandybridge/g16/l601.exe)
 Copying SCF densities to generalized density rwf, IOpCl= 1 IROHF=0.

 **********************************************************************

            Population analysis using the SCF density.

 **********************************************************************

 Orbital symmetries:
 Alpha Orbitals:
       Occupied  (A) (A) (A) (A) (A) (A) (A) (A) (A) (A) (A) (A)
                 (A) (A) (A) (A) (A) (A) (A) (A) (A) (A) (A) (A)
                 (A) (A) (A) (A) (A) (A) (A) (A) (A) (A) (A) (A)
                 (A) (A) (A) (A) (A) (A) (A) (A) (A) (A) (A) (A)
                 (A) (A) (A) (A) (A) (A) (A) (A) (A) (A) (A) (A)
                 (A) (A) (A) (A) (A) (A) (A) (A) (A) (A) (A) (A)
                 (A) (A) (A) (A) (A) (A) (A) (A) (A) (A) (A) (A)
                 (A) (A) (A) (A) (A) (A) (A) (A) (A) (A) (A) (A)
                 (A) (A) (A) (A) (A) (A) (A) (A) (A) (A) (A) (A)
                 (A) (A) (A) (A) (A) (A) (A) (A) (A) (A) (A) (A)
                 (A) (A) (A) (A) (A) (A) (A) (A) (A) (A) (A) (A)
                 (A) (A) (A) (A) (A) (A) (A) (A) (A) (A) (A) (A)
                 (A) (A) (A) (A) (A) (A) (A) (A) (A) (A) (A) (A)
                 (A) (A) (A) (A) (A) (A) (A) (A) (A) (A) (A) (A)
                 (A) (A) (A) (A) (A) (A) (A) (A) (A) (A) (A) (A)
                 (A) (A) (A) (A) (A) (A) (A) (A) (A) (A) (A) (A)
                 (A) (A) (A) (A) (A) (A) (A) (A) (A) (A) (A) (A)
                 (A) (A) (A) (A) (A) (A) (A)
       Virtual   (A) (A) (A) (A) (A) (A) (A) (A) (A) (A) (A) (A)
                 (A) (A) (A) (A) (A) (A) (A) (A) (A) (A) (A) (A)
                 (A) (A) (A) (A) (A) (A) (A) (A) (A) (A) (A) (A)
                 (A) (A) (A) (A) (A) (A) (A) (A) (A) (A) (A) (A)
                 (A) (A) (A) (A) (A) (A) (A) (A) (A) (A) (A) (A)
                 (A) (A) (A) (A) (A) (A) (A) (A) (A) (A) (A) (A)
                 (A) (A) (A) (A) (A) (A) (A) (A) (A) (A) (A) (A)
                 (A) (A) (A) (A) (A) (A) (A) (A) (A) (A) (A) (A)
                 (A) (A) (A) (A) (A) (A) (A) (A) (A) (A) (A) (A)
                 (A) (A) (A) (A) (A) (A) (A) (A) (A) (A) (A) (A)
                 (A) (A) (A) (A) (A) (A) (A) (A) (A) (A) (A) (A)
                 (A) (A) (A) (A) (A) (A) (A) (A) (A) (A) (A) (A)
                 (A) (A) (A) (A) (A) (A) (A) (A) (A) (A) (A) (A)
                 (A) (A) (A) (A) (A) (A) (A) (A) (A) (A) (A) (A)
                 (A) (A) (A) (A) (A) (A) (A) (A) (A) (A) (A) (A)
                 (A) (A) (A) (A) (A) (A) (A) (A) (A) (A) (A) (A)
                 (A) (A) (A) (A) (A) (A) (A) (A) (A) (A) (A) (A)
                 (A) (A) (A) (A) (A) (A) (A) (A) (A) (A) (A) (A)
                 (A) (A) (A) (A) (A) (A) (A) (A) (A) (A) (A) (A)
                 (A) (A) (A) (A) (A) (A) (A) (A) (A) (A) (A) (A)
                 (A) (A) (A) (A) (A) (A) (A) (A) (A) (A) (A) (A)
                 (A) (A) (A) (A) (A) (A) (A) (A) (A) (A) (A) (A)
                 (A) (A) (A) (A) (A) (A) (A) (A) (A) (A) (A) (A)
                 (A) (A) (A) (A) (A) (A) (A) (A) (A) (A) (A) (A)
                 (A) (A) (A) (A) (A) (A) (A) (A) (A) (A) (A) (A)
                 (A) (A) (A) (A) (A) (A) (A) (A) (A) (A) (A) (A)
                 (A) (A) (A) (A) (A) (A) (A) (A) (A) (A) (A) (A)
                 (A) (A) (A) (A) (A) (A) (A) (A) (A) (A) (A) (A)
                 (A) (A) (A) (A) (A) (A) (A) (A) (A) (A) (A) (A)
                 (A) (A) (A) (A) (A) (A) (A) (A) (A) (A) (A) (A)
                 (A) (A) (A) (A) (A) (A) (A) (A) (A) (A) (A) (A)
                 (A) (A) (A) (A) (A) (A) (A) (A) (A) (A) (A) (A)
                 (A) (A) (A) (A) (A) (A) (A) (A) (A) (A) (A) (A)
                 (A) (A) (A) (A) (A) (A) (A) (A) (A) (A) (A) (A)
                 (A) (A) (A) (A) (A) (A) (A) (A) (A) (A) (A) (A)
                 (A) (A) (A) (A) (A) (A) (A) (A) (A) (A) (A) (A)
                 (A) (A) (A) (A) (A) (A) (A) (A) (A) (A) (A) (A)
                 (A) (A) (A) (A) (A) (A) (A) (A) (A) (A) (A) (A)
                 (A) (A) (A) (A) (A) (A) (A) (A) (A) (A) (A) (A)
                 (A) (A) (A) (A) (A) (A) (A) (A) (A) (A) (A) (A)
                 (A) (A) (A) (A) (A) (A) (A) (A) (A) (A) (A) (A)
                 (A) (A) (A) (A) (A) (A) (A) (A) (A) (A) (A) (A)
                 (A) (A) (A) (A) (A) (A) (A) (A) (A) (A) (A) (A)
                 (A) (A) (A) (A) (A) (A) (A) (A) (A) (A) (A) (A)
                 (A) (A) (A) (A) (A) (A) (A) (A) (A) (A) (A) (A)
                 (A) (A) (A) (A) (A) (A) (A) (A) (A) (A) (A) (A)
                 (A) (A) (A) (A) (A) (A) (A) (A) (A) (A) (A) (A)
                 (A) (A) (A) (A) (A) (A) (A) (A) (A) (A) (A) (A)
                 (A) (A) (A) (A) (A) (A) (A) (A) (A) (A) (A) (A)
                 (A) (A) (A) (A) (A) (A) (A) (A) (A) (A) (A) (A)
                 (A) (A) (A) (A) (A) (A) (A) (A) (A) (A) (A) (A)
                 (A) (A) (A) (A) (A) (A) (A) (A) (A) (A) (A) (A)
                 (A) (A) (A) (A) (A) (A) (A) (A) (A) (A) (A) (A)
                 (A) (A) (A)
 Beta  Orbitals:
       Occupied  (A) (A) (A) (A) (A) (A) (A) (A) (A) (A) (A) (A)
                 (A) (A) (A) (A) (A) (A) (A) (A) (A) (A) (A) (A)
                 (A) (A) (A) (A) (A) (A) (A) (A) (A) (A) (A) (A)
                 (A) (A) (A) (A) (A) (A) (A) (A) (A) (A) (A) (A)
                 (A) (A) (A) (A) (A) (A) (A) (A) (A) (A) (A) (A)
                 (A) (A) (A) (A) (A) (A) (A) (A) (A) (A) (A) (A)
                 (A) (A) (A) (A) (A) (A) (A) (A) (A) (A) (A) (A)
                 (A) (A) (A) (A) (A) (A) (A) (A) (A) (A) (A) (A)
                 (A) (A) (A) (A) (A) (A) (A) (A) (A) (A) (A) (A)
                 (A) (A) (A) (A) (A) (A) (A) (A) (A) (A) (A) (A)
                 (A) (A) (A) (A) (A) (A) (A) (A) (A) (A) (A) (A)
                 (A) (A) (A) (A) (A) (A) (A) (A) (A) (A) (A) (A)
                 (A) (A) (A) (A) (A) (A) (A) (A) (A) (A) (A) (A)
[...]
    10 S(33)  Bbb    -0.0000    -0.000    -0.000    -0.000  0.1155 -0.2467  0.9622
              Bcc     0.0000     0.000     0.000     0.000  0.9824 -0.1145 -0.1473
 
              Baa    -0.0000    -0.000    -0.000    -0.000  0.1709  0.9695 -0.1759
    11 C(13)  Bbb     0.0000     0.000     0.000     0.000  0.9807 -0.1503  0.1248
              Bcc     0.0000     0.000     0.000     0.000 -0.0946  0.1938  0.9765
 
              Baa    -0.0000    -0.000    -0.000    -0.000  0.9457  0.3044 -0.1141
    12 C(13)  Bbb    -0.0000    -0.000    -0.000    -0.000  0.1464 -0.0855  0.9855
              Bcc     0.0000     0.000     0.000     0.000 -0.2902  0.9487  0.1254
 
              Baa    -0.0000    -0.000    -0.000    -0.000 -0.5511  0.7739 -0.3121
    13 C(13)  Bbb    -0.0000    -0.000    -0.000    -0.000 -0.1719  0.2607  0.9500
              Bcc     0.0000     0.000     0.000     0.000  0.8165  0.5772 -0.0106
 
              Baa    -0.0000    -0.000    -0.000    -0.000  0.9633  0.2498  0.0977
    14 C(13)  Bbb     0.0000     0.000     0.000     0.000 -0.0700 -0.1174  0.9906
              Bcc     0.0000     0.000     0.000     0.000 -0.2590  0.9611  0.0956
 
              Baa    -0.0000    -0.000    -0.000    -0.000  0.6333  0.7489 -0.1951
    15 S(33)  Bbb    -0.0000    -0.000    -0.000    -0.000  0.7736 -0.6058  0.1858
              Bcc     0.0000     0.000     0.000     0.000 -0.0210  0.2686  0.9630
 
              Baa    -0.0000    -0.000    -0.000    -0.000  0.5699  0.6322  0.5249
    16 C(13)  Bbb    -0.0000    -0.000    -0.000    -0.000 -0.3979 -0.3465  0.8495
              Bcc     0.0000     0.000     0.000     0.000  0.7189 -0.6930  0.0541
 
              Baa    -0.0000    -0.000    -0.000    -0.000  0.5801  0.7269  0.3676
    17 C(13)  Bbb    -0.0000    -0.000    -0.000    -0.000  0.8103 -0.5609 -0.1698
              Bcc     0.0000     0.000     0.000     0.000 -0.0827 -0.3964  0.9144
 
              Baa    -0.0000    -0.000    -0.000    -0.000  0.9987  0.0194 -0.0464
    18 C(13)  Bbb     0.0000     0.000     0.000     0.000 -0.0398  0.8684 -0.4942
              Bcc     0.0000     0.000     0.000     0.000  0.0307  0.4954  0.8681
 
              Baa    -0.0000    -0.000    -0.000    -0.000  0.8395 -0.0056  0.5434
    19 C(13)  Bbb    -0.0000    -0.000    -0.000    -0.000  0.4056  0.6719 -0.6197
              Bcc     0.0000     0.000     0.000     0.000 -0.3616  0.7407  0.5663
 
              Baa    -0.0000    -0.000    -0.000    -0.000 -0.4655  0.5880  0.6615
    20 S(33)  Bbb    -0.0000    -0.000    -0.000    -0.000 -0.1109  0.7028 -0.7027
              Bcc     0.0000     0.000     0.000     0.000  0.8781  0.4004  0.2620
 
              Baa    -0.0000    -0.000    -0.000    -0.000  0.3572  0.9340 -0.0104
    21 C(13)  Bbb     0.0000     0.000     0.000     0.000  0.9163 -0.3482  0.1979
              Bcc     0.0000     0.000     0.000     0.000 -0.1812  0.0802  0.9802
 
              Baa    -0.0000    -0.000    -0.000    -0.000  0.8939 -0.3737 -0.2474
    22 C(13)  Bbb    -0.0000    -0.000    -0.000    -0.000  0.3422  0.9256 -0.1618
              Bcc     0.0000     0.000     0.000     0.000  0.2895  0.0599  0.9553
 
              Baa    -0.0000    -0.000    -0.000    -0.000  0.8995 -0.4005 -0.1746
    23 C(13)  Bbb    -0.0000    -0.000    -0.000    -0.000  0.4016  0.9153 -0.0307
              Bcc     0.0000     0.000     0.000     0.000  0.1722 -0.0425  0.9842
 
              Baa    -0.0000    -0.000    -0.000    -0.000  0.9947  0.0587 -0.0843
    24 C(13)  Bbb    -0.0000    -0.000    -0.000    -0.000  0.0790  0.0877  0.9930
              Bcc     0.0000     0.000     0.000     0.000 -0.0657  0.9944 -0.0826
 
              Baa    -0.0000    -0.000    -0.000    -0.000 -0.0599  0.9700 -0.2354
    25 S(33)  Bbb    -0.0000    -0.000    -0.000    -0.000 -0.3518  0.2002  0.9144
              Bcc     0.0000     0.000     0.000     0.000  0.9342  0.1376  0.3293
 
              Baa    -0.0000    -0.000    -0.000    -0.000  0.0648  0.9719  0.2264
    26 C(13)  Bbb     0.0000     0.000     0.000     0.000  0.6054 -0.2186  0.7653
              Bcc     0.0000     0.000     0.000     0.000  0.7933  0.0875 -0.6025
 
              Baa    -0.0000    -0.000    -0.000    -0.000 -0.5708  0.6555  0.4944
    27 C(13)  Bbb     0.0000     0.000     0.000     0.000  0.7960  0.2944  0.5288
              Bcc     0.0000     0.000     0.000     0.000  0.2011  0.6955 -0.6898
 
              Baa    -0.0000    -0.000    -0.000    -0.000  0.9192  0.1485 -0.3647
    28 C(13)  Bbb    -0.0000    -0.000    -0.000    -0.000  0.2696  0.4377  0.8577
              Bcc     0.0000     0.000     0.000     0.000 -0.2870  0.8868 -0.3623
 
              Baa    -0.0000    -0.000    -0.000    -0.000  0.1122  0.6151  0.7804
    29 C(13)  Bbb    -0.0000    -0.000    -0.000    -0.000  0.9428  0.1824 -0.2792
              Bcc     0.0000     0.000     0.000     0.000 -0.3140  0.7671 -0.5594
 
              Baa    -0.0000    -0.000    -0.000    -0.000  0.5265  0.8375 -0.1464
    30 S(33)  Bbb     0.0000     0.000     0.000     0.000 -0.0441  0.1989  0.9790
              Bcc     0.0000     0.000     0.000     0.000  0.8491 -0.5090  0.1417
 
              Baa    -0.0000    -0.000    -0.000    -0.000 -0.4649  0.8837  0.0544
    31 C(13)  Bbb     0.0000     0.000     0.000     0.000  0.8539  0.4638 -0.2363
              Bcc     0.0000     0.000     0.000     0.000  0.2340  0.0634  0.9702
 
              Baa    -0.0000    -0.000    -0.000    -0.000  0.4186  0.9071  0.0441
    32 C(13)  Bbb    -0.0000    -0.000    -0.000    -0.000  0.9078 -0.4193  0.0089
              Bcc     0.0000     0.000     0.000     0.000 -0.0266 -0.0363  0.9990
 
              Baa    -0.0000    -0.000    -0.000    -0.000 -0.1053  0.9909  0.0840
    33 C(13)  Bbb    -0.0000    -0.000    -0.000    -0.000  0.9861  0.0931  0.1376
              Bcc     0.0000     0.000     0.000     0.000 -0.1285 -0.0974  0.9869
 
              Baa    -0.0000    -0.000    -0.000    -0.000  0.1170  0.9908  0.0675
    34 C(13)  Bbb    -0.0000    -0.000    -0.000    -0.000  0.0373 -0.0723  0.9967
              Bcc     0.0000     0.000     0.000     0.000  0.9924 -0.1141 -0.0455
 
              Baa    -0.0000    -0.000    -0.000    -0.000  0.2223  0.0863  0.9711
    35 S(33)  Bbb    -0.0000    -0.000    -0.000    -0.000  0.7632  0.6045 -0.2284
              Bcc     0.0000     0.000     0.000     0.000 -0.6067  0.7919  0.0685
 
              Baa    -0.0000    -0.000    -0.000    -0.000  0.0051  0.0276  0.9996
    36 C(13)  Bbb    -0.0000    -0.000    -0.000    -0.000 -0.3585  0.9332 -0.0239
              Bcc     0.0000     0.000     0.000     0.000  0.9335  0.3582 -0.0147
 
              Baa    -0.0000    -0.000    -0.000    -0.000 -0.3655  0.9308  0.0083
    37 C(13)  Bbb    -0.0000    -0.000    -0.000    -0.000  0.4741  0.1785  0.8622
              Bcc     0.0000     0.000     0.000     0.000  0.8010  0.3191 -0.5065
 
              Baa    -0.0000    -0.000    -0.000    -0.000 -0.1240  0.8593 -0.4963
    38 C(13)  Bbb     0.0000     0.000     0.000     0.000  0.9863  0.0518 -0.1567
              Bcc     0.0000     0.000     0.000     0.000  0.1089  0.5089  0.8539
 
              Baa    -0.0000    -0.000    -0.000    -0.000  0.8604 -0.4815  0.1668
    39 C(13)  Bbb    -0.0000    -0.000    -0.000    -0.000  0.5033  0.8542 -0.1304
              Bcc     0.0000     0.000     0.000     0.000 -0.0797  0.1961  0.9773
 
              Baa    -0.0000    -0.000    -0.000    -0.000  0.9344  0.0938 -0.3436
    40 S(33)  Bbb    -0.0000    -0.000    -0.000    -0.000  0.2069  0.6423  0.7380
              Bcc     0.0000     0.000     0.000     0.000 -0.2899  0.7607 -0.5808
 
              Baa    -0.0000    -0.000    -0.000    -0.000  0.9341 -0.1101  0.3395
    41 C(13)  Bbb     0.0000     0.000     0.000     0.000 -0.2289  0.5450  0.8066
              Bcc     0.0000     0.000     0.000     0.000  0.2738  0.8312 -0.4839
 
              Baa    -0.0000    -0.000    -0.000    -0.000  0.7238  0.6626  0.1926
    42 C(13)  Bbb     0.0000     0.000     0.000     0.000  0.3136 -0.5645  0.7636
              Bcc     0.0000     0.000     0.000     0.000 -0.6147  0.4923  0.6163
 
              Baa    -0.0000    -0.000    -0.000    -0.000 -0.0315  0.9977 -0.0608
    43 C(13)  Bbb    -0.0000    -0.000    -0.000    -0.000  0.9887  0.0400  0.1443
              Bcc     0.0000     0.000     0.000     0.000 -0.1464  0.0556  0.9877
 
              Baa    -0.0000    -0.000    -0.000    -0.000  0.7777  0.5940  0.2056
    44 C(13)  Bbb     0.0000     0.000     0.000     0.000 -0.5606  0.8034 -0.2008
              Bcc     0.0000     0.000     0.000     0.000 -0.2845  0.0409  0.9578
 
              Baa    -0.0000    -0.000    -0.000    -0.000 -0.1092  0.9717  0.2095
    45 S(33)  Bbb     0.0000     0.000     0.000     0.000  0.0724 -0.2025  0.9766
              Bcc     0.0000     0.000     0.000     0.000  0.9914  0.1218 -0.0482
 
              Baa    -0.0000    -0.000    -0.000    -0.000  0.7915  0.4412 -0.4228
    46 C(13)  Bbb    -0.0000    -0.000    -0.000    -0.000  0.1401  0.5424  0.8283
              Bcc     0.0000     0.000     0.000     0.000 -0.5949  0.7149 -0.3675
 
              Baa    -0.0000    -0.000    -0.000    -0.000 -0.4285  0.2557  0.8666
    47 C(13)  Bbb    -0.0000    -0.000    -0.000    -0.000  0.7653  0.6125  0.1977
              Bcc     0.0000     0.000     0.000     0.000 -0.4803  0.7480 -0.4581
 
              Baa    -0.0000    -0.000    -0.000    -0.000  0.9533  0.1459  0.2643
    48 C(13)  Bbb    -0.0000    -0.000    -0.000    -0.000 -0.0189  0.9026 -0.4301
              Bcc     0.0000     0.000     0.000     0.000 -0.3013  0.4050  0.8632
 
              Baa    -0.0000    -0.000    -0.000    -0.000  0.3984  0.7684  0.5008
    49 C(13)  Bbb    -0.0000    -0.000    -0.000    -0.000 -0.4819 -0.2891  0.8271
              Bcc     0.0000     0.000     0.000     0.000  0.7804 -0.5709  0.2551
 
              Baa    -0.0000    -0.000    -0.000    -0.000  0.9615 -0.2167  0.1689
    50 S(33)  Bbb    -0.0000    -0.000    -0.000    -0.000 -0.1159  0.2375  0.9644
              Bcc     0.0000     0.000     0.000     0.000  0.2491  0.9469 -0.2032
 
              Baa    -0.0000    -0.000    -0.000    -0.000  0.9821  0.1879 -0.0129
    51 H(1)   Bbb     0.0000     0.000     0.000     0.000  0.0666 -0.2822  0.9570
              Bcc     0.0000     0.000     0.000     0.000 -0.1762  0.9408  0.2896
 
              Baa    -0.0000    -0.000    -0.000    -0.000  0.6282 -0.4979 -0.5979
    52 H(1)   Bbb     0.0000     0.000     0.000     0.000  0.1953  0.8448 -0.4982
              Bcc     0.0000     0.000     0.000     0.000  0.7532  0.1962  0.6279
 
              Baa    -0.0000    -0.000    -0.000    -0.000  0.6363  0.3684  0.6778
    53 H(1)   Bbb     0.0000     0.000     0.000     0.000 -0.0273  0.8888 -0.4575
              Bcc     0.0000     0.000     0.000     0.000  0.7710 -0.2726 -0.5756
 
              Baa    -0.0000    -0.000    -0.000    -0.000  0.2904 -0.2045  0.9348
    54 H(1)   Bbb    -0.0000    -0.000    -0.000    -0.000  0.9556  0.1126 -0.2723
              Bcc     0.0000     0.000     0.000     0.000 -0.0496  0.9724  0.2282
 
              Baa    -0.0000    -0.000    -0.000    -0.000  0.5545  0.8321 -0.0082
    55 H(1)   Bbb    -0.0000    -0.000    -0.000    -0.000  0.3418 -0.2188  0.9140
              Bcc     0.0000     0.000     0.000     0.000  0.7587 -0.5096 -0.4057
 
              Baa    -0.0000    -0.000    -0.000    -0.000 -0.5599 -0.1498  0.8149
    56 H(1)   Bbb    -0.0000    -0.000    -0.000    -0.000  0.4789  0.7441  0.4658
              Bcc     0.0000     0.000     0.000     0.000  0.6761 -0.6511  0.3449
 
              Baa    -0.0000    -0.000    -0.000    -0.000  0.7926  0.3250  0.5160
    57 H(1)   Bbb    -0.0000    -0.000    -0.000    -0.000 -0.5927  0.2115  0.7772
              Bcc     0.0000     0.000     0.000     0.000 -0.1434  0.9218 -0.3602
 
              Baa    -0.0000    -0.000    -0.000    -0.000 -0.5012  0.7467  0.4373
    58 H(1)   Bbb     0.0000     0.000     0.000     0.000  0.7545  0.6246 -0.2016
              Bcc     0.0000     0.000     0.000     0.000  0.4236 -0.2289  0.8764
 
              Baa    -0.0000    -0.000    -0.000    -0.000  0.4698  0.7675  0.4362
    59 H(1)   Bbb    -0.0000    -0.000    -0.000    -0.000  0.8787 -0.4540 -0.1477
              Bcc     0.0000     0.000     0.000     0.000 -0.0847 -0.4527  0.8876
 
              Baa    -0.0000    -0.000    -0.000    -0.000  0.6380  0.7696 -0.0247
    60 H(1)   Bbb     0.0000     0.000     0.000     0.000  0.7489 -0.6277 -0.2126
              Bcc     0.0000     0.000     0.000     0.000  0.1792 -0.1171  0.9768
 
              Baa    -0.0000    -0.000    -0.000    -0.000 -0.4290  0.8895  0.1572
    61 H(1)   Bbb     0.0000     0.000     0.000     0.000  0.8864  0.4480 -0.1162
              Bcc     0.0000     0.000     0.000     0.000  0.1738 -0.0895  0.9807
 
              Baa    -0.0000    -0.000    -0.000    -0.000  0.1507 -0.0274  0.9882
    62 H(1)   Bbb    -0.0000    -0.000    -0.000    -0.000  0.3773  0.9255 -0.0319
              Bcc     0.0000     0.000     0.000     0.000  0.9137 -0.3777 -0.1498
 
              Baa    -0.0000    -0.000    -0.000    -0.000  0.7537 -0.6308  0.1845
    63 H(1)   Bbb    -0.0000    -0.000    -0.000    -0.000  0.1455  0.4339  0.8892
              Bcc     0.0000     0.000     0.000     0.000  0.6410  0.6433 -0.4188
 
              Baa    -0.0000    -0.000    -0.000    -0.000  0.6418  0.7611  0.0944
    64 H(1)   Bbb     0.0000     0.000     0.000     0.000 -0.5423  0.3633  0.7576
              Bcc     0.0000     0.000     0.000     0.000  0.5422 -0.5374  0.6459
 
              Baa    -0.0000    -0.000    -0.000    -0.000 -0.5553  0.8312  0.0279
    65 H(1)   Bbb     0.0000     0.000     0.000     0.000 -0.3689 -0.2762  0.8875
              Bcc     0.0000     0.000     0.000     0.000  0.7454  0.4826  0.4599
 
              Baa    -0.0000    -0.000    -0.000    -0.000  0.7061 -0.4789  0.5216
    66 H(1)   Bbb    -0.0000    -0.000    -0.000    -0.000  0.6866  0.2830 -0.6697
              Bcc     0.0000     0.000     0.000     0.000  0.1731  0.8310  0.5286
 
              Baa    -0.0000    -0.000    -0.000    -0.000  0.7396  0.6366 -0.2184
    67 H(1)   Bbb     0.0000     0.000     0.000     0.000  0.6618 -0.6287  0.4084
              Bcc     0.0000     0.000     0.000     0.000 -0.1227  0.4466  0.8863
 
              Baa    -0.0000    -0.000    -0.000    -0.000  0.2519  0.9487  0.1913
    68 H(1)   Bbb     0.0000     0.000     0.000     0.000  0.8949 -0.3036  0.3272
              Bcc     0.0000     0.000     0.000     0.000 -0.3684 -0.0887  0.9254
 
              Baa    -0.0000    -0.000    -0.000    -0.000 -0.6549  0.7317 -0.1890
    69 H(1)   Bbb     0.0000     0.000     0.000     0.000  0.1225  0.3495  0.9289
              Bcc     0.0000     0.000     0.000     0.000  0.7457  0.5852 -0.3185
 
              Baa    -0.0000    -0.000    -0.000    -0.000  0.1247  0.9748 -0.1850
    70 H(1)   Bbb    -0.0000    -0.000    -0.000    -0.000  0.5107  0.0968  0.8543
              Bcc     0.0000     0.000     0.000     0.000  0.8507 -0.2010 -0.4857
 
              Baa    -0.0000    -0.000    -0.000    -0.000  0.9000 -0.3771 -0.2188
    71 H(1)   Bbb     0.0000     0.000     0.000     0.000  0.4292  0.6785  0.5962
              Bcc     0.0000     0.000     0.000     0.000 -0.0764 -0.6304  0.7725
 
              Baa    -0.0000    -0.000    -0.000    -0.000  0.7447  0.4890  0.4542
    72 H(1)   Bbb     0.0000     0.000     0.000     0.000 -0.6010  0.7873  0.1379
              Bcc     0.0000     0.000     0.000     0.000 -0.2901 -0.3757  0.8802
 

 ---------------------------------------------------------------------------------

 No NMR shielding tensors so no spin-rotation constants.
 Leave Link  601 at Fri Jul 24 17:33:32 2020, MaxMem=  4026531840 cpu:              10.0 elap:               1.3
 (Enter /opt/ohpc/pub/libs/gaussian/g16-A.03/sandybridge/g16/l9999.exe)

 Test job not archived.
 1\1\GINC-SKYLAKE017\FOpt\ULC-wPBE\CC-pVDZ\C40H22S10\RDU230\24-Jul-2020
 \0\\#P uLC-wPBE/cc-pVDZ iop(3/107=0319800000, 3/108=0319800000) opt\\H
 22 C40 S10\\0,1\C,18.2464129438,1.730037126,-0.2558062479\C,18.0039179
 659,0.8105221494,-1.2367031249\C,16.6320760399,0.4317390858,-1.3012243
 293\C,15.8559437718,1.0699970616,-0.3652958731\S,16.8169115902,2.13266
 90387,0.6085399316\C,14.4176822765,0.9443577996,-0.1328767488\C,13.544
 1573198,1.8759471298,0.3708802714\C,12.2091417805,1.3972605733,0.46042
 76203\C,12.0703599885,0.1041207965,0.0199379286\S,13.5935612342,-0.533
 1430693,-0.5048162309\C,10.8621702387,-0.7146966916,-0.0426861185\C,10
 .7466166049,-2.0822166737,0.0131253561\C,9.400578463,-2.5312812695,-0.
 0574760039\C,8.4963900609,-1.5042620853,-0.1724626414\S,9.3065594696,0
 .0269010948,-0.2151884509\C,7.0420867488,-1.6047176018,-0.2780655293\C
 ,6.3128088492,-2.5992531557,-0.8820152226\C,4.9100492497,-2.3925428611
 ,-0.7936235972\C,4.5763452612,-1.2384556023,-0.1277628148\S,5.99648771
 92,-0.4141811269,0.4231998846\C,3.2498274951,-0.6887446417,0.140120615
 1\C,2.8860194045,0.6214561156,0.3322765051\C,1.4955417249,0.7836814864
 ,0.5741113901\C,0.8044525248,-0.4030354685,0.5610095782\S,1.8717386703
 ,-1.7326146971,0.2531069696\C,-0.6238248683,-0.6304903781,0.7644515903
 \C,-1.2564483789,-1.7533899415,1.2388476577\C,-2.6670857024,-1.6060374
 943,1.3190061946\C,-3.103781485,-0.3712461758,0.9055399852\S,-1.773523
 9496,0.6087127755,0.3849433667\C,-4.4680982667,0.1474847062,0.86020676
 19\C,-4.8952783057,1.4503298452,0.9401074429\C,-6.3086804949,1.5778515
 177,0.8762465322\C,-6.952898548,0.3716827236,0.7479478255\S,-5.8120351
 164,-0.9299521329,0.6751045592\C,-8.3864395711,0.1054076349,0.66664398
 56\C,-9.0718528079,-1.0283497455,1.0284893295\C,-10.4733426941,-0.9217
 191577,0.8216964383\C,-10.8502802007,0.292614516,0.3028161732\S,-9.468
 4760733,1.3035831184,0.0383376031\C,-12.1912027615,0.770136379,-0.0255
 396954\C,-12.6556672579,2.0618470756,-0.0692939008\C,-14.0255393397,2.
 1493057728,-0.4372447106\C,-14.6014091571,0.923832648,-0.662296201\S,-
 13.4485770235,-0.3492832251,-0.4329348697\C,-15.9908943546,0.643422870
 4,-1.0257658216\C,-17.1129779673,1.324122594,-0.6223804705\C,-18.31231
 92958,0.7994009552,-1.1844323274\C,-18.0822742986,-0.2739004946,-1.998
 1085822\S,-16.4087142715,-0.6470049631,-2.104251301\H,19.1955266344,2.
 1960219143,0.0114936485\H,18.7779299618,0.4197270179,-1.9004549834\H,1
 6.2245651861,-0.274643662,-2.0283560579\H,13.8524506366,2.883210269,0.
 6600729211\H,11.3744000718,1.9857326393,0.8482019915\H,11.6058944838,-
 2.7459395411,0.1340128805\H,9.1001297114,-3.5789461616,0.0084467885\H,
 6.7765975858,-3.4383247203,-1.404545657\H,4.1660237995,-3.0587818065,-
 1.2364522561\H,3.5987265172,1.4482828985,0.2904713765\H,1.0175889349,1
 .7476049124,0.7631191622\H,-0.718600146,-2.6521451443,1.5492573519\H,-
 3.3405201923,-2.3780925215,1.698122973\H,-4.2120034793,2.2926576321,1.
 070282543\H,-6.8394026501,2.5296793613,0.9514066337\H,-8.5838269147,-1
 .9057360035,1.4590437901\H,-11.1886580253,-1.7077861211,1.0742526069\H
 ,-12.0296036931,2.926276427,0.16389592\H,-14.5718451378,3.0880467017,-
 0.5490851602\H,-17.0756803594,2.1618045532,0.0772770202\H,-19.30853197
 41,1.1982351874,-0.9818565258\H,-18.8105411563,-0.8713717688,-2.547706
 6499\\Version=EM64L-G16RevA.03\State=1-A\HF=-5517.0249851\S2=0.\S2-1=0
 .\S2A=0.\RMSD=7.376e-09\RMSF=1.802e-06\Dipole=-0.0808286,0.0779103,0.1
 196595\Quadrupole=39.224206,-5.4361735,-33.7880325,-7.9505766,-6.63031
 67,4.7789009\PG=C01 [X(C40H22S10)]\\@


 THE WORLD IS NOT A HAMBURGER - YOU CAN'T HAVE IT YOUR WAY.
 Job cpu time:       1 days 15 hours 49 minutes 32.8 seconds.
 Elapsed time:       0 days  5 hours  5 minutes 20.1 seconds.
 File lengths (MBytes):  RWF=    848 Int=      0 D2E=      0 Chk=     76 Scr=      8
 Normal termination of Gaussian 16 at Fri Jul 24 17:33:32 2020.
