 Entering Gaussian System, Link 0=g16
 Input=mols_65_5_03_c-c-COC_opt_0.gjf
 Output=mols_65_5_03_c-c-COC_opt_0.log
 Initial command:
 /opt/ohpc/pub/libs/gaussian/g16-A.03/sandybridge/g16/l1.exe "/mnt/gpfs2_4m/scratch/rdu230/ondemand/projects/dihedral_energies/7trial/wtuning/mols_65_5_03_c-c-COC/Gau-401441.inp" -scrdir="/mnt/gpfs2_4m/scratch/rdu230/ondemand/projects/dihedral_energies/7trial/wtuning/mols_65_5_03_c-c-COC/"
 Entering Link 1 = /opt/ohpc/pub/libs/gaussian/g16-A.03/sandybridge/g16/l1.exe PID=    401444.
  
 Copyright (c) 1988,1990,1992,1993,1995,1998,2003,2009,2016,
            Gaussian, Inc.  All Rights Reserved.
  
 This is part of the Gaussian(R) 16 program.  It is based on
 the Gaussian(R) 09 system (copyright 2009, Gaussian, Inc.),
 the Gaussian(R) 03 system (copyright 2003, Gaussian, Inc.),
 the Gaussian(R) 98 system (copyright 1998, Gaussian, Inc.),
 the Gaussian(R) 94 system (copyright 1995, Gaussian, Inc.),
 the Gaussian 92(TM) system (copyright 1992, Gaussian, Inc.),
 the Gaussian 90(TM) system (copyright 1990, Gaussian, Inc.),
 the Gaussian 88(TM) system (copyright 1988, Gaussian, Inc.),
 the Gaussian 86(TM) system (copyright 1986, Carnegie Mellon
 University), and the Gaussian 82(TM) system (copyright 1983,
 Carnegie Mellon University). Gaussian is a federally registered
 trademark of Gaussian, Inc.
  
 This software contains proprietary and confidential information,
 including trade secrets, belonging to Gaussian, Inc.
  
 This software is provided under written license and may be
 used, copied, transmitted, or stored only in accord with that
 written license.
  
 The following legend is applicable only to US Government
 contracts under FAR:
  
                    RESTRICTED RIGHTS LEGEND
  
 Use, reproduction and disclosure by the US Government is
 subject to restrictions as set forth in subparagraphs (a)
 and (c) of the Commercial Computer Software - Restricted
 Rights clause in FAR 52.227-19.
  
 Gaussian, Inc.
 340 Quinnipiac St., Bldg. 40, Wallingford CT 06492
  
  
 ---------------------------------------------------------------
 Warning -- This program may not be used in any manner that
 competes with the business of Gaussian, Inc. or will provide
 assistance to any competitor of Gaussian, Inc.  The licensee
 of this program is prohibited from giving any competitor of
 Gaussian, Inc. access to this program.  By using this program,
 the user acknowledges that Gaussian, Inc. is engaged in the
 business of creating and licensing software in the field of
 computational chemistry and represents and warrants to the
 licensee that it is not a competitor of Gaussian, Inc. and that
 it will not use this program in any manner prohibited above.
 ---------------------------------------------------------------
  

 Cite this work as:
 Gaussian 16, Revision A.03,
 M. J. Frisch, G. W. Trucks, H. B. Schlegel, G. E. Scuseria, 
 M. A. Robb, J. R. Cheeseman, G. Scalmani, V. Barone, 
 G. A. Petersson, H. Nakatsuji, X. Li, M. Caricato, A. V. Marenich, 
 J. Bloino, B. G. Janesko, R. Gomperts, B. Mennucci, H. P. Hratchian, 
 J. V. Ortiz, A. F. Izmaylov, J. L. Sonnenberg, D. Williams-Young, 
 F. Ding, F. Lipparini, F. Egidi, J. Goings, B. Peng, A. Petrone, 
 T. Henderson, D. Ranasinghe, V. G. Zakrzewski, J. Gao, N. Rega, 
 G. Zheng, W. Liang, M. Hada, M. Ehara, K. Toyota, R. Fukuda, 
 J. Hasegawa, M. Ishida, T. Nakajima, Y. Honda, O. Kitao, H. Nakai, 
 T. Vreven, K. Throssell, J. A. Montgomery, Jr., J. E. Peralta, 
 F. Ogliaro, M. J. Bearpark, J. J. Heyd, E. N. Brothers, K. N. Kudin, 
 V. N. Staroverov, T. A. Keith, R. Kobayashi, J. Normand, 
 K. Raghavachari, A. P. Rendell, J. C. Burant, S. S. Iyengar, 
 J. Tomasi, M. Cossi, J. M. Millam, M. Klene, C. Adamo, R. Cammi, 
 J. W. Ochterski, R. L. Martin, K. Morokuma, O. Farkas, 
 J. B. Foresman, and D. J. Fox, Gaussian, Inc., Wallingford CT, 2016.
 
 ******************************************
 Gaussian 16:  EM64L-G16RevA.03 25-Dec-2016
                23-Jul-2020 
 ******************************************
 %mem=30GB
 %nproc=8
 Will use up to    8 processors via shared memory.
 ---------------------------------------------------------------
 #P uLC-wPBE/cc-pVDZ iop(3/107=0224700000, 3/108=0224700000) opt
 ---------------------------------------------------------------
 1/18=20,19=15,26=3,38=1/1,3;
 2/9=110,12=2,17=6,18=5,40=1/2;
 3/5=16,11=2,25=1,30=1,71=1,74=-41,107=224700000,108=224700000,116=2/1,2,3;
 4//1;
 5/5=2,38=5/2;
 6/7=2,8=2,9=2,10=2,28=1/1;
 7//1,2,3,16;
 1/18=20,19=15,26=3/3(2);
 2/9=110/2;
 99//99;
 2/9=110/2;
 3/5=16,11=2,25=1,30=1,71=1,74=-41,107=224700000,108=224700000,116=2/1,2,3;
 4/5=5,16=3,69=1/1;
 5/5=2,38=5/2;
 7//1,2,3,16;
 1/18=20,19=15,26=3/3(-5);
 2/9=110/2;
 6/7=2,8=2,9=2,10=2,19=2,28=1/1;
 99/9=1/99;
 Leave Link    1 at Thu Jul 23 10:00:15 2020, MaxMem=  4026531840 cpu:               2.1 elap:               0.3
 (Enter /opt/ohpc/pub/libs/gaussian/g16-A.03/sandybridge/g16/l101.exe)
 -------------
 H42 C55 S5 O5
 -------------
 Symbolic Z-matrix:
 Charge =  0 Multiplicity = 1
 C                     19.57297   1.04709   0.3997 
 C                     19.12427  -0.11549   0.99895 
 C                     17.8234  -0.59591   0.81252 
 C                     16.87502   0.11274   0.06958 
 C                     17.34935   1.29002  -0.56723 
 C                     18.63388   1.74358  -0.31485 
 C                     15.516   -0.40243  -0.08659 
 C                     15.04784  -1.66345  -0.41023 
 O                     16.00709  -2.60357  -0.69965 
 C                     15.42816  -3.90684  -0.86572 
 C                     13.64432  -1.72203  -0.4031 
 C                     13.07803  -0.4212   -0.09932 
 S                     14.25272   0.76579   0.23577 
 C                     11.64016  -0.16584  -0.05883 
 C                     11.14361   1.01321  -0.71663 
 C                     9.7295    1.26375  -0.66961 
 C                     8.85553   0.51909   0.09913 
 C                     9.36559  -0.58014   0.8133 
 C                     10.74718  -0.85079   0.73132 
 C                     7.4861    0.92617   0.20256 
 C                     6.87773   2.17086   0.47141 
 O                     7.68985   3.22308   0.716 
 C                     6.91906   4.4365    0.87861 
 C                     5.41529   2.0761    0.39074 
 C                     4.95935   0.77957   0.23094 
 S                     6.23396  -0.29297  -0.01494 
 C                     3.63652   0.29087   0.09514 
 C                     2.69944   1.01521  -0.73386 
 C                     1.39207   0.5715   -0.88479 
 C                     0.85071  -0.49972  -0.05258 
 C                     1.79963  -1.1812    0.71368 
 C                     3.1322   -0.789     0.80419 
 C                    -0.51622  -0.89655  -0.15583 
 C                    -1.02727  -2.22745  -0.27053 
 O                    -0.17911  -3.31829  -0.301 
 C                    -0.88341  -4.56068  -0.59544 
 C                    -2.46465  -2.17653  -0.24743 
 C                    -2.96955  -0.94301  -0.14203 
 S                    -1.77752   0.28189  -0.05687 
 C                    -4.46918  -0.54306  -0.1349 
 C                    -4.86316   0.68099   0.55025 
 C                    -6.24514   0.96642   0.5406 
 C                    -7.16269   0.22635  -0.17687 
 C                    -6.75537  -0.9061   -0.73368 
 C                    -5.44348  -1.29448  -0.76235 
 C                    -8.54407   0.68748  -0.15128 
 C                    -9.13515   1.87393  -0.45579 
 O                    -8.2543    2.92412  -0.69828 
 C                    -8.94121   4.18757  -1.0993 
 C                    -10.56123   1.90545  -0.31725 
 C                    -11.02738   0.64466  -0.08332 
 S                    -9.7886   -0.50373   0.14777 
 C                    -12.48057   0.24097   0.09404 
 C                    -13.0006  -0.88858  -0.56551 
 C                    -14.2925  -1.20541  -0.40649 
 C                    -15.19475  -0.42322   0.32402 
 C                    -14.71317   0.79677   0.82568 
 C                    -13.38206   1.07393   0.72683 
 C                    -16.64717  -0.7147    0.43515 
 C                    -17.72176   0.05877   0.04907 
 O                    -17.60093   1.2913   -0.52393 
 C                    -18.72314   1.88408  -0.99864 
 C                    -18.93406  -0.66675   0.28428 
 C                    -18.73255  -1.88687   0.83713 
 S                    -17.1256  -2.20121   1.11649 
 H                     20.57411   1.45243   0.56068 
 H                     19.86861  -0.68378   1.68203 
 H                     17.56205  -1.54351   1.30222 
 H                     16.64903   1.92896  -1.16721 
 H                     18.96304   2.74218  -0.77154 
 H                     14.79983  -4.22152  -0.01398 
 H                     14.73032  -3.901    -1.71204 
 H                     16.14344  -4.61753  -1.03386 
 H                     13.02839  -2.57465  -0.62858 
 H                     11.80186   1.55876  -1.3616 
 H                     9.42126   2.15145  -1.23971 
 H                     8.79643  -1.1781    1.42935 
 H                     11.10409  -1.71923   1.30498 
 H                     6.30272   4.43247   1.73007 
 H                     7.69705   5.19152   1.03097 
 H                     6.3918    4.73104  -0.11242 
 H                     4.77729   2.93108   0.59549 
 H                     3.00456   1.85479  -1.36529 
 H                     0.65249   1.07516  -1.55096 
 H                     1.41268  -2.02868   1.3718 
 H                     3.7652   -1.30814   1.48695 
 H                    -1.51978  -4.8776    0.16001 
 H                    -1.42324  -4.43593  -1.52674 
 H                    -0.11664  -5.30376  -0.7269 
 H                    -3.09509  -3.07503  -0.29182 
 H                    -4.1704    1.22638   1.08802 
 H                    -6.4988    1.88755   1.07052 
 H                    -7.50479  -1.55424  -1.29402 
 H                    -5.06949  -2.24792  -1.27966 
 H                    -9.57709   4.00778  -1.98458 
 H                    -9.49122   4.58137  -0.31176 
 H                    -8.19102   4.90144  -1.35171 
 H                    -11.15813   2.72468  -0.55908 
 H                    -12.3209  -1.58025  -1.03866 
 H                    -14.7083  -2.16674  -0.83519 
 H                    -15.40435   1.4467    1.37202 
 H                    -13.00326   1.97667   1.24014 
 H                    -19.22473   1.35629  -1.70871 
 H                    -19.38256   2.13745  -0.15788 
 H                    -18.42927   2.84061  -1.41229 
 H                    -19.9281  -0.23611   0.09112 
 H                    -19.54133  -2.55406   1.16992 
 
 ITRead=  0  0  0  0  0  0  0  0  0  0  0  0  0  0  0  0  0  0  0  0
 ITRead=  0  0  0  0  0  0  0  0  0  0  0  0  0  0  0  0  0  0  0  0
 ITRead=  0  0  0  0  0  0  0  0  0  0  0  0  0  0  0  0  0  0  0  0
 ITRead=  0  0  0  0  0  0  0  0  0  0  0  0  0  0  0  0  0  0  0  0
 ITRead=  0  0  0  0  0  0  0  0  0  0  0  0  0  0  0  0  0  0  0  0
 ITRead=  0  0  0  0  0  0  0
 MicOpt= -1 -1 -1 -1 -1 -1 -1 -1 -1 -1 -1 -1 -1 -1 -1 -1 -1 -1 -1 -1
 MicOpt= -1 -1 -1 -1 -1 -1 -1 -1 -1 -1 -1 -1 -1 -1 -1 -1 -1 -1 -1 -1
 MicOpt= -1 -1 -1 -1 -1 -1 -1 -1 -1 -1 -1 -1 -1 -1 -1 -1 -1 -1 -1 -1
 MicOpt= -1 -1 -1 -1 -1 -1 -1 -1 -1 -1 -1 -1 -1 -1 -1 -1 -1 -1 -1 -1
 MicOpt= -1 -1 -1 -1 -1 -1 -1 -1 -1 -1 -1 -1 -1 -1 -1 -1 -1 -1 -1 -1
 MicOpt= -1 -1 -1 -1 -1 -1 -1
 NAtoms=    107 NQM=      107 NQMF=       0 NMMI=      0 NMMIF=      0
                NMic=       0 NMicF=      0.
                    Isotopes and Nuclear Properties:
 (Nuclear quadrupole moments (NQMom) in fm**2, nuclear magnetic moments (NMagM)
  in nuclear magnetons)

  Atom         1           2           3           4           5           6           7           8           9          10
 IAtWgt=          12          12          12          12          12          12          12          12          16          12
 AtmWgt=  12.0000000  12.0000000  12.0000000  12.0000000  12.0000000  12.0000000  12.0000000  12.0000000  15.9949146  12.0000000
 NucSpn=           0           0           0           0           0           0           0           0           0           0
 AtZEff=  -0.0000000  -0.0000000  -0.0000000  -0.0000000  -0.0000000  -0.0000000  -0.0000000  -0.0000000  -0.0000000  -0.0000000
 NQMom=    0.0000000   0.0000000   0.0000000   0.0000000   0.0000000   0.0000000   0.0000000   0.0000000   0.0000000   0.0000000
 NMagM=    0.0000000   0.0000000   0.0000000   0.0000000   0.0000000   0.0000000   0.0000000   0.0000000   0.0000000   0.0000000
 AtZNuc=   6.0000000   6.0000000   6.0000000   6.0000000   6.0000000   6.0000000   6.0000000   6.0000000   8.0000000   6.0000000

  Atom        11          12          13          14          15          16          17          18          19          20
 IAtWgt=          12          12          32          12          12          12          12          12          12          12
 AtmWgt=  12.0000000  12.0000000  31.9720718  12.0000000  12.0000000  12.0000000  12.0000000  12.0000000  12.0000000  12.0000000
 NucSpn=           0           0           0           0           0           0           0           0           0           0
 AtZEff=  -0.0000000  -0.0000000  -0.0000000  -0.0000000  -0.0000000  -0.0000000  -0.0000000  -0.0000000  -0.0000000  -0.0000000
 NQMom=    0.0000000   0.0000000   0.0000000   0.0000000   0.0000000   0.0000000   0.0000000   0.0000000   0.0000000   0.0000000
 NMagM=    0.0000000   0.0000000   0.0000000   0.0000000   0.0000000   0.0000000   0.0000000   0.0000000   0.0000000   0.0000000
 AtZNuc=   6.0000000   6.0000000  16.0000000   6.0000000   6.0000000   6.0000000   6.0000000   6.0000000   6.0000000   6.0000000

  Atom        21          22          23          24          25          26          27          28          29          30
 IAtWgt=          12          16          12          12          12          32          12          12          12          12
 AtmWgt=  12.0000000  15.9949146  12.0000000  12.0000000  12.0000000  31.9720718  12.0000000  12.0000000  12.0000000  12.0000000
 NucSpn=           0           0           0           0           0           0           0           0           0           0
 AtZEff=  -0.0000000  -0.0000000  -0.0000000  -0.0000000  -0.0000000  -0.0000000  -0.0000000  -0.0000000  -0.0000000  -0.0000000
 NQMom=    0.0000000   0.0000000   0.0000000   0.0000000   0.0000000   0.0000000   0.0000000   0.0000000   0.0000000   0.0000000
 NMagM=    0.0000000   0.0000000   0.0000000   0.0000000   0.0000000   0.0000000   0.0000000   0.0000000   0.0000000   0.0000000
 AtZNuc=   6.0000000   8.0000000   6.0000000   6.0000000   6.0000000  16.0000000   6.0000000   6.0000000   6.0000000   6.0000000

  Atom        31          32          33          34          35          36          37          38          39          40
 IAtWgt=          12          12          12          12          16          12          12          12          32          12
 AtmWgt=  12.0000000  12.0000000  12.0000000  12.0000000  15.9949146  12.0000000  12.0000000  12.0000000  31.9720718  12.0000000
 NucSpn=           0           0           0           0           0           0           0           0           0           0
 AtZEff=  -0.0000000  -0.0000000  -0.0000000  -0.0000000  -0.0000000  -0.0000000  -0.0000000  -0.0000000  -0.0000000  -0.0000000
 NQMom=    0.0000000   0.0000000   0.0000000   0.0000000   0.0000000   0.0000000   0.0000000   0.0000000   0.0000000   0.0000000
 NMagM=    0.0000000   0.0000000   0.0000000   0.0000000   0.0000000   0.0000000   0.0000000   0.0000000   0.0000000   0.0000000
 AtZNuc=   6.0000000   6.0000000   6.0000000   6.0000000   8.0000000   6.0000000   6.0000000   6.0000000  16.0000000   6.0000000

  Atom        41          42          43          44          45          46          47          48          49          50
 IAtWgt=          12          12          12          12          12          12          12          16          12          12
 AtmWgt=  12.0000000  12.0000000  12.0000000  12.0000000  12.0000000  12.0000000  12.0000000  15.9949146  12.0000000  12.0000000
 NucSpn=           0           0           0           0           0           0           0           0           0           0
 AtZEff=  -0.0000000  -0.0000000  -0.0000000  -0.0000000  -0.0000000  -0.0000000  -0.0000000  -0.0000000  -0.0000000  -0.0000000
 NQMom=    0.0000000   0.0000000   0.0000000   0.0000000   0.0000000   0.0000000   0.0000000   0.0000000   0.0000000   0.0000000
 NMagM=    0.0000000   0.0000000   0.0000000   0.0000000   0.0000000   0.0000000   0.0000000   0.0000000   0.0000000   0.0000000
 AtZNuc=   6.0000000   6.0000000   6.0000000   6.0000000   6.0000000   6.0000000   6.0000000   8.0000000   6.0000000   6.0000000

  Atom        51          52          53          54          55          56          57          58          59          60
 IAtWgt=          12          32          12          12          12          12          12          12          12          12
 AtmWgt=  12.0000000  31.9720718  12.0000000  12.0000000  12.0000000  12.0000000  12.0000000  12.0000000  12.0000000  12.0000000
 NucSpn=           0           0           0           0           0           0           0           0           0           0
 AtZEff=  -0.0000000  -0.0000000  -0.0000000  -0.0000000  -0.0000000  -0.0000000  -0.0000000  -0.0000000  -0.0000000  -0.0000000
 NQMom=    0.0000000   0.0000000   0.0000000   0.0000000   0.0000000   0.0000000   0.0000000   0.0000000   0.0000000   0.0000000
 NMagM=    0.0000000   0.0000000   0.0000000   0.0000000   0.0000000   0.0000000   0.0000000   0.0000000   0.0000000   0.0000000
 AtZNuc=   6.0000000  16.0000000   6.0000000   6.0000000   6.0000000   6.0000000   6.0000000   6.0000000   6.0000000   6.0000000

  Atom        61          62          63          64          65          66          67          68          69          70
 IAtWgt=          16          12          12          12          32           1           1           1           1           1
 AtmWgt=  15.9949146  12.0000000  12.0000000  12.0000000  31.9720718   1.0078250   1.0078250   1.0078250   1.0078250   1.0078250
 NucSpn=           0           0           0           0           0           1           1           1           1           1
 AtZEff=  -0.0000000  -0.0000000  -0.0000000  -0.0000000  -0.0000000  -0.0000000  -0.0000000  -0.0000000  -0.0000000  -0.0000000
 NQMom=    0.0000000   0.0000000   0.0000000   0.0000000   0.0000000   0.0000000   0.0000000   0.0000000   0.0000000   0.0000000
 NMagM=    0.0000000   0.0000000   0.0000000   0.0000000   0.0000000   2.7928460   2.7928460   2.7928460   2.7928460   2.7928460
 AtZNuc=   8.0000000   6.0000000   6.0000000   6.0000000  16.0000000   1.0000000   1.0000000   1.0000000   1.0000000   1.0000000

  Atom        71          72          73          74          75          76          77          78          79          80
 IAtWgt=           1           1           1           1           1           1           1           1           1           1
 AtmWgt=   1.0078250   1.0078250   1.0078250   1.0078250   1.0078250   1.0078250   1.0078250   1.0078250   1.0078250   1.0078250
 NucSpn=           1           1           1           1           1           1           1           1           1           1
 AtZEff=  -0.0000000  -0.0000000  -0.0000000  -0.0000000  -0.0000000  -0.0000000  -0.0000000  -0.0000000  -0.0000000  -0.0000000
 NQMom=    0.0000000   0.0000000   0.0000000   0.0000000   0.0000000   0.0000000   0.0000000   0.0000000   0.0000000   0.0000000
 NMagM=    2.7928460   2.7928460   2.7928460   2.7928460   2.7928460   2.7928460   2.7928460   2.7928460   2.7928460   2.7928460
 AtZNuc=   1.0000000   1.0000000   1.0000000   1.0000000   1.0000000   1.0000000   1.0000000   1.0000000   1.0000000   1.0000000

  Atom        81          82          83          84          85          86          87          88          89          90
 IAtWgt=           1           1           1           1           1           1           1           1           1           1
 AtmWgt=   1.0078250   1.0078250   1.0078250   1.0078250   1.0078250   1.0078250   1.0078250   1.0078250   1.0078250   1.0078250
 NucSpn=           1           1           1           1           1           1           1           1           1           1
 AtZEff=  -0.0000000  -0.0000000  -0.0000000  -0.0000000  -0.0000000  -0.0000000  -0.0000000  -0.0000000  -0.0000000  -0.0000000
 NQMom=    0.0000000   0.0000000   0.0000000   0.0000000   0.0000000   0.0000000   0.0000000   0.0000000   0.0000000   0.0000000
 NMagM=    2.7928460   2.7928460   2.7928460   2.7928460   2.7928460   2.7928460   2.7928460   2.7928460   2.7928460   2.7928460
 AtZNuc=   1.0000000   1.0000000   1.0000000   1.0000000   1.0000000   1.0000000   1.0000000   1.0000000   1.0000000   1.0000000

  Atom        91          92          93          94          95          96          97          98          99         100
 IAtWgt=           1           1           1           1           1           1           1           1           1           1
 AtmWgt=   1.0078250   1.0078250   1.0078250   1.0078250   1.0078250   1.0078250   1.0078250   1.0078250   1.0078250   1.0078250
 NucSpn=           1           1           1           1           1           1           1           1           1           1
 AtZEff=  -0.0000000  -0.0000000  -0.0000000  -0.0000000  -0.0000000  -0.0000000  -0.0000000  -0.0000000  -0.0000000  -0.0000000
 NQMom=    0.0000000   0.0000000   0.0000000   0.0000000   0.0000000   0.0000000   0.0000000   0.0000000   0.0000000   0.0000000
 NMagM=    2.7928460   2.7928460   2.7928460   2.7928460   2.7928460   2.7928460   2.7928460   2.7928460   2.7928460   2.7928460
 AtZNuc=   1.0000000   1.0000000   1.0000000   1.0000000   1.0000000   1.0000000   1.0000000   1.0000000   1.0000000   1.0000000

  Atom       101         102         103         104         105         106         107
 IAtWgt=           1           1           1           1           1           1           1
 AtmWgt=   1.0078250   1.0078250   1.0078250   1.0078250   1.0078250   1.0078250   1.0078250
 NucSpn=           1           1           1           1           1           1           1
 AtZEff=  -0.0000000  -0.0000000  -0.0000000  -0.0000000  -0.0000000  -0.0000000  -0.0000000
 NQMom=    0.0000000   0.0000000   0.0000000   0.0000000   0.0000000   0.0000000   0.0000000
 NMagM=    2.7928460   2.7928460   2.7928460   2.7928460   2.7928460   2.7928460   2.7928460
 AtZNuc=   1.0000000   1.0000000   1.0000000   1.0000000   1.0000000   1.0000000   1.0000000
 Leave Link  101 at Thu Jul 23 10:00:15 2020, MaxMem=  4026531840 cpu:               3.0 elap:               0.4
 (Enter /opt/ohpc/pub/libs/gaussian/g16-A.03/sandybridge/g16/l103.exe)

 GradGradGradGradGradGradGradGradGradGradGradGradGradGradGradGradGradGrad
 Berny optimization.
 Initialization pass.
                           ----------------------------
                           !    Initial Parameters    !
                           ! (Angstroms and Degrees)  !
 --------------------------                            --------------------------
 ! Name  Definition              Value          Derivative Info.                !
 --------------------------------------------------------------------------------
 ! R1    R(1,2)                  1.3828         estimate D2E/DX2                !
 ! R2    R(1,6)                  1.3703         estimate D2E/DX2                !
 ! R3    R(1,66)                 1.092          estimate D2E/DX2                !
 ! R4    R(2,3)                  1.3992         estimate D2E/DX2                !
 ! R5    R(2,67)                 1.1591         estimate D2E/DX2                !
 ! R6    R(3,4)                  1.3977         estimate D2E/DX2                !
 ! R7    R(3,68)                 1.0982         estimate D2E/DX2                !
 ! R8    R(4,5)                  1.42           estimate D2E/DX2                !
 ! R9    R(4,7)                  1.4618         estimate D2E/DX2                !
 ! R10   R(5,6)                  1.3854         estimate D2E/DX2                !
 ! R11   R(5,69)                 1.1219         estimate D2E/DX2                !
 ! R12   R(6,70)                 1.1463         estimate D2E/DX2                !
 ! R13   R(7,8)                  1.3835         estimate D2E/DX2                !
 ! R14   R(7,13)                 1.7506         estimate D2E/DX2                !
 ! R15   R(8,9)                  1.374          estimate D2E/DX2                !
 ! R16   R(8,11)                 1.4048         estimate D2E/DX2                !
 ! R17   R(9,10)                 1.4357         estimate D2E/DX2                !
 ! R18   R(10,71)                1.1042         estimate D2E/DX2                !
 ! R19   R(10,72)                1.0969         estimate D2E/DX2                !
 ! R20   R(10,73)                1.0222         estimate D2E/DX2                !
 ! R21   R(11,12)                1.4509         estimate D2E/DX2                !
 ! R22   R(11,74)                1.0757         estimate D2E/DX2                !
 ! R23   R(12,13)                1.7033         estimate D2E/DX2                !
 ! R24   R(12,14)                1.4609         estimate D2E/DX2                !
 ! R25   R(14,15)                1.4386         estimate D2E/DX2                !
 ! R26   R(14,19)                1.3751         estimate D2E/DX2                !
 ! R27   R(15,16)                1.4369         estimate D2E/DX2                !
 ! R28   R(15,75)                1.0709         estimate D2E/DX2                !
 ! R29   R(16,17)                1.3818         estimate D2E/DX2                !
 ! R30   R(16,76)                1.0991         estimate D2E/DX2                !
 ! R31   R(17,18)                1.4066         estimate D2E/DX2                !
 ! R32   R(17,20)                1.4324         estimate D2E/DX2                !
 ! R33   R(18,19)                1.4102         estimate D2E/DX2                !
 ! R34   R(18,77)                1.0301         estimate D2E/DX2                !
 ! R35   R(19,78)                1.1003         estimate D2E/DX2                !
 ! R36   R(20,21)                1.4113         estimate D2E/DX2                !
 ! R37   R(20,26)                1.7611         estimate D2E/DX2                !
 ! R38   R(21,22)                1.3515         estimate D2E/DX2                !
 ! R39   R(21,24)                1.4677         estimate D2E/DX2                !
 ! R40   R(22,23)                1.4467         estimate D2E/DX2                !
 ! R41   R(23,79)                1.0511         estimate D2E/DX2                !
 ! R42   R(23,80)                1.0948         estimate D2E/DX2                !
 ! R43   R(23,81)                1.1606         estimate D2E/DX2                !
 ! R44   R(24,25)                1.3836         estimate D2E/DX2                !
 ! R45   R(24,82)                1.0863         estimate D2E/DX2                !
 ! R46   R(25,26)                1.6839         estimate D2E/DX2                !
 ! R47   R(25,27)                1.4167         estimate D2E/DX2                !
 ! R48   R(27,28)                1.4457         estimate D2E/DX2                !
 ! R49   R(27,32)                1.3868         estimate D2E/DX2                !
 ! R50   R(28,29)                1.3888         estimate D2E/DX2                !
 ! R51   R(28,83)                1.0939         estimate D2E/DX2                !
 ! R52   R(29,30)                1.4605         estimate D2E/DX2                !
 ! R53   R(29,84)                1.1155         estimate D2E/DX2                !
 ! R54   R(30,31)                1.3971         estimate D2E/DX2                !
 ! R55   R(30,33)                1.4271         estimate D2E/DX2                !
 ! R56   R(31,32)                1.392          estimate D2E/DX2                !
 ! R57   R(31,85)                1.1406         estimate D2E/DX2                !
 ! R58   R(32,86)                1.066          estimate D2E/DX2                !
 ! R59   R(33,34)                1.4303         estimate D2E/DX2                !
 ! R60   R(33,39)                1.729          estimate D2E/DX2                !
 ! R61   R(34,35)                1.3821         estimate D2E/DX2                !
 ! R62   R(34,37)                1.4385         estimate D2E/DX2                !
 ! R63   R(35,36)                1.4582         estimate D2E/DX2                !
 ! R64   R(36,87)                1.0374         estimate D2E/DX2                !
 ! R65   R(36,88)                1.0836         estimate D2E/DX2                !
 ! R66   R(36,89)                1.0758         estimate D2E/DX2                !
 ! R67   R(37,38)                1.337          estimate D2E/DX2                !
 ! R68   R(37,90)                1.0985         estimate D2E/DX2                !
 ! R69   R(38,39)                1.7113         estimate D2E/DX2                !
 ! R70   R(38,40)                1.5521         estimate D2E/DX2                !
 ! R71   R(40,41)                1.457          estimate D2E/DX2                !
 ! R72   R(40,45)                1.3812         estimate D2E/DX2                !
 ! R73   R(41,42)                1.4112         estimate D2E/DX2                !
 ! R74   R(41,91)                1.0327         estimate D2E/DX2                !
 ! R75   R(42,43)                1.38           estimate D2E/DX2                !
 ! R76   R(42,92)                1.0925         estimate D2E/DX2                !
 ! R77   R(43,44)                1.326          estimate D2E/DX2                !
 ! R78   R(43,46)                1.4565         estimate D2E/DX2                !
 ! R79   R(44,45)                1.3685         estimate D2E/DX2                !
 ! R80   R(44,93)                1.1383         estimate D2E/DX2                !
 ! R81   R(45,94)                1.1474         estimate D2E/DX2                !
 ! R82   R(46,47)                1.3601         estimate D2E/DX2                !
 ! R83   R(46,52)                1.7485         estimate D2E/DX2                !
 ! R84   R(47,48)                1.392          estimate D2E/DX2                !
 ! R85   R(47,50)                1.4331         estimate D2E/DX2                !
 ! R86   R(48,49)                1.493          estimate D2E/DX2                !
 ! R87   R(49,95)                1.1047         estimate D2E/DX2                !
 ! R88   R(49,96)                1.0382         estimate D2E/DX2                !
 ! R89   R(49,97)                1.0659         estimate D2E/DX2                !
 ! R90   R(50,51)                1.3644         estimate D2E/DX2                !
 ! R91   R(50,98)                1.0421         estimate D2E/DX2                !
 ! R92   R(51,52)                1.7049         estimate D2E/DX2                !
 ! R93   R(51,53)                1.5186         estimate D2E/DX2                !
 ! R94   R(53,54)                1.4076         estimate D2E/DX2                !
 ! R95   R(53,58)                1.3809         estimate D2E/DX2                !
 ! R96   R(54,55)                1.3396         estimate D2E/DX2                !
 ! R97   R(54,99)                1.079          estimate D2E/DX2                !
 ! R98   R(55,56)                1.3998         estimate D2E/DX2                !
 ! R99   R(55,100)               1.1317         estimate D2E/DX2                !
 ! R100  R(56,57)                1.4043         estimate D2E/DX2                !
 ! R101  R(56,59)                1.4855         estimate D2E/DX2                !
 ! R102  R(57,58)                1.3632         estimate D2E/DX2                !
 ! R103  R(57,101)               1.0948         estimate D2E/DX2                !
 ! R104  R(58,102)               1.1054         estimate D2E/DX2                !
 ! R105  R(59,60)                1.3791         estimate D2E/DX2                !
 ! R106  R(59,65)                1.7038         estimate D2E/DX2                !
 ! R107  R(60,61)                1.3646         estimate D2E/DX2                !
 ! R108  R(60,63)                1.4323         estimate D2E/DX2                !
 ! R109  R(61,62)                1.355          estimate D2E/DX2                !
 ! R110  R(62,103)               1.017          estimate D2E/DX2                !
 ! R111  R(62,104)               1.0981         estimate D2E/DX2                !
 ! R112  R(62,105)               1.0828         estimate D2E/DX2                !
 ! R113  R(63,64)                1.3546         estimate D2E/DX2                !
 ! R114  R(63,106)               1.1004         estimate D2E/DX2                !
 ! R115  R(64,65)                1.6611         estimate D2E/DX2                !
 ! R116  R(64,107)               1.1            estimate D2E/DX2                !
 ! A1    A(2,1,6)              115.5286         estimate D2E/DX2                !
 ! A2    A(2,1,66)             123.0722         estimate D2E/DX2                !
 ! A3    A(6,1,66)             121.0981         estimate D2E/DX2                !
 ! A4    A(1,2,3)              122.1828         estimate D2E/DX2                !
 ! A5    A(1,2,67)             117.3362         estimate D2E/DX2                !
 ! A6    A(3,2,67)             120.4776         estimate D2E/DX2                !
 ! A7    A(2,3,4)              121.8418         estimate D2E/DX2                !
 ! A8    A(2,3,68)             117.2646         estimate D2E/DX2                !
 ! A9    A(4,3,68)             120.8655         estimate D2E/DX2                !
 ! A10   A(3,4,5)              115.5984         estimate D2E/DX2                !
 ! A11   A(3,4,7)              120.5933         estimate D2E/DX2                !
 ! A12   A(5,4,7)              123.6986         estimate D2E/DX2                !
 ! A13   A(4,5,6)              119.9617         estimate D2E/DX2                !
 ! A14   A(4,5,69)             120.2299         estimate D2E/DX2                !
 ! A15   A(6,5,69)             119.3232         estimate D2E/DX2                !
 ! A16   A(1,6,5)              124.334          estimate D2E/DX2                !
 ! A17   A(1,6,70)             116.9841         estimate D2E/DX2                !
 ! A18   A(5,6,70)             118.6097         estimate D2E/DX2                !
 ! A19   A(4,7,8)              131.3628         estimate D2E/DX2                !
 ! A20   A(4,7,13)             114.5859         estimate D2E/DX2                !
 ! A21   A(8,7,13)             114.0251         estimate D2E/DX2                !
 ! A22   A(7,8,9)              115.8931         estimate D2E/DX2                !
 ! A23   A(7,8,11)             112.0183         estimate D2E/DX2                !
 ! A24   A(9,8,11)             132.074          estimate D2E/DX2                !
 ! A25   A(8,9,10)             111.344          estimate D2E/DX2                !
 ! A26   A(9,10,71)            113.5107         estimate D2E/DX2                !
 ! A27   A(9,10,72)            109.9338         estimate D2E/DX2                !
 ! A28   A(9,10,73)            111.5904         estimate D2E/DX2                !
 ! A29   A(71,10,72)           103.5707         estimate D2E/DX2                !
 ! A30   A(71,10,73)           109.0813         estimate D2E/DX2                !
 ! A31   A(72,10,73)           108.7805         estimate D2E/DX2                !
 ! A32   A(8,11,12)            110.7098         estimate D2E/DX2                !
 ! A33   A(8,11,74)            127.1608         estimate D2E/DX2                !
 ! A34   A(12,11,74)           122.0752         estimate D2E/DX2                !
 ! A35   A(11,12,13)           113.3795         estimate D2E/DX2                !
 ! A36   A(11,12,14)           123.1376         estimate D2E/DX2                !
 ! A37   A(13,12,14)           123.4715         estimate D2E/DX2                !
 ! A38   A(7,13,12)             89.7941         estimate D2E/DX2                !
 ! A39   A(12,14,15)           118.0545         estimate D2E/DX2                !
 ! A40   A(12,14,19)           124.6117         estimate D2E/DX2                !
 ! A41   A(15,14,19)           116.5414         estimate D2E/DX2                !
 ! A42   A(14,15,16)           117.8814         estimate D2E/DX2                !
 ! A43   A(14,15,75)           118.734          estimate D2E/DX2                !
 ! A44   A(16,15,75)           122.3976         estimate D2E/DX2                !
 ! A45   A(15,16,17)           123.1411         estimate D2E/DX2                !
 ! A46   A(15,16,76)           113.5685         estimate D2E/DX2                !
 ! A47   A(17,16,76)           123.124          estimate D2E/DX2                !
 ! A48   A(16,17,18)           118.3121         estimate D2E/DX2                !
 ! A49   A(16,17,20)           119.4527         estimate D2E/DX2                !
 ! A50   A(18,17,20)           122.1483         estimate D2E/DX2                !
 ! A51   A(17,18,19)           118.406          estimate D2E/DX2                !
 ! A52   A(17,18,77)           123.8456         estimate D2E/DX2                !
 ! A53   A(19,18,77)           117.6898         estimate D2E/DX2                !
 ! A54   A(14,19,18)           125.0308         estimate D2E/DX2                !
 ! A55   A(14,19,78)           118.8209         estimate D2E/DX2                !
 ! A56   A(18,19,78)           116.0372         estimate D2E/DX2                !
 ! A57   A(17,20,21)           132.5742         estimate D2E/DX2                !
 ! A58   A(17,20,26)           118.3004         estimate D2E/DX2                !
 ! A59   A(21,20,26)           109.1218         estimate D2E/DX2                !
 ! A60   A(20,21,22)           117.5231         estimate D2E/DX2                !
 ! A61   A(20,21,24)           111.2307         estimate D2E/DX2                !
 ! A62   A(22,21,24)           131.2199         estimate D2E/DX2                !
 ! A63   A(21,22,23)           110.6837         estimate D2E/DX2                !
 ! A64   A(22,23,79)           113.593          estimate D2E/DX2                !
 ! A65   A(22,23,80)           102.4432         estimate D2E/DX2                !
 ! A66   A(22,23,81)           111.0349         estimate D2E/DX2                !
 ! A67   A(79,23,80)           107.8544         estimate D2E/DX2                !
 ! A68   A(79,23,81)           115.233          estimate D2E/DX2                !
 ! A69   A(80,23,81)           105.4661         estimate D2E/DX2                !
 ! A70   A(21,24,25)           113.2771         estimate D2E/DX2                !
 ! A71   A(21,24,82)           121.6042         estimate D2E/DX2                !
 ! A72   A(25,24,82)           124.4563         estimate D2E/DX2                !
 ! A73   A(24,25,26)           111.364          estimate D2E/DX2                !
 ! A74   A(24,25,27)           129.9402         estimate D2E/DX2                !
 ! A75   A(26,25,27)           118.2332         estimate D2E/DX2                !
 ! A76   A(20,26,25)            94.544          estimate D2E/DX2                !
 ! A77   A(25,27,28)           119.1665         estimate D2E/DX2                !
 ! A78   A(25,27,32)           123.9968         estimate D2E/DX2                !
 ! A79   A(28,27,32)           116.591          estimate D2E/DX2                !
 ! A80   A(27,28,29)           120.8242         estimate D2E/DX2                !
 ! A81   A(27,28,83)           122.326          estimate D2E/DX2                !
 ! A82   A(29,28,83)           116.4251         estimate D2E/DX2                !
 ! A83   A(28,29,30)           121.4205         estimate D2E/DX2                !
 ! A84   A(28,29,84)           123.0071         estimate D2E/DX2                !
 ! A85   A(30,29,84)           115.1932         estimate D2E/DX2                !
 ! A86   A(29,30,31)           114.7406         estimate D2E/DX2                !
 ! A87   A(29,30,33)           121.1817         estimate D2E/DX2                !
 ! A88   A(31,30,33)           123.6824         estimate D2E/DX2                !
 ! A89   A(30,31,32)           123.2576         estimate D2E/DX2                !
 ! A90   A(30,31,85)           116.6437         estimate D2E/DX2                !
 ! A91   A(32,31,85)           119.7726         estimate D2E/DX2                !
 ! A92   A(27,32,31)           122.2942         estimate D2E/DX2                !
 ! A93   A(27,32,86)           119.3898         estimate D2E/DX2                !
 ! A94   A(31,32,86)           118.2212         estimate D2E/DX2                !
 ! A95   A(30,33,34)           127.3582         estimate D2E/DX2                !
 ! A96   A(30,33,39)           120.3364         estimate D2E/DX2                !
 ! A97   A(34,33,39)           112.2202         estimate D2E/DX2                !
 ! A98   A(33,34,35)           121.1264         estimate D2E/DX2                !
 ! A99   A(33,34,37)           108.8331         estimate D2E/DX2                !
 ! A100  A(35,34,37)           129.9036         estimate D2E/DX2                !
 ! A101  A(34,35,36)           112.3652         estimate D2E/DX2                !
 ! A102  A(35,36,87)           114.1768         estimate D2E/DX2                !
 ! A103  A(35,36,88)           108.4247         estimate D2E/DX2                !
 ! A104  A(35,36,89)           105.6002         estimate D2E/DX2                !
 ! A105  A(87,36,88)           110.8198         estimate D2E/DX2                !
 ! A106  A(87,36,89)           108.373          estimate D2E/DX2                !
 ! A107  A(88,36,89)           109.2415         estimate D2E/DX2                !
 ! A108  A(34,37,38)           114.2846         estimate D2E/DX2                !
 ! A109  A(34,37,90)           122.9474         estimate D2E/DX2                !
 ! A110  A(38,37,90)           122.7568         estimate D2E/DX2                !
 ! A111  A(37,38,39)           113.6559         estimate D2E/DX2                !
 ! A112  A(37,38,40)           127.0835         estimate D2E/DX2                !
 ! A113  A(39,38,40)           119.2327         estimate D2E/DX2                !
 ! A114  A(33,39,38)            90.9995         estimate D2E/DX2                !
 ! A115  A(38,40,41)           118.6796         estimate D2E/DX2                !
 ! A116  A(38,40,45)           122.6364         estimate D2E/DX2                !
 ! A117  A(41,40,45)           118.6814         estimate D2E/DX2                !
 ! A118  A(40,41,42)           115.5636         estimate D2E/DX2                !
 ! A119  A(40,41,91)           120.473          estimate D2E/DX2                !
 ! A120  A(42,41,91)           123.6181         estimate D2E/DX2                !
 ! A121  A(41,42,43)           123.1083         estimate D2E/DX2                !
 ! A122  A(41,42,92)           113.2405         estimate D2E/DX2                !
 ! A123  A(43,42,92)           123.3631         estimate D2E/DX2                !
 ! A124  A(42,43,44)           118.1685         estimate D2E/DX2                !
 ! A125  A(42,43,46)           116.8508         estimate D2E/DX2                !
 ! A126  A(44,43,46)           124.6855         estimate D2E/DX2                !
 ! A127  A(43,44,45)           123.0683         estimate D2E/DX2                !
 ! A128  A(43,44,93)           119.3898         estimate D2E/DX2                !
 ! A129  A(45,44,93)           117.3378         estimate D2E/DX2                !
 ! A130  A(40,45,44)           120.8192         estimate D2E/DX2                !
 ! A131  A(40,45,94)           115.2757         estimate D2E/DX2                !
 ! A132  A(44,45,94)           123.9002         estimate D2E/DX2                !
 ! A133  A(43,46,47)           133.19           estimate D2E/DX2                !
 ! A134  A(43,46,52)           117.5395         estimate D2E/DX2                !
 ! A135  A(47,46,52)           108.8605         estimate D2E/DX2                !
 ! A136  A(46,47,48)           114.9699         estimate D2E/DX2                !
 ! A137  A(46,47,50)           115.4676         estimate D2E/DX2                !
 ! A138  A(48,47,50)           129.0452         estimate D2E/DX2                !
 ! A139  A(47,48,49)           113.211          estimate D2E/DX2                !
 ! A140  A(48,49,95)           110.0205         estimate D2E/DX2                !
 ! A141  A(48,49,96)           111.1614         estimate D2E/DX2                !
 ! A142  A(48,49,97)           107.853          estimate D2E/DX2                !
 ! A143  A(95,49,96)           111.388          estimate D2E/DX2                !
 ! A144  A(95,49,97)           108.9265         estimate D2E/DX2                !
 ! A145  A(96,49,97)           107.3651         estimate D2E/DX2                !
 ! A146  A(47,50,51)           109.6465         estimate D2E/DX2                !
 ! A147  A(47,50,98)           124.3908         estimate D2E/DX2                !
 ! A148  A(51,50,98)           124.7882         estimate D2E/DX2                !
 ! A149  A(50,51,52)           113.4169         estimate D2E/DX2                !
 ! A150  A(50,51,53)           126.3416         estimate D2E/DX2                !
 ! A151  A(52,51,53)           120.0264         estimate D2E/DX2                !
 ! A152  A(46,52,51)            92.0114         estimate D2E/DX2                !
 ! A153  A(51,53,54)           120.8058         estimate D2E/DX2                !
 ! A154  A(51,53,58)           121.1888         estimate D2E/DX2                !
 ! A155  A(54,53,58)           117.2311         estimate D2E/DX2                !
 ! A156  A(53,54,55)           119.3699         estimate D2E/DX2                !
 ! A157  A(53,54,99)           119.1526         estimate D2E/DX2                !
 ! A158  A(55,54,99)           120.5254         estimate D2E/DX2                !
 ! A159  A(54,55,56)           123.4603         estimate D2E/DX2                !
 ! A160  A(54,55,100)          120.6796         estimate D2E/DX2                !
 ! A161  A(56,55,100)          115.8177         estimate D2E/DX2                !
 ! A162  A(55,56,57)           116.7975         estimate D2E/DX2                !
 ! A163  A(55,56,59)           124.0264         estimate D2E/DX2                !
 ! A164  A(57,56,59)           118.6221         estimate D2E/DX2                !
 ! A165  A(56,57,58)           119.0507         estimate D2E/DX2                !
 ! A166  A(56,57,101)          118.5229         estimate D2E/DX2                !
 ! A167  A(58,57,101)          122.1357         estimate D2E/DX2                !
 ! A168  A(53,58,57)           123.231          estimate D2E/DX2                !
 ! A169  A(53,58,102)          118.7957         estimate D2E/DX2                !
 ! A170  A(57,58,102)          117.8378         estimate D2E/DX2                !
 ! A171  A(56,59,60)           129.1106         estimate D2E/DX2                !
 ! A172  A(56,59,65)           118.4011         estimate D2E/DX2                !
 ! A173  A(60,59,65)           112.4869         estimate D2E/DX2                !
 ! A174  A(59,60,61)           123.7189         estimate D2E/DX2                !
 ! A175  A(59,60,63)           109.235          estimate D2E/DX2                !
 ! A176  A(61,60,63)           126.9734         estimate D2E/DX2                !
 ! A177  A(60,61,62)           117.9639         estimate D2E/DX2                !
 ! A178  A(61,62,103)          115.2155         estimate D2E/DX2                !
 ! A179  A(61,62,104)          109.2706         estimate D2E/DX2                !
 ! A180  A(61,62,105)          107.1893         estimate D2E/DX2                !
 ! A181  A(103,62,104)         110.9849         estimate D2E/DX2                !
 ! A182  A(103,62,105)         109.0001         estimate D2E/DX2                !
 ! A183  A(104,62,105)         104.574          estimate D2E/DX2                !
 ! A184  A(60,63,64)           113.4142         estimate D2E/DX2                !
 ! A185  A(60,63,106)          122.5168         estimate D2E/DX2                !
 ! A186  A(64,63,106)          123.9535         estimate D2E/DX2                !
 ! A187  A(63,64,65)           112.5201         estimate D2E/DX2                !
 ! A188  A(63,64,107)          124.0841         estimate D2E/DX2                !
 ! A189  A(65,64,107)          123.0684         estimate D2E/DX2                !
 ! A190  A(59,65,64)            92.2515         estimate D2E/DX2                !
 ! D1    D(6,1,2,3)              4.2049         estimate D2E/DX2                !
 ! D2    D(6,1,2,67)          -175.127          estimate D2E/DX2                !
 ! D3    D(66,1,2,3)           177.9558         estimate D2E/DX2                !
 ! D4    D(66,1,2,67)           -1.3761         estimate D2E/DX2                !
 ! D5    D(2,1,6,5)             -6.5785         estimate D2E/DX2                !
 ! D6    D(2,1,6,70)           176.5618         estimate D2E/DX2                !
 ! D7    D(66,1,6,5)           179.5365         estimate D2E/DX2                !
 ! D8    D(66,1,6,70)            2.6768         estimate D2E/DX2                !
 ! D9    D(1,2,3,4)             -3.7405         estimate D2E/DX2                !
 ! D10   D(1,2,3,68)           178.1707         estimate D2E/DX2                !
 ! D11   D(67,2,3,4)           175.5709         estimate D2E/DX2                !
 ! D12   D(67,2,3,68)           -2.518          estimate D2E/DX2                !
 ! D13   D(2,3,4,5)              4.8398         estimate D2E/DX2                !
 ! D14   D(2,3,4,7)           -178.8301         estimate D2E/DX2                !
 ! D15   D(68,3,4,5)          -177.1394         estimate D2E/DX2                !
 ! D16   D(68,3,4,7)            -0.8092         estimate D2E/DX2                !
 ! D17   D(3,4,5,6)             -6.8576         estimate D2E/DX2                !
 ! D18   D(3,4,5,69)          -178.8124         estimate D2E/DX2                !
 ! D19   D(7,4,5,6)            176.9396         estimate D2E/DX2                !
 ! D20   D(7,4,5,69)             4.9848         estimate D2E/DX2                !
 ! D21   D(3,4,7,8)            -46.5268         estimate D2E/DX2                !
 ! D22   D(3,4,7,13)           131.4703         estimate D2E/DX2                !
 ! D23   D(5,4,7,8)            129.4946         estimate D2E/DX2                !
 ! D24   D(5,4,7,13)           -52.5082         estimate D2E/DX2                !
 ! D25   D(4,5,6,1)              8.2428         estimate D2E/DX2                !
 ! D26   D(4,5,6,70)          -174.9449         estimate D2E/DX2                !
 ! D27   D(69,5,6,1)          -179.7294         estimate D2E/DX2                !
 ! D28   D(69,5,6,70)           -2.9171         estimate D2E/DX2                !
 ! D29   D(4,7,8,9)             -3.374          estimate D2E/DX2                !
 ! D30   D(4,7,8,11)           177.844          estimate D2E/DX2                !
 ! D31   D(13,7,8,9)           178.6201         estimate D2E/DX2                !
 ! D32   D(13,7,8,11)           -0.162          estimate D2E/DX2                !
 ! D33   D(4,7,13,12)         -179.6626         estimate D2E/DX2                !
 ! D34   D(8,7,13,12)           -1.3083         estimate D2E/DX2                !
 ! D35   D(7,8,9,10)           173.1672         estimate D2E/DX2                !
 ! D36   D(11,8,9,10)           -8.3539         estimate D2E/DX2                !
 ! D37   D(7,8,11,12)            1.9151         estimate D2E/DX2                !
 ! D38   D(7,8,11,74)          179.2595         estimate D2E/DX2                !
 ! D39   D(9,8,11,12)         -176.6088         estimate D2E/DX2                !
 ! D40   D(9,8,11,74)            0.7356         estimate D2E/DX2                !
 ! D41   D(8,9,10,71)          -53.339          estimate D2E/DX2                !
 ! D42   D(8,9,10,72)           62.1264         estimate D2E/DX2                !
 ! D43   D(8,9,10,73)         -177.0884         estimate D2E/DX2                !
 ! D44   D(8,11,12,13)          -2.9499         estimate D2E/DX2                !
 ! D45   D(8,11,12,14)         178.2434         estimate D2E/DX2                !
 ! D46   D(74,11,12,13)        179.5477         estimate D2E/DX2                !
 ! D47   D(74,11,12,14)          0.741          estimate D2E/DX2                !
 ! D48   D(11,12,13,7)           2.3936         estimate D2E/DX2                !
 ! D49   D(14,12,13,7)        -178.8043         estimate D2E/DX2                !
 ! D50   D(11,12,14,15)       -134.366          estimate D2E/DX2                !
 ! D51   D(11,12,14,19)         56.2063         estimate D2E/DX2                !
 ! D52   D(13,12,14,15)         46.9472         estimate D2E/DX2                !
 ! D53   D(13,12,14,19)       -122.4806         estimate D2E/DX2                !
 ! D54   D(12,14,15,16)       -179.739          estimate D2E/DX2                !
 ! D55   D(12,14,15,75)         11.3472         estimate D2E/DX2                !
 ! D56   D(19,14,15,16)         -9.4566         estimate D2E/DX2                !
 ! D57   D(19,14,15,75)       -178.3704         estimate D2E/DX2                !
 ! D58   D(12,14,19,18)        177.5969         estimate D2E/DX2                !
 ! D59   D(12,14,19,78)         -6.3964         estimate D2E/DX2                !
 ! D60   D(15,14,19,18)          8.0243         estimate D2E/DX2                !
 ! D61   D(15,14,19,78)       -175.9689         estimate D2E/DX2                !
 ! D62   D(14,15,16,17)          7.7073         estimate D2E/DX2                !
 ! D63   D(14,15,16,76)       -176.8539         estimate D2E/DX2                !
 ! D64   D(75,15,16,17)        176.1885         estimate D2E/DX2                !
 ! D65   D(75,15,16,76)         -8.3726         estimate D2E/DX2                !
 ! D66   D(15,16,17,18)         -3.4881         estimate D2E/DX2                !
 ! D67   D(15,16,17,20)        173.1965         estimate D2E/DX2                !
 ! D68   D(76,16,17,18)       -178.4952         estimate D2E/DX2                !
 ! D69   D(76,16,17,20)         -1.8105         estimate D2E/DX2                !
 ! D70   D(16,17,18,19)          1.2901         estimate D2E/DX2                !
 ! D71   D(16,17,18,77)        178.439          estimate D2E/DX2                !
 ! D72   D(20,17,18,19)       -175.3001         estimate D2E/DX2                !
 ! D73   D(20,17,18,77)          1.8488         estimate D2E/DX2                !
 ! D74   D(16,17,20,21)        -47.9692         estimate D2E/DX2                !
 ! D75   D(16,17,20,26)        132.8039         estimate D2E/DX2                !
 ! D76   D(18,17,20,21)        128.5832         estimate D2E/DX2                !
 ! D77   D(18,17,20,26)        -50.6436         estimate D2E/DX2                !
 ! D78   D(17,18,19,14)         -3.8927         estimate D2E/DX2                !
 ! D79   D(17,18,19,78)       -179.9991         estimate D2E/DX2                !
 ! D80   D(77,18,19,14)        178.7814         estimate D2E/DX2                !
 ! D81   D(77,18,19,78)          2.6751         estimate D2E/DX2                !
 ! D82   D(17,20,21,22)         -1.6311         estimate D2E/DX2                !
 ! D83   D(17,20,21,24)        176.7121         estimate D2E/DX2                !
 ! D84   D(26,20,21,22)        177.6484         estimate D2E/DX2                !
 ! D85   D(26,20,21,24)         -4.0084         estimate D2E/DX2                !
 ! D86   D(17,20,26,25)        179.5449         estimate D2E/DX2                !
 ! D87   D(21,20,26,25)          0.1475         estimate D2E/DX2                !
 ! D88   D(20,21,22,23)        175.9814         estimate D2E/DX2                !
 ! D89   D(24,21,22,23)         -1.9653         estimate D2E/DX2                !
 ! D90   D(20,21,24,25)          7.1978         estimate D2E/DX2                !
 ! D91   D(20,21,24,82)        178.2617         estimate D2E/DX2                !
 ! D92   D(22,21,24,25)       -174.7556         estimate D2E/DX2                !
 ! D93   D(22,21,24,82)         -3.6918         estimate D2E/DX2                !
 ! D94   D(21,22,23,79)         65.8985         estimate D2E/DX2                !
 ! D95   D(21,22,23,80)       -178.0625         estimate D2E/DX2                !
 ! D96   D(21,22,23,81)        -65.8876         estimate D2E/DX2                !
 ! D97   D(21,24,25,26)         -7.037          estimate D2E/DX2                !
 ! D98   D(21,24,25,27)       -178.9521         estimate D2E/DX2                !
 ! D99   D(82,24,25,26)       -177.8043         estimate D2E/DX2                !
 ! D100  D(82,24,25,27)         10.2806         estimate D2E/DX2                !
 ! D101  D(24,25,26,20)          3.9944         estimate D2E/DX2                !
 ! D102  D(27,25,26,20)        176.9643         estimate D2E/DX2                !
 ! D103  D(24,25,27,28)         41.354          estimate D2E/DX2                !
 ! D104  D(24,25,27,32)       -132.7492         estimate D2E/DX2                !
 ! D105  D(26,25,27,28)       -130.0965         estimate D2E/DX2                !
 ! D106  D(26,25,27,32)         55.8002         estimate D2E/DX2                !
 ! D107  D(25,27,28,29)       -179.6133         estimate D2E/DX2                !
 ! D108  D(25,27,28,83)          8.1358         estimate D2E/DX2                !
 ! D109  D(32,27,28,29)         -5.0791         estimate D2E/DX2                !
 ! D110  D(32,27,28,83)       -177.3299         estimate D2E/DX2                !
 ! D111  D(25,27,32,31)        175.348          estimate D2E/DX2                !
 ! D112  D(25,27,32,86)         -1.046          estimate D2E/DX2                !
 ! D113  D(28,27,32,31)          1.1057         estimate D2E/DX2                !
 ! D114  D(28,27,32,86)       -175.2883         estimate D2E/DX2                !
 ! D115  D(27,28,29,30)         10.265          estimate D2E/DX2                !
 ! D116  D(27,28,29,84)       -177.1463         estimate D2E/DX2                !
 ! D117  D(83,28,29,30)       -177.0447         estimate D2E/DX2                !
 ! D118  D(83,28,29,84)         -4.456          estimate D2E/DX2                !
 ! D119  D(28,29,30,31)        -10.8083         estimate D2E/DX2                !
 ! D120  D(28,29,30,33)        176.1529         estimate D2E/DX2                !
 ! D121  D(84,29,30,31)        176.0574         estimate D2E/DX2                !
 ! D122  D(84,29,30,33)          3.0187         estimate D2E/DX2                !
 ! D123  D(29,30,31,32)          6.9154         estimate D2E/DX2                !
 ! D124  D(29,30,31,85)       -179.6706         estimate D2E/DX2                !
 ! D125  D(33,30,31,32)        179.7574         estimate D2E/DX2                !
 ! D126  D(33,30,31,85)         -6.8287         estimate D2E/DX2                !
 ! D127  D(29,30,33,34)        132.005          estimate D2E/DX2                !
 ! D128  D(29,30,33,39)        -51.6246         estimate D2E/DX2                !
 ! D129  D(31,30,33,34)        -40.3937         estimate D2E/DX2                !
 ! D130  D(31,30,33,39)        135.9768         estimate D2E/DX2                !
 ! D131  D(30,31,32,27)         -2.422          estimate D2E/DX2                !
 ! D132  D(30,31,32,86)        174.0122         estimate D2E/DX2                !
 ! D133  D(85,31,32,27)       -175.6392         estimate D2E/DX2                !
 ! D134  D(85,31,32,86)          0.795          estimate D2E/DX2                !
 ! D135  D(30,33,34,35)         -0.4092         estimate D2E/DX2                !
 ! D136  D(30,33,34,37)        175.7386         estimate D2E/DX2                !
 ! D137  D(39,33,34,35)       -177.0256         estimate D2E/DX2                !
 ! D138  D(39,33,34,37)         -0.8778         estimate D2E/DX2                !
 ! D139  D(30,33,39,38)       -176.1666         estimate D2E/DX2                !
 ! D140  D(34,33,39,38)          0.7175         estimate D2E/DX2                !
 ! D141  D(33,34,35,36)       -172.5285         estimate D2E/DX2                !
 ! D142  D(37,34,35,36)         12.2261         estimate D2E/DX2                !
 ! D143  D(33,34,37,38)          0.6315         estimate D2E/DX2                !
 ! D144  D(33,34,37,90)       -178.1816         estimate D2E/DX2                !
 ! D145  D(35,34,37,38)        176.3321         estimate D2E/DX2                !
 ! D146  D(35,34,37,90)         -2.481          estimate D2E/DX2                !
 ! D147  D(34,35,36,87)        -68.6439         estimate D2E/DX2                !
 ! D148  D(34,35,36,88)         55.4262         estimate D2E/DX2                !
 ! D149  D(34,35,36,89)        172.4047         estimate D2E/DX2                !
 ! D150  D(34,37,38,39)         -0.1066         estimate D2E/DX2                !
 ! D151  D(34,37,38,40)        177.9367         estimate D2E/DX2                !
 ! D152  D(90,37,38,39)        178.7091         estimate D2E/DX2                !
 ! D153  D(90,37,38,40)         -3.2477         estimate D2E/DX2                !
 ! D154  D(37,38,39,33)         -0.3534         estimate D2E/DX2                !
 ! D155  D(40,38,39,33)       -178.5646         estimate D2E/DX2                !
 ! D156  D(37,38,40,41)        153.23           estimate D2E/DX2                !
 ! D157  D(37,38,40,45)        -27.3782         estimate D2E/DX2                !
 ! D158  D(39,38,40,41)        -28.824          estimate D2E/DX2                !
 ! D159  D(39,38,40,45)        150.5678         estimate D2E/DX2                !
 ! D160  D(38,40,41,42)       -178.6847         estimate D2E/DX2                !
 ! D161  D(38,40,41,91)         -5.1915         estimate D2E/DX2                !
 ! D162  D(45,40,41,42)          1.8991         estimate D2E/DX2                !
 ! D163  D(45,40,41,91)        175.3922         estimate D2E/DX2                !
 ! D164  D(38,40,45,44)       -179.9329         estimate D2E/DX2                !
 ! D165  D(38,40,45,94)          0.8389         estimate D2E/DX2                !
 ! D166  D(41,40,45,44)         -0.5411         estimate D2E/DX2                !
 ! D167  D(41,40,45,94)       -179.7693         estimate D2E/DX2                !
 ! D168  D(40,41,42,43)         -6.4051         estimate D2E/DX2                !
 ! D169  D(40,41,42,92)        179.5771         estimate D2E/DX2                !
 ! D170  D(91,41,42,43)       -179.6696         estimate D2E/DX2                !
 ! D171  D(91,41,42,92)          6.3126         estimate D2E/DX2                !
 ! D172  D(41,42,43,44)          9.3926         estimate D2E/DX2                !
 ! D173  D(41,42,43,46)       -176.5512         estimate D2E/DX2                !
 ! D174  D(92,42,43,44)       -177.1913         estimate D2E/DX2                !
 ! D175  D(92,42,43,46)         -3.1351         estimate D2E/DX2                !
 ! D176  D(42,43,44,45)         -7.8229         estimate D2E/DX2                !
 ! D177  D(42,43,44,93)        177.5109         estimate D2E/DX2                !
 ! D178  D(46,43,44,45)        178.6282         estimate D2E/DX2                !
 ! D179  D(46,43,44,93)          3.9621         estimate D2E/DX2                !
 ! D180  D(42,43,46,47)         55.1628         estimate D2E/DX2                !
 ! D181  D(42,43,46,52)       -133.1322         estimate D2E/DX2                !
 ! D182  D(44,43,46,47)       -131.2112         estimate D2E/DX2                !
 ! D183  D(44,43,46,52)         40.4938         estimate D2E/DX2                !
 ! D184  D(43,44,45,40)          3.6151         estimate D2E/DX2                !
 ! D185  D(43,44,45,94)       -177.2258         estimate D2E/DX2                !
 ! D186  D(93,44,45,40)        178.3837         estimate D2E/DX2                !
 ! D187  D(93,44,45,94)         -2.4572         estimate D2E/DX2                !
 ! D188  D(43,46,47,48)         -8.7344         estimate D2E/DX2                !
 ! D189  D(43,46,47,50)        178.7575         estimate D2E/DX2                !
 ! D190  D(52,46,47,48)        179.0347         estimate D2E/DX2                !
 ! D191  D(52,46,47,50)          6.5267         estimate D2E/DX2                !
 ! D192  D(43,46,52,51)       -175.772          estimate D2E/DX2                !
 ! D193  D(47,46,52,51)         -2.1539         estimate D2E/DX2                !
 ! D194  D(46,47,48,49)        176.933          estimate D2E/DX2                !
 ! D195  D(50,47,48,49)        -11.7849         estimate D2E/DX2                !
 ! D196  D(46,47,50,51)         -8.6587         estimate D2E/DX2                !
 ! D197  D(46,47,50,98)       -176.7546         estimate D2E/DX2                !
 ! D198  D(48,47,50,51)       -179.9047         estimate D2E/DX2                !
 ! D199  D(48,47,50,98)         11.9993         estimate D2E/DX2                !
 ! D200  D(47,48,49,95)        -56.0408         estimate D2E/DX2                !
 ! D201  D(47,48,49,96)         67.8252         estimate D2E/DX2                !
 ! D202  D(47,48,49,97)       -174.7289         estimate D2E/DX2                !
 ! D203  D(47,50,51,52)          6.6867         estimate D2E/DX2                !
 ! D204  D(47,50,51,53)       -178.6861         estimate D2E/DX2                !
 ! D205  D(98,50,51,52)        174.7248         estimate D2E/DX2                !
 ! D206  D(98,50,51,53)        -10.6481         estimate D2E/DX2                !
 ! D207  D(50,51,52,46)         -2.7953         estimate D2E/DX2                !
 ! D208  D(53,51,52,46)       -177.7976         estimate D2E/DX2                !
 ! D209  D(50,51,53,54)        134.3843         estimate D2E/DX2                !
 ! D210  D(50,51,53,58)        -35.2576         estimate D2E/DX2                !
 ! D211  D(52,51,53,54)        -51.3113         estimate D2E/DX2                !
 ! D212  D(52,51,53,58)        139.0468         estimate D2E/DX2                !
 ! D213  D(51,53,54,55)       -178.8704         estimate D2E/DX2                !
 ! D214  D(51,53,54,99)         12.2319         estimate D2E/DX2                !
 ! D215  D(58,53,54,55)         -8.8318         estimate D2E/DX2                !
 ! D216  D(58,53,54,99)       -177.7295         estimate D2E/DX2                !
 ! D217  D(51,53,58,57)        175.219          estimate D2E/DX2                !
 ! D218  D(51,53,58,102)        -9.108          estimate D2E/DX2                !
 ! D219  D(54,53,58,57)          5.2209         estimate D2E/DX2                !
 ! D220  D(54,53,58,102)      -179.1061         estimate D2E/DX2                !
 ! D221  D(53,54,55,56)          4.0675         estimate D2E/DX2                !
 ! D222  D(53,54,55,100)      -173.4629         estimate D2E/DX2                !
 ! D223  D(99,54,55,56)        172.8095         estimate D2E/DX2                !
 ! D224  D(99,54,55,100)        -4.7209         estimate D2E/DX2                !
 ! D225  D(54,55,56,57)          4.5225         estimate D2E/DX2                !
 ! D226  D(54,55,56,59)        175.8463         estimate D2E/DX2                !
 ! D227  D(100,55,56,57)      -177.8369         estimate D2E/DX2                !
 ! D228  D(100,55,56,59)        -6.513          estimate D2E/DX2                !
 ! D229  D(55,56,57,58)         -8.11           estimate D2E/DX2                !
 ! D230  D(55,56,57,101)       177.9485         estimate D2E/DX2                !
 ! D231  D(59,56,57,58)       -179.9218         estimate D2E/DX2                !
 ! D232  D(59,56,57,101)         6.1367         estimate D2E/DX2                !
 ! D233  D(55,56,59,60)       -119.4835         estimate D2E/DX2                !
 ! D234  D(55,56,59,65)         60.0467         estimate D2E/DX2                !
 ! D235  D(57,56,59,60)         51.6929         estimate D2E/DX2                !
 ! D236  D(57,56,59,65)       -128.777          estimate D2E/DX2                !
 ! D237  D(56,57,58,53)          3.3576         estimate D2E/DX2                !
 ! D238  D(56,57,58,102)      -172.3543         estimate D2E/DX2                !
 ! D239  D(101,57,58,53)       177.0704         estimate D2E/DX2                !
 ! D240  D(101,57,58,102)        1.3585         estimate D2E/DX2                !
 ! D241  D(56,59,60,61)         -0.3791         estimate D2E/DX2                !
 ! D242  D(56,59,60,63)        176.711          estimate D2E/DX2                !
 ! D243  D(65,59,60,61)       -179.9317         estimate D2E/DX2                !
 ! D244  D(65,59,60,63)         -2.8417         estimate D2E/DX2                !
 ! D245  D(56,59,65,64)       -176.6469         estimate D2E/DX2                !
 ! D246  D(60,59,65,64)          2.9585         estimate D2E/DX2                !
 ! D247  D(59,60,61,62)        172.5226         estimate D2E/DX2                !
 ! D248  D(63,60,61,62)         -4.0378         estimate D2E/DX2                !
 ! D249  D(59,60,63,64)          1.2401         estimate D2E/DX2                !
 ! D250  D(59,60,63,106)       177.4732         estimate D2E/DX2                !
 ! D251  D(61,60,63,64)        178.2104         estimate D2E/DX2                !
 ! D252  D(61,60,63,106)        -5.5565         estimate D2E/DX2                !
 ! D253  D(60,61,62,103)       -58.3753         estimate D2E/DX2                !
 ! D254  D(60,61,62,104)        67.3549         estimate D2E/DX2                !
 ! D255  D(60,61,62,105)      -179.8657         estimate D2E/DX2                !
 ! D256  D(60,63,64,65)          0.9455         estimate D2E/DX2                !
 ! D257  D(60,63,64,107)       174.5377         estimate D2E/DX2                !
 ! D258  D(106,63,64,65)      -175.2251         estimate D2E/DX2                !
 ! D259  D(106,63,64,107)       -1.6329         estimate D2E/DX2                !
 ! D260  D(63,64,65,59)         -2.1976         estimate D2E/DX2                !
 ! D261  D(107,64,65,59)      -175.8651         estimate D2E/DX2                !
 --------------------------------------------------------------------------------
 Trust Radius=3.00D-01 FncErr=1.00D-07 GrdErr=1.00D-06 EigMax=2.50D+02 EigMin=1.00D-04
 Number of steps in this run=    577 maximum allowed number of steps=    642.
 GradGradGradGradGradGradGradGradGradGradGradGradGradGradGradGradGradGrad

 Leave Link  103 at Thu Jul 23 10:00:15 2020, MaxMem=  4026531840 cpu:               0.2 elap:               0.1
 (Enter /opt/ohpc/pub/libs/gaussian/g16-A.03/sandybridge/g16/l202.exe)
 Stoichiometry    C55H42O5S5
 Framework group  C1[X(C55H42O5S5)]
 Deg. of freedom   315
 Full point group                 C1      NOp   1
 Largest Abelian subgroup         C1      NOp   1
 Largest concise Abelian subgroup C1      NOp   1
                         Standard orientation:                         
 ---------------------------------------------------------------------
 Center     Atomic      Atomic             Coordinates (Angstroms)
 Number     Number       Type             X           Y           Z
 ---------------------------------------------------------------------
      1          6           0       19.570449    1.043939    0.406092
      2          6           0       19.121526   -0.117591    1.007194
      3          6           0       17.820714   -0.598319    0.821139
      4          6           0       16.872603    0.109053    0.076640
      5          6           0       17.347167    1.285217   -0.562042
      6          6           0       18.631616    1.739202   -0.310003
      7          6           0       15.513632   -0.406373   -0.079112
      8          6           0       15.045574   -1.667958   -0.400726
      9          8           0       16.004913   -2.608584   -0.688180
     10          6           0       15.426029   -3.912139   -0.852194
     11          6           0       13.642054   -1.726504   -0.393991
     12          6           0       13.075672   -0.425144   -0.092667
     13         16           0       14.250252    0.762410    0.240771
     14          6           0       11.637790   -0.169707   -0.053126
     15          6           0       11.141480    1.008208   -0.713156
     16          6           0        9.727354    1.258846   -0.667062
     17          6           0        8.853111    0.515528    0.102659
     18          6           0        9.362901   -0.582465    0.818912
     19          6           0       10.744517   -0.853267    0.737892
     20          6           0        7.483648    0.922801    0.204895
     21          6           0        6.875194    2.167957    0.471377
     22          8           0        7.687235    3.220592    0.714420
     23          6           0        6.916405    4.434304    0.874653
     24          6           0        5.412779    2.073078    0.390356
     25          6           0        4.956889    0.776277    0.232642
     26         16           0        6.231566   -0.296700   -0.010924
     27          6           0        3.634093    0.287347    0.097224
     28          6           0        2.697320    1.010263   -0.733357
     29          6           0        1.389995    0.566301   -0.883983
     30          6           0        0.848334   -0.503464   -0.050109
     31          6           0        1.796973   -1.183624    0.717668
     32          6           0        3.129518   -0.791278    0.807970
     33          6           0       -0.518569   -0.900460   -0.153145
     34          6           0       -1.029586   -2.231556   -0.265720
     35          8           0       -0.181428   -3.322453   -0.293999
     36          6           0       -0.885638   -4.565348   -0.586523
     37          6           0       -2.466980   -2.180582   -0.243209
     38          6           0       -2.971901   -0.946873   -0.140133
     39         16           0       -1.779883    0.278159   -0.056677
     40          6           0       -4.471531   -0.546895   -0.134221
     41          6           0       -4.865739    0.678342    0.548656
     42          6           0       -6.247709    0.963768    0.538030
     43          6           0       -7.165020    0.222466   -0.178481
     44          6           0       -6.757516   -0.910949   -0.733185
     45          6           0       -5.445615   -1.299394   -0.760718
     46          6           0       -8.546398    0.683654   -0.154173
     47          6           0       -9.137361    1.869581   -0.460958
     48          8           0       -8.256419    2.919338   -0.704961
     49          6           0       -8.943166    4.182092   -1.108415
     50          6           0      -10.563491    1.901356   -0.322971
     51          6           0      -11.029736    0.640977   -0.087023
     52         16           0       -9.791050   -0.507021    0.146498
     53          6           0      -12.482994    0.237602    0.090526
     54          6           0      -13.002805   -0.893079   -0.567243
     55          6           0      -14.294755   -1.209625   -0.408128
     56          6           0      -15.197255   -0.426159    0.320708
     57          6           0      -14.715843    0.794696    0.820415
     58          6           0      -13.384696    1.071677    0.721551
     59          6           0      -16.649724   -0.717424    0.431824
     60          6           0      -17.724164    0.055379    0.044023
     61          8           0      -17.603122    1.286908   -0.531068
     62          6           0      -18.725155    1.878875   -1.007204
     63          6           0      -18.936556   -0.669717    0.280066
     64          6           0      -18.735253   -1.888877    0.835109
     65         16           0      -17.128403   -2.202754    1.115574
     66          1           0       20.571531    1.449556    0.566721
     67          1           0       19.865620   -0.684700    1.691521
     68          1           0       17.559177   -1.545070    1.312395
     69          1           0       16.647064    1.923118   -1.163384
     70          1           0       18.960952    2.737005   -0.768309
     71          1           0       14.797401   -4.225334   -0.000129
     72          1           0       14.728491   -3.907755   -1.698764
     73          1           0       16.141360   -4.623119   -1.018849
     74          1           0       13.026192   -2.579513   -0.618206
     75          1           0       11.799967    1.552628   -1.358834
     76          1           0        9.419325    2.145560   -1.238813
     77          1           0        8.793520   -1.179348    1.435799
     78          1           0       11.101217   -1.720717    1.313183
     79          1           0        6.299767    4.431758    1.725907
     80          1           0        7.694349    5.189576    1.025975
     81          1           0        6.389498    4.727126   -0.117073
     82          1           0        4.774719    2.928419    0.593397
     83          1           0        3.002674    1.848745   -1.366144
     84          1           0        0.650653    1.068811   -1.551283
     85          1           0        1.409787   -2.029960    1.377124
     86          1           0        3.762266   -1.309236    1.491854
     87          1           0       -1.522278   -4.880950    0.169246
     88          1           0       -1.425138   -4.442209   -1.518228
     89          1           0       -0.118834   -5.308659   -0.716426
     90          1           0       -3.097412   -3.079145   -0.286267
     91          1           0       -4.173165    1.224659    1.085723
     92          1           0       -6.501551    1.885819    1.066254
     93          1           0       -7.506736   -1.560054   -1.292662
     94          1           0       -5.071449   -2.253735   -1.276235
     95          1           0       -9.578744    4.000771   -1.993602
     96          1           0       -9.493449    4.577267   -0.321752
     97          1           0       -8.192888    4.895519   -1.361801
     98          1           0      -11.160295    2.720169   -0.566439
     99          1           0      -12.322939   -1.585579   -1.038950
    100          1           0      -14.710417   -2.171692   -0.835301
    101          1           0      -15.407206    1.445578    1.365380
    102          1           0      -13.006065    1.975297    1.233427
    103          1           0      -19.226500    1.349860   -1.716533
    104          1           0      -19.384875    2.133716   -0.167116
    105          1           0      -18.431133    2.834684   -1.422410
    106          1           0      -19.930524   -0.239401    0.085811
    107          1           0      -19.544163   -2.555478    1.168765
 ---------------------------------------------------------------------
 Rotational constants (GHZ):           0.1586533           0.0039649           0.0038880
 Leave Link  202 at Thu Jul 23 10:00:15 2020, MaxMem=  4026531840 cpu:               0.2 elap:               0.1
 (Enter /opt/ohpc/pub/libs/gaussian/g16-A.03/sandybridge/g16/l301.exe)
 Standard basis: CC-pVDZ (5D, 7F)
 Ernie: Thresh=  0.10000D-02 Tol=  0.10000D-05 Strict=F.
 Ernie:  170 primitive shells out of 1780 were deleted.
 There are  1205 symmetry adapted cartesian basis functions of A   symmetry.
 There are  1140 symmetry adapted basis functions of A   symmetry.
  1140 basis functions,  2629 primitive gaussians,  1205 cartesian basis functions
   246 alpha electrons      246 beta electrons
       nuclear repulsion energy      8361.4361736589 Hartrees.
 IExCor=32609 DFT=T Ex+Corr=LC-wPBE ExCW=0 ScaHFX=  1.000000
 ScaDFX=  1.000000  0.000000  1.000000  1.000000 ScalE2=  1.000000  1.000000
 IRadAn=      5 IRanWt=     -1 IRanGd=            0 ICorTp=0 IEmpDi=  4
 HFx  wShort=  0.000000 wLong=  0.224700 cFull=  0.000000 cShort=  0.000000 cLong=  1.000000
 DFx  wShort=  0.000000 wLong=  0.224700 cFull=  0.000000 cShort=  0.000000 cLong=  1.000000
 NAtoms=  107 NActive=  107 NUniq=  107 SFac= 1.00D+00 NAtFMM=   60 NAOKFM=T Big=T
 Integral buffers will be    131072 words long.
 Raffenetti 2 integral format.
[...]
  Beta virt. eigenvalues --    1.30888   1.31615   1.32035   1.32338   1.33340
  Beta virt. eigenvalues --    1.34404   1.34844   1.35210   1.35496   1.35923
  Beta virt. eigenvalues --    1.36033   1.37027   1.37554   1.37681   1.37870
  Beta virt. eigenvalues --    1.38020   1.38424   1.38599   1.38694   1.38951
  Beta virt. eigenvalues --    1.39178   1.39302   1.40506   1.40633   1.41712
  Beta virt. eigenvalues --    1.41756   1.42204   1.42612   1.42656   1.42826
  Beta virt. eigenvalues --    1.43188   1.43344   1.43421   1.43589   1.43733
  Beta virt. eigenvalues --    1.43977   1.44270   1.44493   1.44696   1.45011
  Beta virt. eigenvalues --    1.45108   1.45181   1.45464   1.45863   1.46087
  Beta virt. eigenvalues --    1.46949   1.48693   1.49145   1.49584   1.49954
  Beta virt. eigenvalues --    1.50534   1.50752   1.50840   1.51318   1.51520
  Beta virt. eigenvalues --    1.51785   1.52134   1.52386   1.52608   1.53041
  Beta virt. eigenvalues --    1.53560   1.53847   1.54240   1.54752   1.54844
  Beta virt. eigenvalues --    1.55045   1.55333   1.55501   1.55582   1.55979
  Beta virt. eigenvalues --    1.56111   1.56381   1.56493   1.56679   1.56842
  Beta virt. eigenvalues --    1.56899   1.57076   1.57217   1.57357   1.57616
  Beta virt. eigenvalues --    1.58057   1.58409   1.58753   1.58831   1.59006
  Beta virt. eigenvalues --    1.59300   1.60157   1.60525   1.60563   1.61252
  Beta virt. eigenvalues --    1.61370   1.62266   1.62657   1.63199   1.63236
  Beta virt. eigenvalues --    1.63352   1.63700   1.63974   1.64131   1.64636
  Beta virt. eigenvalues --    1.64745   1.65047   1.65173   1.65442   1.65871
  Beta virt. eigenvalues --    1.66194   1.66436   1.66589   1.66691   1.66836
  Beta virt. eigenvalues --    1.67099   1.67241   1.67496   1.67638   1.67699
  Beta virt. eigenvalues --    1.67809   1.67925   1.68112   1.68346   1.68547
  Beta virt. eigenvalues --    1.68637   1.68803   1.68868   1.69068   1.69185
  Beta virt. eigenvalues --    1.69477   1.69526   1.69775   1.69946   1.69999
  Beta virt. eigenvalues --    1.70238   1.70587   1.70603   1.70774   1.70876
  Beta virt. eigenvalues --    1.71272   1.71538   1.71640   1.71867   1.72285
  Beta virt. eigenvalues --    1.72584   1.72848   1.73249   1.73471   1.73715
  Beta virt. eigenvalues --    1.74041   1.74508   1.74581   1.74847   1.75289
  Beta virt. eigenvalues --    1.75517   1.75642   1.75962   1.76155   1.76674
  Beta virt. eigenvalues --    1.76753   1.77038   1.77361   1.77727   1.77805
  Beta virt. eigenvalues --    1.77932   1.78156   1.78318   1.78593   1.78777
  Beta virt. eigenvalues --    1.79404   1.79742   1.80223   1.80624   1.81211
  Beta virt. eigenvalues --    1.81352   1.81951   1.82156   1.82248   1.82518
  Beta virt. eigenvalues --    1.82877   1.83078   1.83541   1.83565   1.83805
  Beta virt. eigenvalues --    1.83947   1.84414   1.84560   1.84649   1.85526
  Beta virt. eigenvalues --    1.85743   1.86026   1.86195   1.86500   1.86926
  Beta virt. eigenvalues --    1.87658   1.87921   1.88250   1.88630   1.89266
  Beta virt. eigenvalues --    1.89427   1.89759   1.89952   1.90530   1.90789
  Beta virt. eigenvalues --    1.91042   1.91235   1.91623   1.91704   1.91999
  Beta virt. eigenvalues --    1.92261   1.92350   1.92433   1.93035   1.93409
  Beta virt. eigenvalues --    1.93811   1.93939   1.94126   1.94459   1.94877
  Beta virt. eigenvalues --    1.95319   1.95519   1.95695   1.96020   1.96027
  Beta virt. eigenvalues --    1.96332   1.96517   1.97060   1.97329   1.97868
  Beta virt. eigenvalues --    1.98375   1.98687   1.99087   1.99309   1.99859
  Beta virt. eigenvalues --    2.00039   2.00498   2.00652   2.01571   2.01905
  Beta virt. eigenvalues --    2.02037   2.02204   2.02348   2.02752   2.02846
  Beta virt. eigenvalues --    2.03160   2.03382   2.03479   2.03736   2.04092
  Beta virt. eigenvalues --    2.04167   2.04339   2.04624   2.05071   2.05999
  Beta virt. eigenvalues --    2.06933   2.07119   2.07316   2.07504   2.07979
  Beta virt. eigenvalues --    2.08059   2.08332   2.08718   2.08746   2.09237
  Beta virt. eigenvalues --    2.10389   2.10596   2.10841   2.11329   2.11397
  Beta virt. eigenvalues --    2.11917   2.12205   2.12611   2.12742   2.13222
  Beta virt. eigenvalues --    2.13491   2.13811   2.13941   2.14310   2.14522
  Beta virt. eigenvalues --    2.14836   2.15376   2.15549   2.16501   2.17484
  Beta virt. eigenvalues --    2.17719   2.18157   2.18387   2.19552   2.20204
  Beta virt. eigenvalues --    2.20547   2.20859   2.20999   2.21345   2.21363
  Beta virt. eigenvalues --    2.21989   2.22294   2.22565   2.26572   2.26625
  Beta virt. eigenvalues --    2.27528   2.27842   2.28011   2.28945   2.29460
  Beta virt. eigenvalues --    2.29867   2.29995   2.30703   2.31582   2.31936
  Beta virt. eigenvalues --    2.32032   2.32420   2.32718   2.32785   2.33141
  Beta virt. eigenvalues --    2.33345   2.33625   2.38534   2.41609   2.41609
  Beta virt. eigenvalues --    2.41909   2.42163   2.42183   2.42318   2.42330
  Beta virt. eigenvalues --    2.42481   2.42623   2.42780   2.43077   2.43627
  Beta virt. eigenvalues --    2.43749   2.44070   2.44349   2.44453   2.44551
  Beta virt. eigenvalues --    2.44744   2.44833   2.46368   2.46877   2.47150
  Beta virt. eigenvalues --    2.47401   2.47620   2.47911   2.47927   2.48317
  Beta virt. eigenvalues --    2.48540   2.48655   2.48793   2.48928   2.49738
  Beta virt. eigenvalues --    2.49914   2.50421   2.50728   2.50918   2.51543
  Beta virt. eigenvalues --    2.54223   2.54357   2.54703   2.54916   2.57697
  Beta virt. eigenvalues --    2.58121   2.58818   2.59035   2.59088   2.68414
  Beta virt. eigenvalues --    2.69093   2.69644   2.69982   2.70255   2.70622
  Beta virt. eigenvalues --    2.71652   2.72916   2.74362   2.75180   2.75475
  Beta virt. eigenvalues --    2.75984   2.76394   2.76587   2.76876   2.77260
  Beta virt. eigenvalues --    2.78103   2.79120   2.80139   2.81308   2.82354
  Beta virt. eigenvalues --    2.83812   2.84975   2.85556   2.86081   2.90928
  Beta virt. eigenvalues --    2.91091   2.91388   2.91410   2.91788   2.93189
  Beta virt. eigenvalues --    2.93478   2.93766   2.94601   2.95874   2.97741
  Beta virt. eigenvalues --    2.99372   3.00669   3.01659   3.01831   3.03307
  Beta virt. eigenvalues --    3.03657   3.03845   3.04028   3.04388   3.06656
  Beta virt. eigenvalues --    3.07923   3.08167   3.08293   3.08379   3.36950
  Beta virt. eigenvalues --    3.37823   3.38038   3.38199   3.38524   3.44062
  Beta virt. eigenvalues --    3.44516   3.45076   3.45804   3.46689   3.50995
  Beta virt. eigenvalues --    3.52139   3.53294   3.54175   3.60147
          Condensed to atoms (all electrons):
          Atomic-Atomic Spin Densities.
 Mulliken charges and spin densities:
               1          2
     1  C    0.017198   0.000000
     2  C    0.029908   0.000000
     3  C    0.001972  -0.000000
     4  C    0.062338   0.000000
     5  C   -0.014105   0.000000
     6  C    0.026395  -0.000000
     7  C   -0.184396  -0.000000
     8  C    0.144937   0.000000
     9  O   -0.249136  -0.000000
    10  C    0.063353  -0.000000
    11  C    0.005007   0.000000
    12  C   -0.146941  -0.000000
    13  S    0.150778   0.000000
    14  C    0.068424  -0.000000
    15  C    0.009323  -0.000000
    16  C    0.009299   0.000000
    17  C    0.082318  -0.000000
    18  C   -0.003528  -0.000000
    19  C    0.001183   0.000000
    20  C   -0.184609   0.000000
    21  C    0.140859  -0.000000
    22  O   -0.249798  -0.000000
    23  C    0.063532  -0.000000
    24  C    0.007888   0.000000
    25  C   -0.145720  -0.000000
    26  S    0.149263  -0.000000
    27  C    0.068160   0.000000
    28  C    0.002541  -0.000000
    29  C   -0.005362   0.000000
    30  C    0.080464   0.000000
    31  C    0.007851   0.000000
    32  C    0.009385  -0.000000
    33  C   -0.181068   0.000000
    34  C    0.141617  -0.000000
    35  O   -0.250286   0.000000
    36  C    0.063532   0.000000
    37  C    0.008940   0.000000
    38  C   -0.142779   0.000000
    39  S    0.143887   0.000000
    40  C    0.066022   0.000000
    41  C    0.007737  -0.000000
    42  C    0.010642   0.000000
    43  C    0.082889  -0.000000
    44  C   -0.003679   0.000000
    45  C    0.001528  -0.000000
    46  C   -0.184451   0.000000
    47  C    0.141055  -0.000000
    48  O   -0.249777   0.000000
    49  C    0.063390  -0.000000
    50  C    0.007729   0.000000
    51  C   -0.145433  -0.000000
    52  S    0.150236  -0.000000
    53  C    0.067233   0.000000
    54  C    0.003750  -0.000000
    55  C   -0.002671   0.000000
    56  C    0.086778  -0.000000
    57  C    0.013555   0.000000
    58  C    0.006007  -0.000000
    59  C   -0.197815  -0.000000
    60  C    0.127786  -0.000000
    61  O   -0.247840  -0.000000
    62  C    0.060333  -0.000000
    63  C    0.027345   0.000000
    64  C   -0.120781  -0.000000
    65  S    0.157752   0.000000
    66  H   -0.020108  -0.000000
    67  H   -0.018505  -0.000000
    68  H   -0.022640   0.000000
    69  H   -0.017554  -0.000000
    70  H   -0.017942  -0.000000
    71  H    0.042657   0.000000
    72  H    0.045570  -0.000000
    73  H    0.050072   0.000000
    74  H   -0.012279   0.000000
    75  H   -0.018512   0.000000
    76  H   -0.020904   0.000000
    77  H   -0.015960  -0.000000
    78  H   -0.027350   0.000000
    79  H    0.046603  -0.000000
    80  H    0.051491   0.000000
    81  H    0.043743   0.000000
    82  H   -0.011581  -0.000000
    83  H   -0.027015  -0.000000
    84  H   -0.012656  -0.000000
    85  H   -0.020378   0.000000
    86  H   -0.018432  -0.000000
    87  H    0.046670   0.000000
    88  H    0.044550   0.000000
    89  H    0.051708  -0.000000
    90  H   -0.011000  -0.000000
    91  H   -0.015894   0.000000
    92  H   -0.020383   0.000000
    93  H   -0.015156   0.000000
    94  H   -0.026709   0.000000
    95  H    0.046791  -0.000000
    96  H    0.044068   0.000000
    97  H    0.051826  -0.000000
    98  H   -0.011151   0.000000
    99  H   -0.016556  -0.000000
   100  H   -0.013984   0.000000
   101  H   -0.020129  -0.000000
   102  H   -0.026966  -0.000000
   103  H    0.045485   0.000000
   104  H    0.045310   0.000000
   105  H    0.051723   0.000000
   106  H   -0.005441   0.000000
   107  H    0.024976  -0.000000
 Sum of Mulliken charges =  -0.00000  -0.00000
 Mulliken charges and spin densities with hydrogens summed into heavy atoms:
               1          2
     1  C   -0.002910   0.000000
     2  C    0.011403   0.000000
     3  C   -0.020668  -0.000000
     4  C    0.062338   0.000000
     5  C   -0.031660   0.000000
     6  C    0.008452  -0.000000
     7  C   -0.184396  -0.000000
     8  C    0.144937   0.000000
     9  O   -0.249136  -0.000000
    10  C    0.201651  -0.000000
    11  C   -0.007272   0.000000
    12  C   -0.146941  -0.000000
    13  S    0.150778   0.000000
    14  C    0.068424  -0.000000
    15  C   -0.009189  -0.000000
    16  C   -0.011606   0.000000
    17  C    0.082318  -0.000000
    18  C   -0.019488  -0.000000
    19  C   -0.026167   0.000000
    20  C   -0.184609   0.000000
    21  C    0.140859  -0.000000
    22  O   -0.249798  -0.000000
    23  C    0.205368  -0.000000
    24  C   -0.003693   0.000000
    25  C   -0.145720  -0.000000
    26  S    0.149263  -0.000000
    27  C    0.068160   0.000000
    28  C   -0.024474  -0.000000
    29  C   -0.018018   0.000000
    30  C    0.080464   0.000000
    31  C   -0.012527   0.000000
    32  C   -0.009046  -0.000000
    33  C   -0.181068   0.000000
    34  C    0.141617  -0.000000
    35  O   -0.250286   0.000000
    36  C    0.206460   0.000000
    37  C   -0.002060   0.000000
    38  C   -0.142779   0.000000
    39  S    0.143887   0.000000
    40  C    0.066022   0.000000
    41  C   -0.008157  -0.000000
    42  C   -0.009741   0.000000
    43  C    0.082889  -0.000000
    44  C   -0.018835   0.000000
    45  C   -0.025181  -0.000000
    46  C   -0.184451   0.000000
    47  C    0.141055  -0.000000
    48  O   -0.249777   0.000000
    49  C    0.206075  -0.000000
    50  C   -0.003422   0.000000
    51  C   -0.145433  -0.000000
    52  S    0.150236  -0.000000
    53  C    0.067233   0.000000
    54  C   -0.012806  -0.000000
    55  C   -0.016655   0.000000
    56  C    0.086778  -0.000000
    57  C   -0.006574   0.000000
    58  C   -0.020959  -0.000000
    59  C   -0.197815  -0.000000
    60  C    0.127786  -0.000000
    61  O   -0.247840  -0.000000
    62  C    0.202851  -0.000000
    63  C    0.021904   0.000000
    64  C   -0.095805  -0.000000
    65  S    0.157752   0.000000
 Electronic spatial extent (au):  <R**2>=         249873.4183
 Charge=              0.0000 electrons
 Dipole moment (field-independent basis, Debye):
    X=            -10.2282    Y=              0.8442    Z=             -0.3059  Tot=             10.2676
 Quadrupole moment (field-independent basis, Debye-Ang):
   XX=           -316.8623   YY=           -336.4947   ZZ=           -423.4712
   XY=            -43.6560   XZ=              0.3620   YZ=             -1.6615
 Traceless Quadrupole moment (field-independent basis, Debye-Ang):
   XX=             42.0804   YY=             22.4481   ZZ=            -64.5285
   XY=            -43.6560   XZ=              0.3620   YZ=             -1.6615
 Octapole moment (field-independent basis, Debye-Ang**2):
  XXX=          -4328.6612  YYY=             30.2825  ZZZ=              0.7711  XYY=             38.4163
  XXY=            174.7043  XXZ=           -124.2581  XZZ=            -28.5690  YZZ=             -1.3712
  YYZ=             -5.2013  XYZ=            -69.3798
 Hexadecapole moment (field-independent basis, Debye-Ang**3):
 XXXX=        -269630.4451 YYYY=          -7138.0301 ZZZZ=           -915.0533 XXXY=         -10924.5029
 XXXZ=            738.4157 YYYX=          -1001.3513 YYYZ=             -9.3895 ZZZX=            -42.2914
 ZZZY=             -5.8949 XXYY=         -49275.4967 XXZZ=         -58872.5848 YYZZ=          -1566.9203
 XXYZ=            343.3625 YYXZ=           -110.3134 ZZXY=           -195.0029
 N-N= 8.321060338168D+03 E-N=-2.717603813570D+04  KE= 4.464044741321D+03
 Leave Link  601 at Thu Jul 23 14:55:25 2020, MaxMem=  4026531840 cpu:              11.4 elap:               1.6
 (Enter /opt/ohpc/pub/libs/gaussian/g16-A.03/sandybridge/g16/l9999.exe)

 Test job not archived.
 1\1\GINC-SKYLAKE015\FOpt\ULC-wPBE\CC-pVDZ\C55H42O5S5\RDU230\23-Jul-202
 0\0\\#P uLC-wPBE/cc-pVDZ iop(3/107=0224700000, 3/108=0224700000) opt\\
 H42 C55 S5 O5\\0,1\C,19.8351418656,0.6623153514,0.0275678922\C,19.4610
 366606,-0.651738275,0.3236823313\C,18.1207837048,-1.0403173502,0.27107
 58402\C,17.118201917,-0.1167340468,-0.0875915683\C,17.5103590636,1.203
 0665765,-0.3894583609\C,18.8500144752,1.5887404334,-0.3278308506\C,15.
 6989754801,-0.5088762882,-0.1364775591\C,15.1277590922,-1.7635002978,-
 0.3170951907\O,15.9137496246,-2.8677387272,-0.4810079727\C,15.24722197
 94,-4.0879325421,-0.7678855687\C,13.6992818359,-1.7481849892,-0.329361
 0535\C,13.1729311273,-0.4850570531,-0.1521859929\S,14.4392273405,0.683
 3567282,0.0446816364\C,11.7546615814,-0.0904594392,-0.1023707993\C,11.
 3273521301,1.1849858184,-0.5117900548\C,9.9830419288,1.5492998146,-0.4
 708085138\C,9.0000105452,0.6456720239,-0.0189082728\C,9.4318958318,-0.
 6310059226,0.3954253858\C,10.7759044039,-0.991142916,0.356155464\C,7.5
 753797973,1.0084133128,0.0146612665\C,6.9754026597,2.2633922129,0.0383
 090409\O,7.7348804129,3.3968532514,0.0301676348\C,7.0434241736,4.63080
 339,0.1589027692\C,5.5487891225,2.2174317367,0.0902408991\C,5.05148053
 77,0.930394653,0.1005935098\S,6.3421298428,-0.2256555342,0.0310565568\
 C,3.6433666157,0.50048073,0.1421227592\C,2.6313425782,1.3073757891,-0.
 4094684095\C,1.296859965,0.9145076265,-0.3646825982\C,0.9077591343,-0.
 3036205156,0.229820391\C,1.9241323909,-1.1136789533,0.7757890392\C,3.2
 589866653,-0.7161110714,0.7326161553\C,-0.5072028092,-0.7013241707,0.2
 795559551\C,-1.0744185513,-1.9592727656,0.4576602399\O,-0.2869733691,-
 3.0585003711,0.6387483698\C,-0.9482688913,-4.3132855515,0.7173154426\C
 ,-2.5024591152,-1.9555674055,0.427950356\C,-3.0337296312,-0.6969895641
 ,0.2352529408\S,-1.7729637513,0.483533818,0.0822389405\C,-4.4536946111
 ,-0.3126737292,0.1568396371\C,-4.8990374034,0.9595152498,0.5568202889\
 C,-6.2450000775,1.3131687221,0.4875471481\C,-7.2110833387,0.4019033283
 ,0.0148295826\C,-6.7607472017,-0.8714485103,-0.3899661521\C,-5.4152313
 81,-1.2212839843,-0.3217037112\C,-8.6373437757,0.7536763413,-0.0494989
 413\C,-9.2462893301,2.0041162456,-0.0852361658\O,-8.4960451888,3.14319
 9193,-0.0595321032\C,-9.1941289789,4.3722699633,-0.2002908623\C,-10.67
 10224263,1.9470786205,-0.1685603596\C,-11.1576924313,0.6562181567,-0.1
 906765691\S,-9.8601143363,-0.4899345302,-0.0939564184\C,-12.5613347379
 ,0.2152151571,-0.2632748109\C,-12.9211540583,-1.002870212,-0.867166684
 2\C,-14.2531869433,-1.4017349185,-0.9394363251\C,-15.2877638103,-0.604
 0335651,-0.4115546088\C,-14.9256848018,0.6163097127,0.1934648193\C,-13
 .5917970399,1.0121314983,0.2668748294\C,-16.6914716405,-1.0418350558,-
 0.481085131\C,-17.859338498,-0.2879641706,-0.4326358298\O,-17.80662305
 15,1.0683780265,-0.2920071549\C,-19.0428992,1.7647308509,-0.3569425551
 \C,-19.0523884975,-1.0711873303,-0.5525879269\C,-18.7792371939,-2.4096
 893675,-0.6833179173\S,-17.0914780591,-2.7308276853,-0.6586778639\H,20
 .8895201008,0.9631978809,0.0717723339\H,20.2236404658,-1.3891282439,0.
 6064622029\H,17.8382179237,-2.0701270351,0.5100027849\H,16.7521972328,
 1.9382989743,-0.6904477506\H,19.1265684349,2.623321236,-0.5686390836\H
 ,14.5816790732,-4.39812909,0.0638553538\H,14.6543791788,-4.0201380198,
 -1.7027945008\H,16.0381133727,-4.8451894908,-0.8965349013\H,13.0713806
 972,-2.6274242838,-0.4969524425\H,12.0637161397,1.9044960921,-0.893744
 7283\H,9.6816982711,2.5467434944,-0.8037790674\H,8.7004821779,-1.35350
 8847,0.7808515041\H,11.0773018122,-1.9824131355,0.7172375483\H,6.47216
 43856,4.6814315814,1.1080384344\H,7.8175819232,5.4156180598,0.16130093
 46\H,6.3537954177,4.8051863755,-0.6923162913\H,4.902356956,3.096883177
 9,0.1530184324\H,2.8981837008,2.2467408106,-0.9096951319\H,0.539013258
 1,1.5615955808,-0.8256217765\H,1.6567832435,-2.0625778848,1.2495150432
 \H,4.022052278,-1.3593216123,1.190718963\H,-1.6151858492,-4.3706381631
 ,1.6017791209\H,-1.5373154616,-4.5216967449,-0.1988128613\H,-0.1538804
 838,-5.0711918589,0.8161554441\H,-3.1272583849,-2.8402809058,0.5766136
 796\H,-4.1768808759,1.6850670247,0.954221915\H,-6.5610977935,2.3081527
 558,0.814053033\H,-7.4780570587,-1.5997186112,-0.7906585505\H,-5.09893
 52163,-2.2105014815,-0.6755712245\H,-9.7452797094,4.4206789033,-1.1613
 267413\H,-9.9029506078,4.5392345929,0.6364723767\H,-8.426121207,5.1629
 143663,-0.1844105542\H,-11.3229045497,2.821401768,-0.2447501836\H,-12.
 1448353335,-1.6388130684,-1.3123931929\H,-14.4967626313,-2.3487166756,
 -1.4387421295\H,-15.704902528,1.2539130952,0.6216368561\H,-13.34092039
 77,1.9526430491,0.7735577067\H,-19.557418631,1.5937249925,-1.324368996
 4\H,-19.7201844723,1.4769482729,0.4731743318\H,-18.7957723924,2.835078
 7684,-0.2641331211\H,-20.0683057524,-0.6672552653,-0.5429158692\H,-19.
 4928080597,-3.2312619589,-0.7844971662\\Version=EM64L-G16RevA.03\State
 =1-A\HF=-4485.4828531\S2=0.\S2-1=0.\S2A=0.\RMSD=8.084e-09\RMSF=1.535e-
 06\Dipole=-4.0236248,0.3270899,-0.1471388\Quadrupole=31.3846351,16.606
 7942,-47.9914294,-32.4301726,0.5145336,-0.7713023\PG=C01 [X(C55H42O5S5
 )]\\@


 Everywhere is walking distance if you have the time.
                                    -- Steven Wright
 Job cpu time:       1 days 14 hours 39 minutes 33.3 seconds.
 Elapsed time:       0 days  4 hours 55 minutes  7.0 seconds.
 File lengths (MBytes):  RWF=   1472 Int=      0 D2E=      0 Chk=    132 Scr=      8
 Normal termination of Gaussian 16 at Thu Jul 23 14:55:25 2020.
