 Entering Gaussian System, Link 0=g16
 Input=mols_65_5_37_cOC-cOC-N_opt_0.gjf
 Output=mols_65_5_37_cOC-cOC-N_opt_0.log
 Initial command:
 /opt/ohpc/pub/libs/gaussian/g16-A.03/sandybridge/g16/l1.exe "/mnt/gpfs2_4m/scratch/rdu230/ondemand/projects/dihedral_energies/7trial/wtuning/mols_65_5_37_cOC-cOC-N/Gau-335548.inp" -scrdir="/mnt/gpfs2_4m/scratch/rdu230/ondemand/projects/dihedral_energies/7trial/wtuning/mols_65_5_37_cOC-cOC-N/"
 Entering Link 1 = /opt/ohpc/pub/libs/gaussian/g16-A.03/sandybridge/g16/l1.exe PID=    335553.
  
 Copyright (c) 1988,1990,1992,1993,1995,1998,2003,2009,2016,
            Gaussian, Inc.  All Rights Reserved.
  
 This is part of the Gaussian(R) 16 program.  It is based on
 the Gaussian(R) 09 system (copyright 2009, Gaussian, Inc.),
 the Gaussian(R) 03 system (copyright 2003, Gaussian, Inc.),
 the Gaussian(R) 98 system (copyright 1998, Gaussian, Inc.),
 the Gaussian(R) 94 system (copyright 1995, Gaussian, Inc.),
 the Gaussian 92(TM) system (copyright 1992, Gaussian, Inc.),
 the Gaussian 90(TM) system (copyright 1990, Gaussian, Inc.),
 the Gaussian 88(TM) system (copyright 1988, Gaussian, Inc.),
 the Gaussian 86(TM) system (copyright 1986, Carnegie Mellon
 University), and the Gaussian 82(TM) system (copyright 1983,
 Carnegie Mellon University). Gaussian is a federally registered
 trademark of Gaussian, Inc.
  
 This software contains proprietary and confidential information,
 including trade secrets, belonging to Gaussian, Inc.
  
 This software is provided under written license and may be
 used, copied, transmitted, or stored only in accord with that
 written license.
  
 The following legend is applicable only to US Government
 contracts under FAR:
  
                    RESTRICTED RIGHTS LEGEND
  
 Use, reproduction and disclosure by the US Government is
 subject to restrictions as set forth in subparagraphs (a)
 and (c) of the Commercial Computer Software - Restricted
 Rights clause in FAR 52.227-19.
  
 Gaussian, Inc.
 340 Quinnipiac St., Bldg. 40, Wallingford CT 06492
  
  
 ---------------------------------------------------------------
 Warning -- This program may not be used in any manner that
 competes with the business of Gaussian, Inc. or will provide
 assistance to any competitor of Gaussian, Inc.  The licensee
 of this program is prohibited from giving any competitor of
 Gaussian, Inc. access to this program.  By using this program,
 the user acknowledges that Gaussian, Inc. is engaged in the
 business of creating and licensing software in the field of
 computational chemistry and represents and warrants to the
 licensee that it is not a competitor of Gaussian, Inc. and that
 it will not use this program in any manner prohibited above.
 ---------------------------------------------------------------
  

 Cite this work as:
 Gaussian 16, Revision A.03,
 M. J. Frisch, G. W. Trucks, H. B. Schlegel, G. E. Scuseria, 
 M. A. Robb, J. R. Cheeseman, G. Scalmani, V. Barone, 
 G. A. Petersson, H. Nakatsuji, X. Li, M. Caricato, A. V. Marenich, 
 J. Bloino, B. G. Janesko, R. Gomperts, B. Mennucci, H. P. Hratchian, 
 J. V. Ortiz, A. F. Izmaylov, J. L. Sonnenberg, D. Williams-Young, 
 F. Ding, F. Lipparini, F. Egidi, J. Goings, B. Peng, A. Petrone, 
 T. Henderson, D. Ranasinghe, V. G. Zakrzewski, J. Gao, N. Rega, 
 G. Zheng, W. Liang, M. Hada, M. Ehara, K. Toyota, R. Fukuda, 
 J. Hasegawa, M. Ishida, T. Nakajima, Y. Honda, O. Kitao, H. Nakai, 
 T. Vreven, K. Throssell, J. A. Montgomery, Jr., J. E. Peralta, 
 F. Ogliaro, M. J. Bearpark, J. J. Heyd, E. N. Brothers, K. N. Kudin, 
 V. N. Staroverov, T. A. Keith, R. Kobayashi, J. Normand, 
 K. Raghavachari, A. P. Rendell, J. C. Burant, S. S. Iyengar, 
 J. Tomasi, M. Cossi, J. M. Millam, M. Klene, C. Adamo, R. Cammi, 
 J. W. Ochterski, R. L. Martin, K. Morokuma, O. Farkas, 
 J. B. Foresman, and D. J. Fox, Gaussian, Inc., Wallingford CT, 2016.
 
 ******************************************
 Gaussian 16:  EM64L-G16RevA.03 25-Dec-2016
                23-Jul-2020 
 ******************************************
 %mem=30GB
 %nproc=8
 Will use up to    8 processors via shared memory.
 ---------------------------------------------------------------
 #P uLC-wPBE/cc-pVDZ iop(3/107=0496500000, 3/108=0496500000) opt
 ---------------------------------------------------------------
 1/18=20,19=15,26=3,38=1/1,3;
 2/9=110,12=2,17=6,18=5,40=1/2;
 3/5=16,11=2,25=1,30=1,71=1,74=-41,107=496500000,108=496500000,116=2/1,2,3;
 4//1;
 5/5=2,38=5/2;
 6/7=2,8=2,9=2,10=2,28=1/1;
 7//1,2,3,16;
 1/18=20,19=15,26=3/3(2);
 2/9=110/2;
 99//99;
 2/9=110/2;
 3/5=16,11=2,25=1,30=1,71=1,74=-41,107=496500000,108=496500000,116=2/1,2,3;
 4/5=5,16=3,69=1/1;
 5/5=2,38=5/2;
 7//1,2,3,16;
 1/18=20,19=15,26=3/3(-5);
 2/9=110/2;
 6/7=2,8=2,9=2,10=2,19=2,28=1/1;
 99/9=1/99;
 Leave Link    1 at Thu Jul 23 15:37:56 2020, MaxMem=  4026531840 cpu:               1.6 elap:               0.2
 (Enter /opt/ohpc/pub/libs/gaussian/g16-A.03/sandybridge/g16/l101.exe)
 -----------------
 H47 C55 S5 N5 O10
 -----------------
 Symbolic Z-matrix:
 Charge =  0 Multiplicity = 1
 C                    -18.55484  -2.01504  -0.23571 
 C                    -17.65398  -2.30189   0.82298 
 C                    -16.44974  -1.58359   0.9807 
 O                    -15.60092  -1.80117   2.11579 
 C                    -15.60013  -3.12129   2.60779 
 C                    -16.10705  -0.53135   0.11056 
 C                    -17.01689  -0.29556  -0.96806 
 O                    -16.7444   0.63651  -1.85875 
 C                    -17.40933   1.93532  -1.55266 
 C                    -18.25638  -1.04428  -1.12831 
 C                    -14.89283   0.23853   0.21743 
 N                    -14.82325   1.49322   0.59189 
 C                    -13.5862   1.90532   0.62647 
 C                    -12.59694   0.97539   0.34706 
 S                    -13.42771  -0.48594  -0.00284 
 C                    -11.1687   1.00827   0.38479 
 C                    -10.36501   0.08975   1.08453 
 C                    -8.99229   0.17633   1.13129 
 O                    -8.19834  -0.66018   1.82874 
 C                    -8.66547  -2.00509   2.0101 
 C                    -8.29651   1.25731   0.52122 
 C                    -9.0497    2.19143  -0.22855 
 O                    -8.46783   3.2095   -0.89019 
 C                    -9.14738   4.36664  -1.13402 
 C                    -10.51479   2.11195  -0.24366 
 C                    -6.89577   1.40802   0.56285 
 N                    -6.21548   2.42312   1.12272 
 C                    -4.83979   2.26566   1.0027 
 C                    -4.43395   1.02929   0.31838 
 S                    -5.79893   0.21452  -0.20257 
 C                    -3.07106   0.54961   0.07696 
 C                    -2.10435   1.41344  -0.54961 
 C                    -0.82988   1.00993  -0.7629 
 O                     0.13218   1.80831  -1.39274 
 C                    -0.14912   3.20808  -1.48925 
 C                    -0.45838  -0.36853  -0.52314 
 C                    -1.47084  -1.20779   0.09785 
 O                    -1.12724  -2.43677   0.44593 
 C                    -1.5794   -3.36372  -0.47797 
 C                    -2.74071  -0.68172   0.36497 
 C                     0.84836  -0.8315   -0.82632 
 N                     1.18169  -1.80623  -1.62774 
 C                     2.55117  -2.00799  -1.7298 
 C                     3.30987  -1.25044  -0.90209 
 S                     2.21485  -0.21516   0.03464 
 C                     4.76741  -1.18906  -0.74583 
 C                     5.47076  -2.29772  -0.48785 
 C                     6.81372  -2.30338  -0.52557 
 O                     7.47044  -3.52799  -0.16131 
 C                     7.46418  -4.37261  -1.27106 
 C                     7.59062  -1.1783   -0.68813 
 C                     6.82686   0.01258  -0.98245 
 O                     7.53992   1.2272   -1.19257 
 C                     6.97329   2.36814  -0.70515 
 C                     5.45147  -0.01823  -0.96559 
 C                     9.0849   -1.16581  -0.74314 
 N                     9.77767  -1.94689  -1.61136 
 C                     11.09596  -1.66517  -1.42718 
 C                     11.39795  -0.76488  -0.42376 
 S                     9.99029  -0.21884   0.28066 
 C                     12.80086  -0.3329   -0.03249 
 C                     13.00783   1.00758   0.07756 
 C                     14.35885   1.4067    0.41968 
 O                     14.64157   2.76576   0.52411 
 C                     13.67827   3.71173   0.89799 
 C                     15.36675   0.53214   0.51863 
 C                     15.09747  -0.88538   0.47292 
 O                     16.11722  -1.78993   0.6451 
 C                     16.41583  -2.41295  -0.60961 
 C                     13.74344  -1.29179   0.20222 
 C                     16.7507   0.94993   0.84407 
 N                     17.62089   1.13654  -0.17367 
 C                     18.84752   1.57119   0.44142 
 C                     18.82219   1.61945   1.76104 
 S                     17.33672   1.19492   2.42119 
 H                    -19.44382  -2.63804  -0.27812 
 H                    -17.99543  -3.06098   1.61413 
 H                    -16.44553  -3.28537   3.25385 
 H                    -14.59449  -3.19853   3.1616 
 H                    -15.55958  -3.87706   1.80514 
 H                    -18.55087   1.82914  -1.73721 
 H                    -17.04314   2.67788  -2.29925 
 H                    -17.2532   2.27549  -0.53834 
 H                    -18.89556  -0.86976  -1.93171 
 H                    -13.33961   2.94953   0.99038 
 H                    -10.8749  -0.62442   1.73962 
 H                    -7.86676  -2.61407   2.25989 
 H                    -9.45649  -2.11154   2.70938 
 H                    -9.0337   -2.30854   1.01599 
 H                    -8.38283   5.1623   -1.45886 
 H                    -9.76225   4.30084  -2.03021 
 H                    -9.68873   4.69806  -0.30669 
 H                    -11.13283   2.78647  -0.88174 
 H                    -4.20493   2.94831   1.34979 
 H                    -2.50815   2.43819  -0.7987 
 H                     0.75724   3.64994  -1.78505 
 H                    -0.3833    3.53288  -0.46167 
 H                    -0.91647   3.3993   -2.24681 
 H                    -1.12142  -3.15988  -1.49978 
 H                    -1.17204  -4.33905  -0.17793 
 H                    -2.60409  -3.44249  -0.48241 
 H                    -3.44863  -1.40676   0.83374 
 H                     2.88382  -2.77561  -2.45377 
 H                     4.88131  -3.28553  -0.27682 
 H                     8.17666  -5.24376  -0.99352 
 H                     7.93623  -3.92075  -2.13341 
 H                     6.47522  -4.807    -1.49059 
 H                     7.75374   3.11305  -0.6788 
 H                     6.16469   2.75359  -1.42269 
 H                     6.53395   2.28466   0.23114 
 H                     4.85113   0.89326  -1.22822 
 H                     11.79108  -2.25158  -2.09385 
 H                     12.24216   1.7816   -0.09588 
 H                     14.07405   4.66003   1.17261 
 H                     13.04411   3.36043   1.71268 
 H                     12.95632   3.89428   0.0124 
 H                     15.69924  -3.22313  -0.84996 
 H                     16.556   -1.71293  -1.3476 
 H                     17.35262  -2.92789  -0.41452 
 H                     13.55879  -2.33712   0.06785 
 H                     19.72765   1.73913  -0.26326 
 H                     19.65009   1.91213   2.40137 
 
 ITRead=  0  0  0  0  0  0  0  0  0  0  0  0  0  0  0  0  0  0  0  0
 ITRead=  0  0  0  0  0  0  0  0  0  0  0  0  0  0  0  0  0  0  0  0
 ITRead=  0  0  0  0  0  0  0  0  0  0  0  0  0  0  0  0  0  0  0  0
 ITRead=  0  0  0  0  0  0  0  0  0  0  0  0  0  0  0  0  0  0  0  0
 ITRead=  0  0  0  0  0  0  0  0  0  0  0  0  0  0  0  0  0  0  0  0
 ITRead=  0  0  0  0  0  0  0  0  0  0  0  0  0  0  0  0  0  0  0  0
 ITRead=  0  0
 MicOpt= -1 -1 -1 -1 -1 -1 -1 -1 -1 -1 -1 -1 -1 -1 -1 -1 -1 -1 -1 -1
 MicOpt= -1 -1 -1 -1 -1 -1 -1 -1 -1 -1 -1 -1 -1 -1 -1 -1 -1 -1 -1 -1
 MicOpt= -1 -1 -1 -1 -1 -1 -1 -1 -1 -1 -1 -1 -1 -1 -1 -1 -1 -1 -1 -1
 MicOpt= -1 -1 -1 -1 -1 -1 -1 -1 -1 -1 -1 -1 -1 -1 -1 -1 -1 -1 -1 -1
 MicOpt= -1 -1 -1 -1 -1 -1 -1 -1 -1 -1 -1 -1 -1 -1 -1 -1 -1 -1 -1 -1
 MicOpt= -1 -1 -1 -1 -1 -1 -1 -1 -1 -1 -1 -1 -1 -1 -1 -1 -1 -1 -1 -1
 MicOpt= -1 -1
 NAtoms=    122 NQM=      122 NQMF=       0 NMMI=      0 NMMIF=      0
                NMic=       0 NMicF=      0.
                    Isotopes and Nuclear Properties:
 (Nuclear quadrupole moments (NQMom) in fm**2, nuclear magnetic moments (NMagM)
  in nuclear magnetons)

  Atom         1           2           3           4           5           6           7           8           9          10
 IAtWgt=          12          12          12          16          12          12          12          16          12          12
 AtmWgt=  12.0000000  12.0000000  12.0000000  15.9949146  12.0000000  12.0000000  12.0000000  15.9949146  12.0000000  12.0000000
 NucSpn=           0           0           0           0           0           0           0           0           0           0
 AtZEff=  -0.0000000  -0.0000000  -0.0000000  -0.0000000  -0.0000000  -0.0000000  -0.0000000  -0.0000000  -0.0000000  -0.0000000
 NQMom=    0.0000000   0.0000000   0.0000000   0.0000000   0.0000000   0.0000000   0.0000000   0.0000000   0.0000000   0.0000000
 NMagM=    0.0000000   0.0000000   0.0000000   0.0000000   0.0000000   0.0000000   0.0000000   0.0000000   0.0000000   0.0000000
 AtZNuc=   6.0000000   6.0000000   6.0000000   8.0000000   6.0000000   6.0000000   6.0000000   8.0000000   6.0000000   6.0000000

  Atom        11          12          13          14          15          16          17          18          19          20
 IAtWgt=          12          14          12          12          32          12          12          12          16          12
 AtmWgt=  12.0000000  14.0030740  12.0000000  12.0000000  31.9720718  12.0000000  12.0000000  12.0000000  15.9949146  12.0000000
 NucSpn=           0           2           0           0           0           0           0           0           0           0
 AtZEff=  -0.0000000  -0.0000000  -0.0000000  -0.0000000  -0.0000000  -0.0000000  -0.0000000  -0.0000000  -0.0000000  -0.0000000
 NQMom=    0.0000000   2.0440000   0.0000000   0.0000000   0.0000000   0.0000000   0.0000000   0.0000000   0.0000000   0.0000000
 NMagM=    0.0000000   0.4037610   0.0000000   0.0000000   0.0000000   0.0000000   0.0000000   0.0000000   0.0000000   0.0000000
 AtZNuc=   6.0000000   7.0000000   6.0000000   6.0000000  16.0000000   6.0000000   6.0000000   6.0000000   8.0000000   6.0000000

  Atom        21          22          23          24          25          26          27          28          29          30
 IAtWgt=          12          12          16          12          12          12          14          12          12          32
 AtmWgt=  12.0000000  12.0000000  15.9949146  12.0000000  12.0000000  12.0000000  14.0030740  12.0000000  12.0000000  31.9720718
 NucSpn=           0           0           0           0           0           0           2           0           0           0
 AtZEff=  -0.0000000  -0.0000000  -0.0000000  -0.0000000  -0.0000000  -0.0000000  -0.0000000  -0.0000000  -0.0000000  -0.0000000
 NQMom=    0.0000000   0.0000000   0.0000000   0.0000000   0.0000000   0.0000000   2.0440000   0.0000000   0.0000000   0.0000000
 NMagM=    0.0000000   0.0000000   0.0000000   0.0000000   0.0000000   0.0000000   0.4037610   0.0000000   0.0000000   0.0000000
 AtZNuc=   6.0000000   6.0000000   8.0000000   6.0000000   6.0000000   6.0000000   7.0000000   6.0000000   6.0000000  16.0000000

  Atom        31          32          33          34          35          36          37          38          39          40
 IAtWgt=          12          12          12          16          12          12          12          16          12          12
 AtmWgt=  12.0000000  12.0000000  12.0000000  15.9949146  12.0000000  12.0000000  12.0000000  15.9949146  12.0000000  12.0000000
 NucSpn=           0           0           0           0           0           0           0           0           0           0
 AtZEff=  -0.0000000  -0.0000000  -0.0000000  -0.0000000  -0.0000000  -0.0000000  -0.0000000  -0.0000000  -0.0000000  -0.0000000
 NQMom=    0.0000000   0.0000000   0.0000000   0.0000000   0.0000000   0.0000000   0.0000000   0.0000000   0.0000000   0.0000000
 NMagM=    0.0000000   0.0000000   0.0000000   0.0000000   0.0000000   0.0000000   0.0000000   0.0000000   0.0000000   0.0000000
 AtZNuc=   6.0000000   6.0000000   6.0000000   8.0000000   6.0000000   6.0000000   6.0000000   8.0000000   6.0000000   6.0000000

  Atom        41          42          43          44          45          46          47          48          49          50
 IAtWgt=          12          14          12          12          32          12          12          12          16          12
 AtmWgt=  12.0000000  14.0030740  12.0000000  12.0000000  31.9720718  12.0000000  12.0000000  12.0000000  15.9949146  12.0000000
 NucSpn=           0           2           0           0           0           0           0           0           0           0
 AtZEff=  -0.0000000  -0.0000000  -0.0000000  -0.0000000  -0.0000000  -0.0000000  -0.0000000  -0.0000000  -0.0000000  -0.0000000
 NQMom=    0.0000000   2.0440000   0.0000000   0.0000000   0.0000000   0.0000000   0.0000000   0.0000000   0.0000000   0.0000000
 NMagM=    0.0000000   0.4037610   0.0000000   0.0000000   0.0000000   0.0000000   0.0000000   0.0000000   0.0000000   0.0000000
 AtZNuc=   6.0000000   7.0000000   6.0000000   6.0000000  16.0000000   6.0000000   6.0000000   6.0000000   8.0000000   6.0000000

  Atom        51          52          53          54          55          56          57          58          59          60
 IAtWgt=          12          12          16          12          12          12          14          12          12          32
 AtmWgt=  12.0000000  12.0000000  15.9949146  12.0000000  12.0000000  12.0000000  14.0030740  12.0000000  12.0000000  31.9720718
 NucSpn=           0           0           0           0           0           0           2           0           0           0
 AtZEff=  -0.0000000  -0.0000000  -0.0000000  -0.0000000  -0.0000000  -0.0000000  -0.0000000  -0.0000000  -0.0000000  -0.0000000
 NQMom=    0.0000000   0.0000000   0.0000000   0.0000000   0.0000000   0.0000000   2.0440000   0.0000000   0.0000000   0.0000000
 NMagM=    0.0000000   0.0000000   0.0000000   0.0000000   0.0000000   0.0000000   0.4037610   0.0000000   0.0000000   0.0000000
 AtZNuc=   6.0000000   6.0000000   8.0000000   6.0000000   6.0000000   6.0000000   7.0000000   6.0000000   6.0000000  16.0000000

  Atom        61          62          63          64          65          66          67          68          69          70
 IAtWgt=          12          12          12          16          12          12          12          16          12          12
 AtmWgt=  12.0000000  12.0000000  12.0000000  15.9949146  12.0000000  12.0000000  12.0000000  15.9949146  12.0000000  12.0000000
 NucSpn=           0           0           0           0           0           0           0           0           0           0
 AtZEff=  -0.0000000  -0.0000000  -0.0000000  -0.0000000  -0.0000000  -0.0000000  -0.0000000  -0.0000000  -0.0000000  -0.0000000
 NQMom=    0.0000000   0.0000000   0.0000000   0.0000000   0.0000000   0.0000000   0.0000000   0.0000000   0.0000000   0.0000000
 NMagM=    0.0000000   0.0000000   0.0000000   0.0000000   0.0000000   0.0000000   0.0000000   0.0000000   0.0000000   0.0000000
 AtZNuc=   6.0000000   6.0000000   6.0000000   8.0000000   6.0000000   6.0000000   6.0000000   8.0000000   6.0000000   6.0000000

  Atom        71          72          73          74          75          76          77          78          79          80
 IAtWgt=          12          14          12          12          32           1           1           1           1           1
 AtmWgt=  12.0000000  14.0030740  12.0000000  12.0000000  31.9720718   1.0078250   1.0078250   1.0078250   1.0078250   1.0078250
 NucSpn=           0           2           0           0           0           1           1           1           1           1
 AtZEff=  -0.0000000  -0.0000000  -0.0000000  -0.0000000  -0.0000000  -0.0000000  -0.0000000  -0.0000000  -0.0000000  -0.0000000
 NQMom=    0.0000000   2.0440000   0.0000000   0.0000000   0.0000000   0.0000000   0.0000000   0.0000000   0.0000000   0.0000000
 NMagM=    0.0000000   0.4037610   0.0000000   0.0000000   0.0000000   2.7928460   2.7928460   2.7928460   2.7928460   2.7928460
 AtZNuc=   6.0000000   7.0000000   6.0000000   6.0000000  16.0000000   1.0000000   1.0000000   1.0000000   1.0000000   1.0000000

  Atom        81          82          83          84          85          86          87          88          89          90
 IAtWgt=           1           1           1           1           1           1           1           1           1           1
 AtmWgt=   1.0078250   1.0078250   1.0078250   1.0078250   1.0078250   1.0078250   1.0078250   1.0078250   1.0078250   1.0078250
 NucSpn=           1           1           1           1           1           1           1           1           1           1
 AtZEff=  -0.0000000  -0.0000000  -0.0000000  -0.0000000  -0.0000000  -0.0000000  -0.0000000  -0.0000000  -0.0000000  -0.0000000
 NQMom=    0.0000000   0.0000000   0.0000000   0.0000000   0.0000000   0.0000000   0.0000000   0.0000000   0.0000000   0.0000000
 NMagM=    2.7928460   2.7928460   2.7928460   2.7928460   2.7928460   2.7928460   2.7928460   2.7928460   2.7928460   2.7928460
 AtZNuc=   1.0000000   1.0000000   1.0000000   1.0000000   1.0000000   1.0000000   1.0000000   1.0000000   1.0000000   1.0000000

  Atom        91          92          93          94          95          96          97          98          99         100
 IAtWgt=           1           1           1           1           1           1           1           1           1           1
 AtmWgt=   1.0078250   1.0078250   1.0078250   1.0078250   1.0078250   1.0078250   1.0078250   1.0078250   1.0078250   1.0078250
 NucSpn=           1           1           1           1           1           1           1           1           1           1
 AtZEff=  -0.0000000  -0.0000000  -0.0000000  -0.0000000  -0.0000000  -0.0000000  -0.0000000  -0.0000000  -0.0000000  -0.0000000
 NQMom=    0.0000000   0.0000000   0.0000000   0.0000000   0.0000000   0.0000000   0.0000000   0.0000000   0.0000000   0.0000000
 NMagM=    2.7928460   2.7928460   2.7928460   2.7928460   2.7928460   2.7928460   2.7928460   2.7928460   2.7928460   2.7928460
 AtZNuc=   1.0000000   1.0000000   1.0000000   1.0000000   1.0000000   1.0000000   1.0000000   1.0000000   1.0000000   1.0000000

  Atom       101         102         103         104         105         106         107         108         109         110
 IAtWgt=           1           1           1           1           1           1           1           1           1           1
 AtmWgt=   1.0078250   1.0078250   1.0078250   1.0078250   1.0078250   1.0078250   1.0078250   1.0078250   1.0078250   1.0078250
 NucSpn=           1           1           1           1           1           1           1           1           1           1
 AtZEff=  -0.0000000  -0.0000000  -0.0000000  -0.0000000  -0.0000000  -0.0000000  -0.0000000  -0.0000000  -0.0000000  -0.0000000
 NQMom=    0.0000000   0.0000000   0.0000000   0.0000000   0.0000000   0.0000000   0.0000000   0.0000000   0.0000000   0.0000000
 NMagM=    2.7928460   2.7928460   2.7928460   2.7928460   2.7928460   2.7928460   2.7928460   2.7928460   2.7928460   2.7928460
 AtZNuc=   1.0000000   1.0000000   1.0000000   1.0000000   1.0000000   1.0000000   1.0000000   1.0000000   1.0000000   1.0000000

  Atom       111         112         113         114         115         116         117         118         119         120
 IAtWgt=           1           1           1           1           1           1           1           1           1           1
 AtmWgt=   1.0078250   1.0078250   1.0078250   1.0078250   1.0078250   1.0078250   1.0078250   1.0078250   1.0078250   1.0078250
 NucSpn=           1           1           1           1           1           1           1           1           1           1
 AtZEff=  -0.0000000  -0.0000000  -0.0000000  -0.0000000  -0.0000000  -0.0000000  -0.0000000  -0.0000000  -0.0000000  -0.0000000
 NQMom=    0.0000000   0.0000000   0.0000000   0.0000000   0.0000000   0.0000000   0.0000000   0.0000000   0.0000000   0.0000000
 NMagM=    2.7928460   2.7928460   2.7928460   2.7928460   2.7928460   2.7928460   2.7928460   2.7928460   2.7928460   2.7928460
 AtZNuc=   1.0000000   1.0000000   1.0000000   1.0000000   1.0000000   1.0000000   1.0000000   1.0000000   1.0000000   1.0000000

  Atom       121         122
 IAtWgt=           1           1
 AtmWgt=   1.0078250   1.0078250
 NucSpn=           1           1
 AtZEff=  -0.0000000  -0.0000000
 NQMom=    0.0000000   0.0000000
 NMagM=    2.7928460   2.7928460
 AtZNuc=   1.0000000   1.0000000
 Leave Link  101 at Thu Jul 23 15:37:56 2020, MaxMem=  4026531840 cpu:               3.3 elap:               0.4
 (Enter /opt/ohpc/pub/libs/gaussian/g16-A.03/sandybridge/g16/l103.exe)

 GradGradGradGradGradGradGradGradGradGradGradGradGradGradGradGradGradGrad
 Berny optimization.
 Initialization pass.
                           ----------------------------
                           !    Initial Parameters    !
                           ! (Angstroms and Degrees)  !
 --------------------------                            --------------------------
 ! Name  Definition              Value          Derivative Info.                !
 --------------------------------------------------------------------------------
 ! R1    R(1,2)                  1.4194         estimate D2E/DX2                !
 ! R2    R(1,10)                 1.3521         estimate D2E/DX2                !
 ! R3    R(1,76)                 1.0864         estimate D2E/DX2                !
 ! R4    R(2,3)                  1.411          estimate D2E/DX2                !
 ! R5    R(2,77)                 1.1484         estimate D2E/DX2                !
 ! R6    R(3,4)                  1.434          estimate D2E/DX2                !
 ! R7    R(3,6)                  1.4078         estimate D2E/DX2                !
 ! R8    R(4,5)                  1.4088         estimate D2E/DX2                !
 ! R9    R(5,78)                 1.0766         estimate D2E/DX2                !
 ! R10   R(5,79)                 1.1506         estimate D2E/DX2                !
 ! R11   R(5,80)                 1.1032         estimate D2E/DX2                !
 ! R12   R(6,7)                  1.4307         estimate D2E/DX2                !
 ! R13   R(6,11)                 1.4417         estimate D2E/DX2                !
 ! R14   R(7,8)                  1.3177         estimate D2E/DX2                !
 ! R15   R(7,10)                 1.4569         estimate D2E/DX2                !
 ! R16   R(8,9)                  1.4909         estimate D2E/DX2                !
 ! R17   R(9,81)                 1.1612         estimate D2E/DX2                !
 ! R18   R(9,82)                 1.1149         estimate D2E/DX2                !
 ! R19   R(9,83)                 1.0812         estimate D2E/DX2                !
 ! R20   R(10,84)                1.0414         estimate D2E/DX2                !
 ! R21   R(11,12)                1.3112         estimate D2E/DX2                !
 ! R22   R(11,15)                1.6492         estimate D2E/DX2                !
 ! R23   R(12,13)                1.3044         estimate D2E/DX2                !
 ! R24   R(13,14)                1.3862         estimate D2E/DX2                !
 ! R25   R(13,85)                1.133          estimate D2E/DX2                !
 ! R26   R(14,15)                1.717          estimate D2E/DX2                !
 ! R27   R(14,16)                1.4291         estimate D2E/DX2                !
 ! R28   R(16,17)                1.4068         estimate D2E/DX2                !
 ! R29   R(16,25)                1.4285         estimate D2E/DX2                !
 ! R30   R(17,18)                1.3762         estimate D2E/DX2                !
 ! R31   R(17,86)                1.0951         estimate D2E/DX2                !
 ! R32   R(18,19)                1.3478         estimate D2E/DX2                !
 ! R33   R(18,21)                1.423          estimate D2E/DX2                !
 ! R34   R(19,20)                1.4352         estimate D2E/DX2                !
 ! R35   R(20,87)                1.035          estimate D2E/DX2                !
 ! R36   R(20,88)                1.0612         estimate D2E/DX2                !
 ! R37   R(20,89)                1.1027         estimate D2E/DX2                !
 ! R38   R(21,22)                1.4149         estimate D2E/DX2                !
 ! R39   R(21,26)                1.4094         estimate D2E/DX2                !
 ! R40   R(22,23)                1.3464         estimate D2E/DX2                !
 ! R41   R(22,25)                1.4673         estimate D2E/DX2                !
 ! R42   R(23,24)                1.3639         estimate D2E/DX2                !
 ! R43   R(24,90)                1.1503         estimate D2E/DX2                !
 ! R44   R(24,91)                1.0888         estimate D2E/DX2                !
 ! R45   R(24,92)                1.0428         estimate D2E/DX2                !
 ! R46   R(25,93)                1.1154         estimate D2E/DX2                !
 ! R47   R(26,27)                1.3441         estimate D2E/DX2                !
 ! R48   R(26,30)                1.7926         estimate D2E/DX2                !
 ! R49   R(27,28)                1.3899         estimate D2E/DX2                !
 ! R50   R(28,29)                1.4702         estimate D2E/DX2                !
 ! R51   R(28,94)                0.9948         estimate D2E/DX2                !
 ! R52   R(29,30)                1.6728         estimate D2E/DX2                !
 ! R53   R(29,31)                1.4649         estimate D2E/DX2                !
 ! R54   R(31,32)                1.4399         estimate D2E/DX2                !
 ! R55   R(31,40)                1.307          estimate D2E/DX2                !
 ! R56   R(32,33)                1.3537         estimate D2E/DX2                !
 ! R57   R(32,95)                1.1293         estimate D2E/DX2                !
 ! R58   R(33,34)                1.3999         estimate D2E/DX2                !
 ! R59   R(33,36)                1.4476         estimate D2E/DX2                !
 ! R60   R(34,35)                1.431          estimate D2E/DX2                !
 ! R61   R(35,96)                1.0508         estimate D2E/DX2                !
 ! R62   R(35,97)                1.1028         estimate D2E/DX2                !
 ! R63   R(35,98)                1.0951         estimate D2E/DX2                !
 ! R64   R(36,37)                1.4543         estimate D2E/DX2                !
 ! R65   R(36,41)                1.4191         estimate D2E/DX2                !
 ! R66   R(37,38)                1.3227         estimate D2E/DX2                !
 ! R67   R(37,40)                1.4002         estimate D2E/DX2                !
 ! R68   R(38,39)                1.3847         estimate D2E/DX2                !
 ! R69   R(39,99)                1.1382         estimate D2E/DX2                !
 ! R70   R(39,100)               1.0987         estimate D2E/DX2                !
 ! R71   R(39,101)               1.0277         estimate D2E/DX2                !
 ! R72   R(40,102)               1.1165         estimate D2E/DX2                !
 ! R73   R(41,42)                1.3052         estimate D2E/DX2                !
 ! R74   R(41,45)                1.7287         estimate D2E/DX2                !
 ! R75   R(42,43)                1.388          estimate D2E/DX2                !
 ! R76   R(43,44)                1.3545         estimate D2E/DX2                !
 ! R77   R(43,103)               1.1064         estimate D2E/DX2                !
 ! R78   R(44,45)                1.7744         estimate D2E/DX2                !
 ! R79   R(44,46)                1.4672         estimate D2E/DX2                !
 ! R80   R(46,47)                1.3381         estimate D2E/DX2                !
 ! R81   R(46,55)                1.3737         estimate D2E/DX2                !
 ! R82   R(47,48)                1.3435         estimate D2E/DX2                !
 ! R83   R(47,104)               1.1695         estimate D2E/DX2                !
 ! R84   R(48,49)                1.4365         estimate D2E/DX2                !
 ! R85   R(48,51)                1.3769         estimate D2E/DX2                !
 ! R86   R(49,50)                1.3946         estimate D2E/DX2                !
 ! R87   R(50,105)               1.1591         estimate D2E/DX2                !
 ! R88   R(50,106)               1.082          estimate D2E/DX2                !
 ! R89   R(50,107)               1.1022         estimate D2E/DX2                !
 ! R90   R(51,52)                1.445          estimate D2E/DX2                !
 ! R91   R(51,56)                1.4953         estimate D2E/DX2                !
 ! R92   R(52,53)                1.4241         estimate D2E/DX2                !
 ! R93   R(52,55)                1.3758         estimate D2E/DX2                !
 ! R94   R(53,54)                1.364          estimate D2E/DX2                !
 ! R95   R(54,108)               1.0792         estimate D2E/DX2                !
 ! R96   R(54,109)               1.1477         estimate D2E/DX2                !
 ! R97   R(54,110)               1.0376         estimate D2E/DX2                !
 ! R98   R(55,111)               1.1226         estimate D2E/DX2                !
 ! R99   R(56,57)                1.3579         estimate D2E/DX2                !
 ! R100  R(56,60)                1.6627         estimate D2E/DX2                !
 ! R101  R(57,58)                1.3606         estimate D2E/DX2                !
 ! R102  R(58,59)                1.3815         estimate D2E/DX2                !
 ! R103  R(58,112)               1.1276         estimate D2E/DX2                !
 ! R104  R(59,60)                1.6661         estimate D2E/DX2                !
 ! R105  R(59,61)                1.5192         estimate D2E/DX2                !
 ! R106  R(61,62)                1.3608         estimate D2E/DX2                !
 ! R107  R(61,70)                1.3649         estimate D2E/DX2                !
 ! R108  R(62,63)                1.4497         estimate D2E/DX2                !
 ! R109  R(62,113)               1.1025         estimate D2E/DX2                !
 ! R110  R(63,64)                1.3921         estimate D2E/DX2                !
 ! R111  R(63,66)                1.3381         estimate D2E/DX2                !
 ! R112  R(64,65)                1.4009         estimate D2E/DX2                !
 ! R113  R(65,114)               1.0636         estimate D2E/DX2                !
 ! R114  R(65,115)               1.0906         estimate D2E/DX2                !
 ! R115  R(65,116)               1.1571         estimate D2E/DX2                !
 ! R116  R(66,67)                1.4436         estimate D2E/DX2                !
 ! R117  R(66,71)                1.4818         estimate D2E/DX2                !
 ! R118  R(67,68)                1.374          estimate D2E/DX2                !
 ! R119  R(67,70)                1.4394         estimate D2E/DX2                !
 ! R120  R(68,69)                1.4323         estimate D2E/DX2                !
 ! R121  R(69,117)               1.108          estimate D2E/DX2                !
 ! R122  R(69,118)               1.0268         estimate D2E/DX2                !
 ! R123  R(69,119)               1.0866         estimate D2E/DX2                !
 ! R124  R(70,120)               1.07           estimate D2E/DX2                !
 ! R125  R(71,72)                1.352          estimate D2E/DX2                !
 ! R126  R(71,75)                1.7002         estimate D2E/DX2                !
 ! R127  R(72,73)                1.4394         estimate D2E/DX2                !
 ! R128  R(73,74)                1.3208         estimate D2E/DX2                !
 ! R129  R(73,121)               1.1399         estimate D2E/DX2                !
 ! R130  R(74,75)                1.6801         estimate D2E/DX2                !
 ! R131  R(74,122)               1.0868         estimate D2E/DX2                !
 ! A1    A(2,1,10)             119.828          estimate D2E/DX2                !
 ! A2    A(2,1,76)             115.6318         estimate D2E/DX2                !
 ! A3    A(10,1,76)            124.5121         estimate D2E/DX2                !
 ! A4    A(1,2,3)              121.4775         estimate D2E/DX2                !
 ! A5    A(1,2,77)             117.306          estimate D2E/DX2                !
 ! A6    A(3,2,77)             120.8804         estimate D2E/DX2                !
 ! A7    A(2,3,4)              121.093          estimate D2E/DX2                !
 ! A8    A(2,3,6)              121.2759         estimate D2E/DX2                !
 ! A9    A(4,3,6)              117.2962         estimate D2E/DX2                !
 ! A10   A(3,4,5)              114.7682         estimate D2E/DX2                !
 ! A11   A(4,5,78)             110.6067         estimate D2E/DX2                !
 ! A12   A(4,5,79)             103.3841         estimate D2E/DX2                !
 ! A13   A(4,5,80)             112.8218         estimate D2E/DX2                !
 ! A14   A(78,5,79)            112.7829         estimate D2E/DX2                !
 ! A15   A(78,5,80)            111.1657         estimate D2E/DX2                !
 ! A16   A(79,5,80)            105.7869         estimate D2E/DX2                !
 ! A17   A(3,6,7)              115.7458         estimate D2E/DX2                !
 ! A18   A(3,6,11)             123.942          estimate D2E/DX2                !
 ! A19   A(7,6,11)             120.2312         estimate D2E/DX2                !
 ! A20   A(6,7,8)              119.648          estimate D2E/DX2                !
 ! A21   A(6,7,10)             122.6344         estimate D2E/DX2                !
 ! A22   A(8,7,10)             117.7166         estimate D2E/DX2                !
 ! A23   A(7,8,9)              112.6568         estimate D2E/DX2                !
 ! A24   A(8,9,81)             109.0352         estimate D2E/DX2                !
 ! A25   A(8,9,82)             107.2337         estimate D2E/DX2                !
 ! A26   A(8,9,83)             113.7223         estimate D2E/DX2                !
 ! A27   A(81,9,82)            106.1028         estimate D2E/DX2                !
 ! A28   A(81,9,83)            108.6529         estimate D2E/DX2                !
 ! A29   A(82,9,83)            111.7941         estimate D2E/DX2                !
 ! A30   A(1,10,7)             118.9565         estimate D2E/DX2                !
 ! A31   A(1,10,84)            119.6132         estimate D2E/DX2                !
 ! A32   A(7,10,84)            121.3936         estimate D2E/DX2                !
 ! A33   A(6,11,12)            125.2292         estimate D2E/DX2                !
 ! A34   A(6,11,15)            120.2467         estimate D2E/DX2                !
 ! A35   A(12,11,15)           114.2889         estimate D2E/DX2                !
 ! A36   A(11,12,13)           111.114          estimate D2E/DX2                !
 ! A37   A(12,13,14)           117.3572         estimate D2E/DX2                !
 ! A38   A(12,13,85)           120.4065         estimate D2E/DX2                !
 ! A39   A(14,13,85)           121.8521         estimate D2E/DX2                !
 ! A40   A(13,14,15)           105.4707         estimate D2E/DX2                !
 ! A41   A(13,14,16)           133.8256         estimate D2E/DX2                !
 ! A42   A(15,14,16)           120.5647         estimate D2E/DX2                !
 ! A43   A(11,15,14)            91.6475         estimate D2E/DX2                !
 ! A44   A(14,16,17)           124.6826         estimate D2E/DX2                !
 ! A45   A(14,16,25)           117.622          estimate D2E/DX2                !
 ! A46   A(17,16,25)           117.4991         estimate D2E/DX2                !
 ! A47   A(16,17,18)           123.0681         estimate D2E/DX2                !
 ! A48   A(16,17,86)           117.2156         estimate D2E/DX2                !
 ! A49   A(18,17,86)           119.0213         estimate D2E/DX2                !
 ! A50   A(17,18,19)           124.4791         estimate D2E/DX2                !
 ! A51   A(17,18,21)           121.395          estimate D2E/DX2                !
 ! A52   A(19,18,21)           113.9109         estimate D2E/DX2                !
 ! A53   A(18,19,20)           117.0813         estimate D2E/DX2                !
 ! A54   A(19,20,87)           109.3105         estimate D2E/DX2                !
 ! A55   A(19,20,88)           114.8282         estimate D2E/DX2                !
 ! A56   A(19,20,89)           104.634          estimate D2E/DX2                !
 ! A57   A(87,20,88)           110.9278         estimate D2E/DX2                !
 ! A58   A(87,20,89)           108.2624         estimate D2E/DX2                !
 ! A59   A(88,20,89)           108.5153         estimate D2E/DX2                !
 ! A60   A(18,21,22)           117.9325         estimate D2E/DX2                !
 ! A61   A(18,21,26)           123.6771         estimate D2E/DX2                !
 ! A62   A(22,21,26)           118.3            estimate D2E/DX2                !
 ! A63   A(21,22,23)           121.9747         estimate D2E/DX2                !
 ! A64   A(21,22,25)           120.0794         estimate D2E/DX2                !
 ! A65   A(23,22,25)           117.8661         estimate D2E/DX2                !
 ! A66   A(22,23,24)           120.9336         estimate D2E/DX2                !
 ! A67   A(23,24,90)           107.8286         estimate D2E/DX2                !
 ! A68   A(23,24,91)           112.1622         estimate D2E/DX2                !
 ! A69   A(23,24,92)           112.7349         estimate D2E/DX2                !
 ! A70   A(90,24,91)           100.6439         estimate D2E/DX2                !
 ! A71   A(90,24,92)           110.4429         estimate D2E/DX2                !
 ! A72   A(91,24,92)           112.2762         estimate D2E/DX2                !
 ! A73   A(16,25,22)           119.6288         estimate D2E/DX2                !
 ! A74   A(16,25,93)           117.7264         estimate D2E/DX2                !
 ! A75   A(22,25,93)           121.7621         estimate D2E/DX2                !
 ! A76   A(21,26,27)           126.5877         estimate D2E/DX2                !
 ! A77   A(21,26,30)           121.6206         estimate D2E/DX2                !
 ! A78   A(27,26,30)           111.7769         estimate D2E/DX2                !
 ! A79   A(26,27,28)           112.298          estimate D2E/DX2                !
 ! A80   A(27,28,29)           114.1227         estimate D2E/DX2                !
 ! A81   A(27,28,94)           121.5887         estimate D2E/DX2                !
 ! A82   A(29,28,94)           124.2861         estimate D2E/DX2                !
 ! A83   A(28,29,30)           109.2257         estimate D2E/DX2                !
 ! A84   A(28,29,31)           127.5097         estimate D2E/DX2                !
 ! A85   A(30,29,31)           123.2537         estimate D2E/DX2                !
 ! A86   A(26,30,29)            92.408          estimate D2E/DX2                !
 ! A87   A(29,31,32)           119.9936         estimate D2E/DX2                !
 ! A88   A(29,31,40)           120.4864         estimate D2E/DX2                !
 ! A89   A(32,31,40)           119.4317         estimate D2E/DX2                !
 ! A90   A(31,32,33)           121.4533         estimate D2E/DX2                !
 ! A91   A(31,32,95)           113.5982         estimate D2E/DX2                !
 ! A92   A(33,32,95)           124.9163         estimate D2E/DX2                !
 ! A93   A(32,33,34)           123.2228         estimate D2E/DX2                !
 ! A94   A(32,33,36)           119.9565         estimate D2E/DX2                !
 ! A95   A(34,33,36)           116.1814         estimate D2E/DX2                !
 ! A96   A(33,34,35)           116.944          estimate D2E/DX2                !
 ! A97   A(34,35,96)           105.1146         estimate D2E/DX2                !
 ! A98   A(34,35,97)           105.4848         estimate D2E/DX2                !
 ! A99   A(34,35,98)           110.8052         estimate D2E/DX2                !
 ! A100  A(96,35,97)           108.7599         estimate D2E/DX2                !
 ! A101  A(96,35,98)           109.6464         estimate D2E/DX2                !
 ! A102  A(97,35,98)           116.3808         estimate D2E/DX2                !
 ! A103  A(33,36,37)           116.2035         estimate D2E/DX2                !
 ! A104  A(33,36,41)           120.7695         estimate D2E/DX2                !
 ! A105  A(37,36,41)           122.957          estimate D2E/DX2                !
 ! A106  A(36,37,38)           117.8854         estimate D2E/DX2                !
 ! A107  A(36,37,40)           119.7364         estimate D2E/DX2                !
 ! A108  A(38,37,40)           122.306          estimate D2E/DX2                !
 ! A109  A(37,38,39)           111.1975         estimate D2E/DX2                !
 ! A110  A(38,39,99)           110.3497         estimate D2E/DX2                !
 ! A111  A(38,39,100)          106.9164         estimate D2E/DX2                !
 ! A112  A(38,39,101)          112.3199         estimate D2E/DX2                !
 ! A113  A(99,39,100)          104.7707         estimate D2E/DX2                !
 ! A114  A(99,39,101)          114.2703         estimate D2E/DX2                !
 ! A115  A(100,39,101)         107.6261         estimate D2E/DX2                !
 ! A116  A(31,40,37)           122.7601         estimate D2E/DX2                !
 ! A117  A(31,40,102)          122.9598         estimate D2E/DX2                !
 ! A118  A(37,40,102)          114.2767         estimate D2E/DX2                !
 ! A119  A(36,41,42)           127.5893         estimate D2E/DX2                !
 ! A120  A(36,41,45)           120.3423         estimate D2E/DX2                !
 ! A121  A(42,41,45)           111.7282         estimate D2E/DX2                !
 ! A122  A(41,42,43)           113.9339         estimate D2E/DX2                !
 ! A123  A(42,43,44)           115.2411         estimate D2E/DX2                !
 ! A124  A(42,43,103)          116.4633         estimate D2E/DX2                !
 ! A125  A(44,43,103)          128.2807         estimate D2E/DX2                !
 ! A126  A(43,44,45)           107.6535         estimate D2E/DX2                !
 ! A127  A(43,44,46)           130.1616         estimate D2E/DX2                !
 ! A128  A(45,44,46)           122.1707         estimate D2E/DX2                !
 ! A129  A(41,45,44)            90.9667         estimate D2E/DX2                !
 ! A130  A(44,46,47)           120.5354         estimate D2E/DX2                !
 ! A131  A(44,46,55)           120.8848         estimate D2E/DX2                !
 ! A132  A(47,46,55)           118.3777         estimate D2E/DX2                !
 ! A133  A(46,47,48)           121.5685         estimate D2E/DX2                !
 ! A134  A(46,47,104)          118.0141         estimate D2E/DX2                !
 ! A135  A(48,47,104)          120.3525         estimate D2E/DX2                !
 ! A136  A(47,48,49)           116.9648         estimate D2E/DX2                !
 ! A137  A(47,48,51)           124.3255         estimate D2E/DX2                !
 ! A138  A(49,48,51)           117.941          estimate D2E/DX2                !
 ! A139  A(48,49,50)           108.2071         estimate D2E/DX2                !
 ! A140  A(49,50,105)          105.1811         estimate D2E/DX2                !
 ! A141  A(49,50,106)          112.2924         estimate D2E/DX2                !
 ! A142  A(49,50,107)          113.6525         estimate D2E/DX2                !
 ! A143  A(105,50,106)         103.6822         estimate D2E/DX2                !
 ! A144  A(105,50,107)         107.638          estimate D2E/DX2                !
 ! A145  A(106,50,107)         113.4094         estimate D2E/DX2                !
 ! A146  A(48,51,52)           113.5291         estimate D2E/DX2                !
 ! A147  A(48,51,56)           125.1007         estimate D2E/DX2                !
 ! A148  A(52,51,56)           120.9166         estimate D2E/DX2                !
 ! A149  A(51,52,53)           117.9245         estimate D2E/DX2                !
 ! A150  A(51,52,55)           120.4923         estimate D2E/DX2                !
 ! A151  A(53,52,55)           121.4311         estimate D2E/DX2                !
 ! A152  A(52,53,54)           116.9185         estimate D2E/DX2                !
 ! A153  A(53,54,108)          106.5991         estimate D2E/DX2                !
 ! A154  A(53,54,109)          110.4989         estimate D2E/DX2                !
 ! A155  A(53,54,110)          115.5351         estimate D2E/DX2                !
 ! A156  A(108,54,109)         107.0346         estimate D2E/DX2                !
 ! A157  A(108,54,110)         109.8589         estimate D2E/DX2                !
 ! A158  A(109,54,110)         107.0289         estimate D2E/DX2                !
 ! A159  A(46,55,52)           121.255          estimate D2E/DX2                !
 ! A160  A(46,55,111)          117.5913         estimate D2E/DX2                !
 ! A161  A(52,55,111)          120.9016         estimate D2E/DX2                !
 ! A162  A(51,56,57)           121.9068         estimate D2E/DX2                !
 ! A163  A(51,56,60)           121.7517         estimate D2E/DX2                !
 ! A164  A(57,56,60)           116.3275         estimate D2E/DX2                !
 ! A165  A(56,57,58)           106.7783         estimate D2E/DX2                !
 ! A166  A(57,58,59)           116.4272         estimate D2E/DX2                !
 ! A167  A(57,58,112)          114.1785         estimate D2E/DX2                !
 ! A168  A(59,58,112)          129.3128         estimate D2E/DX2                !
 ! A169  A(58,59,60)           109.6316         estimate D2E/DX2                !
 ! A170  A(58,59,61)           125.047          estimate D2E/DX2                !
 ! A171  A(60,59,61)           125.3199         estimate D2E/DX2                !
 ! A172  A(56,60,59)            90.7488         estimate D2E/DX2                !
 ! A173  A(59,61,62)           116.1922         estimate D2E/DX2                !
 ! A174  A(59,61,70)           118.833          estimate D2E/DX2                !
 ! A175  A(62,61,70)           124.9653         estimate D2E/DX2                !
 ! A176  A(61,62,63)           115.5965         estimate D2E/DX2                !
 ! A177  A(61,62,113)          124.976          estimate D2E/DX2                !
 ! A178  A(63,62,113)          119.4105         estimate D2E/DX2                !
 ! A179  A(62,63,64)           118.4093         estimate D2E/DX2                !
 ! A180  A(62,63,66)           122.6476         estimate D2E/DX2                !
 ! A181  A(64,63,66)           118.6564         estimate D2E/DX2                !
 ! A182  A(63,64,65)           122.6564         estimate D2E/DX2                !
 ! A183  A(64,65,114)          114.5237         estimate D2E/DX2                !
 ! A184  A(64,65,115)          112.4394         estimate D2E/DX2                !
 ! A185  A(64,65,116)          109.3487         estimate D2E/DX2                !
 ! A186  A(114,65,115)         108.1011         estimate D2E/DX2                !
 ! A187  A(114,65,116)         106.8054         estimate D2E/DX2                !
 ! A188  A(115,65,116)         105.0555         estimate D2E/DX2                !
 ! A189  A(63,66,67)           119.9292         estimate D2E/DX2                !
 ! A190  A(63,66,71)           122.3746         estimate D2E/DX2                !
 ! A191  A(67,66,71)           117.2598         estimate D2E/DX2                !
 ! A192  A(66,67,68)           120.2679         estimate D2E/DX2                !
 ! A193  A(66,67,70)           117.3019         estimate D2E/DX2                !
 ! A194  A(68,67,70)           122.4031         estimate D2E/DX2                !
 ! A195  A(67,68,69)           109.3486         estimate D2E/DX2                !
 ! A196  A(68,69,117)          111.9154         estimate D2E/DX2                !
 ! A197  A(68,69,118)          111.1937         estimate D2E/DX2                !
 ! A198  A(68,69,119)          103.2135         estimate D2E/DX2                !
 ! A199  A(117,69,118)         115.5238         estimate D2E/DX2                !
 ! A200  A(117,69,119)         104.4767         estimate D2E/DX2                !
 ! A201  A(118,69,119)         109.5372         estimate D2E/DX2                !
 ! A202  A(61,70,67)           118.9215         estimate D2E/DX2                !
 ! A203  A(61,70,120)          123.0631         estimate D2E/DX2                !
 ! A204  A(67,70,120)          117.5032         estimate D2E/DX2                !
 ! A205  A(66,71,72)           118.3413         estimate D2E/DX2                !
 ! A206  A(66,71,75)           124.4894         estimate D2E/DX2                !
 ! A207  A(72,71,75)           117.1642         estimate D2E/DX2                !
 ! A208  A(71,72,73)           105.5752         estimate D2E/DX2                !
 ! A209  A(72,73,74)           114.9382         estimate D2E/DX2                !
 ! A210  A(72,73,121)          115.9953         estimate D2E/DX2                !
 ! A211  A(74,73,121)          128.8355         estimate D2E/DX2                !
 ! A212  A(73,74,75)           113.5985         estimate D2E/DX2                !
 ! A213  A(73,74,122)          125.7263         estimate D2E/DX2                !
 ! A214  A(75,74,122)          120.67           estimate D2E/DX2                !
 ! A215  A(71,75,74)            88.6635         estimate D2E/DX2                !
 ! D1    D(10,1,2,3)             0.7629         estimate D2E/DX2                !
 ! D2    D(10,1,2,77)          174.16           estimate D2E/DX2                !
 ! D3    D(76,1,2,3)           178.9181         estimate D2E/DX2                !
 ! D4    D(76,1,2,77)           -7.6848         estimate D2E/DX2                !
 ! D5    D(2,1,10,7)            -0.9713         estimate D2E/DX2                !
 ! D6    D(2,1,10,84)          176.8576         estimate D2E/DX2                !
 ! D7    D(76,1,10,7)         -178.9528         estimate D2E/DX2                !
 ! D8    D(76,1,10,84)          -1.1239         estimate D2E/DX2                !
 ! D9    D(1,2,3,4)            174.6321         estimate D2E/DX2                !
 ! D10   D(1,2,3,6)              1.4579         estimate D2E/DX2                !
 ! D11   D(77,2,3,4)             1.4694         estimate D2E/DX2                !
 ! D12   D(77,2,3,6)          -171.7049         estimate D2E/DX2                !
 ! D13   D(2,3,4,5)             32.7645         estimate D2E/DX2                !
 ! D14   D(6,3,4,5)           -153.7991         estimate D2E/DX2                !
 ! D15   D(2,3,6,7)             -3.1913         estimate D2E/DX2                !
 ! D16   D(2,3,6,11)          -179.9157         estimate D2E/DX2                !
 ! D17   D(4,3,6,7)           -176.6149         estimate D2E/DX2                !
 ! D18   D(4,3,6,11)             6.6607         estimate D2E/DX2                !
 ! D19   D(3,4,5,78)           -82.2832         estimate D2E/DX2                !
 ! D20   D(3,4,5,79)           156.7375         estimate D2E/DX2                !
 ! D21   D(3,4,5,80)            42.9381         estimate D2E/DX2                !
 ! D22   D(3,6,7,8)           -177.3618         estimate D2E/DX2                !
 ! D23   D(3,6,7,10)             3.0033         estimate D2E/DX2                !
 ! D24   D(11,6,7,8)            -0.5069         estimate D2E/DX2                !
 ! D25   D(11,6,7,10)          179.8582         estimate D2E/DX2                !
 ! D26   D(3,6,11,12)         -109.7999         estimate D2E/DX2                !
 ! D27   D(3,6,11,15)           64.2999         estimate D2E/DX2                !
 ! D28   D(7,6,11,12)           73.6152         estimate D2E/DX2                !
 ! D29   D(7,6,11,15)         -112.2851         estimate D2E/DX2                !
 ! D30   D(6,7,8,9)            -95.8586         estimate D2E/DX2                !
 ! D31   D(10,7,8,9)            83.7941         estimate D2E/DX2                !
 ! D32   D(6,7,10,1)            -0.968          estimate D2E/DX2                !
 ! D33   D(6,7,10,84)         -178.7568         estimate D2E/DX2                !
 ! D34   D(8,7,10,1)           179.3904         estimate D2E/DX2                !
 ! D35   D(8,7,10,84)            1.6016         estimate D2E/DX2                !
 ! D36   D(7,8,9,81)           -70.8498         estimate D2E/DX2                !
 ! D37   D(7,8,9,82)           174.6799         estimate D2E/DX2                !
 ! D38   D(7,8,9,83)            50.5611         estimate D2E/DX2                !
 ! D39   D(6,11,12,13)         178.2529         estimate D2E/DX2                !
 ! D40   D(15,11,12,13)          3.8439         estimate D2E/DX2                !
 ! D41   D(6,11,15,14)        -177.4084         estimate D2E/DX2                !
 ! D42   D(12,11,15,14)         -2.6943         estimate D2E/DX2                !
 ! D43   D(11,12,13,14)         -3.2861         estimate D2E/DX2                !
 ! D44   D(11,12,13,85)       -176.3016         estimate D2E/DX2                !
 ! D45   D(12,13,14,15)          1.2727         estimate D2E/DX2                !
 ! D46   D(12,13,14,16)       -174.287          estimate D2E/DX2                !
 ! D47   D(85,13,14,15)        174.1803         estimate D2E/DX2                !
 ! D48   D(85,13,14,16)         -1.3794         estimate D2E/DX2                !
 ! D49   D(13,14,15,11)          0.7851         estimate D2E/DX2                !
 ! D50   D(16,14,15,11)        177.0658         estimate D2E/DX2                !
 ! D51   D(13,14,16,17)        126.3223         estimate D2E/DX2                !
 ! D52   D(13,14,16,25)        -48.4464         estimate D2E/DX2                !
 ! D53   D(15,14,16,17)        -48.7065         estimate D2E/DX2                !
 ! D54   D(15,14,16,25)        136.5248         estimate D2E/DX2                !
 ! D55   D(14,16,17,18)       -177.9768         estimate D2E/DX2                !
 ! D56   D(14,16,17,86)         -7.6388         estimate D2E/DX2                !
 ! D57   D(25,16,17,18)         -3.2023         estimate D2E/DX2                !
 ! D58   D(25,16,17,86)        167.1357         estimate D2E/DX2                !
 ! D59   D(14,16,25,22)        179.8636         estimate D2E/DX2                !
 ! D60   D(14,16,25,93)        -10.6984         estimate D2E/DX2                !
 ! D61   D(17,16,25,22)          4.7124         estimate D2E/DX2                !
 ! D62   D(17,16,25,93)        174.1504         estimate D2E/DX2                !
 ! D63   D(16,17,18,19)        177.6586         estimate D2E/DX2                !
 ! D64   D(16,17,18,21)          3.3163         estimate D2E/DX2                !
 ! D65   D(86,17,18,19)          7.4863         estimate D2E/DX2                !
 ! D66   D(86,17,18,21)       -166.856          estimate D2E/DX2                !
 ! D67   D(17,18,19,20)         29.781          estimate D2E/DX2                !
 ! D68   D(21,18,19,20)       -155.5007         estimate D2E/DX2                !
 ! D69   D(17,18,21,22)         -4.8554         estimate D2E/DX2                !
 ! D70   D(17,18,21,26)        178.6671         estimate D2E/DX2                !
 ! D71   D(19,18,21,22)       -179.7553         estimate D2E/DX2                !
 ! D72   D(19,18,21,26)          3.7672         estimate D2E/DX2                !
 ! D73   D(18,19,20,87)        160.925          estimate D2E/DX2                !
 ! D74   D(18,19,20,88)        -73.6845         estimate D2E/DX2                !
 ! D75   D(18,19,20,89)         45.1602         estimate D2E/DX2                !
 ! D76   D(18,21,22,23)       -176.9018         estimate D2E/DX2                !
 ! D77   D(18,21,22,25)          6.4166         estimate D2E/DX2                !
 ! D78   D(26,21,22,23)         -0.2308         estimate D2E/DX2                !
 ! D79   D(26,21,22,25)       -176.9125         estimate D2E/DX2                !
 ! D80   D(18,21,26,27)       -117.8439         estimate D2E/DX2                !
 ! D81   D(18,21,26,30)         63.674          estimate D2E/DX2                !
 ! D82   D(22,21,26,27)         65.6907         estimate D2E/DX2                !
 ! D83   D(22,21,26,30)       -112.7914         estimate D2E/DX2                !
 ! D84   D(21,22,23,24)       -152.9194         estimate D2E/DX2                !
 ! D85   D(25,22,23,24)         23.8326         estimate D2E/DX2                !
 ! D86   D(21,22,25,16)         -6.5361         estimate D2E/DX2                !
 ! D87   D(21,22,25,93)       -175.5347         estimate D2E/DX2                !
 ! D88   D(23,22,25,16)        176.6479         estimate D2E/DX2                !
 ! D89   D(23,22,25,93)          7.6492         estimate D2E/DX2                !
 ! D90   D(22,23,24,90)        165.8136         estimate D2E/DX2                !
 ! D91   D(22,23,24,91)        -84.279          estimate D2E/DX2                !
 ! D92   D(22,23,24,92)         43.6345         estimate D2E/DX2                !
 ! D93   D(21,26,27,28)        179.455          estimate D2E/DX2                !
 ! D94   D(30,26,27,28)         -1.9369         estimate D2E/DX2                !
 ! D95   D(21,26,30,29)       -177.8344         estimate D2E/DX2                !
 ! D96   D(27,26,30,29)          3.478          estimate D2E/DX2                !
 ! D97   D(26,27,28,29)         -0.9373         estimate D2E/DX2                !
 ! D98   D(26,27,28,94)        178.5035         estimate D2E/DX2                !
 ! D99   D(27,28,29,30)          3.5204         estimate D2E/DX2                !
 ! D100  D(27,28,29,31)       -177.6622         estimate D2E/DX2                !
 ! D101  D(94,28,29,30)       -175.9031         estimate D2E/DX2                !
 ! D102  D(94,28,29,31)          2.9143         estimate D2E/DX2                !
 ! D103  D(28,29,30,26)         -3.7575         estimate D2E/DX2                !
 ! D104  D(31,29,30,26)        177.3643         estimate D2E/DX2                !
 ! D105  D(28,29,31,32)        -52.2064         estimate D2E/DX2                !
 ! D106  D(28,29,31,40)        131.2291         estimate D2E/DX2                !
 ! D107  D(30,29,31,32)        126.4583         estimate D2E/DX2                !
 ! D108  D(30,29,31,40)        -50.1062         estimate D2E/DX2                !
 ! D109  D(29,31,32,33)        178.685          estimate D2E/DX2                !
 ! D110  D(29,31,32,95)          0.6543         estimate D2E/DX2                !
 ! D111  D(40,31,32,33)         -4.7142         estimate D2E/DX2                !
 ! D112  D(40,31,32,95)        177.255          estimate D2E/DX2                !
 ! D113  D(29,31,40,37)        177.0061         estimate D2E/DX2                !
 ! D114  D(29,31,40,102)        -2.2886         estimate D2E/DX2                !
 ! D115  D(32,31,40,37)          0.4224         estimate D2E/DX2                !
 ! D116  D(32,31,40,102)      -178.8723         estimate D2E/DX2                !
 ! D117  D(31,32,33,34)        178.6558         estimate D2E/DX2                !
 ! D118  D(31,32,33,36)          8.178          estimate D2E/DX2                !
 ! D119  D(95,32,33,34)         -3.545          estimate D2E/DX2                !
 ! D120  D(95,32,33,36)       -174.0228         estimate D2E/DX2                !
 ! D121  D(32,33,34,35)         16.7053         estimate D2E/DX2                !
 ! D122  D(36,33,34,35)       -172.4851         estimate D2E/DX2                !
 ! D123  D(32,33,36,37)         -7.2418         estimate D2E/DX2                !
 ! D124  D(32,33,36,41)        175.7143         estimate D2E/DX2                !
 ! D125  D(34,33,36,37)       -178.3707         estimate D2E/DX2                !
 ! D126  D(34,33,36,41)          4.5854         estimate D2E/DX2                !
 ! D127  D(33,34,35,96)        167.7703         estimate D2E/DX2                !
 ! D128  D(33,34,35,97)         52.9041         estimate D2E/DX2                !
 ! D129  D(33,34,35,98)        -73.8584         estimate D2E/DX2                !
 ! D130  D(33,36,37,38)       -173.8279         estimate D2E/DX2                !
 ! D131  D(33,36,37,40)          3.1531         estimate D2E/DX2                !
 ! D132  D(41,36,37,38)          3.145          estimate D2E/DX2                !
 ! D133  D(41,36,37,40)       -179.874          estimate D2E/DX2                !
 ! D134  D(33,36,41,42)       -122.2096         estimate D2E/DX2                !
 ! D135  D(33,36,41,45)         65.0682         estimate D2E/DX2                !
 ! D136  D(37,36,41,42)         60.9516         estimate D2E/DX2                !
 ! D137  D(37,36,41,45)       -111.7707         estimate D2E/DX2                !
 ! D138  D(36,37,38,39)       -101.1695         estimate D2E/DX2                !
 ! D139  D(40,37,38,39)         81.9321         estimate D2E/DX2                !
 ! D140  D(36,37,40,31)          0.1284         estimate D2E/DX2                !
 ! D141  D(36,37,40,102)       179.4792         estimate D2E/DX2                !
 ! D142  D(38,37,40,31)        176.9711         estimate D2E/DX2                !
 ! D143  D(38,37,40,102)        -3.6781         estimate D2E/DX2                !
 ! D144  D(37,38,39,99)         60.9945         estimate D2E/DX2                !
 ! D145  D(37,38,39,100)       174.3867         estimate D2E/DX2                !
 ! D146  D(37,38,39,101)       -67.7741         estimate D2E/DX2                !
 ! D147  D(36,41,42,43)        179.1764         estimate D2E/DX2                !
 ! D148  D(45,41,42,43)         -7.5824         estimate D2E/DX2                !
 ! D149  D(36,41,45,44)        179.7755         estimate D2E/DX2                !
 ! D150  D(42,41,45,44)          5.9789         estimate D2E/DX2                !
 ! D151  D(41,42,43,44)          5.5542         estimate D2E/DX2                !
 ! D152  D(41,42,43,103)      -175.7316         estimate D2E/DX2                !
 ! D153  D(42,43,44,45)         -0.8023         estimate D2E/DX2                !
 ! D154  D(42,43,44,46)       -179.4288         estimate D2E/DX2                !
 ! D155  D(103,43,44,45)      -179.3359         estimate D2E/DX2                !
 ! D156  D(103,43,44,46)         2.0376         estimate D2E/DX2                !
 ! D157  D(43,44,45,41)         -2.788          estimate D2E/DX2                !
 ! D158  D(46,44,45,41)        175.972          estimate D2E/DX2                !
 ! D159  D(43,44,46,47)        -54.8636         estimate D2E/DX2                !
 ! D160  D(43,44,46,55)        119.8865         estimate D2E/DX2                !
 ! D161  D(45,44,46,47)        126.6827         estimate D2E/DX2                !
 ! D162  D(45,44,46,55)        -58.5673         estimate D2E/DX2                !
 ! D163  D(44,46,47,48)        170.5434         estimate D2E/DX2                !
 ! D164  D(44,46,47,104)        -6.5356         estimate D2E/DX2                !
 ! D165  D(55,46,47,48)         -4.3361         estimate D2E/DX2                !
 ! D166  D(55,46,47,104)       178.5849         estimate D2E/DX2                !
 ! D167  D(44,46,55,52)       -171.944          estimate D2E/DX2                !
 ! D168  D(44,46,55,111)         2.3375         estimate D2E/DX2                !
 ! D169  D(47,46,55,52)          2.9168         estimate D2E/DX2                !
 ! D170  D(47,46,55,111)       177.1983         estimate D2E/DX2                !
 ! D171  D(46,47,48,49)        176.7095         estimate D2E/DX2                !
 ! D172  D(46,47,48,51)          6.9874         estimate D2E/DX2                !
 ! D173  D(104,47,48,49)        -6.279          estimate D2E/DX2                !
 ! D174  D(104,47,48,51)      -176.0011         estimate D2E/DX2                !
 ! D175  D(47,48,49,50)         81.7647         estimate D2E/DX2                !
 ! D176  D(51,48,49,50)       -107.8367         estimate D2E/DX2                !
 ! D177  D(47,48,51,52)         -7.2102         estimate D2E/DX2                !
 ! D178  D(47,48,51,56)       -179.5031         estimate D2E/DX2                !
 ! D179  D(49,48,51,52)       -176.8399         estimate D2E/DX2                !
 ! D180  D(49,48,51,56)         10.8672         estimate D2E/DX2                !
 ! D181  D(48,49,50,105)       169.212          estimate D2E/DX2                !
 ! D182  D(48,49,50,106)        57.1178         estimate D2E/DX2                !
 ! D183  D(48,49,50,107)       -73.2982         estimate D2E/DX2                !
 ! D184  D(48,51,52,53)       -178.8892         estimate D2E/DX2                !
 ! D185  D(48,51,52,55)          5.5298         estimate D2E/DX2                !
 ! D186  D(56,51,52,53)         -6.237          estimate D2E/DX2                !
 ! D187  D(56,51,52,55)        178.1821         estimate D2E/DX2                !
 ! D188  D(48,51,56,57)         53.7601         estimate D2E/DX2                !
 ! D189  D(48,51,56,60)       -124.8288         estimate D2E/DX2                !
 ! D190  D(52,51,56,57)       -117.9998         estimate D2E/DX2                !
 ! D191  D(52,51,56,60)         63.4114         estimate D2E/DX2                !
 ! D192  D(51,52,53,54)       -142.3928         estimate D2E/DX2                !
 ! D193  D(55,52,53,54)         33.1444         estimate D2E/DX2                !
 ! D194  D(51,52,55,46)         -3.7461         estimate D2E/DX2                !
 ! D195  D(51,52,55,111)      -177.8389         estimate D2E/DX2                !
 ! D196  D(53,52,55,46)       -179.1698         estimate D2E/DX2                !
 ! D197  D(53,52,55,111)         6.7374         estimate D2E/DX2                !
 ! D198  D(52,53,54,108)       163.1732         estimate D2E/DX2                !
 ! D199  D(52,53,54,109)       -80.8632         estimate D2E/DX2                !
 ! D200  D(52,53,54,110)        40.8118         estimate D2E/DX2                !
 ! D201  D(51,56,57,58)        178.2835         estimate D2E/DX2                !
 ! D202  D(60,56,57,58)         -3.0553         estimate D2E/DX2                !
 ! D203  D(51,56,60,59)       -179.4316         estimate D2E/DX2                !
 ! D204  D(57,56,60,59)          1.9049         estimate D2E/DX2                !
 ! D205  D(56,57,58,59)          2.9899         estimate D2E/DX2                !
 ! D206  D(56,57,58,112)      -179.9831         estimate D2E/DX2                !
 ! D207  D(57,58,59,60)         -1.7427         estimate D2E/DX2                !
 ! D208  D(57,58,59,61)        178.6955         estimate D2E/DX2                !
 ! D209  D(112,58,59,60)      -178.2366         estimate D2E/DX2                !
 ! D210  D(112,58,59,61)         2.2016         estimate D2E/DX2                !
 ! D211  D(58,59,60,56)         -0.0855         estimate D2E/DX2                !
 ! D212  D(61,59,60,56)        179.4749         estimate D2E/DX2                !
 ! D213  D(58,59,61,62)        130.8448         estimate D2E/DX2                !
 ! D214  D(58,59,61,70)        -50.2193         estimate D2E/DX2                !
 ! D215  D(60,59,61,62)        -48.6494         estimate D2E/DX2                !
 ! D216  D(60,59,61,70)        130.2865         estimate D2E/DX2                !
 ! D217  D(59,61,62,63)       -178.5613         estimate D2E/DX2                !
 ! D218  D(59,61,62,113)        -0.0777         estimate D2E/DX2                !
 ! D219  D(70,61,62,63)          2.5763         estimate D2E/DX2                !
 ! D220  D(70,61,62,113)      -178.9401         estimate D2E/DX2                !
 ! D221  D(59,61,70,67)        175.3132         estimate D2E/DX2                !
 ! D222  D(59,61,70,120)         3.7354         estimate D2E/DX2                !
 ! D223  D(62,61,70,67)         -5.852          estimate D2E/DX2                !
 ! D224  D(62,61,70,120)      -177.4298         estimate D2E/DX2                !
 ! D225  D(61,62,63,64)        178.8807         estimate D2E/DX2                !
 ! D226  D(61,62,63,66)          5.1182         estimate D2E/DX2                !
 ! D227  D(113,62,63,64)         0.307          estimate D2E/DX2                !
 ! D228  D(113,62,63,66)      -173.4554         estimate D2E/DX2                !
 ! D229  D(62,63,64,65)         28.8452         estimate D2E/DX2                !
 ! D230  D(66,63,64,65)       -157.139          estimate D2E/DX2                !
 ! D231  D(62,63,66,67)         -8.9554         estimate D2E/DX2                !
 ! D232  D(62,63,66,71)        178.8363         estimate D2E/DX2                !
 ! D233  D(64,63,66,67)        177.2969         estimate D2E/DX2                !
 ! D234  D(64,63,66,71)          5.0886         estimate D2E/DX2                !
 ! D235  D(63,64,65,114)       165.4434         estimate D2E/DX2                !
 ! D236  D(63,64,65,115)        41.5336         estimate D2E/DX2                !
 ! D237  D(63,64,65,116)       -74.7538         estimate D2E/DX2                !
 ! D238  D(63,66,67,68)       -176.5276         estimate D2E/DX2                !
 ! D239  D(63,66,67,70)          5.3208         estimate D2E/DX2                !
 ! D240  D(71,66,67,68)         -3.9281         estimate D2E/DX2                !
 ! D241  D(71,66,67,70)        177.9203         estimate D2E/DX2                !
 ! D242  D(63,66,71,72)        -96.5457         estimate D2E/DX2                !
 ! D243  D(63,66,71,75)         84.2976         estimate D2E/DX2                !
 ! D244  D(67,66,71,72)         91.0494         estimate D2E/DX2                !
 ! D245  D(67,66,71,75)        -88.1073         estimate D2E/DX2                !
 ! D246  D(66,67,68,69)       -107.7888         estimate D2E/DX2                !
 ! D247  D(70,67,68,69)         70.2659         estimate D2E/DX2                !
 ! D248  D(66,67,70,61)          1.8201         estimate D2E/DX2                !
 ! D249  D(66,67,70,120)       173.8655         estimate D2E/DX2                !
 ! D250  D(68,67,70,61)       -176.2891         estimate D2E/DX2                !
 ! D251  D(68,67,70,120)        -4.2438         estimate D2E/DX2                !
 ! D252  D(67,68,69,117)       -80.1688         estimate D2E/DX2                !
 ! D253  D(67,68,69,118)        50.6854         estimate D2E/DX2                !
 ! D254  D(67,68,69,119)       168.0386         estimate D2E/DX2                !
 ! D255  D(66,71,72,73)        178.2544         estimate D2E/DX2                !
 ! D256  D(75,71,72,73)         -2.5269         estimate D2E/DX2                !
 ! D257  D(66,71,75,74)       -179.2197         estimate D2E/DX2                !
 ! D258  D(72,71,75,74)          1.6146         estimate D2E/DX2                !
 ! D259  D(71,72,73,74)          2.4727         estimate D2E/DX2                !
 ! D260  D(71,72,73,121)       177.4457         estimate D2E/DX2                !
 ! D261  D(72,73,74,75)         -1.4636         estimate D2E/DX2                !
 ! D262  D(72,73,74,122)       179.3622         estimate D2E/DX2                !
 ! D263  D(121,73,74,75)      -175.6605         estimate D2E/DX2                !
 ! D264  D(121,73,74,122)        5.1653         estimate D2E/DX2                !
 ! D265  D(73,74,75,71)         -0.0139         estimate D2E/DX2                !
 ! D266  D(122,74,75,71)       179.2067         estimate D2E/DX2                !
 --------------------------------------------------------------------------------
 Trust Radius=3.00D-01 FncErr=1.00D-07 GrdErr=1.00D-06 EigMax=2.50D+02 EigMin=1.00D-04
 Number of steps in this run=    622 maximum allowed number of steps=    732.
 GradGradGradGradGradGradGradGradGradGradGradGradGradGradGradGradGradGrad

 Leave Link  103 at Thu Jul 23 15:37:56 2020, MaxMem=  4026531840 cpu:               0.2 elap:               0.0
 (Enter /opt/ohpc/pub/libs/gaussian/g16-A.03/sandybridge/g16/l202.exe)
 Stoichiometry    C55H47N5O10S5
 Framework group  C1[X(C55H47N5O10S5)]
 Deg. of freedom   360
 Full point group                 C1      NOp   1
 Largest Abelian subgroup         C1      NOp   1
 Largest concise Abelian subgroup C1      NOp   1
                         Standard orientation:                         
 ---------------------------------------------------------------------
 Center     Atomic      Atomic             Coordinates (Angstroms)
 Number     Number       Type             X           Y           Z
 ---------------------------------------------------------------------
      1          6           0      -18.553231   -2.014758   -0.233171
      2          6           0      -17.652330   -2.300394    0.825807
      3          6           0      -16.448132   -1.581845    0.982724
      4          8           0      -15.599271   -1.798135    2.118022
      5          6           0      -15.598385   -3.117722    2.611454
      6          6           0      -16.105535   -0.530523    0.111435
      7          6           0      -17.015422   -0.295970   -0.967425
      8          8           0      -16.743010    0.635149   -1.859126
      9          6           0      -17.408017    1.934249   -1.554426
     10          6           0      -18.254863   -1.044947   -1.126833
     11          6           0      -14.891368    0.239546    0.217435
     12          7           0      -14.821861    1.494645    0.590528
     13          6           0      -13.584833    1.906871    0.624636
     14          6           0      -12.595522    0.976697    0.346212
     15         16           0      -13.426198   -0.485066   -0.002089
     16          6           0      -11.167285    1.009712    0.383870
     17          6           0      -10.363516    0.092008    1.084584
     18          6           0       -8.990796    0.178726    1.131212
     19          8           0       -8.196772   -0.656976    1.829545
     20          6           0       -8.663812   -2.001714    2.012376
     21          6           0       -8.295107    1.259090    0.519949
     22          6           0       -9.048373    2.192347   -0.230813
     23          8           0       -8.466587    3.209738   -0.893563
     24          6           0       -9.146222    4.366572   -1.138632
     25          6           0      -10.513458    2.112760   -0.245791
     26          6           0       -6.894367    1.409937    0.561386
     27          7           0       -6.214131    2.425695    1.120137
     28          6           0       -4.838437    2.268190    1.000249
     29          6           0       -4.432529    1.031105    0.317259
     30         16           0       -5.797467    0.215680   -0.202767
     31          6           0       -3.069619    0.551259    0.076326
     32          6           0       -2.102982    1.414469   -0.551200
     33          6           0       -0.828493    1.010811   -0.764082
     34          8           0        0.133500    1.808572   -1.394811
     35          6           0       -0.147891    3.208217   -1.492834
     36          6           0       -0.456888   -0.367357   -0.522839
     37          6           0       -1.469280   -1.206009    0.099081
     38          8           0       -1.125595   -2.434596    0.448487
     39          6           0       -1.577713   -3.362571   -0.474393
[...]
  Beta virt. eigenvalues --    1.86332   1.86593   1.86813   1.86857   1.87138
  Beta virt. eigenvalues --    1.87317   1.87866   1.88040   1.88183   1.88511
  Beta virt. eigenvalues --    1.88762   1.88876   1.89085   1.89272   1.89803
  Beta virt. eigenvalues --    1.90194   1.90463   1.90599   1.90821   1.91035
  Beta virt. eigenvalues --    1.91260   1.91462   1.91691   1.92132   1.92404
  Beta virt. eigenvalues --    1.92848   1.92982   1.93362   1.93568   1.93733
  Beta virt. eigenvalues --    1.93960   1.94387   1.94467   1.94697   1.94806
  Beta virt. eigenvalues --    1.95232   1.95458   1.95606   1.95737   1.95943
  Beta virt. eigenvalues --    1.96239   1.96814   1.96990   1.97508   1.97902
  Beta virt. eigenvalues --    1.98432   1.98797   1.99344   1.99962   2.00052
  Beta virt. eigenvalues --    2.00381   2.01236   2.01488   2.01699   2.01932
  Beta virt. eigenvalues --    2.02153   2.02364   2.02556   2.03028   2.03137
  Beta virt. eigenvalues --    2.03255   2.03517   2.03822   2.03901   2.03960
  Beta virt. eigenvalues --    2.04422   2.04723   2.04908   2.05394   2.05959
  Beta virt. eigenvalues --    2.06359   2.06735   2.07321   2.07884   2.07966
  Beta virt. eigenvalues --    2.08169   2.08597   2.08823   2.09121   2.09370
  Beta virt. eigenvalues --    2.09493   2.09814   2.10726   2.11250   2.11547
  Beta virt. eigenvalues --    2.11662   2.12306   2.12548   2.13891   2.14211
  Beta virt. eigenvalues --    2.14308   2.14743   2.15032   2.15222   2.15358
  Beta virt. eigenvalues --    2.15695   2.15940   2.16447   2.16488   2.17230
  Beta virt. eigenvalues --    2.17624   2.18018   2.18252   2.18529   2.18919
  Beta virt. eigenvalues --    2.19106   2.19287   2.19395   2.20031   2.20354
  Beta virt. eigenvalues --    2.20818   2.20911   2.21039   2.21297   2.21463
  Beta virt. eigenvalues --    2.21576   2.22300   2.22972   2.23037   2.23125
  Beta virt. eigenvalues --    2.23439   2.23750   2.24298   2.24668   2.25009
  Beta virt. eigenvalues --    2.25067   2.25434   2.25526   2.26210   2.26787
  Beta virt. eigenvalues --    2.27037   2.27330   2.27455   2.27606   2.28430
  Beta virt. eigenvalues --    2.28758   2.29361   2.29561   2.29831   2.31277
  Beta virt. eigenvalues --    2.31733   2.32295   2.32669   2.33196   2.33695
  Beta virt. eigenvalues --    2.33786   2.33829   2.34055   2.34467   2.34593
  Beta virt. eigenvalues --    2.35000   2.35705   2.36095   2.37616   2.38318
  Beta virt. eigenvalues --    2.38590   2.38891   2.39250   2.39854   2.39948
  Beta virt. eigenvalues --    2.40665   2.41057   2.41584   2.41792   2.42667
  Beta virt. eigenvalues --    2.42951   2.43428   2.44332   2.44560   2.45365
  Beta virt. eigenvalues --    2.45393   2.45901   2.46094   2.47065   2.47358
  Beta virt. eigenvalues --    2.47565   2.48043   2.48842   2.49002   2.49103
  Beta virt. eigenvalues --    2.49226   2.50318   2.51599   2.52438   2.52607
  Beta virt. eigenvalues --    2.52701   2.53104   2.53900   2.53959   2.54301
  Beta virt. eigenvalues --    2.54514   2.54670   2.54712   2.54806   2.54923
  Beta virt. eigenvalues --    2.55121   2.55237   2.55685   2.57101   2.57333
  Beta virt. eigenvalues --    2.58126   2.58487   2.58833   2.59238   2.59771
  Beta virt. eigenvalues --    2.60065   2.60165   2.60315   2.60572   2.61316
  Beta virt. eigenvalues --    2.61390   2.61486   2.61543   2.61724   2.61797
  Beta virt. eigenvalues --    2.62167   2.62254   2.62273   2.62872   2.63120
  Beta virt. eigenvalues --    2.63720   2.63953   2.64080   2.64132   2.64278
  Beta virt. eigenvalues --    2.64581   2.64642   2.64828   2.65437   2.66231
  Beta virt. eigenvalues --    2.67098   2.67655   2.68015   2.68201   2.68447
  Beta virt. eigenvalues --    2.68669   2.68960   2.70427   2.70473   2.77545
  Beta virt. eigenvalues --    2.79468   2.80737   2.81461   2.82357   2.82481
  Beta virt. eigenvalues --    2.82770   2.83978   2.84453   2.84701   2.85318
  Beta virt. eigenvalues --    2.85393   2.85582   2.86054   2.89122   2.89471
  Beta virt. eigenvalues --    2.89966   2.90884   2.91497   2.92896   2.94000
  Beta virt. eigenvalues --    2.96290   2.97884   2.98589   2.99321   3.00673
  Beta virt. eigenvalues --    3.02231   3.02937   3.03039   3.03204   3.03879
  Beta virt. eigenvalues --    3.04623   3.04792   3.05159   3.05861   3.06792
  Beta virt. eigenvalues --    3.12103   3.12172   3.12310   3.13374   3.14068
  Beta virt. eigenvalues --    3.14418   3.14470   3.14529   3.17459   3.17857
  Beta virt. eigenvalues --    3.18071   3.18445   3.18708   3.18729   3.19075
  Beta virt. eigenvalues --    3.19813   3.20268   3.20339   3.20635   3.20981
  Beta virt. eigenvalues --    3.21293   3.21461   3.21540   3.22966   3.25750
  Beta virt. eigenvalues --    3.35949   3.36103   3.36193   3.36244   3.36892
  Beta virt. eigenvalues --    3.38647   3.39014   3.39394   3.40823   3.47783
  Beta virt. eigenvalues --    3.48062   3.48130   3.48186   3.52972   3.54698
  Beta virt. eigenvalues --    3.54967   3.55041   3.55225   3.58499   3.58894
  Beta virt. eigenvalues --    3.59284   3.59377   3.59603   3.60507   3.78591
  Beta virt. eigenvalues --    3.78977   3.79273   3.79363   3.83045
          Condensed to atoms (all electrons):
          Atomic-Atomic Spin Densities.
 Mulliken charges and spin densities:
               1          2
     1  C    0.019611   0.000000
     2  C   -0.076305  -0.000000
     3  C    0.132313   0.000000
     4  O   -0.262393  -0.000000
     5  C    0.030600   0.000000
     6  C   -0.049578  -0.000000
     7  C    0.050045   0.000000
     8  O   -0.274230   0.000000
     9  C    0.054247  -0.000000
    10  C    0.002889  -0.000000
    11  C    0.030931   0.000000
    12  N   -0.192662  -0.000000
    13  C    0.118786   0.000000
    14  C   -0.236930   0.000000
    15  S    0.184939   0.000000
    16  C    0.028158   0.000000
    17  C   -0.075600  -0.000000
    18  C    0.162649   0.000000
    19  O   -0.256038   0.000000
    20  C    0.030486   0.000000
    21  C   -0.090303  -0.000000
    22  C    0.169660   0.000000
    23  O   -0.248126  -0.000000
    24  C    0.032051   0.000000
    25  C   -0.082418  -0.000000
    26  C    0.019433  -0.000000
    27  N   -0.169220   0.000000
    28  C    0.104634   0.000000
    29  C   -0.225394   0.000000
    30  S    0.175643  -0.000000
    31  C    0.041296   0.000000
    32  C   -0.073789  -0.000000
    33  C    0.144508   0.000000
    34  O   -0.264366   0.000000
    35  C    0.033026   0.000000
    36  C   -0.044645   0.000000
    37  C    0.055609   0.000000
    38  O   -0.273619  -0.000000
    39  C    0.054273   0.000000
    40  C    0.010497  -0.000000
    41  C    0.028416  -0.000000
    42  N   -0.193168   0.000000
    43  C    0.121940  -0.000000
    44  C   -0.234075  -0.000000
    45  S    0.181404   0.000000
    46  C    0.045434  -0.000000
    47  C    0.003524  -0.000000
    48  C    0.058902   0.000000
    49  O   -0.273111  -0.000000
    50  C    0.055229   0.000000
    51  C   -0.043776  -0.000000
    52  C    0.140741  -0.000000
    53  O   -0.263791   0.000000
    54  C    0.031906   0.000000
    55  C   -0.069076   0.000000
    56  C    0.027611  -0.000000
    57  N   -0.193651   0.000000
    58  C    0.121671   0.000000
    59  C   -0.233122  -0.000000
    60  S    0.182328   0.000000
    61  C    0.044451   0.000000
    62  C   -0.069522   0.000000
    63  C    0.141715  -0.000000
    64  O   -0.261967   0.000000
    65  C    0.031799  -0.000000
    66  C   -0.039163  -0.000000
    67  C    0.058682   0.000000
    68  O   -0.273654   0.000000
    69  C    0.055357   0.000000
    70  C    0.002916  -0.000000
    71  C    0.012124   0.000000
    72  N   -0.197022  -0.000000
    73  C    0.100494   0.000000
    74  C   -0.207085  -0.000000
    75  S    0.179484  -0.000000
    76  H    0.023606   0.000000
    77  H    0.019312   0.000000
    78  H    0.059217  -0.000000
    79  H    0.071763  -0.000000
    80  H    0.057753  -0.000000
    81  H    0.035290  -0.000000
    82  H    0.057278  -0.000000
    83  H    0.058260   0.000000
    84  H    0.017320  -0.000000
    85  H    0.028534  -0.000000
    86  H    0.017339  -0.000000
    87  H    0.073925   0.000000
    88  H    0.060193   0.000000
    89  H    0.058005  -0.000000
    90  H    0.072442  -0.000000
    91  H    0.058321  -0.000000
    92  H    0.057434  -0.000000
    93  H    0.013147   0.000000
    94  H    0.025702  -0.000000
    95  H    0.014097  -0.000000
    96  H    0.070845  -0.000000
    97  H    0.057914   0.000000
    98  H    0.062100  -0.000000
    99  H    0.058116  -0.000000
   100  H    0.058612  -0.000000
   101  H    0.036854   0.000000
   102  H    0.018511  -0.000000
   103  H    0.029317   0.000000
   104  H    0.014858   0.000000
   105  H    0.059287  -0.000000
   106  H    0.058325  -0.000000
   107  H    0.034343  -0.000000
   108  H    0.071140   0.000000
   109  H    0.061046  -0.000000
   110  H    0.059838  -0.000000
   111  H    0.018755   0.000000
   112  H    0.029169  -0.000000
   113  H    0.018166  -0.000000
   114  H    0.072905   0.000000
   115  H    0.059385  -0.000000
   116  H    0.059751  -0.000000
   117  H    0.033623   0.000000
   118  H    0.058646  -0.000000
   119  H    0.058255  -0.000000
   120  H    0.013907  -0.000000
   121  H    0.027806   0.000000
   122  H    0.054973  -0.000000
 Sum of Mulliken charges =  -0.00000   0.00000
 Mulliken charges and spin densities with hydrogens summed into heavy atoms:
               1          2
     1  C    0.043216   0.000000
     2  C   -0.056993  -0.000000
     3  C    0.132313   0.000000
     4  O   -0.262393  -0.000000
     5  C    0.219333   0.000000
     6  C   -0.049578  -0.000000
     7  C    0.050045   0.000000
     8  O   -0.274230   0.000000
     9  C    0.205075  -0.000000
    10  C    0.020208  -0.000000
    11  C    0.030931   0.000000
    12  N   -0.192662  -0.000000
    13  C    0.147321   0.000000
    14  C   -0.236930   0.000000
    15  S    0.184939   0.000000
    16  C    0.028158   0.000000
    17  C   -0.058261  -0.000000
    18  C    0.162649   0.000000
    19  O   -0.256038   0.000000
    20  C    0.222609   0.000000
    21  C   -0.090303  -0.000000
    22  C    0.169660   0.000000
    23  O   -0.248126  -0.000000
    24  C    0.220248   0.000000
    25  C   -0.069271  -0.000000
    26  C    0.019433  -0.000000
    27  N   -0.169220   0.000000
    28  C    0.130336   0.000000
    29  C   -0.225394   0.000000
    30  S    0.175643  -0.000000
    31  C    0.041296   0.000000
    32  C   -0.059692  -0.000000
    33  C    0.144508   0.000000
    34  O   -0.264366   0.000000
    35  C    0.223886  -0.000000
    36  C   -0.044645   0.000000
    37  C    0.055609   0.000000
    38  O   -0.273619  -0.000000
    39  C    0.207855   0.000000
    40  C    0.029008  -0.000000
    41  C    0.028416  -0.000000
    42  N   -0.193168   0.000000
    43  C    0.151256   0.000000
    44  C   -0.234075  -0.000000
    45  S    0.181404   0.000000
    46  C    0.045434  -0.000000
    47  C    0.018382   0.000000
    48  C    0.058902   0.000000
    49  O   -0.273111  -0.000000
    50  C    0.207184   0.000000
    51  C   -0.043776  -0.000000
    52  C    0.140741  -0.000000
    53  O   -0.263791   0.000000
    54  C    0.223931  -0.000000
    55  C   -0.050320   0.000000
    56  C    0.027611  -0.000000
    57  N   -0.193651   0.000000
    58  C    0.150840   0.000000
    59  C   -0.233122  -0.000000
    60  S    0.182328   0.000000
    61  C    0.044451   0.000000
    62  C   -0.051356   0.000000
    63  C    0.141715  -0.000000
    64  O   -0.261967   0.000000
    65  C    0.223840  -0.000000
    66  C   -0.039163  -0.000000
    67  C    0.058682   0.000000
    68  O   -0.273654   0.000000
    69  C    0.205881   0.000000
    70  C    0.016823  -0.000000
    71  C    0.012124   0.000000
    72  N   -0.197022  -0.000000
    73  C    0.128299   0.000000
    74  C   -0.152112  -0.000000
    75  S    0.179484  -0.000000
 Electronic spatial extent (au):  <R**2>=         272605.8577
 Charge=             -0.0000 electrons
 Dipole moment (field-independent basis, Debye):
    X=             -5.6954    Y=             -3.4755    Z=              0.8888  Tot=              6.7310
 Quadrupole moment (field-independent basis, Debye-Ang):
   XX=           -400.6690   YY=           -435.5677   ZZ=           -420.5934
   XY=            -32.3193   XZ=             49.5250   YZ=             -9.0388
 Traceless Quadrupole moment (field-independent basis, Debye-Ang):
   XX=             18.2744   YY=            -16.6243   ZZ=             -1.6501
   XY=            -32.3193   XZ=             49.5250   YZ=             -9.0388
 Octapole moment (field-independent basis, Debye-Ang**2):
  XXX=          -1797.7760  YYY=             29.9810  ZZZ=            -32.6110  XYY=            371.6431
  XXY=           -298.7392  XXZ=           -509.9239  XZZ=           -551.4803  YZZ=            -93.7338
  YYZ=             14.4377  XYZ=            117.7698
 Hexadecapole moment (field-independent basis, Debye-Ang**3):
 XXXX=        -310003.2850 YYYY=          -7244.9247 ZZZZ=          -6510.3296 XXXY=          -5711.0228
 XXXZ=           8978.0745 YYYX=           -293.1152 YYYZ=            -39.0756 ZZZX=           1176.3389
 ZZZY=           -142.6228 XXYY=         -57553.3631 XXZZ=         -53326.8362 YYZZ=          -2461.3210
 XXYZ=            973.1453 YYXZ=           -144.2165 ZZXY=            -38.5251
 N-N= 1.121136718173D+04 E-N=-3.449198645344D+04  KE= 5.114442991030D+03
 Leave Link  601 at Fri Jul 24 01:33:35 2020, MaxMem=  4026531840 cpu:              10.6 elap:               1.5
 (Enter /opt/ohpc/pub/libs/gaussian/g16-A.03/sandybridge/g16/l9999.exe)

 Test job not archived.
 1\1\GINC-SKYLAKE041\FOpt\ULC-wPBE\CC-pVDZ\C55H47N5O10S5\RDU230\24-Jul-
 2020\0\\#P uLC-wPBE/cc-pVDZ iop(3/107=0496500000, 3/108=0496500000) op
 t\\H47 C55 S5 N5 O10\\0,1\C,-18.5167185509,-2.0731631999,1.2101290762\
 C,-17.5799297394,-2.067851211,2.233022749\C,-16.3735285677,-1.41176693
 81,2.0471362864\O,-15.4013958172,-1.3538078557,2.9777453891\C,-15.6170
 238206,-1.9797825404,4.2135644838\C,-16.1052275701,-0.7450636027,0.843
 8218967\C,-17.0588698808,-0.7762774717,-0.1674092765\O,-16.7858581193,
 -0.2004122487,-1.365136421\C,-17.3984246183,1.0546767951,-1.570518858\
 C,-18.2673050425,-1.437613217,0.0140599397\C,-14.841519532,-0.01355913
 46,0.6381044168\N,-14.7786990116,1.2231124281,0.264116207\C,-13.484650
 5521,1.6164130837,0.0961589987\C,-12.5325004616,0.6789183025,0.3342346
 482\S,-13.3090357753,-0.7778351894,0.8041372864\C,-11.0727635081,0.819
 7835699,0.2496156728\C,-10.250644793,0.1332201583,1.1329661843\C,-8.87
 33510823,0.2894406221,1.0469471768\O,-8.0015952067,-0.3292864344,1.861
 7293879\C,-8.4987136721,-1.1827289789,2.8578596453\C,-8.3107786775,1.1
 324481792,0.0909900977\C,-9.1499768195,1.8094332352,-0.7933894139\O,-8
 .5378825102,2.5765845863,-1.7078662401\C,-9.3249962567,3.3021461068,-2
 .6133698845\C,-10.5281816659,1.6522258967,-0.7191714366\C,-6.849795203
 3,1.3221219856,0.0173059566\N,-6.2379166165,2.4184688731,0.3189348064\
 C,-4.8953115684,2.2896614775,0.1207310235\C,-4.4604603256,1.0894233993
 ,-0.3425535183\S,-5.8209285668,0.0608678042,-0.5405095479\C,-3.0852070
 591,0.6651550432,-0.6312751969\C,-2.1535901583,1.6085768875,-1.0616083
 744\C,-0.8457682534,1.2307114181,-1.3073133358\O,0.1089205618,2.085815
 6945,-1.7202144407\C,-0.2309055402,3.4321562894,-1.916606837\C,-0.4440
 983388,-0.1041172856,-1.1576714553\C,-1.3860168042,-1.0304445401,-0.72
 50619436\O,-1.0114876148,-2.3123945123,-0.4929061717\C,-1.3906106242,-
 3.2324058361,-1.4947310335\C,-2.6951190725,-0.6514445773,-0.4632978561
 \C,0.9318297411,-0.5358262256,-1.4583738857\N,1.2184025781,-1.53874668
 7,-2.2240769078\C,2.5634580382,-1.7479678834,-2.2720409699\C,3.3326101
 14,-0.907491746,-1.5337731599\S,2.3041699522,0.2159535411,-0.741939179
 6\C,4.7948301979,-0.8874586014,-1.4078008611\C,5.5114349099,-2.0681843
 277,-1.4920391333\C,6.8951402409,-2.0519705642,-1.3901588113\O,7.57130
 42297,-3.2265677238,-1.4142719397\C,7.7630789328,-3.7756348292,-2.7007
 383055\C,7.5872060962,-0.8616974625,-1.1950697692\C,6.8490788387,0.324
 3490002,-1.0833434605\O,7.5674372899,1.4443707845,-0.8789296945\C,6.89
 20032301,2.6688879225,-0.7731028432\C,5.4703281822,0.313572358,-1.2001
 128658\C,9.0581983876,-0.867848691,-1.1144742897\N,9.8214267572,-1.442
 5956814,-1.9870603415\C,11.1320921721,-1.3447736751,-1.629148681\C,11.
 3941446073,-0.6955196823,-0.4660709083\S,9.9064830127,-0.1701957119,0.
 2102614177\C,12.6981507475,-0.4295961047,0.1533914521\C,12.9008391858,
 0.7248286401,0.907034505\C,14.1336870803,0.9690095946,1.4864948705\O,1
 4.4020528098,2.0590959717,2.2287137334\C,13.3815258733,2.9959977523,2.
 4459698147\C,15.1989176531,0.0763979926,1.3073827248\C,14.9747970185,-
 1.0751350681,0.5618256793\O,15.958485376,-2.0006082435,0.4403238817\C,
 16.6403440111,-1.9811421023,-0.7958577827\C,13.7356127441,-1.330775575
 5,-0.0080781524\C,16.5298773476,0.3361869919,1.8856337967\N,17.6267428
 871,0.3053948762,1.2005516811\C,18.7097542555,0.5265107926,2.002521651
 8\C,18.4395923731,0.7224759724,3.3122633865\S,16.7554725712,0.63938738
 04,3.5652813519\H,-19.4582146335,-2.5972522549,1.3573981374\H,-17.7981
 451695,-2.5787443213,3.1642525738\H,-16.4802837086,-1.5492617737,4.736
 4901107\H,-14.7175269953,-1.8036016371,4.8060195559\H,-15.7643950853,-
 3.0610438035,4.0976360678\H,-18.4879941829,0.9898255373,-1.4514082476\
 H,-17.168975127,1.3513104385,-2.5964148773\H,-16.9871645329,1.79396760
 45,-0.8746196841\H,-18.9821310696,-1.4596636198,-0.8033800627\H,-13.27
 56975906,2.6441438473,-0.1853628281\H,-10.693157248,-0.4968973405,1.89
 6378336\H,-7.6274030131,-1.5718371912,3.3872509247\H,-9.1375416022,-0.
 6422354383,3.567395971\H,-9.0607189227,-2.0206306298,2.4266197346\H,-8
 .6291854695,3.8656720297,-3.2371386833\H,-9.9218835468,2.6387123836,-3
 .2519161976\H,-9.9900324035,4.0039861352,-2.094854755\H,-11.1852851431
 ,2.146033229,-1.4252563538\H,-4.2446054388,3.1245777286,0.3639159211\H
 ,-2.4729415951,2.6320782339,-1.2203035757\H,0.6824311143,3.9323446758,
 -2.2431374139\H,-0.5835762231,3.8981240552,-0.987862033\H,-0.997634250
 9,3.5434017752,-2.6934188327\H,-0.8535651789,-3.0188179843,-2.42509179
 \H,-1.110911343,-4.2235224136,-1.1310289929\H,-2.4742384802,-3.2064773
 39,-1.6690305611\H,-3.3864292767,-1.4004644652,-0.0869196628\H,2.95368
 98224,-2.5407813431,-2.902991284\H,5.0084781957,-3.0253673674,-1.59075
 36767\H,8.2312902165,-4.7518658728,-2.5574172405\H,8.4272246422,-3.133
 8248504,-3.2894437088\H,6.8063358003,-3.9097171326,-3.2224303465\H,7.6
 595953136,3.4265953641,-0.6068188317\H,6.3469722768,2.907354628,-1.694
 9972517\H,6.1940779048,2.6719109865,0.0735876956\H,4.9058135828,1.2381
 71692,-1.1469037321\H,11.8924617669,-1.7567577256,-2.2856516511\H,12.0
 88776917,1.434872365,1.0205026781\H,13.8139535794,3.7766605436,3.07404
 66093\H,12.5271507405,2.5467654743,2.9677530562\H,13.0390689637,3.4421
 46686,1.503811184\H,15.9429812457,-2.0986409987,-1.6358368607\H,17.204
 1542601,-1.0480458458,-0.900804716\H,17.3316596818,-2.8266562462,-0.78
 51154285\H,13.5901797977,-2.2673645498,-0.5378129886\H,19.702268957,0.
 5367243886,1.5627984302\H,19.1339234447,0.9209132951,4.1199451902\\Ver
 sion=EM64L-G16RevA.03\State=1-A\HF=-5138.5448814\S2=0.\S2-1=0.\S2A=0.\
 RMSD=4.717e-09\RMSF=1.976e-06\Dipole=-2.2374831,1.3504873,0.4274622\Qu
 adrupole=13.9787048,-3.390578,-10.5881268,39.9460039,-18.2456294,-7.72
 23162\PG=C01 [X(C55H47N5O10S5)]\\@


 Fatherhood is pretending the present you love most is soap-on-a-rope.
 -- Bill Cosby
 Job cpu time:       3 days  6 hours  6 minutes  3.7 seconds.
 Elapsed time:       0 days  9 hours 55 minutes 35.9 seconds.
 File lengths (MBytes):  RWF=   1908 Int=      0 D2E=      0 Chk=    172 Scr=      8
 Normal termination of Gaussian 16 at Fri Jul 24 01:33:35 2020.
