 Entering Gaussian System, Link 0=g16
 Input=mols_55_1_02_C-N_opt_0.gjf
 Output=mols_55_1_02_C-N_opt_0.log
 Initial command:
 /opt/ohpc/pub/libs/gaussian/g16-A.03/sandybridge/g16/l1.exe "/mnt/gpfs2_4m/scratch/rdu230/ondemand/projects/dihedral_energies/7trial/wtuning/mols_55_1_02_C-N/Gau-327675.inp" -scrdir="/mnt/gpfs2_4m/scratch/rdu230/ondemand/projects/dihedral_energies/7trial/wtuning/mols_55_1_02_C-N/"
 Entering Link 1 = /opt/ohpc/pub/libs/gaussian/g16-A.03/sandybridge/g16/l1.exe PID=    327676.
  
 Copyright (c) 1988,1990,1992,1993,1995,1998,2003,2009,2016,
            Gaussian, Inc.  All Rights Reserved.
  
 This is part of the Gaussian(R) 16 program.  It is based on
 the Gaussian(R) 09 system (copyright 2009, Gaussian, Inc.),
 the Gaussian(R) 03 system (copyright 2003, Gaussian, Inc.),
 the Gaussian(R) 98 system (copyright 1998, Gaussian, Inc.),
 the Gaussian(R) 94 system (copyright 1995, Gaussian, Inc.),
 the Gaussian 92(TM) system (copyright 1992, Gaussian, Inc.),
 the Gaussian 90(TM) system (copyright 1990, Gaussian, Inc.),
 the Gaussian 88(TM) system (copyright 1988, Gaussian, Inc.),
 the Gaussian 86(TM) system (copyright 1986, Carnegie Mellon
 University), and the Gaussian 82(TM) system (copyright 1983,
 Carnegie Mellon University). Gaussian is a federally registered
 trademark of Gaussian, Inc.
  
 This software contains proprietary and confidential information,
 including trade secrets, belonging to Gaussian, Inc.
  
 This software is provided under written license and may be
 used, copied, transmitted, or stored only in accord with that
 written license.
  
 The following legend is applicable only to US Government
 contracts under FAR:
  
                    RESTRICTED RIGHTS LEGEND
  
 Use, reproduction and disclosure by the US Government is
 subject to restrictions as set forth in subparagraphs (a)
 and (c) of the Commercial Computer Software - Restricted
 Rights clause in FAR 52.227-19.
  
 Gaussian, Inc.
 340 Quinnipiac St., Bldg. 40, Wallingford CT 06492
  
  
 ---------------------------------------------------------------
 Warning -- This program may not be used in any manner that
 competes with the business of Gaussian, Inc. or will provide
 assistance to any competitor of Gaussian, Inc.  The licensee
 of this program is prohibited from giving any competitor of
 Gaussian, Inc. access to this program.  By using this program,
 the user acknowledges that Gaussian, Inc. is engaged in the
 business of creating and licensing software in the field of
 computational chemistry and represents and warrants to the
 licensee that it is not a competitor of Gaussian, Inc. and that
 it will not use this program in any manner prohibited above.
 ---------------------------------------------------------------
  

 Cite this work as:
 Gaussian 16, Revision A.03,
 M. J. Frisch, G. W. Trucks, H. B. Schlegel, G. E. Scuseria, 
 M. A. Robb, J. R. Cheeseman, G. Scalmani, V. Barone, 
 G. A. Petersson, H. Nakatsuji, X. Li, M. Caricato, A. V. Marenich, 
 J. Bloino, B. G. Janesko, R. Gomperts, B. Mennucci, H. P. Hratchian, 
 J. V. Ortiz, A. F. Izmaylov, J. L. Sonnenberg, D. Williams-Young, 
 F. Ding, F. Lipparini, F. Egidi, J. Goings, B. Peng, A. Petrone, 
 T. Henderson, D. Ranasinghe, V. G. Zakrzewski, J. Gao, N. Rega, 
 G. Zheng, W. Liang, M. Hada, M. Ehara, K. Toyota, R. Fukuda, 
 J. Hasegawa, M. Ishida, T. Nakajima, Y. Honda, O. Kitao, H. Nakai, 
 T. Vreven, K. Throssell, J. A. Montgomery, Jr., J. E. Peralta, 
 F. Ogliaro, M. J. Bearpark, J. J. Heyd, E. N. Brothers, K. N. Kudin, 
 V. N. Staroverov, T. A. Keith, R. Kobayashi, J. Normand, 
 K. Raghavachari, A. P. Rendell, J. C. Burant, S. S. Iyengar, 
 J. Tomasi, M. Cossi, J. M. Millam, M. Klene, C. Adamo, R. Cammi, 
 J. W. Ochterski, R. L. Martin, K. Morokuma, O. Farkas, 
 J. B. Foresman, and D. J. Fox, Gaussian, Inc., Wallingford CT, 2016.
 
 ******************************************
 Gaussian 16:  EM64L-G16RevA.03 25-Dec-2016
                24-Jul-2020 
 ******************************************
 %mem=30GB
 %nproc=8
 Will use up to    8 processors via shared memory.
 ---------------------------------------------------------------
 #P uLC-wPBE/cc-pVDZ iop(3/107=0319300000, 3/108=0319300000) opt
 ---------------------------------------------------------------
 1/18=20,19=15,26=3,38=1/1,3;
 2/9=110,12=2,17=6,18=5,40=1/2;
 3/5=16,11=2,25=1,30=1,71=1,74=-41,107=319300000,108=319300000,116=2/1,2,3;
 4//1;
 5/5=2,38=5/2;
 6/7=2,8=2,9=2,10=2,28=1/1;
 7//1,2,3,16;
 1/18=20,19=15,26=3/3(2);
 2/9=110/2;
 99//99;
 2/9=110/2;
 3/5=16,11=2,25=1,30=1,71=1,74=-41,107=319300000,108=319300000,116=2/1,2,3;
 4/5=5,16=3,69=1/1;
 5/5=2,38=5/2;
 7//1,2,3,16;
 1/18=20,19=15,26=3/3(-5);
 2/9=110/2;
 6/7=2,8=2,9=2,10=2,19=2,28=1/1;
 99/9=1/99;
 Leave Link    1 at Fri Jul 24 22:01:20 2020, MaxMem=  4026531840 cpu:               1.9 elap:               0.3
 (Enter /opt/ohpc/pub/libs/gaussian/g16-A.03/sandybridge/g16/l101.exe)
 -----------
 H5 C7 S2 N1
 -----------
 Symbolic Z-matrix:
 Charge =  0 Multiplicity = 1
 C                    -3.13463  -0.12471  -0.02042 
 C                    -2.80952   1.16784   0.04899 
 C                    -1.36038   1.37024   0.02175 
 C                    -0.7105    0.10901  -0.04415 
 S                    -1.79886  -1.15425  -0.02962 
 C                     0.72075  -0.12251   0.04215 
 N                     1.26676  -1.27883   0.04279 
 C                     2.68474  -1.2182   -0.03179 
 C                     3.13665   0.09716   0.02127 
 S                     1.88873   1.22544  -0.03697 
 H                    -4.11172  -0.57617  -0.01893 
 H                    -3.51672   2.02621   0.0109 
 H                    -0.88715   2.34802   0.01181 
 H                     3.26424  -2.10242   0.02884 
 H                     4.23957   0.3665   -0.02257 
 
 ITRead=  0  0  0  0  0  0  0  0  0  0  0  0  0  0  0
 MicOpt= -1 -1 -1 -1 -1 -1 -1 -1 -1 -1 -1 -1 -1 -1 -1
 NAtoms=     15 NQM=       15 NQMF=       0 NMMI=      0 NMMIF=      0
                NMic=       0 NMicF=      0.
                    Isotopes and Nuclear Properties:
 (Nuclear quadrupole moments (NQMom) in fm**2, nuclear magnetic moments (NMagM)
  in nuclear magnetons)

  Atom         1           2           3           4           5           6           7           8           9          10
 IAtWgt=          12          12          12          12          32          12          14          12          12          32
 AtmWgt=  12.0000000  12.0000000  12.0000000  12.0000000  31.9720718  12.0000000  14.0030740  12.0000000  12.0000000  31.9720718
 NucSpn=           0           0           0           0           0           0           2           0           0           0
 AtZEff=  -0.0000000  -0.0000000  -0.0000000  -0.0000000  -0.0000000  -0.0000000  -0.0000000  -0.0000000  -0.0000000  -0.0000000
 NQMom=    0.0000000   0.0000000   0.0000000   0.0000000   0.0000000   0.0000000   2.0440000   0.0000000   0.0000000   0.0000000
 NMagM=    0.0000000   0.0000000   0.0000000   0.0000000   0.0000000   0.0000000   0.4037610   0.0000000   0.0000000   0.0000000
 AtZNuc=   6.0000000   6.0000000   6.0000000   6.0000000  16.0000000   6.0000000   7.0000000   6.0000000   6.0000000  16.0000000

  Atom        11          12          13          14          15
 IAtWgt=           1           1           1           1           1
 AtmWgt=   1.0078250   1.0078250   1.0078250   1.0078250   1.0078250
 NucSpn=           1           1           1           1           1
 AtZEff=  -0.0000000  -0.0000000  -0.0000000  -0.0000000  -0.0000000
 NQMom=    0.0000000   0.0000000   0.0000000   0.0000000   0.0000000
 NMagM=    2.7928460   2.7928460   2.7928460   2.7928460   2.7928460
 AtZNuc=   1.0000000   1.0000000   1.0000000   1.0000000   1.0000000
 Leave Link  101 at Fri Jul 24 22:01:20 2020, MaxMem=  4026531840 cpu:               3.2 elap:               0.4
 (Enter /opt/ohpc/pub/libs/gaussian/g16-A.03/sandybridge/g16/l103.exe)

 GradGradGradGradGradGradGradGradGradGradGradGradGradGradGradGradGradGrad
 Berny optimization.
 Initialization pass.
                           ----------------------------
                           !    Initial Parameters    !
                           ! (Angstroms and Degrees)  !
 --------------------------                            --------------------------
 ! Name  Definition              Value          Derivative Info.                !
 --------------------------------------------------------------------------------
 ! R1    R(1,2)                  1.3346         estimate D2E/DX2                !
 ! R2    R(1,5)                  1.6865         estimate D2E/DX2                !
 ! R3    R(1,11)                 1.0763         estimate D2E/DX2                !
 ! R4    R(2,3)                  1.4635         estimate D2E/DX2                !
 ! R5    R(2,12)                 1.1128         estimate D2E/DX2                !
 ! R6    R(3,4)                  1.4203         estimate D2E/DX2                !
 ! R7    R(3,13)                 1.0863         estimate D2E/DX2                !
 ! R8    R(4,5)                  1.6675         estimate D2E/DX2                !
 ! R9    R(4,6)                  1.4524         estimate D2E/DX2                !
 ! R10   R(6,7)                  1.2787         estimate D2E/DX2                !
 ! R11   R(6,10)                 1.7853         estimate D2E/DX2                !
 ! R12   R(7,8)                  1.4212         estimate D2E/DX2                !
 ! R13   R(8,9)                  1.3918         estimate D2E/DX2                !
 ! R14   R(8,14)                 1.0589         estimate D2E/DX2                !
 ! R15   R(9,10)                 1.6834         estimate D2E/DX2                !
 ! R16   R(9,15)                 1.1362         estimate D2E/DX2                !
 ! A1    A(2,1,5)              113.488          estimate D2E/DX2                !
 ! A2    A(2,1,11)             128.8503         estimate D2E/DX2                !
 ! A3    A(5,1,11)             117.5775         estimate D2E/DX2                !
 ! A4    A(1,2,3)              111.9744         estimate D2E/DX2                !
 ! A5    A(1,2,12)             126.188          estimate D2E/DX2                !
 ! A6    A(3,2,12)             121.4644         estimate D2E/DX2                !
 ! A7    A(2,3,4)              109.3373         estimate D2E/DX2                !
 ! A8    A(2,3,13)             123.7804         estimate D2E/DX2                !
 ! A9    A(4,3,13)             126.8345         estimate D2E/DX2                !
 ! A10   A(3,4,5)              111.9416         estimate D2E/DX2                !
 ! A11   A(3,4,6)              126.1335         estimate D2E/DX2                !
 ! A12   A(5,4,6)              121.4599         estimate D2E/DX2                !
 ! A13   A(1,5,4)               93.1261         estimate D2E/DX2                !
 ! A14   A(4,6,7)              124.3976         estimate D2E/DX2                !
 ! A15   A(4,6,10)             121.4456         estimate D2E/DX2                !
 ! A16   A(7,6,10)             113.7918         estimate D2E/DX2                !
 ! A17   A(6,7,8)              112.7932         estimate D2E/DX2                !
 ! A18   A(7,8,9)              111.2391         estimate D2E/DX2                !
 ! A19   A(7,8,14)             120.4889         estimate D2E/DX2                !
 ! A20   A(9,8,14)             127.5358         estimate D2E/DX2                !
 ! A21   A(8,9,10)             113.0417         estimate D2E/DX2                !
 ! A22   A(8,9,15)             122.5304         estimate D2E/DX2                !
 ! A23   A(10,9,15)            124.0145         estimate D2E/DX2                !
 ! A24   A(6,10,9)              88.7049         estimate D2E/DX2                !
 ! D1    D(5,1,2,3)              3.3119         estimate D2E/DX2                !
 ! D2    D(5,1,2,12)           176.3338         estimate D2E/DX2                !
 ! D3    D(11,1,2,3)           179.8504         estimate D2E/DX2                !
 ! D4    D(11,1,2,12)           -7.1277         estimate D2E/DX2                !
 ! D5    D(2,1,5,4)             -3.5978         estimate D2E/DX2                !
 ! D6    D(11,1,5,4)           179.4431         estimate D2E/DX2                !
 ! D7    D(1,2,3,4)             -1.2028         estimate D2E/DX2                !
 ! D8    D(1,2,3,13)           176.4362         estimate D2E/DX2                !
 ! D9    D(12,2,3,4)          -174.6017         estimate D2E/DX2                !
 ! D10   D(12,2,3,13)            3.0372         estimate D2E/DX2                !
 ! D11   D(2,3,4,5)             -1.4133         estimate D2E/DX2                !
 ! D12   D(2,3,4,6)           -173.6279         estimate D2E/DX2                !
 ! D13   D(13,3,4,5)          -178.9613         estimate D2E/DX2                !
 ! D14   D(13,3,4,6)             8.8241         estimate D2E/DX2                !
 ! D15   D(3,4,5,1)              2.7828         estimate D2E/DX2                !
 ! D16   D(6,4,5,1)            175.4137         estimate D2E/DX2                !
 ! D17   D(3,4,6,7)            176.5038         estimate D2E/DX2                !
 ! D18   D(3,4,6,10)           -10.8704         estimate D2E/DX2                !
 ! D19   D(5,4,6,7)              4.9745         estimate D2E/DX2                !
 ! D20   D(5,4,6,10)           177.6004         estimate D2E/DX2                !
 ! D21   D(4,6,7,8)            172.6152         estimate D2E/DX2                !
 ! D22   D(10,6,7,8)            -0.5118         estimate D2E/DX2                !
 ! D23   D(4,6,10,9)          -176.3706         estimate D2E/DX2                !
 ! D24   D(7,6,10,9)            -3.017          estimate D2E/DX2                !
 ! D25   D(6,7,8,9)              4.8158         estimate D2E/DX2                !
 ! D26   D(6,7,8,14)           175.7025         estimate D2E/DX2                !
 ! D27   D(7,8,9,10)            -7.1683         estimate D2E/DX2                !
 ! D28   D(7,8,9,15)           179.9408         estimate D2E/DX2                !
 ! D29   D(14,8,9,10)         -177.2572         estimate D2E/DX2                !
 ! D30   D(14,8,9,15)            9.8519         estimate D2E/DX2                !
 ! D31   D(8,9,10,6)             5.7179         estimate D2E/DX2                !
 ! D32   D(15,9,10,6)          178.4863         estimate D2E/DX2                !
 --------------------------------------------------------------------------------
 Trust Radius=3.00D-01 FncErr=1.00D-07 GrdErr=1.00D-06 EigMax=2.50D+02 EigMin=1.00D-04
 Number of steps in this run=     82 maximum allowed number of steps=    100.
 GradGradGradGradGradGradGradGradGradGradGradGradGradGradGradGradGradGrad

 Leave Link  103 at Fri Jul 24 22:01:20 2020, MaxMem=  4026531840 cpu:               0.1 elap:               0.0
 (Enter /opt/ohpc/pub/libs/gaussian/g16-A.03/sandybridge/g16/l202.exe)
                          Input orientation:                          
 ---------------------------------------------------------------------
 Center     Atomic      Atomic             Coordinates (Angstroms)
 Number     Number       Type             X           Y           Z
 ---------------------------------------------------------------------
      1          6           0       -3.134631   -0.124705   -0.020416
      2          6           0       -2.809517    1.167837    0.048994
      3          6           0       -1.360378    1.370235    0.021750
      4          6           0       -0.710498    0.109006   -0.044146
      5         16           0       -1.798858   -1.154247   -0.029615
      6          6           0        0.720754   -0.122511    0.042150
      7          7           0        1.266761   -1.278827    0.042790
      8          6           0        2.684739   -1.218197   -0.031792
      9          6           0        3.136653    0.097161    0.021273
     10         16           0        1.888726    1.225439   -0.036969
     11          1           0       -4.111720   -0.576172   -0.018929
     12          1           0       -3.516720    2.026205    0.010895
     13          1           0       -0.887149    2.348023    0.011812
     14          1           0        3.264242   -2.102416    0.028842
     15          1           0        4.239567    0.366502   -0.022572
 ---------------------------------------------------------------------
                    Distance matrix (angstroms):
                    1          2          3          4          5
     1  C    0.000000
     2  C    1.334609   0.000000
     3  C    2.320474   1.463459   0.000000
     4  C    2.435489   2.352802   1.420347   0.000000
     5  S    1.686514   2.533710   2.562794   1.667497   0.000000
     6  C    3.855893   3.758704   2.561214   1.452422   2.723614
     7  N    4.550631   4.754182   3.730929   2.417269   3.069004
     8  C    5.921226   5.990537   4.802689   3.645443   4.484054
     9  C    6.275346   6.041858   4.673757   3.847725   5.091943
    10  S    5.201661   4.699382   3.252859   2.828858   4.388762
    11  H    1.076349   2.177594   3.370466   3.469642   2.384033
    12  H    2.184808   1.112827   2.253936   3.399053   3.614964
    13  H    3.341646   2.256041   1.086330   2.246672   3.619230
    14  H    6.697712   6.898225   5.783292   4.549096   5.151449
    15  H    7.390540   7.094846   5.689361   4.956805   6.226982
                    6          7          8          9         10
     6  C    0.000000
     7  N    1.278746   0.000000
     8  C    2.250163   1.421232   0.000000
     9  C    2.425955   2.321702   1.391836   0.000000
    10  S    1.785326   2.581579   2.570023   1.683367   0.000000
    11  H    4.854106   5.424536   6.826728   7.279691   6.265100
    12  H    4.751225   5.814288   6.999004   6.927387   5.464647
    13  H    2.947848   4.218332   5.047595   4.610580   2.994671
    14  H    3.223280   2.160654   1.058935   2.203287   3.601527
    15  H    3.553219   3.398375   2.220100   1.136172   2.502885
                   11         12         13         14         15
    11  H    0.000000
    12  H    2.669697   0.000000
    13  H    4.353128   2.649191   0.000000
    14  H    7.532365   7.938972   6.086111   0.000000
    15  H    8.404323   7.931943   5.496437   2.655082   0.000000
 Stoichiometry    C7H5NS2
 Framework group  C1[X(C7H5NS2)]
 Deg. of freedom    39
 Full point group                 C1      NOp   1
 Largest Abelian subgroup         C1      NOp   1
 Largest concise Abelian subgroup C1      NOp   1
                         Standard orientation:                         
 ---------------------------------------------------------------------
 Center     Atomic      Atomic             Coordinates (Angstroms)
 Number     Number       Type             X           Y           Z
 ---------------------------------------------------------------------
      1          6           0       -3.139652   -0.152849   -0.015692
      2          6           0       -2.816949    1.140401    0.051759
      3          6           0       -1.368169    1.345415    0.024951
      4          6           0       -0.715940    0.085275   -0.038519
      5         16           0       -1.801986   -1.179949   -0.022483
      6          6           0        0.715689   -0.143470    0.048919
      7          7           0        1.263817   -1.298778    0.051757
      8          6           0        2.681721   -1.235667   -0.022172
      9          6           0        3.131191    0.080605    0.028963
     10         16           0        1.881226    1.206491   -0.031803
     11          1           0       -4.115911   -0.606107   -0.013979
     12          1           0       -3.525706    1.997404    0.011868
     13          1           0       -0.896731    2.324053    0.013651
     14          1           0        3.262814   -2.118719    0.040228
     15          1           0        4.233632    0.351899   -0.014740
 ---------------------------------------------------------------------
 Rotational constants (GHZ):           2.7255424           0.6727650           0.5398002
 Leave Link  202 at Fri Jul 24 22:01:20 2020, MaxMem=  4026531840 cpu:               0.1 elap:               0.1
 (Enter /opt/ohpc/pub/libs/gaussian/g16-A.03/sandybridge/g16/l301.exe)
 Standard basis: CC-pVDZ (5D, 7F)
 Ernie: Thresh=  0.10000D-02 Tol=  0.10000D-05 Strict=F.
 Ernie:  36 primitive shells out of 301 were deleted.
 There are   183 symmetry adapted cartesian basis functions of A   symmetry.
 There are   173 symmetry adapted basis functions of A   symmetry.
   173 basis functions,   441 primitive gaussians,   183 cartesian basis functions
    43 alpha electrons       43 beta electrons
       nuclear repulsion energy       638.4236373561 Hartrees.
 IExCor=32609 DFT=T Ex+Corr=LC-wPBE ExCW=0 ScaHFX=  1.000000
 ScaDFX=  1.000000  0.000000  1.000000  1.000000 ScalE2=  1.000000  1.000000
 IRadAn=      5 IRanWt=     -1 IRanGd=            0 ICorTp=0 IEmpDi=  4
 HFx  wShort=  0.000000 wLong=  0.319300 cFull=  0.000000 cShort=  0.000000 cLong=  1.000000
 DFx  wShort=  0.000000 wLong=  0.319300 cFull=  0.000000 cShort=  0.000000 cLong=  1.000000
 NAtoms=   15 NActive=   15 NUniq=   15 SFac= 1.00D+00 NAtFMM=   60 NAOKFM=F Big=F
 Integral buffers will be    131072 words long.
 Raffenetti 2 integral format.
 Two-electron integral symmetry is turned on.
 Leave Link  301 at Fri Jul 24 22:01:20 2020, MaxMem=  4026531840 cpu:               0.6 elap:               0.1
 (Enter /opt/ohpc/pub/libs/gaussian/g16-A.03/sandybridge/g16/l302.exe)
 NPDir=0 NMtPBC=     1 NCelOv=     1 NCel=       1 NClECP=     1 NCelD=      1
         NCelK=      1 NCelE2=     1 NClLst=     1 CellRange=     0.0.
 One-electron integrals computed using PRISM.
 One-electron integral symmetry used in STVInt
 NBasis=   173 RedAO= T EigKep=  7.18D-04  NBF=   173
 NBsUse=   173 1.00D-06 EigRej= -1.00D+00 NBFU=   173
 Precomputing XC quadrature grid using
 IXCGrd= 4 IRadAn=           5 IRanWt=          -1 IRanGd=           0 AccXCQ= 0.00D+00.
 Generated NRdTot=       0 NPtTot=           0 NUsed=           0 NTot=          32
 NSgBfM=   183   183   183   183   183 MxSgAt=    15 MxSgA2=    15.
 Leave Link  302 at Fri Jul 24 22:01:21 2020, MaxMem=  4026531840 cpu:               1.9 elap:               0.3
 (Enter /opt/ohpc/pub/libs/gaussian/g16-A.03/sandybridge/g16/l303.exe)
 DipDrv:  MaxL=1.
 Leave Link  303 at Fri Jul 24 22:01:21 2020, MaxMem=  4026531840 cpu:               0.3 elap:               0.1
 (Enter /opt/ohpc/pub/libs/gaussian/g16-A.03/sandybridge/g16/l401.exe)
 ExpMin= 1.22D-01 ExpMax= 1.11D+05 ExpMxC= 1.07D+03 IAcc=3 IRadAn=         5 AccDes= 0.00D+00
 Harris functional with IExCor=32609 and IRadAn=       5 diagonalized for initial guess.
 HarFok:  IExCor=32609 AccDes= 0.00D+00 IRadAn=         5 IDoV= 1 UseB2=F ITyADJ=14
 ICtDFT=  3500011 ScaDFX=  1.000000  1.000000  1.000000  1.000000
 FoFCou: FMM=F IPFlag=           0 FMFlag=      100000 FMFlg1=           0
         NFxFlg=           0 DoJE=T BraDBF=F KetDBF=T FulRan=T
         wScrn=  0.000000 ICntrl=       500 IOpCl=  0 I1Cent=   200000004 NGrid=           0
         NMat0=    1 NMatS0=      1 NMatT0=    0 NMatD0=    1 NMtDS0=    0 NMtDT0=    0
 Petite list used in FoFCou.
 Harris En= -1120.26243414210    
 JPrj=0 DoOrth=F DoCkMO=F.
 Initial guess <Sx>= 0.0000 <Sy>= 0.0000 <Sz>= 0.0000 <S**2>=-0.0000 S=-0.0000
 Leave Link  401 at Fri Jul 24 22:01:22 2020, MaxMem=  4026531840 cpu:               6.3 elap:               0.8
 (Enter /opt/ohpc/pub/libs/gaussian/g16-A.03/sandybridge/g16/l502.exe)
 Integral symmetry usage will be decided dynamically.
 UHF open shell SCF:
 Using DIIS extrapolation, IDIIS=  1040.
 NGot=  4026531840 LenX=  4026461441 LenY=  4026427511
 Requested convergence on RMS density matrix=1.00D-08 within 128 cycles.
 Requested convergence on MAX density matrix=1.00D-06.
 Requested convergence on             energy=1.00D-06.
 No special actions if energy rises.
 Fock matrices will be formed incrementally for  20 cycles.
 Integral accuracy reduced to 1.0D-05 until final iterations.

 Cycle   1  Pass 0  IDiag  1:
 FoFJK:  IHMeth= 1 ICntrl=       0 DoSepK=T KAlg= 0 I1Cent=           0 FoldK=F
 IRaf=         1 NMat=       1 IRICut=       1 DoRegI=T DoRafI=F ISym2E= 0 IDoP0=0 IntGTp=1.
 FoFCou: FMM=F IPFlag=           0 FMFlag=      100000 FMFlg1=           0
         NFxFlg=           0 DoJE=T BraDBF=F KetDBF=F FulRan=T
         wScrn=  0.000000 ICntrl=       500 IOpCl=  0 I1Cent=           0 NGrid=           0
         NMat0=    1 NMatS0=      1 NMatT0=    0 NMatD0=    1 NMtDS0=    0 NMtDT0=    0
 Symmetry not used in FoFCou.
 E= -1120.08357693247    
 DIIS: error= 3.32D-02 at cycle   1 NSaved=   1.
 NSaved= 1 IEnMin= 1 EnMin= -1120.08357693247     IErMin= 1 ErrMin= 3.32D-02
 ErrMax= 3.32D-02  0.00D+00 EMaxC= 1.00D-01 BMatC= 9.96D-01 BMatP= 9.96D-01
 IDIUse=3 WtCom= 6.68D-01 WtEn= 3.32D-01
 Coeff-Com:  0.100D+01
 Coeff-En:   0.100D+01
 Coeff:      0.100D+01
 Gap=     0.339 Goal=   None    Shift=    0.000
 Gap=     0.339 Goal=   None    Shift=    0.000
 GapD=    0.339 DampG=1.000 DampE=0.500 DampFc=0.5000 IDamp=-1.
 Damping current iteration by 5.00D-01
 RMSDP=5.84D-03 MaxDP=1.35D-01              OVMax= 2.29D-01

 Cycle   2  Pass 0  IDiag  1:
 RMSU=  2.90D-03    CP:  9.90D-01
 E= -1120.22839428859     Delta-E=       -0.144817356117 Rises=F Damp=T
 DIIS: error= 4.92D-03 at cycle   2 NSaved=   2.
 NSaved= 2 IEnMin= 2 EnMin= -1120.22839428859     IErMin= 2 ErrMin= 4.92D-03
 ErrMax= 4.92D-03  0.00D+00 EMaxC= 1.00D-01 BMatC= 2.93D-02 BMatP= 9.96D-01
 IDIUse=3 WtCom= 9.51D-01 WtEn= 4.92D-02
 Coeff-Com: -0.482D-03 0.100D+01
 Coeff-En:   0.000D+00 0.100D+01
 Coeff:     -0.459D-03 0.100D+01
 Gap=     0.318 Goal=   None    Shift=    0.000
 Gap=     0.318 Goal=   None    Shift=    0.000
 RMSDP=1.18D-03 MaxDP=2.29D-02 DE=-1.45D-01 OVMax= 1.14D-01

 Cycle   3  Pass 0  IDiag  1:
 RMSU=  1.16D-03    CP:  9.85D-01  1.04D+00
 E= -1120.37377932022     Delta-E=       -0.145385031631 Rises=F Damp=F
 DIIS: error= 2.89D-03 at cycle   3 NSaved=   3.
 NSaved= 3 IEnMin= 3 EnMin= -1120.37377932022     IErMin= 3 ErrMin= 2.89D-03
 ErrMax= 2.89D-03  0.00D+00 EMaxC= 1.00D-01 BMatC= 1.18D-02 BMatP= 2.93D-02
 IDIUse=3 WtCom= 9.71D-01 WtEn= 2.89D-02
 Coeff-Com: -0.425D-02 0.341D+00 0.664D+00
 Coeff-En:   0.000D+00 0.000D+00 0.100D+01
 Coeff:     -0.413D-02 0.331D+00 0.673D+00
 Gap=     0.319 Goal=   None    Shift=    0.000
 Gap=     0.319 Goal=   None    Shift=    0.000
 RMSDP=3.56D-04 MaxDP=1.39D-02 DE=-1.45D-01 OVMax= 1.94D-02

 Cycle   4  Pass 0  IDiag  1:
 RMSU=  3.51D-04    CP:  9.85D-01  1.06D+00  9.73D-01
 E= -1120.37619145682     Delta-E=       -0.002412136597 Rises=F Damp=F
 DIIS: error= 1.63D-03 at cycle   4 NSaved=   4.
 NSaved= 4 IEnMin= 4 EnMin= -1120.37619145682     IErMin= 4 ErrMin= 1.63D-03
 ErrMax= 1.63D-03  0.00D+00 EMaxC= 1.00D-01 BMatC= 3.33D-03 BMatP= 1.18D-02
 IDIUse=3 WtCom= 9.84D-01 WtEn= 1.63D-02
 Coeff-Com:  0.714D-02-0.388D-01 0.321D+00 0.710D+00
 Coeff-En:   0.000D+00 0.000D+00 0.867D-01 0.913D+00
 Coeff:      0.702D-02-0.382D-01 0.318D+00 0.714D+00
 Gap=     0.322 Goal=   None    Shift=    0.000
 Gap=     0.322 Goal=   None    Shift=    0.000
 RMSDP=2.03D-04 MaxDP=5.33D-03 DE=-2.41D-03 OVMax= 9.60D-03

 Cycle   5  Pass 0  IDiag  1:
 RMSU=  1.55D-04    CP:  9.85D-01  1.06D+00  1.08D+00  8.55D-01
 E= -1120.37716718103     Delta-E=       -0.000975724212 Rises=F Damp=F
 DIIS: error= 5.15D-04 at cycle   5 NSaved=   5.
 NSaved= 5 IEnMin= 5 EnMin= -1120.37716718103     IErMin= 5 ErrMin= 5.15D-04
 ErrMax= 5.15D-04  0.00D+00 EMaxC= 1.00D-01 BMatC= 1.88D-04 BMatP= 3.33D-03
 IDIUse=3 WtCom= 9.95D-01 WtEn= 5.15D-03
 Coeff-Com:  0.519D-02-0.454D-01 0.174D-02 0.163D+00 0.875D+00
 Coeff-En:   0.000D+00 0.000D+00 0.000D+00 0.000D+00 0.100D+01
 Coeff:      0.516D-02-0.452D-01 0.173D-02 0.162D+00 0.876D+00
 Gap=     0.323 Goal=   None    Shift=    0.000
 Gap=     0.323 Goal=   None    Shift=    0.000
 RMSDP=8.44D-05 MaxDP=2.14D-03 DE=-9.76D-04 OVMax= 5.94D-03

 Cycle   6  Pass 0  IDiag  1:
 RMSU=  5.38D-05    CP:  9.84D-01  1.05D+00  1.11D+00  9.81D-01  1.14D+00
 E= -1120.37727838880     Delta-E=       -0.000111207766 Rises=F Damp=F
 DIIS: error= 2.56D-04 at cycle   6 NSaved=   6.
 NSaved= 6 IEnMin= 6 EnMin= -1120.37727838880     IErMin= 6 ErrMin= 2.56D-04
 ErrMax= 2.56D-04  0.00D+00 EMaxC= 1.00D-01 BMatC= 4.61D-05 BMatP= 1.88D-04
 IDIUse=3 WtCom= 9.97D-01 WtEn= 2.56D-03
 Coeff-Com:  0.194D-02-0.154D-01-0.447D-01-0.364D-01 0.336D+00 0.758D+00
 Coeff-En:   0.000D+00 0.000D+00 0.000D+00 0.000D+00 0.000D+00 0.100D+01
 Coeff:      0.194D-02-0.154D-01-0.446D-01-0.363D-01 0.336D+00 0.759D+00
 Gap=     0.323 Goal=   None    Shift=    0.000
 Gap=     0.323 Goal=   None    Shift=    0.000
 RMSDP=4.01D-05 MaxDP=1.04D-03 DE=-1.11D-04 OVMax= 3.11D-03

 Cycle   7  Pass 0  IDiag  1:
 RMSU=  2.66D-05    CP:  9.84D-01  1.05D+00  1.12D+00  1.01D+00  1.30D+00
                    CP:  1.13D+00
 E= -1120.37730658899     Delta-E=       -0.000028200189 Rises=F Damp=F
 DIIS: error= 1.01D-04 at cycle   7 NSaved=   7.
 NSaved= 7 IEnMin= 7 EnMin= -1120.37730658899     IErMin= 7 ErrMin= 1.01D-04
 ErrMax= 1.01D-04  0.00D+00 EMaxC= 1.00D-01 BMatC= 7.26D-06 BMatP= 4.61D-05
 IDIUse=3 WtCom= 9.99D-01 WtEn= 1.01D-03
 Coeff-Com: -0.372D-03 0.573D-02-0.812D-02-0.442D-01-0.154D+00 0.193D+00
 Coeff-Com:  0.101D+01
 Coeff-En:   0.000D+00 0.000D+00 0.000D+00 0.000D+00 0.000D+00 0.000D+00
 Coeff-En:   0.100D+01
 Coeff:     -0.372D-03 0.573D-02-0.811D-02-0.441D-01-0.154D+00 0.193D+00
 Coeff:      0.101D+01
 Gap=     0.323 Goal=   None    Shift=    0.000
 Gap=     0.323 Goal=   None    Shift=    0.000
 RMSDP=2.48D-05 MaxDP=6.52D-04 DE=-2.82D-05 OVMax= 1.90D-03

 Cycle   8  Pass 0  IDiag  1:
 RMSU=  7.76D-06    CP:  9.84D-01  1.05D+00  1.13D+00  1.03D+00  1.36D+00
                    CP:  1.44D+00  1.26D+00
 E= -1120.37731352175     Delta-E=       -0.000006932768 Rises=F Damp=F
 DIIS: error= 2.19D-05 at cycle   8 NSaved=   8.
 NSaved= 8 IEnMin= 8 EnMin= -1120.37731352175     IErMin= 8 ErrMin= 2.19D-05
 ErrMax= 2.19D-05  0.00D+00 EMaxC= 1.00D-01 BMatC= 4.74D-07 BMatP= 7.26D-06
 IDIUse=1 WtCom= 1.00D+00 WtEn= 0.00D+00
 Coeff-Com: -0.111D-03 0.173D-02 0.266D-02-0.196D-02-0.456D-01-0.347D-01
 Coeff-Com:  0.115D+00 0.963D+00
 Coeff:     -0.111D-03 0.173D-02 0.266D-02-0.196D-02-0.456D-01-0.347D-01
 Coeff:      0.115D+00 0.963D+00
 Gap=     0.323 Goal=   None    Shift=    0.000
 Gap=     0.323 Goal=   None    Shift=    0.000
 RMSDP=6.47D-06 MaxDP=1.17D-04 DE=-6.93D-06 OVMax= 3.87D-04

 Initial convergence to 1.0D-05 achieved.  Increase integral accuracy.
 Cycle   9  Pass 1  IDiag  1:
 E= -1120.37719791156     Delta-E=        0.000115610193 Rises=F Damp=F
 DIIS: error= 2.99D-05 at cycle   1 NSaved=   1.
 NSaved= 1 IEnMin= 1 EnMin= -1120.37719791156     IErMin= 1 ErrMin= 2.99D-05
 ErrMax= 2.99D-05  0.00D+00 EMaxC= 1.00D-01 BMatC= 6.06D-07 BMatP= 6.06D-07
 IDIUse=1 WtCom= 1.00D+00 WtEn= 0.00D+00
 Coeff-Com:  0.100D+01
 Coeff:      0.100D+01
 Gap=     0.323 Goal=   None    Shift=    0.000
 Gap=     0.323 Goal=   None    Shift=    0.000
 RMSDP=6.47D-06 MaxDP=1.17D-04 DE= 1.16D-04 OVMax= 1.70D-04

 Cycle  10  Pass 1  IDiag  1:
 RMSU=  1.52D-05    CP:  1.00D+00
 E= -1120.37719800685     Delta-E=       -0.000000095286 Rises=F Damp=F
 DIIS: error= 1.43D-05 at cycle   2 NSaved=   2.
 NSaved= 2 IEnMin= 2 EnMin= -1120.37719800685     IErMin= 2 ErrMin= 1.43D-05
 ErrMax= 1.43D-05  0.00D+00 EMaxC= 1.00D-01 BMatC= 3.18D-07 BMatP= 6.06D-07
 IDIUse=1 WtCom= 1.00D+00 WtEn= 0.00D+00
 Coeff-Com:  0.393D+00 0.607D+00
 Coeff:      0.393D+00 0.607D+00
 Gap=     0.323 Goal=   None    Shift=    0.000
 Gap=     0.323 Goal=   None    Shift=    0.000
 RMSDP=2.13D-06 MaxDP=6.47D-05 DE=-9.53D-08 OVMax= 1.11D-04

 Cycle  11  Pass 1  IDiag  1:
 RMSU=  2.11D-06    CP:  1.00D+00  1.02D+00
 E= -1120.37719807832     Delta-E=       -0.000000071476 Rises=F Damp=F
 DIIS: error= 8.47D-06 at cycle   3 NSaved=   3.
 NSaved= 3 IEnMin= 3 EnMin= -1120.37719807832     IErMin= 3 ErrMin= 8.47D-06
 ErrMax= 8.47D-06  0.00D+00 EMaxC= 1.00D-01 BMatC= 5.80D-08 BMatP= 3.18D-07
 IDIUse=1 WtCom= 1.00D+00 WtEn= 0.00D+00
 Coeff-Com: -0.328D-01 0.282D+00 0.750D+00
 Coeff:     -0.328D-01 0.282D+00 0.750D+00
 Gap=     0.323 Goal=   None    Shift=    0.000
 Gap=     0.323 Goal=   None    Shift=    0.000
 RMSDP=9.22D-07 MaxDP=1.87D-05 DE=-7.15D-08 OVMax= 5.50D-05

 Cycle  12  Pass 1  IDiag  1:
 RMSU=  6.11D-07    CP:  1.00D+00  1.05D+00  7.92D-01
 E= -1120.37719809697     Delta-E=       -0.000000018651 Rises=F Damp=F
 DIIS: error= 1.83D-06 at cycle   4 NSaved=   4.
 NSaved= 4 IEnMin= 4 EnMin= -1120.37719809697     IErMin= 4 ErrMin= 1.83D-06
 ErrMax= 1.83D-06  0.00D+00 EMaxC= 1.00D-01 BMatC= 2.75D-09 BMatP= 5.80D-08
 IDIUse=1 WtCom= 1.00D+00 WtEn= 0.00D+00
 Coeff-Com: -0.271D-01 0.720D-01 0.242D+00 0.713D+00
 Coeff:     -0.271D-01 0.720D-01 0.242D+00 0.713D+00
 Gap=     0.323 Goal=   None    Shift=    0.000
 Gap=     0.323 Goal=   None    Shift=    0.000
 RMSDP=2.55D-07 MaxDP=5.17D-06 DE=-1.87D-08 OVMax= 1.64D-05

 Cycle  13  Pass 1  IDiag  1:
 RMSU=  1.77D-07    CP:  1.00D+00  1.06D+00  8.35D-01  1.25D+00
 E= -1120.37719809863     Delta-E=       -0.000000001657 Rises=F Damp=F
 DIIS: error= 9.95D-07 at cycle   5 NSaved=   5.
 NSaved= 5 IEnMin= 5 EnMin= -1120.37719809863     IErMin= 5 ErrMin= 9.95D-07
 ErrMax= 9.95D-07  0.00D+00 EMaxC= 1.00D-01 BMatC= 5.21D-10 BMatP= 2.75D-09
 IDIUse=1 WtCom= 1.00D+00 WtEn= 0.00D+00
 Coeff-Com:  0.950D-02-0.100D+00-0.278D+00 0.899D-02 0.136D+01
 Coeff:      0.950D-02-0.100D+00-0.278D+00 0.899D-02 0.136D+01
 Gap=     0.323 Goal=   None    Shift=    0.000
 Gap=     0.323 Goal=   None    Shift=    0.000
 RMSDP=3.26D-07 MaxDP=7.76D-06 DE=-1.66D-09 OVMax= 2.45D-05

 Cycle  14  Pass 1  IDiag  1:
 RMSU=  8.67D-08    CP:  1.00D+00  1.06D+00  8.59D-01  1.73D+00  1.52D+00
 E= -1120.37719809948     Delta-E=       -0.000000000853 Rises=F Damp=F
 DIIS: error= 1.78D-07 at cycle   6 NSaved=   6.
 NSaved= 6 IEnMin= 6 EnMin= -1120.37719809948     IErMin= 6 ErrMin= 1.78D-07
 ErrMax= 1.78D-07  0.00D+00 EMaxC= 1.00D-01 BMatC= 3.64D-11 BMatP= 5.21D-10
 IDIUse=1 WtCom= 1.00D+00 WtEn= 0.00D+00
 Coeff-Com:  0.406D-02-0.320D-01-0.923D-01-0.471D-01 0.406D+00 0.761D+00
 Coeff:      0.406D-02-0.320D-01-0.923D-01-0.471D-01 0.406D+00 0.761D+00
 Gap=     0.323 Goal=   None    Shift=    0.000
 Gap=     0.323 Goal=   None    Shift=    0.000
 RMSDP=3.92D-08 MaxDP=1.16D-06 DE=-8.53D-10 OVMax= 2.70D-06

 Cycle  15  Pass 1  IDiag  1:
 RMSU=  2.36D-08    CP:  1.00D+00  1.06D+00  8.63D-01  1.77D+00  1.60D+00
                    CP:  1.10D+00
 E= -1120.37719809952     Delta-E=       -0.000000000033 Rises=F Damp=F
 DIIS: error= 6.38D-08 at cycle   7 NSaved=   7.
 NSaved= 7 IEnMin= 7 EnMin= -1120.37719809952     IErMin= 7 ErrMin= 6.38D-08
 ErrMax= 6.38D-08  0.00D+00 EMaxC= 1.00D-01 BMatC= 5.76D-12 BMatP= 3.64D-11
 IDIUse=1 WtCom= 1.00D+00 WtEn= 0.00D+00
 Coeff-Com: -0.137D-04 0.358D-02 0.784D-02-0.197D-01-0.501D-01 0.235D+00
 Coeff-Com:  0.823D+00
 Coeff:     -0.137D-04 0.358D-02 0.784D-02-0.197D-01-0.501D-01 0.235D+00
 Coeff:      0.823D+00
 Gap=     0.323 Goal=   None    Shift=    0.000
 Gap=     0.323 Goal=   None    Shift=    0.000
 RMSDP=1.46D-08 MaxDP=3.67D-07 DE=-3.32D-11 OVMax= 9.89D-07

 Cycle  16  Pass 1  IDiag  1:
 RMSU=  9.28D-09    CP:  1.00D+00  1.06D+00  8.64D-01  1.78D+00  1.62D+00
                    CP:  1.19D+00  1.03D+00
 E= -1120.37719809951     Delta-E=        0.000000000006 Rises=F Damp=F
 DIIS: error= 3.98D-08 at cycle   8 NSaved=   8.
 NSaved= 8 IEnMin= 7 EnMin= -1120.37719809952     IErMin= 8 ErrMin= 3.98D-08
 ErrMax= 3.98D-08  0.00D+00 EMaxC= 1.00D-01 BMatC= 1.78D-12 BMatP= 5.76D-12
 IDIUse=1 WtCom= 1.00D+00 WtEn= 0.00D+00
 Coeff-Com: -0.721D-03 0.764D-02 0.204D-01-0.286D-02-0.956D-01-0.723D-02
 Coeff-Com:  0.429D+00 0.650D+00
 Coeff:     -0.721D-03 0.764D-02 0.204D-01-0.286D-02-0.956D-01-0.723D-02
 Coeff:      0.429D+00 0.650D+00
 Gap=     0.323 Goal=   None    Shift=    0.000
 Gap=     0.323 Goal=   None    Shift=    0.000
 RMSDP=5.85D-09 MaxDP=1.24D-07 DE= 5.91D-12 OVMax= 2.82D-07

 SCF Done:  E(ULC-wPBE) =  -1120.37719810     A.U. after   16 cycles
            NFock= 16  Conv=0.58D-08     -V/T= 2.0035
 <Sx>= 0.0000 <Sy>= 0.0000 <Sz>= 0.0000 <S**2>=-0.0000 S=-0.0000
 <L.S>= 0.000000000000E+00
 KE= 1.116441423989D+03 PE=-3.922487589439D+03 EE= 1.047245329994D+03
 Annihilation of the first spin contaminant:
 S**2 before annihilation    -0.0000,   after    -0.0000
 Leave Link  502 at Fri Jul 24 22:01:55 2020, MaxMem=  4026531840 cpu:             266.6 elap:              33.6
 (Enter /opt/ohpc/pub/libs/gaussian/g16-A.03/sandybridge/g16/l601.exe)
 Copying SCF densities to generalized density rwf, IOpCl= 1 IROHF=0.

 **********************************************************************

            Population analysis using the SCF density.

 **********************************************************************

 Orbital symmetries:
 Alpha Orbitals:
       Occupied  (A) (A) (A) (A) (A) (A) (A) (A) (A) (A) (A) (A)
                 (A) (A) (A) (A) (A) (A) (A) (A) (A) (A) (A) (A)
                 (A) (A) (A) (A) (A) (A) (A) (A) (A) (A) (A) (A)
                 (A) (A) (A) (A) (A) (A) (A)
       Virtual   (A) (A) (A) (A) (A) (A) (A) (A) (A) (A) (A) (A)
                 (A) (A) (A) (A) (A) (A) (A) (A) (A) (A) (A) (A)
                 (A) (A) (A) (A) (A) (A) (A) (A) (A) (A) (A) (A)
                 (A) (A) (A) (A) (A) (A) (A) (A) (A) (A) (A) (A)
                 (A) (A) (A) (A) (A) (A) (A) (A) (A) (A) (A) (A)
                 (A) (A) (A) (A) (A) (A) (A) (A) (A) (A) (A) (A)
                 (A) (A) (A) (A) (A) (A) (A) (A) (A) (A) (A) (A)
                 (A) (A) (A) (A) (A) (A) (A) (A) (A) (A) (A) (A)
                 (A) (A) (A) (A) (A) (A) (A) (A) (A) (A) (A) (A)
                 (A) (A) (A) (A) (A) (A) (A) (A) (A) (A) (A) (A)
                 (A) (A) (A) (A) (A) (A) (A) (A) (A) (A)
 Beta  Orbitals:
       Occupied  (A) (A) (A) (A) (A) (A) (A) (A) (A) (A) (A) (A)
                 (A) (A) (A) (A) (A) (A) (A) (A) (A) (A) (A) (A)
                 (A) (A) (A) (A) (A) (A) (A) (A) (A) (A) (A) (A)
                 (A) (A) (A) (A) (A) (A) (A)
       Virtual   (A) (A) (A) (A) (A) (A) (A) (A) (A) (A) (A) (A)
                 (A) (A) (A) (A) (A) (A) (A) (A) (A) (A) (A) (A)
                 (A) (A) (A) (A) (A) (A) (A) (A) (A) (A) (A) (A)
                 (A) (A) (A) (A) (A) (A) (A) (A) (A) (A) (A) (A)
                 (A) (A) (A) (A) (A) (A) (A) (A) (A) (A) (A) (A)
                 (A) (A) (A) (A) (A) (A) (A) (A) (A) (A) (A) (A)
                 (A) (A) (A) (A) (A) (A) (A) (A) (A) (A) (A) (A)
                 (A) (A) (A) (A) (A) (A) (A) (A) (A) (A) (A) (A)
                 (A) (A) (A) (A) (A) (A) (A) (A) (A) (A) (A) (A)
                 (A) (A) (A) (A) (A) (A) (A) (A) (A) (A) (A) (A)
                 (A) (A) (A) (A) (A) (A) (A) (A) (A) (A)
 The electronic state is 1-A.
 Alpha  occ. eigenvalues --  -88.28534 -88.27951 -14.17855 -10.15247 -10.12009
 Alpha  occ. eigenvalues --  -10.11930 -10.11290 -10.10253 -10.09594 -10.08890
 Alpha  occ. eigenvalues --   -7.89216  -7.88744  -5.90977  -5.90501  -5.90494
 Alpha  occ. eigenvalues --   -5.90095  -5.89958  -5.89653  -1.07238  -1.00967
 Alpha  occ. eigenvalues --   -0.91789  -0.88547  -0.85157  -0.82019  -0.71798
 Alpha  occ. eigenvalues --   -0.69908  -0.66239  -0.63519  -0.61712  -0.58245
 Alpha  occ. eigenvalues --   -0.54164  -0.52842  -0.51248  -0.50276  -0.49581
 Alpha  occ. eigenvalues --   -0.47388  -0.46696  -0.44709  -0.39896  -0.36922
 Alpha  occ. eigenvalues --   -0.36810  -0.34818  -0.30677
 Alpha virt. eigenvalues --    0.01652   0.08528   0.10558   0.12480   0.13592
 Alpha virt. eigenvalues --    0.14816   0.15990   0.16142   0.18461   0.19604
 Alpha virt. eigenvalues --    0.21054   0.23051   0.26116   0.29966   0.32382
 Alpha virt. eigenvalues --    0.34116   0.38574   0.39063   0.45472   0.47374
 Alpha virt. eigenvalues --    0.48694   0.50354   0.52008   0.52886   0.53918
 Alpha virt. eigenvalues --    0.54910   0.55645   0.55831   0.56360   0.56551
 Alpha virt. eigenvalues --    0.57289   0.58139   0.58973   0.59485   0.60459
 Alpha virt. eigenvalues --    0.62038   0.63232   0.65835   0.66186   0.67161
 Alpha virt. eigenvalues --    0.68201   0.69941   0.72535   0.73170   0.73401
 Alpha virt. eigenvalues --    0.74831   0.76156   0.76990   0.77589   0.79900
 Alpha virt. eigenvalues --    0.83522   0.84506   0.85058   0.86381   0.89828
 Alpha virt. eigenvalues --    0.94974   0.96708   0.96987   0.98782   1.00701
 Alpha virt. eigenvalues --    1.02547   1.02927   1.03866   1.06826   1.07668
 Alpha virt. eigenvalues --    1.08648   1.09961   1.11217   1.13142   1.14372
 Alpha virt. eigenvalues --    1.16711   1.20651   1.21514   1.23325   1.26567
 Alpha virt. eigenvalues --    1.28459   1.31806   1.35286   1.36704   1.39553
 Alpha virt. eigenvalues --    1.42254   1.45514   1.46510   1.50186   1.54282
 Alpha virt. eigenvalues --    1.56520   1.57943   1.60710   1.61329   1.66232
 Alpha virt. eigenvalues --    1.68230   1.70163   1.70927   1.73644   1.74155
 Alpha virt. eigenvalues --    1.77221   1.77853   1.78925   1.81237   1.83992
 Alpha virt. eigenvalues --    1.85204   1.88924   1.91180   1.91992   1.97112
 Alpha virt. eigenvalues --    1.99048   1.99245   2.03746   2.04710   2.08004
 Alpha virt. eigenvalues --    2.09527   2.11028   2.17637   2.21563   2.22929
 Alpha virt. eigenvalues --    2.27537   2.34296   2.43366   2.45018   2.45528
 Alpha virt. eigenvalues --    2.49351   2.51386   2.54217   2.55988   2.64397
 Alpha virt. eigenvalues --    2.75015   2.80828   2.93440   3.11352   3.22947
  Beta  occ. eigenvalues --  -88.28534 -88.27951 -14.17855 -10.15247 -10.12009
  Beta  occ. eigenvalues --  -10.11930 -10.11290 -10.10253 -10.09594 -10.08890
  Beta  occ. eigenvalues --   -7.89216  -7.88744  -5.90977  -5.90501  -5.90494
  Beta  occ. eigenvalues --   -5.90095  -5.89958  -5.89653  -1.07238  -1.00967
  Beta  occ. eigenvalues --   -0.91789  -0.88547  -0.85157  -0.82019  -0.71798
  Beta  occ. eigenvalues --   -0.69908  -0.66239  -0.63519  -0.61712  -0.58245
  Beta  occ. eigenvalues --   -0.54164  -0.52842  -0.51248  -0.50276  -0.49581
  Beta  occ. eigenvalues --   -0.47388  -0.46696  -0.44709  -0.39896  -0.36922
  Beta  occ. eigenvalues --   -0.36810  -0.34818  -0.30677
  Beta virt. eigenvalues --    0.01652   0.08528   0.10558   0.12480   0.13592
  Beta virt. eigenvalues --    0.14816   0.15990   0.16142   0.18461   0.19604
  Beta virt. eigenvalues --    0.21054   0.23051   0.26116   0.29966   0.32382
  Beta virt. eigenvalues --    0.34116   0.38574   0.39063   0.45472   0.47374
  Beta virt. eigenvalues --    0.48694   0.50354   0.52008   0.52886   0.53918
  Beta virt. eigenvalues --    0.54910   0.55645   0.55831   0.56360   0.56551
  Beta virt. eigenvalues --    0.57289   0.58139   0.58973   0.59485   0.60459
  Beta virt. eigenvalues --    0.62038   0.63232   0.65835   0.66186   0.67161
  Beta virt. eigenvalues --    0.68201   0.69941   0.72535   0.73170   0.73401
  Beta virt. eigenvalues --    0.74831   0.76156   0.76990   0.77589   0.79900
  Beta virt. eigenvalues --    0.83522   0.84506   0.85058   0.86381   0.89828
  Beta virt. eigenvalues --    0.94974   0.96708   0.96987   0.98782   1.00701
  Beta virt. eigenvalues --    1.02547   1.02927   1.03866   1.06826   1.07668
  Beta virt. eigenvalues --    1.08648   1.09961   1.11217   1.13142   1.14372
  Beta virt. eigenvalues --    1.16711   1.20651   1.21514   1.23325   1.26567
  Beta virt. eigenvalues --    1.28459   1.31806   1.35286   1.36704   1.39553
  Beta virt. eigenvalues --    1.42254   1.45514   1.46510   1.50186   1.54282
  Beta virt. eigenvalues --    1.56520   1.57943   1.60710   1.61329   1.66232
  Beta virt. eigenvalues --    1.68230   1.70163   1.70927   1.73644   1.74155
  Beta virt. eigenvalues --    1.77221   1.77853   1.78925   1.81237   1.83992
  Beta virt. eigenvalues --    1.85204   1.88924   1.91180   1.91992   1.97112
  Beta virt. eigenvalues --    1.99048   1.99245   2.03746   2.04710   2.08004
  Beta virt. eigenvalues --    2.09527   2.11028   2.17637   2.21563   2.22929
  Beta virt. eigenvalues --    2.27537   2.34296   2.43366   2.45018   2.45528
  Beta virt. eigenvalues --    2.49351   2.51386   2.54217   2.55988   2.64397
  Beta virt. eigenvalues --    2.75015   2.80828   2.93440   3.11352   3.22947
          Condensed to atoms (all electrons):
               1          2          3          4          5          6
     1  C    4.954535   0.557796  -0.042927  -0.098087   0.378541   0.004225
     2  C    0.557796   4.678858   0.497170  -0.040830  -0.086675   0.005855
     3  C   -0.042927   0.497170   4.819430   0.539592  -0.103661  -0.055402
     4  C   -0.098087  -0.040830   0.539592   5.209152   0.371750   0.288314
     5  S    0.378541  -0.086675  -0.103661   0.371750  15.295083  -0.059135
     6  C    0.004225   0.005855  -0.055402   0.288314  -0.059135   5.000755
     7  N    0.000346  -0.000083   0.001945  -0.049492   0.010300   0.673161
     8  C    0.000003   0.000005  -0.000038   0.005370  -0.000080  -0.126205
     9  C    0.000003  -0.000005   0.000232   0.004434  -0.000045  -0.070126
    10  S   -0.000009  -0.000005  -0.008878  -0.069820   0.004997   0.327353
    11  H    0.404750  -0.024025   0.008439   0.001261  -0.041441  -0.000293
    12  H   -0.051395   0.410530  -0.039780   0.007537   0.007126  -0.000232
    13  H    0.008344  -0.036058   0.413362  -0.045427   0.006083  -0.011638
    14  H   -0.000000  -0.000000   0.000007  -0.000650  -0.000002   0.001127
    15  H   -0.000000   0.000000  -0.000003  -0.000127   0.000000   0.003147
               7          8          9         10         11         12
     1  C    0.000346   0.000003   0.000003  -0.000009   0.404750  -0.051395
     2  C   -0.000083   0.000005  -0.000005  -0.000005  -0.024025   0.410530
     3  C    0.001945  -0.000038   0.000232  -0.008878   0.008439  -0.039780
     4  C   -0.049492   0.005370   0.004434  -0.069820   0.001261   0.007537
     5  S    0.010300  -0.000080  -0.000045   0.004997  -0.041441   0.007126
     6  C    0.673161  -0.126205  -0.070126   0.327353  -0.000293  -0.000232
     7  N    6.244537   0.492624  -0.055488  -0.105779   0.000001   0.000001
     8  C    0.492624   4.651689   0.564195  -0.101476  -0.000000  -0.000000
     9  C   -0.055488   0.564195   5.033669   0.370208  -0.000000  -0.000000
    10  S   -0.105779  -0.101476   0.370208  15.456635   0.000003   0.000010
    11  H    0.000001  -0.000000  -0.000000   0.000003   0.633411  -0.007688
    12  H    0.000001  -0.000000  -0.000000   0.000010  -0.007688   0.666940
    13  H    0.000183   0.000001   0.000072   0.004063  -0.000123  -0.006025
    14  H   -0.019375   0.412047  -0.041955   0.005797  -0.000000   0.000000
    15  H    0.004218  -0.014600   0.385941  -0.033366   0.000000  -0.000000
              13         14         15
     1  C    0.008344  -0.000000  -0.000000
     2  C   -0.036058  -0.000000   0.000000
     3  C    0.413362   0.000007  -0.000003
     4  C   -0.045427  -0.000650  -0.000127
     5  S    0.006083  -0.000002   0.000000
     6  C   -0.011638   0.001127   0.003147
     7  N    0.000183  -0.019375   0.004218
     8  C    0.000001   0.412047  -0.014600
     9  C    0.000072  -0.041955   0.385941
    10  S    0.004063   0.005797  -0.033366
    11  H   -0.000123  -0.000000   0.000000
    12  H   -0.006025   0.000000  -0.000000
    13  H    0.658794  -0.000000  -0.000002
    14  H   -0.000000   0.639049  -0.004050
    15  H   -0.000002  -0.004050   0.597514
          Atomic-Atomic Spin Densities.
               1          2          3          4          5          6
     1  C   -0.000000  -0.000000  -0.000000   0.000000  -0.000000  -0.000000
     2  C   -0.000000   0.000000  -0.000000  -0.000000  -0.000000   0.000000
     3  C   -0.000000  -0.000000   0.000000   0.000000   0.000000  -0.000000
     4  C    0.000000  -0.000000   0.000000  -0.000000  -0.000000   0.000000
     5  S   -0.000000  -0.000000   0.000000  -0.000000   0.000000   0.000000
     6  C   -0.000000   0.000000  -0.000000   0.000000   0.000000   0.000000
     7  N    0.000000   0.000000   0.000000   0.000000   0.000000  -0.000000
     8  C    0.000000  -0.000000   0.000000  -0.000000   0.000000  -0.000000
     9  C    0.000000  -0.000000   0.000000   0.000000  -0.000000  -0.000000
    10  S   -0.000000   0.000000  -0.000000   0.000000   0.000000  -0.000000
    11  H    0.000000  -0.000000   0.000000  -0.000000  -0.000000  -0.000000
    12  H    0.000000   0.000000  -0.000000  -0.000000   0.000000   0.000000
    13  H    0.000000  -0.000000   0.000000   0.000000   0.000000  -0.000000
    14  H   -0.000000   0.000000  -0.000000   0.000000  -0.000000   0.000000
    15  H   -0.000000   0.000000   0.000000  -0.000000  -0.000000  -0.000000
               7          8          9         10         11         12
     1  C    0.000000   0.000000   0.000000  -0.000000   0.000000   0.000000
     2  C    0.000000  -0.000000  -0.000000   0.000000  -0.000000   0.000000
     3  C    0.000000   0.000000   0.000000  -0.000000   0.000000  -0.000000
     4  C    0.000000  -0.000000   0.000000   0.000000  -0.000000  -0.000000
     5  S    0.000000   0.000000  -0.000000   0.000000  -0.000000   0.000000
     6  C   -0.000000  -0.000000  -0.000000  -0.000000  -0.000000   0.000000
     7  N    0.000000   0.000000  -0.000000   0.000000   0.000000   0.000000
     8  C    0.000000   0.000000  -0.000000  -0.000000   0.000000   0.000000
     9  C   -0.000000  -0.000000  -0.000000  -0.000000   0.000000  -0.000000
    10  S    0.000000  -0.000000  -0.000000   0.000000   0.000000   0.000000
    11  H    0.000000   0.000000   0.000000   0.000000   0.000000  -0.000000
    12  H    0.000000   0.000000  -0.000000   0.000000  -0.000000  -0.000000
    13  H   -0.000000  -0.000000   0.000000  -0.000000   0.000000   0.000000
    14  H   -0.000000   0.000000  -0.000000  -0.000000  -0.000000   0.000000
    15  H    0.000000   0.000000  -0.000000  -0.000000  -0.000000   0.000000
              13         14         15
     1  C    0.000000  -0.000000  -0.000000
     2  C   -0.000000   0.000000   0.000000
     3  C    0.000000  -0.000000   0.000000
     4  C    0.000000   0.000000  -0.000000
     5  S    0.000000  -0.000000  -0.000000
     6  C   -0.000000   0.000000  -0.000000
     7  N   -0.000000  -0.000000   0.000000
     8  C   -0.000000   0.000000   0.000000
     9  C    0.000000  -0.000000  -0.000000
    10  S   -0.000000  -0.000000  -0.000000
    11  H    0.000000  -0.000000  -0.000000
    12  H    0.000000   0.000000   0.000000
    13  H    0.000000  -0.000000  -0.000000
    14  H   -0.000000  -0.000000  -0.000000
    15  H   -0.000000  -0.000000   0.000000
 Mulliken charges and spin densities:
               1          2
     1  C   -0.116125  -0.000000
     2  C    0.037466  -0.000000
     3  C   -0.029488   0.000000
     4  C   -0.122978  -0.000000
     5  S    0.217157   0.000000
     6  C    0.019092  -0.000000
     7  N   -0.197098   0.000000
     8  C    0.116464   0.000000
     9  C   -0.191136  -0.000000
    10  S    0.150266   0.000000
    11  H    0.025704   0.000000
    12  H    0.012975  -0.000000
    13  H    0.008370   0.000000
    14  H    0.008004  -0.000000
    15  H    0.061328   0.000000
 Sum of Mulliken charges =  -0.00000   0.00000
 Mulliken charges and spin densities with hydrogens summed into heavy atoms:
               1          2
     1  C   -0.090421  -0.000000
     2  C    0.050442  -0.000000
     3  C   -0.021118   0.000000
     4  C   -0.122978  -0.000000
     5  S    0.217157   0.000000
     6  C    0.019092  -0.000000
     7  N   -0.197098   0.000000
     8  C    0.124468   0.000000
     9  C   -0.129808  -0.000000
    10  S    0.150266   0.000000
 Electronic spatial extent (au):  <R**2>=           1950.0434
 Charge=             -0.0000 electrons
 Dipole moment (field-independent basis, Debye):
    X=              0.1938    Y=              1.2138    Z=             -0.0742  Tot=              1.2314
 Quadrupole moment (field-independent basis, Debye-Ang):
   XX=            -55.1917   YY=            -68.7456   ZZ=            -75.0944
   XY=             -0.9047   XZ=             -0.0508   YZ=             -0.0614
 Traceless Quadrupole moment (field-independent basis, Debye-Ang):
   XX=             11.1522   YY=             -2.4017   ZZ=             -8.7505
   XY=             -0.9047   XZ=             -0.0508   YZ=             -0.0614
 Octapole moment (field-independent basis, Debye-Ang**2):
  XXX=             11.2431  YYY=              5.9052  ZZZ=             -0.1398  XYY=             -1.9081
  XXY=             -6.8353  XXZ=             -0.5971  XZZ=              1.5382  YZZ=             -2.0964
  YYZ=             -0.2671  XYZ=             -0.2383
 Hexadecapole moment (field-independent basis, Debye-Ang**3):
 XXXX=          -1724.8013 YYYY=           -532.6737 ZZZZ=            -85.4223 XXXY=              7.2327
 XXXZ=              0.0318 YYYX=            -18.5473 YYYZ=             -0.7426 ZZZX=              0.1524
 ZZZY=             -0.4322 XXYY=           -385.0248 XXZZ=           -388.3316 YYZZ=           -111.9658
 XXYZ=             -1.6713 YYXZ=              0.0622 ZZXY=              6.2025
 N-N= 6.384236373561D+02 E-N=-3.922487583078D+03  KE= 1.116441423989D+03
                          Isotropic Fermi Contact Couplings
        Atom                 a.u.       MegaHertz       Gauss      10(-4) cm-1
     1  C(13)              0.00000       0.00000       0.00000       0.00000
     2  C(13)             -0.00000      -0.00000      -0.00000      -0.00000
     3  C(13)              0.00000       0.00000       0.00000       0.00000
     4  C(13)              0.00000       0.00000       0.00000       0.00000
     5  S(33)             -0.00000      -0.00000      -0.00000      -0.00000
     6  C(13)             -0.00000      -0.00000      -0.00000      -0.00000
     7  N(14)             -0.00000      -0.00000      -0.00000      -0.00000
     8  C(13)              0.00000       0.00000       0.00000       0.00000
     9  C(13)             -0.00000      -0.00000      -0.00000      -0.00000
    10  S(33)              0.00000       0.00000       0.00000       0.00000
    11  H(1)              -0.00000      -0.00000      -0.00000      -0.00000
    12  H(1)              -0.00000      -0.00000      -0.00000      -0.00000
    13  H(1)              -0.00000      -0.00000      -0.00000      -0.00000
    14  H(1)              -0.00000      -0.00000      -0.00000      -0.00000
    15  H(1)               0.00000       0.00000       0.00000       0.00000
 --------------------------------------------------------
       Center         ----  Spin Dipole Couplings  ----
                      3XX-RR        3YY-RR        3ZZ-RR
 --------------------------------------------------------
     1   Atom        0.000000      0.000000     -0.000000
     2   Atom       -0.000000      0.000000      0.000000
     3   Atom       -0.000000      0.000000      0.000000
     4   Atom       -0.000000     -0.000000      0.000000
     5   Atom       -0.000000     -0.000000      0.000000
     6   Atom        0.000000     -0.000000      0.000000
     7   Atom        0.000000     -0.000000     -0.000000
     8   Atom        0.000000     -0.000000      0.000000
     9   Atom       -0.000000      0.000000     -0.000000
    10   Atom        0.000000     -0.000000      0.000000
    11   Atom        0.000000     -0.000000     -0.000000
    12   Atom       -0.000000     -0.000000      0.000000
    13   Atom       -0.000000      0.000000     -0.000000
    14   Atom       -0.000000      0.000000     -0.000000
    15   Atom       -0.000000      0.000000     -0.000000
 --------------------------------------------------------
                        XY            XZ            YZ
 --------------------------------------------------------
     1   Atom        0.000000      0.000000     -0.000000
     2   Atom        0.000000      0.000000      0.000000
     3   Atom        0.000000      0.000000     -0.000000
     4   Atom        0.000000     -0.000000      0.000000
     5   Atom        0.000000      0.000000      0.000000
     6   Atom       -0.000000      0.000000      0.000000
     7   Atom       -0.000000     -0.000000      0.000000
     8   Atom       -0.000000     -0.000000      0.000000
     9   Atom       -0.000000     -0.000000      0.000000
    10   Atom       -0.000000     -0.000000      0.000000
    11   Atom        0.000000      0.000000      0.000000
    12   Atom        0.000000     -0.000000      0.000000
    13   Atom       -0.000000      0.000000      0.000000
    14   Atom       -0.000000      0.000000     -0.000000
    15   Atom        0.000000      0.000000      0.000000
 --------------------------------------------------------


 ---------------------------------------------------------------------------------
              Anisotropic Spin Dipole Couplings in Principal Axis System
 ---------------------------------------------------------------------------------

       Atom             a.u.   MegaHertz   Gauss  10(-4) cm-1        Axes

              Baa    -0.0000    -0.000    -0.000    -0.000 -0.1655  0.1037  0.9807
     1 C(13)  Bbb    -0.0000    -0.000    -0.000    -0.000  0.8672 -0.4582  0.1948
              Bcc     0.0000     0.000     0.000     0.000  0.4695  0.8828 -0.0141
 
              Baa    -0.0000    -0.000    -0.000    -0.000  0.9992 -0.0350 -0.0191
     2 C(13)  Bbb     0.0000     0.000     0.000     0.000  0.0171 -0.0554  0.9983
              Bcc     0.0000     0.000     0.000     0.000  0.0360  0.9979  0.0547
 
              Baa    -0.0000    -0.000    -0.000    -0.000  0.8583 -0.5040 -0.0964
     3 C(13)  Bbb     0.0000     0.000     0.000     0.000  0.0767 -0.0598  0.9953
              Bcc     0.0000     0.000     0.000     0.000  0.5074  0.8616  0.0127
 
              Baa    -0.0000    -0.000    -0.000    -0.000 -0.5628  0.8254 -0.0438
     4 C(13)  Bbb     0.0000     0.000     0.000     0.000  0.8266  0.5622 -0.0262
              Bcc     0.0000     0.000     0.000     0.000 -0.0030  0.0509  0.9987
 
              Baa    -0.0000    -0.000    -0.000    -0.000 -0.3102  0.9491 -0.0546
     5 S(33)  Bbb     0.0000     0.000     0.000     0.000  0.9318  0.2922 -0.2154
              Bcc     0.0000     0.000     0.000     0.000  0.1884  0.1177  0.9750
 
              Baa    -0.0000    -0.000    -0.000    -0.000  0.5104  0.8591 -0.0393
     6 C(13)  Bbb     0.0000     0.000     0.000     0.000  0.7790 -0.4812 -0.4020
              Bcc     0.0000     0.000     0.000     0.000  0.3643 -0.1745  0.9148
 
              Baa    -0.0000    -0.000    -0.000    -0.000 -0.0052 -0.1606  0.9870
     7 N(14)  Bbb    -0.0000    -0.000    -0.000    -0.000  0.1193  0.9799  0.1601
              Bcc     0.0000     0.000     0.000     0.000  0.9928 -0.1185 -0.0141
 
              Baa    -0.0000    -0.000    -0.000    -0.000  0.6577  0.0729  0.7498
     8 C(13)  Bbb    -0.0000    -0.000    -0.000    -0.000 -0.0354  0.9972 -0.0659
              Bcc     0.0000     0.000     0.000     0.000  0.7525 -0.0168 -0.6584
 
              Baa    -0.0000    -0.000    -0.000    -0.000  0.9242  0.3741  0.0771
     9 C(13)  Bbb    -0.0000    -0.000    -0.000    -0.000 -0.0621 -0.0521  0.9967
              Bcc     0.0000     0.000     0.000     0.000 -0.3769  0.9259  0.0249
 
              Baa    -0.0000    -0.000    -0.000    -0.000  0.2900  0.9567 -0.0238
    10 S(33)  Bbb     0.0000     0.000     0.000     0.000  0.0646  0.0052  0.9979
              Bcc     0.0000     0.000     0.000     0.000  0.9549 -0.2909 -0.0602
 
              Baa    -0.0000    -0.000    -0.000    -0.000 -0.0532 -0.0158  0.9985
    11 H(1)   Bbb    -0.0000    -0.000    -0.000    -0.000 -0.2305  0.9731  0.0032
              Bcc     0.0000     0.000     0.000     0.000  0.9716  0.2300  0.0554
 
              Baa    -0.0000    -0.000    -0.000    -0.000 -0.5360  0.8417 -0.0642
    12 H(1)   Bbb     0.0000     0.000     0.000     0.000  0.8439  0.5364 -0.0130
              Bcc     0.0000     0.000     0.000     0.000 -0.0235  0.0611  0.9979
 
              Baa    -0.0000    -0.000    -0.000    -0.000  0.8129  0.4706 -0.3430
    13 H(1)   Bbb    -0.0000    -0.000    -0.000    -0.000  0.3436  0.0879  0.9350
              Bcc     0.0000     0.000     0.000     0.000 -0.4702  0.8779  0.0902
 
              Baa    -0.0000    -0.000    -0.000    -0.000  0.9655  0.2198 -0.1397
    14 H(1)   Bbb    -0.0000    -0.000    -0.000    -0.000  0.0860  0.2370  0.9677
              Bcc     0.0000     0.000     0.000     0.000 -0.2458  0.9463 -0.2099
 
              Baa    -0.0000    -0.000    -0.000    -0.000  0.9394 -0.0966 -0.3288
    15 H(1)   Bbb    -0.0000    -0.000    -0.000    -0.000  0.3158 -0.1282  0.9401
              Bcc     0.0000     0.000     0.000     0.000  0.1330  0.9870  0.0899
 

 ---------------------------------------------------------------------------------

 No NMR shielding tensors so no spin-rotation constants.
 Leave Link  601 at Fri Jul 24 22:01:56 2020, MaxMem=  4026531840 cpu:               1.6 elap:               0.3
 (Enter /opt/ohpc/pub/libs/gaussian/g16-A.03/sandybridge/g16/l701.exe)
 ... and contract with generalized density number  0.
 Compute integral first derivatives.
 Leave Link  701 at Fri Jul 24 22:01:56 2020, MaxMem=  4026531840 cpu:               1.4 elap:               0.2
 (Enter /opt/ohpc/pub/libs/gaussian/g16-A.03/sandybridge/g16/l702.exe)
 L702 exits ... SP integral derivatives will be done elsewhere.
 Leave Link  702 at Fri Jul 24 22:01:56 2020, MaxMem=  4026531840 cpu:               0.1 elap:               0.0
 (Enter /opt/ohpc/pub/libs/gaussian/g16-A.03/sandybridge/g16/l703.exe)
 Integral derivatives from FoFJK, PRISM(SPDF).
 Compute integral first derivatives, UseDBF=F ICtDFT=           0.
 Calling FoFJK, ICntrl=      2127 FMM=F ISym2X=0 I1Cent= 0 IOpClX= 1 NMat=1 NMatS=1 NMatT=0.
 FoFJK:  IHMeth= 1 ICntrl=    2127 DoSepK=T KAlg= 0 I1Cent=           0 FoldK=F
 IRaf=         1 NMat=       1 IRICut=       1 DoRegI=T DoRafI=F ISym2E= 0 IDoP0=0 IntGTp=1.
 FoFCou: FMM=F IPFlag=           0 FMFlag=      100000 FMFlg1=         800
         NFxFlg=           0 DoJE=F BraDBF=F KetDBF=F FulRan=T
         wScrn=  0.000000 ICntrl=      2527 IOpCl=  0 I1Cent=           0 NGrid=           0
         NMat0=    1 NMatS0=      1 NMatT0=    0 NMatD0=    1 NMtDS0=    0 NMtDT0=    0
 Symmetry not used in FoFCou.
 Leave Link  703 at Fri Jul 24 22:02:04 2020, MaxMem=  4026531840 cpu:              59.8 elap:               8.4
 (Enter /opt/ohpc/pub/libs/gaussian/g16-A.03/sandybridge/g16/l716.exe)
 Dipole        = 7.62607366D-02 4.77539657D-01-2.92112196D-02
 ***** Axes restored to original set *****
 -------------------------------------------------------------------
 Center     Atomic                   Forces (Hartrees/Bohr)
 Number     Number              X              Y              Z
 -------------------------------------------------------------------
      1        6          -0.015784219   -0.022639409    0.005007769
      2        6           0.032118031    0.053986578   -0.009308105
      3        6          -0.020863972   -0.044301831   -0.003727337
      4        6           0.002833369    0.066594513    0.014582742
      5       16          -0.004825294   -0.035767278   -0.003469572
      6        6           0.011567055    0.021881227   -0.012879574
      7        7           0.035911467   -0.028408343   -0.005878863
      8        6          -0.048841618    0.059566432    0.018601956
      9        6           0.043692187   -0.038672239   -0.013745372
     10       16          -0.020136596    0.001931524    0.005737366
     11        1          -0.011140463   -0.002233982   -0.000980447
     12        1           0.006052913   -0.012492961    0.003533452
     13        1           0.004468880    0.001718116    0.001571202
     14        1           0.012957063   -0.020156174   -0.001484695
     15        1          -0.028008801   -0.001006173    0.002439478
 -------------------------------------------------------------------
 Cartesian Forces:  Max     0.066594513 RMS     0.025013321
 Leave Link  716 at Fri Jul 24 22:02:05 2020, MaxMem=  4026531840 cpu:               0.2 elap:               0.0
 (Enter /opt/ohpc/pub/libs/gaussian/g16-A.03/sandybridge/g16/l103.exe)

 GradGradGradGradGradGradGradGradGradGradGradGradGradGradGradGradGradGrad
 Berny optimization.
 FormGI is forming the generalized inverse of G from B-inverse, IUseBI=4.
 Internal  Forces:  Max     0.033664323 RMS     0.011504253
 Search for a local minimum.
 Step number   1 out of a maximum of   82
 All quantities printed in internal units (Hartrees-Bohrs-Radians)
 RMS Force = .11504D-01 SwitMx=.10000D-02 MixMth= 1
 Mixed Optimization -- RFO/linear search
 Second derivative matrix not updated -- first step.
 ITU=  0
     Eigenvalues ---    0.01395   0.01514   0.01630   0.01680   0.01734
     Eigenvalues ---    0.01829   0.01968   0.02129   0.02133   0.02292
     Eigenvalues ---    0.02318   0.02686   0.15781   0.15850   0.15897
     Eigenvalues ---    0.15978   0.15981   0.22129   0.22445   0.23807
     Eigenvalues ---    0.24659   0.24775   0.24873   0.26956   0.29979
     Eigenvalues ---    0.32303   0.35077   0.35240   0.36392   0.36439
     Eigenvalues ---    0.36862   0.37929   0.38664   0.38769   0.41139
     Eigenvalues ---    0.41263   0.45073   0.56001   0.70116
 RFO step:  Lambda=-2.69171294D-02 EMin= 1.39531443D-02
 Linear search not attempted -- first point.
 Iteration  1 RMS(Cart)=  0.03402703 RMS(Int)=  0.00155858
 Iteration  2 RMS(Cart)=  0.00155826 RMS(Int)=  0.00084247
 Iteration  3 RMS(Cart)=  0.00000179 RMS(Int)=  0.00084247
 Iteration  4 RMS(Cart)=  0.00000000 RMS(Int)=  0.00084247
 ITry= 1 IFail=0 DXMaxC= 9.34D-02 DCOld= 1.00D+10 DXMaxT= 3.00D-01 DXLimC= 3.00D+00 Rises=F
 Variable       Old X    -DE/DX   Delta X   Delta X   Delta X     New X
                                 (Linear)    (Quad)   (Total)
    R1        2.52205   0.03366   0.00000   0.05802   0.05802   2.58007
    R2        3.18705   0.01345   0.00000   0.04032   0.04029   3.22734
    R3        2.03401   0.01105   0.00000   0.02824   0.02824   2.06224
    R4        2.76554  -0.02458   0.00000  -0.06632  -0.06630   2.69924
    R5        2.10294  -0.01360   0.00000  -0.03887  -0.03887   2.06406
    R6        2.68407  -0.03207   0.00000  -0.07742  -0.07740   2.60666
    R7        2.05287   0.00348   0.00000   0.00917   0.00917   2.06204
    R8        3.15111   0.03332   0.00000   0.07652   0.07651   3.22763
    R9        2.74468   0.00738   0.00000   0.01818   0.01818   2.76286
   R10        2.41648   0.01843   0.00000   0.02538   0.02554   2.44202
   R11        3.37378  -0.01322   0.00000  -0.03738  -0.03761   3.33617
   R12        2.68574  -0.03050   0.00000  -0.07077  -0.07040   2.61533
   R13        2.63019  -0.02591   0.00000  -0.05595  -0.05583   2.57436
   R14        2.00110   0.02384   0.00000   0.05764   0.05764   2.05873
   R15        3.18110   0.01486   0.00000   0.03623   0.03595   3.21706
   R16        2.14705  -0.02752   0.00000  -0.08424  -0.08424   2.06281
    A1        1.98074  -0.00952   0.00000  -0.02251  -0.02281   1.95793
    A2        2.24886   0.00223   0.00000  -0.00163  -0.00182   2.24704
    A3        2.05211   0.00739   0.00000   0.02611   0.02595   2.07806
    A4        1.95432   0.00145   0.00000   0.00742   0.00685   1.96117
    A5        2.20240  -0.00388   0.00000  -0.01815  -0.01872   2.18368
    A6        2.11995   0.00273   0.00000   0.01723   0.01676   2.13671
    A7        1.90830   0.01401   0.00000   0.03833   0.03829   1.94659
    A8        2.16038  -0.00372   0.00000  -0.00149  -0.00150   2.15887
    A9        2.21368  -0.01026   0.00000  -0.03641  -0.03642   2.17726
   A10        1.95375   0.00375   0.00000   0.00241   0.00192   1.95567
   A11        2.20144   0.00316   0.00000   0.01988   0.01951   2.22095
   A12        2.11988  -0.00661   0.00000  -0.01570  -0.01617   2.10370
   A13        1.62536  -0.00952   0.00000  -0.02192  -0.02207   1.60329
   A14        2.17115   0.00068   0.00000   0.00024  -0.00032   2.17083
   A15        2.11962  -0.00019   0.00000  -0.00310  -0.00362   2.11601
   A16        1.98604  -0.00013   0.00000   0.01099   0.00950   1.99554
   A17        1.96861  -0.00691   0.00000  -0.02699  -0.02714   1.94147
   A18        1.94149   0.01691   0.00000   0.05942   0.05704   1.99853
   A19        2.10293  -0.00837   0.00000  -0.02248  -0.02466   2.07827
   A20        2.22592  -0.00759   0.00000  -0.01844  -0.02057   2.20534
   A21        1.97295  -0.00454   0.00000  -0.02397  -0.02608   1.94687
   A22        2.13856   0.00874   0.00000   0.05069   0.04969   2.18825
   A23        2.16446  -0.00369   0.00000  -0.01582  -0.01685   2.14761
   A24        1.54819  -0.00458   0.00000  -0.00396  -0.00583   1.54236
    D1        0.05780  -0.00246   0.00000  -0.05194  -0.05200   0.00581
    D2        3.07761   0.00066   0.00000   0.01007   0.00963   3.08724
    D3        3.13898  -0.00027   0.00000  -0.01067  -0.01106   3.12792
    D4       -0.12440   0.00285   0.00000   0.05135   0.05057  -0.07384
    D5       -0.06279   0.00305   0.00000   0.05235   0.05127  -0.01153
    D6        3.13187   0.00124   0.00000   0.01689   0.01557  -3.13574
    D7       -0.02099   0.00126   0.00000   0.02572   0.02602   0.00503
    D8        3.07939   0.00160   0.00000   0.03530   0.03578   3.11517
    D9       -3.04738  -0.00117   0.00000  -0.03016  -0.03089  -3.07826
   D10        0.05301  -0.00083   0.00000  -0.02057  -0.02113   0.03188
   D11       -0.02467   0.00036   0.00000   0.01088   0.01105  -0.01362
   D12       -3.03038  -0.00157   0.00000  -0.04257  -0.04309  -3.07347
   D13       -3.12346  -0.00022   0.00000  -0.00020   0.00010  -3.12336
   D14        0.15401  -0.00216   0.00000  -0.05365  -0.05404   0.09997
   D15        0.04857  -0.00133   0.00000  -0.03369  -0.03414   0.01443
   D16        3.06155   0.00133   0.00000   0.01999   0.01895   3.08050
   D17        3.08057  -0.00048   0.00000  -0.01553  -0.01564   3.06493
   D18       -0.18972   0.00309   0.00000   0.06708   0.06726  -0.12246
   D19        0.08682  -0.00342   0.00000  -0.07533  -0.07551   0.01131
   D20        3.09971   0.00015   0.00000   0.00728   0.00739   3.10710
   D21        3.01270   0.00453   0.00000   0.08303   0.08218   3.09488
   D22       -0.00893   0.00121   0.00000   0.00690   0.00520  -0.00374
   D23       -3.07825  -0.00071   0.00000  -0.01664  -0.01722  -3.09546
   D24       -0.05266   0.00257   0.00000   0.05720   0.05730   0.00465
   D25        0.08405  -0.00385   0.00000  -0.08203  -0.08361   0.00045
   D26        3.06659   0.00147   0.00000   0.03017   0.02948   3.09607
   D27       -0.12511   0.00576   0.00000   0.12744   0.12821   0.00310
   D28        3.14056   0.00175   0.00000   0.03590   0.03583  -3.10680
   D29       -3.09372  -0.00019   0.00000   0.00506   0.00512  -3.08860
   D30        0.17195  -0.00420   0.00000  -0.08648  -0.08726   0.08469
   D31        0.09980  -0.00536   0.00000  -0.10629  -0.10394  -0.00414
   D32        3.11517  -0.00025   0.00000  -0.00770  -0.00856   3.10662
         Item               Value     Threshold  Converged?
 Maximum Force            0.033664     0.000450     NO 
 RMS     Force            0.011504     0.000300     NO 
 Maximum Displacement     0.093388     0.001800     NO 
 RMS     Displacement     0.034339     0.001200     NO 
 Predicted change in Energy=-1.540659D-02
 Lowest energy point so far.  Saving SCF results.
 GradGradGradGradGradGradGradGradGradGradGradGradGradGradGradGradGradGrad

 Leave Link  103 at Fri Jul 24 22:02:05 2020, MaxMem=  4026531840 cpu:               0.8 elap:               0.2
 (Enter /opt/ohpc/pub/libs/gaussian/g16-A.03/sandybridge/g16/l202.exe)
                          Input orientation:                          
 ---------------------------------------------------------------------
 Center     Atomic      Atomic             Coordinates (Angstroms)
 Number     Number       Type             X           Y           Z
 ---------------------------------------------------------------------
      1          6           0       -3.148819   -0.136530   -0.015750
      2          6           0       -2.778637    1.176690    0.034205
      3          6           0       -1.359928    1.342273    0.023995
      4          6           0       -0.708956    0.127872   -0.040610
      5         16           0       -1.801460   -1.184758   -0.066199
      6          6           0        0.733230   -0.106949    0.009600
      7          7           0        1.281931   -1.276822    0.025657
      8          6           0        2.662687   -1.183152    0.014356
      9          6           0        3.142408    0.091647   -0.010165
     10         16           0        1.880666    1.234504   -0.015293
     11          1           0       -4.152972   -0.563795   -0.009723
     12          1           0       -3.467301    2.024426    0.023842
     13          1           0       -0.863808    2.314096    0.034280
     14          1           0        3.255693   -2.095413    0.069055
     15          1           0        4.197239    0.369245   -0.053184
 ---------------------------------------------------------------------
                    Distance matrix (angstroms):
                    1          2          3          4          5
     1  C    0.000000
     2  C    1.365312   0.000000
     3  C    2.321329   1.428376   0.000000
     4  C    2.454273   2.321464   1.379386   0.000000
     5  S    1.707835   2.557615   2.566899   1.707986   0.000000
     6  C    3.882244   3.739190   2.545930   1.462041   2.755371
     7  N    4.575317   4.744261   3.720091   2.437456   3.086133
     8  C    5.905076   5.931041   4.749662   3.617980   4.464874
     9  C    6.295366   6.019806   4.672929   3.851656   5.106289
    10  S    5.213008   4.659925   3.242623   2.816277   4.406072
    11  H    1.091291   2.218111   3.381616   3.512919   2.432775
    12  H    2.184658   1.092255   2.215029   3.348064   3.616904
    13  H    3.351022   2.227165   1.091184   2.192981   3.623709
    14  H    6.697924   6.864475   5.755316   4.546808   5.140271
    15  H    7.363543   7.022994   5.642237   4.912145   6.196731
                    6          7          8          9         10
     6  C    0.000000
     7  N    1.292259   0.000000
     8  C    2.209307   1.383976   0.000000
     9  C    2.417431   2.309842   1.362295   0.000000
    10  S    1.765425   2.582038   2.541160   1.702393   0.000000
    11  H    4.907550   5.481590   6.843785   7.324765   6.295927
    12  H    4.710353   5.783896   6.918482   6.886585   5.406132
    13  H    2.900448   4.183177   4.966619   4.581597   2.949596
    14  H    3.212529   2.137220   1.089435   2.191425   3.603632
    15  H    3.497150   3.348846   2.183883   1.091594   2.473180
                   11         12         13         14         15
    11  H    0.000000
    12  H    2.677716   0.000000
    13  H    4.370674   2.619579   0.000000
    14  H    7.565737   7.885034   6.034507   0.000000
    15  H    8.402290   7.841602   5.422573   2.641210   0.000000
 Stoichiometry    C7H5NS2
 Framework group  C1[X(C7H5NS2)]
 Deg. of freedom    39
 Full point group                 C1      NOp   1
 RotChk:  IX=0 Diff= 1.69D-02
 Largest Abelian subgroup         C1      NOp   1
 Largest concise Abelian subgroup C1      NOp   1
                         Standard orientation:                         
 ---------------------------------------------------------------------
 Center     Atomic      Atomic             Coordinates (Angstroms)
 Number     Number       Type             X           Y           Z
 ---------------------------------------------------------------------
      1          6           0       -3.155017   -0.139381    0.007866
      2          6           0       -2.777281    1.172158    0.043335
      3          6           0       -1.357706    1.329595    0.026602
      4          6           0       -0.713807    0.110941   -0.028007
      5         16           0       -1.813761   -1.195674   -0.036644
      6          6           0        0.727201   -0.131524    0.019626
      7          7           0        1.269364   -1.304265    0.045578
      8          6           0        2.650577   -1.218531    0.028607
      9          6           0        3.137376    0.053221   -0.010384
     10         16           0        1.882073    1.203093   -0.022694
     11          1           0       -4.161531   -0.560873    0.021630
     12          1           0       -3.461196    2.023632    0.026799
     13          1           0       -0.856094    2.298649    0.025408
     14          1           0        3.238628   -2.133540    0.090454
     15          1           0        4.193595    0.324397   -0.059805
 ---------------------------------------------------------------------
 Rotational constants (GHZ):           2.7128245           0.6747600           0.5405409
 Leave Link  202 at Fri Jul 24 22:02:05 2020, MaxMem=  4026531840 cpu:               0.1 elap:               0.0
 (Enter /opt/ohpc/pub/libs/gaussian/g16-A.03/sandybridge/g16/l301.exe)
 Standard basis: CC-pVDZ (5D, 7F)
 Ernie: Thresh=  0.10000D-02 Tol=  0.10000D-05 Strict=F.
 Ernie:  36 primitive shells out of 301 were deleted.
 There are   183 symmetry adapted cartesian basis functions of A   symmetry.
 There are   173 symmetry adapted basis functions of A   symmetry.
   173 basis functions,   441 primitive gaussians,   183 cartesian basis functions
    43 alpha electrons       43 beta electrons
       nuclear repulsion energy       638.5543377428 Hartrees.
 IExCor=32609 DFT=T Ex+Corr=LC-wPBE ExCW=0 ScaHFX=  1.000000
 ScaDFX=  1.000000  0.000000  1.000000  1.000000 ScalE2=  1.000000  1.000000
 IRadAn=      5 IRanWt=     -1 IRanGd=            0 ICorTp=0 IEmpDi=  4
 HFx  wShort=  0.000000 wLong=  0.319300 cFull=  0.000000 cShort=  0.000000 cLong=  1.000000
 DFx  wShort=  0.000000 wLong=  0.319300 cFull=  0.000000 cShort=  0.000000 cLong=  1.000000
 NAtoms=   15 NActive=   15 NUniq=   15 SFac= 1.00D+00 NAtFMM=   60 NAOKFM=F Big=F
 Integral buffers will be    131072 words long.
 Raffenetti 2 integral format.
 Two-electron integral symmetry is turned on.
 Leave Link  301 at Fri Jul 24 22:02:05 2020, MaxMem=  4026531840 cpu:               0.4 elap:               0.1
 (Enter /opt/ohpc/pub/libs/gaussian/g16-A.03/sandybridge/g16/l302.exe)
 NPDir=0 NMtPBC=     1 NCelOv=     1 NCel=       1 NClECP=     1 NCelD=      1
         NCelK=      1 NCelE2=     1 NClLst=     1 CellRange=     0.0.
 One-electron integrals computed using PRISM.
 One-electron integral symmetry used in STVInt
 NBasis=   173 RedAO= T EigKep=  6.66D-04  NBF=   173
 NBsUse=   173 1.00D-06 EigRej= -1.00D+00 NBFU=   173
 Precomputing XC quadrature grid using
 IXCGrd= 4 IRadAn=           5 IRanWt=          -1 IRanGd=           0 AccXCQ= 0.00D+00.
 Generated NRdTot=       0 NPtTot=           0 NUsed=           0 NTot=          32
 NSgBfM=   183   183   183   183   183 MxSgAt=    15 MxSgA2=    15.
 Leave Link  302 at Fri Jul 24 22:02:05 2020, MaxMem=  4026531840 cpu:               1.4 elap:               0.2
 (Enter /opt/ohpc/pub/libs/gaussian/g16-A.03/sandybridge/g16/l303.exe)
 DipDrv:  MaxL=1.
 Leave Link  303 at Fri Jul 24 22:02:05 2020, MaxMem=  4026531840 cpu:               0.4 elap:               0.1
 (Enter /opt/ohpc/pub/libs/gaussian/g16-A.03/sandybridge/g16/l401.exe)
 Initial guess from the checkpoint file:  "/mnt/gpfs2_4m/scratch/rdu230/ondemand/projects/dihedral_energies/7trial/wtuning/mols_55_1_02_C-N/Gau-327676.chk"
 B after Tr=     0.000000   -0.000000    0.000000
         Rot=    0.999998    0.000097   -0.000059    0.002131 Ang=   0.24 deg.
 Guess basis will be translated and rotated to current coordinates.
 JPrj=2 DoOrth=T DoCkMO=T.
[...]
  Beta virt. eigenvalues --    0.57369   0.58360   0.58515   0.59667   0.60268
  Beta virt. eigenvalues --    0.62637   0.62689   0.65392   0.66396   0.67355
  Beta virt. eigenvalues --    0.67448   0.69761   0.72630   0.73396   0.74387
  Beta virt. eigenvalues --    0.75284   0.76044   0.76881   0.77412   0.79870
  Beta virt. eigenvalues --    0.83477   0.83819   0.84700   0.86597   0.91128
  Beta virt. eigenvalues --    0.95358   0.97576   0.98198   0.99968   1.00618
  Beta virt. eigenvalues --    1.01343   1.03813   1.05938   1.06500   1.07720
  Beta virt. eigenvalues --    1.08807   1.09921   1.11429   1.13491   1.14144
  Beta virt. eigenvalues --    1.17625   1.18737   1.19889   1.22775   1.27465
  Beta virt. eigenvalues --    1.28239   1.29580   1.34702   1.37247   1.38415
  Beta virt. eigenvalues --    1.43354   1.45842   1.46926   1.52339   1.54945
  Beta virt. eigenvalues --    1.55219   1.59047   1.61586   1.62641   1.64719
  Beta virt. eigenvalues --    1.68739   1.71926   1.72015   1.74156   1.75590
  Beta virt. eigenvalues --    1.76413   1.76866   1.80332   1.81542   1.84112
  Beta virt. eigenvalues --    1.85098   1.90211   1.90494   1.93009   1.96810
  Beta virt. eigenvalues --    2.00228   2.02044   2.03219   2.06269   2.08507
  Beta virt. eigenvalues --    2.10020   2.14418   2.16186   2.22729   2.24966
  Beta virt. eigenvalues --    2.31477   2.37194   2.43354   2.45120   2.49131
  Beta virt. eigenvalues --    2.49361   2.51315   2.56553   2.58332   2.68566
  Beta virt. eigenvalues --    2.73746   2.82880   2.93714   3.15310   3.25003
          Condensed to atoms (all electrons):
               1          2          3          4          5          6
     1  C    4.998131   0.547689  -0.035490  -0.099170   0.364580   0.004198
     2  C    0.547689   4.663755   0.499504  -0.037775  -0.085969   0.006224
     3  C   -0.035490   0.499504   4.767434   0.557905  -0.097943  -0.057070
     4  C   -0.099170  -0.037775   0.557905   5.229455   0.362568   0.280185
     5  S    0.364580  -0.085969  -0.097943   0.362568  15.316949  -0.059353
     6  C    0.004198   0.006224  -0.057070   0.280185  -0.059353   5.018136
     7  N    0.000357  -0.000083   0.002043  -0.050072   0.010813   0.647878
     8  C    0.000005   0.000007  -0.000074   0.005122   0.000169  -0.127328
     9  C    0.000003  -0.000004   0.000187   0.004823  -0.000012  -0.075022
    10  S   -0.000014  -0.000025  -0.009772  -0.073845   0.004698   0.344006
    11  H    0.402244  -0.022681   0.008317   0.001169  -0.037901  -0.000249
    12  H   -0.052295   0.412730  -0.041000   0.008565   0.006917  -0.000267
    13  H    0.008556  -0.039531   0.413544  -0.046945   0.006504  -0.014869
    14  H   -0.000000  -0.000000   0.000008  -0.000683  -0.000017   0.002035
    15  H   -0.000000   0.000000  -0.000002  -0.000161  -0.000000   0.002788
               7          8          9         10         11         12
     1  C    0.000357   0.000005   0.000003  -0.000014   0.402244  -0.052295
     2  C   -0.000083   0.000007  -0.000004  -0.000025  -0.022681   0.412730
     3  C    0.002043  -0.000074   0.000187  -0.009772   0.008317  -0.041000
     4  C   -0.050072   0.005122   0.004823  -0.073845   0.001169   0.008565
     5  S    0.010813   0.000169  -0.000012   0.004698  -0.037901   0.006917
     6  C    0.647878  -0.127328  -0.075022   0.344006  -0.000249  -0.000267
     7  N    6.235888   0.523225  -0.055275  -0.102629   0.000000   0.000001
     8  C    0.523225   4.624574   0.563522  -0.100915  -0.000000  -0.000000
     9  C   -0.055275   0.563522   5.020727   0.369157  -0.000000  -0.000000
    10  S   -0.102629  -0.100915   0.369157  15.439378   0.000002   0.000011
    11  H    0.000000  -0.000000  -0.000000   0.000002   0.622358  -0.007681
    12  H    0.000001  -0.000000  -0.000000   0.000011  -0.007681   0.677988
    13  H    0.000191  -0.000011   0.000052   0.004535  -0.000110  -0.006867
    14  H   -0.021811   0.409620  -0.048996   0.006308  -0.000000   0.000000
    15  H    0.004518  -0.014995   0.396571  -0.034518   0.000000  -0.000000
              13         14         15
     1  C    0.008556  -0.000000  -0.000000
     2  C   -0.039531  -0.000000   0.000000
     3  C    0.413544   0.000008  -0.000002
     4  C   -0.046945  -0.000683  -0.000161
     5  S    0.006504  -0.000017  -0.000000
     6  C   -0.014869   0.002035   0.002788
     7  N    0.000191  -0.021811   0.004518
     8  C   -0.000011   0.409620  -0.014995
     9  C    0.000052  -0.048996   0.396571
    10  S    0.004535   0.006308  -0.034518
    11  H   -0.000110  -0.000000   0.000000
    12  H   -0.006867   0.000000  -0.000000
    13  H    0.670446  -0.000000  -0.000001
    14  H   -0.000000   0.643427  -0.004361
    15  H   -0.000001  -0.004361   0.610831
          Atomic-Atomic Spin Densities.
               1          2          3          4          5          6
     1  C    0.000000  -0.000000   0.000000  -0.000000  -0.000000  -0.000000
     2  C   -0.000000   0.000000  -0.000000   0.000000  -0.000000   0.000000
     3  C    0.000000  -0.000000   0.000000  -0.000000  -0.000000   0.000000
     4  C   -0.000000   0.000000  -0.000000   0.000000  -0.000000   0.000000
     5  S   -0.000000  -0.000000  -0.000000  -0.000000  -0.000000  -0.000000
     6  C   -0.000000   0.000000   0.000000   0.000000  -0.000000  -0.000000
     7  N    0.000000  -0.000000  -0.000000   0.000000   0.000000   0.000000
     8  C   -0.000000   0.000000  -0.000000  -0.000000  -0.000000  -0.000000
     9  C   -0.000000   0.000000   0.000000   0.000000  -0.000000  -0.000000
    10  S   -0.000000  -0.000000  -0.000000   0.000000   0.000000  -0.000000
    11  H    0.000000  -0.000000   0.000000  -0.000000  -0.000000  -0.000000
    12  H   -0.000000   0.000000  -0.000000   0.000000   0.000000  -0.000000
    13  H    0.000000  -0.000000   0.000000  -0.000000  -0.000000   0.000000
    14  H    0.000000  -0.000000   0.000000   0.000000   0.000000  -0.000000
    15  H    0.000000  -0.000000   0.000000   0.000000  -0.000000   0.000000
               7          8          9         10         11         12
     1  C    0.000000  -0.000000  -0.000000  -0.000000   0.000000  -0.000000
     2  C   -0.000000   0.000000   0.000000  -0.000000  -0.000000   0.000000
     3  C   -0.000000  -0.000000   0.000000  -0.000000   0.000000  -0.000000
     4  C    0.000000  -0.000000   0.000000   0.000000  -0.000000   0.000000
     5  S    0.000000  -0.000000  -0.000000   0.000000  -0.000000   0.000000
     6  C    0.000000  -0.000000  -0.000000  -0.000000  -0.000000  -0.000000
     7  N   -0.000000  -0.000000   0.000000  -0.000000   0.000000  -0.000000
     8  C   -0.000000   0.000000   0.000000  -0.000000  -0.000000   0.000000
     9  C    0.000000   0.000000  -0.000000   0.000000   0.000000  -0.000000
    10  S   -0.000000  -0.000000   0.000000   0.000000   0.000000   0.000000
    11  H    0.000000  -0.000000   0.000000   0.000000  -0.000000  -0.000000
    12  H   -0.000000   0.000000  -0.000000   0.000000  -0.000000   0.000000
    13  H    0.000000  -0.000000   0.000000  -0.000000   0.000000  -0.000000
    14  H    0.000000   0.000000   0.000000  -0.000000   0.000000  -0.000000
    15  H    0.000000  -0.000000  -0.000000  -0.000000   0.000000  -0.000000
              13         14         15
     1  C    0.000000   0.000000   0.000000
     2  C   -0.000000  -0.000000  -0.000000
     3  C    0.000000   0.000000   0.000000
     4  C   -0.000000   0.000000   0.000000
     5  S   -0.000000   0.000000  -0.000000
     6  C    0.000000  -0.000000   0.000000
     7  N    0.000000   0.000000   0.000000
     8  C   -0.000000   0.000000  -0.000000
     9  C    0.000000   0.000000  -0.000000
    10  S   -0.000000  -0.000000  -0.000000
    11  H    0.000000   0.000000   0.000000
    12  H   -0.000000  -0.000000  -0.000000
    13  H    0.000000   0.000000   0.000000
    14  H    0.000000  -0.000000  -0.000000
    15  H    0.000000  -0.000000   0.000000
 Mulliken charges and spin densities:
               1          2
     1  C   -0.138795   0.000000
     2  C    0.056159  -0.000000
     3  C   -0.007591  -0.000000
     4  C   -0.141141   0.000000
     5  S    0.207997  -0.000000
     6  C    0.028709   0.000000
     7  N   -0.195044  -0.000000
     8  C    0.117078   0.000000
     9  C   -0.175733  -0.000000
    10  S    0.153623   0.000000
    11  H    0.034532  -0.000000
    12  H    0.001899   0.000000
    13  H    0.004506  -0.000000
    14  H    0.014471  -0.000000
    15  H    0.039330  -0.000000
 Sum of Mulliken charges =  -0.00000  -0.00000
 Mulliken charges and spin densities with hydrogens summed into heavy atoms:
               1          2
     1  C   -0.104263   0.000000
     2  C    0.058058  -0.000000
     3  C   -0.003085  -0.000000
     4  C   -0.141141   0.000000
     5  S    0.207997  -0.000000
     6  C    0.028709   0.000000
     7  N   -0.195044  -0.000000
     8  C    0.131549   0.000000
     9  C   -0.136404  -0.000000
    10  S    0.153623   0.000000
 Electronic spatial extent (au):  <R**2>=           1948.0485
 Charge=             -0.0000 electrons
 Dipole moment (field-independent basis, Debye):
    X=              0.2674    Y=              1.4080    Z=              0.0001  Tot=              1.4332
 Quadrupole moment (field-independent basis, Debye-Ang):
   XX=            -55.2334   YY=            -68.8476   ZZ=            -75.0775
   XY=             -0.7290   XZ=             -0.0009   YZ=             -0.0010
 Traceless Quadrupole moment (field-independent basis, Debye-Ang):
   XX=             11.1527   YY=             -2.4614   ZZ=             -8.6913
   XY=             -0.7290   XZ=             -0.0009   YZ=             -0.0010
 Octapole moment (field-independent basis, Debye-Ang**2):
  XXX=              8.8609  YYY=              5.8866  ZZZ=              0.0008  XYY=             -1.4536
  XXY=             -4.8983  XXZ=              0.0009  XZZ=              2.2683  YZZ=             -1.7381
  YYZ=             -0.0010  XYZ=              0.0036
 Hexadecapole moment (field-independent basis, Debye-Ang**3):
 XXXX=          -1718.3195 YYYY=           -535.5473 ZZZZ=            -84.9091 XXXY=             12.4904
 XXXZ=             -0.0232 YYYX=            -16.2906 YYYZ=             -0.0038 ZZZX=             -0.0016
 ZZZY=              0.0007 XXYY=           -386.7642 XXZZ=           -387.6584 YYZZ=           -111.9855
 XXYZ=             -0.0032 YYXZ=              0.0007 ZZXY=              5.5564
 N-N= 6.382584921230D+02 E-N=-3.922188022417D+03  KE= 1.116472338991D+03
                          Isotropic Fermi Contact Couplings
        Atom                 a.u.       MegaHertz       Gauss      10(-4) cm-1
     1  C(13)              0.00000       0.00000       0.00000       0.00000
     2  C(13)              0.00000       0.00000       0.00000       0.00000
     3  C(13)             -0.00000      -0.00000      -0.00000      -0.00000
     4  C(13)             -0.00000      -0.00000      -0.00000      -0.00000
     5  S(33)             -0.00000      -0.00000      -0.00000      -0.00000
     6  C(13)             -0.00000      -0.00000      -0.00000      -0.00000
     7  N(14)              0.00000       0.00000       0.00000       0.00000
     8  C(13)              0.00000       0.00000       0.00000       0.00000
     9  C(13)              0.00000       0.00000       0.00000       0.00000
    10  S(33)              0.00000       0.00000       0.00000       0.00000
    11  H(1)              -0.00000      -0.00000      -0.00000      -0.00000
    12  H(1)               0.00000       0.00000       0.00000       0.00000
    13  H(1)              -0.00000      -0.00000      -0.00000      -0.00000
    14  H(1)              -0.00000      -0.00000      -0.00000      -0.00000
    15  H(1)               0.00000       0.00000       0.00000       0.00000
 --------------------------------------------------------
       Center         ----  Spin Dipole Couplings  ----
                      3XX-RR        3YY-RR        3ZZ-RR
 --------------------------------------------------------
     1   Atom        0.000000     -0.000000      0.000000
     2   Atom       -0.000000      0.000000     -0.000000
     3   Atom       -0.000000      0.000000     -0.000000
     4   Atom        0.000000      0.000000     -0.000000
     5   Atom        0.000000      0.000000     -0.000000
     6   Atom       -0.000000      0.000000      0.000000
     7   Atom       -0.000000     -0.000000      0.000000
     8   Atom       -0.000000      0.000000      0.000000
     9   Atom       -0.000000      0.000000     -0.000000
    10   Atom        0.000000     -0.000000      0.000000
    11   Atom       -0.000000      0.000000      0.000000
    12   Atom        0.000000      0.000000     -0.000000
    13   Atom       -0.000000      0.000000     -0.000000
    14   Atom       -0.000000     -0.000000      0.000000
    15   Atom        0.000000     -0.000000     -0.000000
 --------------------------------------------------------
                        XY            XZ            YZ
 --------------------------------------------------------
     1   Atom       -0.000000     -0.000000      0.000000
     2   Atom       -0.000000     -0.000000     -0.000000
     3   Atom       -0.000000      0.000000      0.000000
     4   Atom       -0.000000      0.000000      0.000000
     5   Atom       -0.000000     -0.000000      0.000000
     6   Atom        0.000000      0.000000      0.000000
     7   Atom        0.000000      0.000000      0.000000
     8   Atom        0.000000     -0.000000      0.000000
     9   Atom        0.000000     -0.000000     -0.000000
    10   Atom       -0.000000     -0.000000      0.000000
    11   Atom       -0.000000      0.000000      0.000000
    12   Atom       -0.000000     -0.000000     -0.000000
    13   Atom        0.000000     -0.000000     -0.000000
    14   Atom        0.000000     -0.000000      0.000000
    15   Atom        0.000000      0.000000      0.000000
 --------------------------------------------------------


 ---------------------------------------------------------------------------------
              Anisotropic Spin Dipole Couplings in Principal Axis System
 ---------------------------------------------------------------------------------

       Atom             a.u.   MegaHertz   Gauss  10(-4) cm-1        Axes

              Baa    -0.0000    -0.000    -0.000    -0.000  0.5951  0.8037 -0.0001
     1 C(13)  Bbb     0.0000     0.000     0.000     0.000  0.0029 -0.0020  1.0000
              Bcc     0.0000     0.000     0.000     0.000  0.8037 -0.5950 -0.0035
 
              Baa    -0.0000    -0.000    -0.000    -0.000  0.8223  0.5527  0.1353
     2 C(13)  Bbb    -0.0000    -0.000    -0.000    -0.000 -0.1078 -0.0821  0.9908
              Bcc     0.0000     0.000     0.000     0.000 -0.5587  0.8293  0.0079
 
              Baa    -0.0000    -0.000    -0.000    -0.000  0.9700  0.2383 -0.0470
     3 C(13)  Bbb    -0.0000    -0.000    -0.000    -0.000  0.0495 -0.0045  0.9988
              Bcc     0.0000     0.000     0.000     0.000 -0.2378  0.9712  0.0162
 
              Baa    -0.0000    -0.000    -0.000    -0.000 -0.0209 -0.0036  0.9998
     4 C(13)  Bbb     0.0000     0.000     0.000     0.000  0.9996  0.0201  0.0210
              Bcc     0.0000     0.000     0.000     0.000 -0.0202  0.9998  0.0032
 
              Baa    -0.0000    -0.000    -0.000    -0.000  0.0169 -0.0040  0.9998
     5 S(33)  Bbb    -0.0000    -0.000    -0.000    -0.000  0.8303  0.5572 -0.0118
              Bcc     0.0000     0.000     0.000     0.000 -0.5571  0.8304  0.0128
 
              Baa    -0.0000    -0.000    -0.000    -0.000  0.9763 -0.2165 -0.0079
     6 C(13)  Bbb     0.0000     0.000     0.000     0.000  0.2163  0.9762 -0.0182
              Bcc     0.0000     0.000     0.000     0.000  0.0117  0.0160  0.9998
 
              Baa    -0.0000    -0.000    -0.000    -0.000 -0.4295  0.9030  0.0010
     7 N(14)  Bbb    -0.0000    -0.000    -0.000    -0.000  0.9030  0.4295 -0.0126
              Bcc     0.0000     0.000     0.000     0.000  0.0118  0.0045  0.9999
 
              Baa    -0.0000    -0.000    -0.000    -0.000  1.0000 -0.0031  0.0014
     8 C(13)  Bbb     0.0000     0.000     0.000     0.000 -0.0015 -0.0270  0.9996
              Bcc     0.0000     0.000     0.000     0.000  0.0031  0.9996  0.0270
 
              Baa    -0.0000    -0.000    -0.000    -0.000  0.9878 -0.1354  0.0775
     9 C(13)  Bbb    -0.0000    -0.000    -0.000    -0.000 -0.0750  0.0236  0.9969
              Bcc     0.0000     0.000     0.000     0.000  0.1368  0.9905 -0.0131
 
              Baa    -0.0000    -0.000    -0.000    -0.000  0.2240  0.9746 -0.0029
    10 S(33)  Bbb     0.0000     0.000     0.000     0.000  0.0355 -0.0052  0.9994
              Bcc     0.0000     0.000     0.000     0.000  0.9739 -0.2239 -0.0358
 
              Baa    -0.0000    -0.000    -0.000    -0.000  0.9695  0.2451 -0.0033
    11 H(1)   Bbb     0.0000     0.000     0.000     0.000  0.0046 -0.0046  1.0000
              Bcc     0.0000     0.000     0.000     0.000 -0.2450  0.9695  0.0055
 
              Baa    -0.0000    -0.000    -0.000    -0.000  0.0138  0.0035  0.9999
    12 H(1)   Bbb     0.0000     0.000     0.000     0.000  0.9255  0.3786 -0.0141
              Bcc     0.0000     0.000     0.000     0.000 -0.3786  0.9256  0.0020
 
              Baa    -0.0000    -0.000    -0.000    -0.000  0.7715 -0.6362  0.0008
    13 H(1)   Bbb    -0.0000    -0.000    -0.000    -0.000  0.0012  0.0027  1.0000
              Bcc     0.0000     0.000     0.000     0.000  0.6362  0.7715 -0.0029
 
              Baa    -0.0000    -0.000    -0.000    -0.000 -0.5616  0.8273 -0.0139
    14 H(1)   Bbb     0.0000     0.000     0.000     0.000  0.8274  0.5616 -0.0038
              Bcc     0.0000     0.000     0.000     0.000 -0.0047  0.0136  0.9999
 
              Baa    -0.0000    -0.000    -0.000    -0.000 -0.0066 -0.0010  1.0000
    15 H(1)   Bbb    -0.0000    -0.000    -0.000    -0.000 -0.3957  0.9184 -0.0017
              Bcc     0.0000     0.000     0.000     0.000  0.9184  0.3957  0.0065
 

 ---------------------------------------------------------------------------------

 No NMR shielding tensors so no spin-rotation constants.
 Leave Link  601 at Fri Jul 24 22:08:24 2020, MaxMem=  4026531840 cpu:               1.5 elap:               0.2
 (Enter /opt/ohpc/pub/libs/gaussian/g16-A.03/sandybridge/g16/l9999.exe)

 Test job not archived.
 1\1\GINC-SKYLAKE032\FOpt\ULC-wPBE\CC-pVDZ\C7H5N1S2\RDU230\24-Jul-2020\
 0\\#P uLC-wPBE/cc-pVDZ iop(3/107=0319300000, 3/108=0319300000) opt\\H5
  C7 S2 N1\\0,1\C,-3.1392666601,-0.146665849,0.0000403681\C,-2.78950757
 12,1.1760024183,0.0026560737\C,-1.3783746854,1.3583674287,0.0034468824
 \C,-0.6925639294,0.1686274893,0.0014012551\S,-1.7709488854,-1.18220548
 28,-0.0015302605\C,0.7481881951,-0.0726249621,0.0014703492\N,1.2733728
 802,-1.267482924,-0.0009111674\C,2.6425938201,-1.1929321099,-0.0001935
 853\C,3.1719349403,0.063144476,0.0027714854\S,1.9044772751,1.226493700
 4,0.0048255651\H,-4.1439073995,-0.5719916367,-0.0010016341\H,-3.512824
 4127,1.9938834701,0.0039271906\H,-0.8882846276,2.335183533,0.005471516
 8\H,3.2269316496,-2.1160028903,-0.0019969234\H,4.2201504108,0.36153633
 89,0.0036898843\\Version=EM64L-G16RevA.03\State=1-A\HF=-1120.395258\S2
 =0.\S2-1=0.\S2A=0.\RMSD=7.445e-09\RMSF=2.505e-05\Dipole=0.1040482,0.55
 41809,0.0011974\Quadrupole=8.2940201,-1.832247,-6.4617731,-0.5207173,0
 .0037321,0.0085772\PG=C01 [X(C7H5N1S2)]\\@


 ARTHROPOD AXIOM: A COMPUTER SYSTEM IS LIKE A SPIDER'S WEB.
 YOU CANNOT PULL ON ONE END WITHOUT MAKING THE OTHER END MOVE.
     -- GREG WETTSTEIN
 Job cpu time:       0 days  0 hours 55 minutes  6.7 seconds.
 Elapsed time:       0 days  0 hours  7 minutes  3.1 seconds.
 File lengths (MBytes):  RWF=     88 Int=      0 D2E=      0 Chk=      8 Scr=      8
 Normal termination of Gaussian 16 at Fri Jul 24 22:08:24 2020.
