 Entering Gaussian System, Link 0=g16
 Input=mols_66_1_13_c-n-cF-cOC_opt_0.gjf
 Output=mols_66_1_13_c-n-cF-cOC_opt_0.log
 Initial command:
 /opt/ohpc/pub/libs/gaussian/g16-A.03/sandybridge/g16/l1.exe "/mnt/gpfs2_4m/scratch/rdu230/ondemand/projects/dihedral_energies/7trial/wtuning/mols_66_1_13_c-n-cF-cOC/Gau-89680.inp" -scrdir="/mnt/gpfs2_4m/scratch/rdu230/ondemand/projects/dihedral_energies/7trial/wtuning/mols_66_1_13_c-n-cF-cOC/"
 Entering Link 1 = /opt/ohpc/pub/libs/gaussian/g16-A.03/sandybridge/g16/l1.exe PID=     89681.
  
 Copyright (c) 1988,1990,1992,1993,1995,1998,2003,2009,2016,
            Gaussian, Inc.  All Rights Reserved.
  
 This is part of the Gaussian(R) 16 program.  It is based on
 the Gaussian(R) 09 system (copyright 2009, Gaussian, Inc.),
 the Gaussian(R) 03 system (copyright 2003, Gaussian, Inc.),
 the Gaussian(R) 98 system (copyright 1998, Gaussian, Inc.),
 the Gaussian(R) 94 system (copyright 1995, Gaussian, Inc.),
 the Gaussian 92(TM) system (copyright 1992, Gaussian, Inc.),
 the Gaussian 90(TM) system (copyright 1990, Gaussian, Inc.),
 the Gaussian 88(TM) system (copyright 1988, Gaussian, Inc.),
 the Gaussian 86(TM) system (copyright 1986, Carnegie Mellon
 University), and the Gaussian 82(TM) system (copyright 1983,
 Carnegie Mellon University). Gaussian is a federally registered
 trademark of Gaussian, Inc.
  
 This software contains proprietary and confidential information,
 including trade secrets, belonging to Gaussian, Inc.
  
 This software is provided under written license and may be
 used, copied, transmitted, or stored only in accord with that
 written license.
  
 The following legend is applicable only to US Government
 contracts under FAR:
  
                    RESTRICTED RIGHTS LEGEND
  
 Use, reproduction and disclosure by the US Government is
 subject to restrictions as set forth in subparagraphs (a)
 and (c) of the Commercial Computer Software - Restricted
 Rights clause in FAR 52.227-19.
  
 Gaussian, Inc.
 340 Quinnipiac St., Bldg. 40, Wallingford CT 06492
  
  
 ---------------------------------------------------------------
 Warning -- This program may not be used in any manner that
 competes with the business of Gaussian, Inc. or will provide
 assistance to any competitor of Gaussian, Inc.  The licensee
 of this program is prohibited from giving any competitor of
 Gaussian, Inc. access to this program.  By using this program,
 the user acknowledges that Gaussian, Inc. is engaged in the
 business of creating and licensing software in the field of
 computational chemistry and represents and warrants to the
 licensee that it is not a competitor of Gaussian, Inc. and that
 it will not use this program in any manner prohibited above.
 ---------------------------------------------------------------
  

 Cite this work as:
 Gaussian 16, Revision A.03,
 M. J. Frisch, G. W. Trucks, H. B. Schlegel, G. E. Scuseria, 
 M. A. Robb, J. R. Cheeseman, G. Scalmani, V. Barone, 
 G. A. Petersson, H. Nakatsuji, X. Li, M. Caricato, A. V. Marenich, 
 J. Bloino, B. G. Janesko, R. Gomperts, B. Mennucci, H. P. Hratchian, 
 J. V. Ortiz, A. F. Izmaylov, J. L. Sonnenberg, D. Williams-Young, 
 F. Ding, F. Lipparini, F. Egidi, J. Goings, B. Peng, A. Petrone, 
 T. Henderson, D. Ranasinghe, V. G. Zakrzewski, J. Gao, N. Rega, 
 G. Zheng, W. Liang, M. Hada, M. Ehara, K. Toyota, R. Fukuda, 
 J. Hasegawa, M. Ishida, T. Nakajima, Y. Honda, O. Kitao, H. Nakai, 
 T. Vreven, K. Throssell, J. A. Montgomery, Jr., J. E. Peralta, 
 F. Ogliaro, M. J. Bearpark, J. J. Heyd, E. N. Brothers, K. N. Kudin, 
 V. N. Staroverov, T. A. Keith, R. Kobayashi, J. Normand, 
 K. Raghavachari, A. P. Rendell, J. C. Burant, S. S. Iyengar, 
 J. Tomasi, M. Cossi, J. M. Millam, M. Klene, C. Adamo, R. Cammi, 
 J. W. Ochterski, R. L. Martin, K. Morokuma, O. Farkas, 
 J. B. Foresman, and D. J. Fox, Gaussian, Inc., Wallingford CT, 2016.
 
 ******************************************
 Gaussian 16:  EM64L-G16RevA.03 25-Dec-2016
                25-Jul-2020 
 ******************************************
 %mem=30GB
 %nproc=8
 Will use up to    8 processors via shared memory.
 ---------------------------------------------------------------
 #P uLC-wPBE/cc-pVDZ iop(3/107=0139700000, 3/108=0139700000) opt
 ---------------------------------------------------------------
 1/18=20,19=15,26=3,38=1/1,3;
 2/9=110,12=2,17=6,18=5,40=1/2;
 3/5=16,11=2,25=1,30=1,71=1,74=-41,107=139700000,108=139700000,116=2/1,2,3;
 4//1;
 5/5=2,38=5/2;
 6/7=2,8=2,9=2,10=2,28=1/1;
 7//1,2,3,16;
 1/18=20,19=15,26=3/3(2);
 2/9=110/2;
 99//99;
 2/9=110/2;
 3/5=16,11=2,25=1,30=1,71=1,74=-41,107=139700000,108=139700000,116=2/1,2,3;
 4/5=5,16=3,69=1/1;
 5/5=2,38=5/2;
 7//1,2,3,16;
 1/18=20,19=15,26=3/3(-5);
 2/9=110/2;
 6/7=2,8=2,9=2,10=2,19=2,28=1/1;
 99/9=1/99;
 Leave Link    1 at Sat Jul 25 08:49:03 2020, MaxMem=  4026531840 cpu:               1.2 elap:               0.2
 (Enter /opt/ohpc/pub/libs/gaussian/g16-A.03/sandybridge/g16/l101.exe)
 ----------------
 H10 C12 N1 O1 F1
 ----------------
 Symbolic Z-matrix:
 Charge =  0 Multiplicity = 1
 C                     3.68375  -0.13952  -0.23816 
 C                     2.98354   0.7417    0.58047 
 C                     1.60963   0.58954   0.70408 
 F                     0.96924   1.38974   1.44398 
 C                     0.96827  -0.40925  -0.08855 
 N                     1.6538   -1.3521   -0.83663 
 C                     2.92906  -1.13259  -0.90663 
 C                    -0.5439   -0.63524  -0.02397 
 C                    -1.02341  -1.87211   0.32533 
 C                    -2.3593   -2.20381   0.47515 
 C                    -3.31808  -1.10541   0.20977 
 C                    -2.82531   0.17681  -0.15763 
 C                    -1.41334   0.37297  -0.21901 
 O                    -0.91223   1.64795  -0.59473 
 C                    -1.8231    2.74163  -0.74958 
 H                     4.79844  -0.0898   -0.3774 
 H                     3.46571   1.47692   1.05333 
 H                     3.41649  -1.8783   -1.54066 
 H                    -0.30798  -2.6839    0.50553 
 H                    -2.77107  -3.17748   0.72597 
 H                    -4.35398  -1.37634   0.24813 
 H                    -3.605     0.89535  -0.2995 
 H                    -2.529     2.59258  -1.58544 
 H                    -2.40437   2.86418   0.25494 
 H                    -1.21363   3.59893  -0.89084 
 
 ITRead=  0  0  0  0  0  0  0  0  0  0  0  0  0  0  0  0  0  0  0  0
 ITRead=  0  0  0  0  0
 MicOpt= -1 -1 -1 -1 -1 -1 -1 -1 -1 -1 -1 -1 -1 -1 -1 -1 -1 -1 -1 -1
 MicOpt= -1 -1 -1 -1 -1
 NAtoms=     25 NQM=       25 NQMF=       0 NMMI=      0 NMMIF=      0
                NMic=       0 NMicF=      0.
                    Isotopes and Nuclear Properties:
 (Nuclear quadrupole moments (NQMom) in fm**2, nuclear magnetic moments (NMagM)
  in nuclear magnetons)

  Atom         1           2           3           4           5           6           7           8           9          10
 IAtWgt=          12          12          12          19          12          14          12          12          12          12
 AtmWgt=  12.0000000  12.0000000  12.0000000  18.9984033  12.0000000  14.0030740  12.0000000  12.0000000  12.0000000  12.0000000
 NucSpn=           0           0           0           1           0           2           0           0           0           0
 AtZEff=  -0.0000000  -0.0000000  -0.0000000  -0.0000000  -0.0000000  -0.0000000  -0.0000000  -0.0000000  -0.0000000  -0.0000000
 NQMom=    0.0000000   0.0000000   0.0000000   0.0000000   0.0000000   2.0440000   0.0000000   0.0000000   0.0000000   0.0000000
 NMagM=    0.0000000   0.0000000   0.0000000   2.6288670   0.0000000   0.4037610   0.0000000   0.0000000   0.0000000   0.0000000
 AtZNuc=   6.0000000   6.0000000   6.0000000   9.0000000   6.0000000   7.0000000   6.0000000   6.0000000   6.0000000   6.0000000

  Atom        11          12          13          14          15          16          17          18          19          20
 IAtWgt=          12          12          12          16          12           1           1           1           1           1
 AtmWgt=  12.0000000  12.0000000  12.0000000  15.9949146  12.0000000   1.0078250   1.0078250   1.0078250   1.0078250   1.0078250
 NucSpn=           0           0           0           0           0           1           1           1           1           1
 AtZEff=  -0.0000000  -0.0000000  -0.0000000  -0.0000000  -0.0000000  -0.0000000  -0.0000000  -0.0000000  -0.0000000  -0.0000000
 NQMom=    0.0000000   0.0000000   0.0000000   0.0000000   0.0000000   0.0000000   0.0000000   0.0000000   0.0000000   0.0000000
 NMagM=    0.0000000   0.0000000   0.0000000   0.0000000   0.0000000   2.7928460   2.7928460   2.7928460   2.7928460   2.7928460
 AtZNuc=   6.0000000   6.0000000   6.0000000   8.0000000   6.0000000   1.0000000   1.0000000   1.0000000   1.0000000   1.0000000

  Atom        21          22          23          24          25
 IAtWgt=           1           1           1           1           1
 AtmWgt=   1.0078250   1.0078250   1.0078250   1.0078250   1.0078250
 NucSpn=           1           1           1           1           1
 AtZEff=  -0.0000000  -0.0000000  -0.0000000  -0.0000000  -0.0000000
 NQMom=    0.0000000   0.0000000   0.0000000   0.0000000   0.0000000
 NMagM=    2.7928460   2.7928460   2.7928460   2.7928460   2.7928460
 AtZNuc=   1.0000000   1.0000000   1.0000000   1.0000000   1.0000000
 Leave Link  101 at Sat Jul 25 08:49:03 2020, MaxMem=  4026531840 cpu:               2.8 elap:               0.4
 (Enter /opt/ohpc/pub/libs/gaussian/g16-A.03/sandybridge/g16/l103.exe)

 GradGradGradGradGradGradGradGradGradGradGradGradGradGradGradGradGradGrad
 Berny optimization.
 Initialization pass.
                           ----------------------------
                           !    Initial Parameters    !
                           ! (Angstroms and Degrees)  !
 --------------------------                            --------------------------
 ! Name  Definition              Value          Derivative Info.                !
 --------------------------------------------------------------------------------
 ! R1    R(1,2)                  1.3918         estimate D2E/DX2                !
 ! R2    R(1,7)                  1.4151         estimate D2E/DX2                !
 ! R3    R(1,16)                 1.1245         estimate D2E/DX2                !
 ! R4    R(2,3)                  1.3878         estimate D2E/DX2                !
 ! R5    R(2,17)                 0.9983         estimate D2E/DX2                !
 ! R6    R(3,4)                  1.2641         estimate D2E/DX2                !
 ! R7    R(3,5)                  1.4273         estimate D2E/DX2                !
 ! R8    R(5,6)                  1.3851         estimate D2E/DX2                !
 ! R9    R(5,8)                  1.5303         estimate D2E/DX2                !
 ! R10   R(6,7)                  1.2959         estimate D2E/DX2                !
 ! R11   R(7,18)                 1.0935         estimate D2E/DX2                !
 ! R12   R(8,9)                  1.3718         estimate D2E/DX2                !
 ! R13   R(8,13)                 1.3455         estimate D2E/DX2                !
 ! R14   R(9,10)                 1.3846         estimate D2E/DX2                !
 ! R15   R(9,19)                 1.097          estimate D2E/DX2                !
 ! R16   R(10,11)                1.4819         estimate D2E/DX2                !
 ! R17   R(10,20)                1.0865         estimate D2E/DX2                !
 ! R18   R(11,12)                1.4219         estimate D2E/DX2                !
 ! R19   R(11,21)                1.0714         estimate D2E/DX2                !
 ! R20   R(12,13)                1.4269         estimate D2E/DX2                !
 ! R21   R(12,22)                1.0697         estimate D2E/DX2                !
 ! R22   R(13,14)                1.4205         estimate D2E/DX2                !
 ! R23   R(14,15)                1.4317         estimate D2E/DX2                !
 ! R24   R(15,23)                1.1042         estimate D2E/DX2                !
 ! R25   R(15,24)                1.167          estimate D2E/DX2                !
 ! R26   R(15,25)                1.0613         estimate D2E/DX2                !
 ! A1    A(2,1,7)              116.9925         estimate D2E/DX2                !
 ! A2    A(2,1,16)             122.9275         estimate D2E/DX2                !
 ! A3    A(7,1,16)             120.0797         estimate D2E/DX2                !
 ! A4    A(1,2,3)              118.7529         estimate D2E/DX2                !
 ! A5    A(1,2,17)             120.1272         estimate D2E/DX2                !
 ! A6    A(3,2,17)             121.1107         estimate D2E/DX2                !
 ! A7    A(2,3,4)              118.9641         estimate D2E/DX2                !
 ! A8    A(2,3,5)              118.1708         estimate D2E/DX2                !
 ! A9    A(4,3,5)              122.7104         estimate D2E/DX2                !
 ! A10   A(3,5,6)              123.6333         estimate D2E/DX2                !
 ! A11   A(3,5,8)              121.5957         estimate D2E/DX2                !
 ! A12   A(6,5,8)              114.2879         estimate D2E/DX2                !
 ! A13   A(5,6,7)              113.6351         estimate D2E/DX2                !
 ! A14   A(1,7,6)              128.1814         estimate D2E/DX2                !
 ! A15   A(1,7,18)             120.9807         estimate D2E/DX2                !
 ! A16   A(6,7,18)             110.7607         estimate D2E/DX2                !
 ! A17   A(5,8,9)              119.2948         estimate D2E/DX2                !
 ! A18   A(5,8,13)             121.4483         estimate D2E/DX2                !
 ! A19   A(9,8,13)             119.1208         estimate D2E/DX2                !
 ! A20   A(8,9,10)             125.5081         estimate D2E/DX2                !
 ! A21   A(8,9,19)             118.7578         estimate D2E/DX2                !
 ! A22   A(10,9,19)            115.734          estimate D2E/DX2                !
 ! A23   A(9,10,11)            115.2953         estimate D2E/DX2                !
 ! A24   A(9,10,20)            127.2519         estimate D2E/DX2                !
 ! A25   A(11,10,20)           117.4101         estimate D2E/DX2                !
 ! A26   A(10,11,12)           119.368          estimate D2E/DX2                !
 ! A27   A(10,11,21)           115.5747         estimate D2E/DX2                !
 ! A28   A(12,11,21)           124.913          estimate D2E/DX2                !
 ! A29   A(11,12,13)           118.5563         estimate D2E/DX2                !
 ! A30   A(11,12,22)           112.7917         estimate D2E/DX2                !
 ! A31   A(13,12,22)           128.5506         estimate D2E/DX2                !
 ! A32   A(8,13,12)            122.0174         estimate D2E/DX2                !
 ! A33   A(8,13,14)            118.8772         estimate D2E/DX2                !
 ! A34   A(12,13,14)           118.9378         estimate D2E/DX2                !
 ! A35   A(13,14,15)           119.3278         estimate D2E/DX2                !
 ! A36   A(14,15,23)           112.6738         estimate D2E/DX2                !
 ! A37   A(14,15,24)           107.6986         estimate D2E/DX2                !
 ! A38   A(14,15,25)           105.4324         estimate D2E/DX2                !
 ! A39   A(23,15,24)           110.3256         estimate D2E/DX2                !
 ! A40   A(23,15,25)           112.0497         estimate D2E/DX2                !
 ! A41   A(24,15,25)           108.4072         estimate D2E/DX2                !
 ! D1    D(7,1,2,3)              0.6923         estimate D2E/DX2                !
 ! D2    D(7,1,2,17)          -178.2176         estimate D2E/DX2                !
 ! D3    D(16,1,2,3)          -179.0956         estimate D2E/DX2                !
 ! D4    D(16,1,2,17)            1.9946         estimate D2E/DX2                !
 ! D5    D(2,1,7,6)             -1.5411         estimate D2E/DX2                !
 ! D6    D(2,1,7,18)          -178.0376         estimate D2E/DX2                !
 ! D7    D(16,1,7,6)           178.2531         estimate D2E/DX2                !
 ! D8    D(16,1,7,18)            1.7566         estimate D2E/DX2                !
 ! D9    D(1,2,3,4)           -179.8278         estimate D2E/DX2                !
 ! D10   D(1,2,3,5)             -4.2243         estimate D2E/DX2                !
 ! D11   D(17,2,3,4)            -0.9291         estimate D2E/DX2                !
 ! D12   D(17,2,3,5)           174.6744         estimate D2E/DX2                !
 ! D13   D(2,3,5,6)              9.0072         estimate D2E/DX2                !
 ! D14   D(2,3,5,8)           -179.4276         estimate D2E/DX2                !
 ! D15   D(4,3,5,6)           -175.5648         estimate D2E/DX2                !
 ! D16   D(4,3,5,8)             -3.9995         estimate D2E/DX2                !
 ! D17   D(3,5,6,7)             -9.2774         estimate D2E/DX2                !
 ! D18   D(8,5,6,7)            178.6011         estimate D2E/DX2                !
 ! D19   D(3,5,8,9)           -121.6931         estimate D2E/DX2                !
 ! D20   D(3,5,8,13)            54.0266         estimate D2E/DX2                !
 ! D21   D(6,5,8,9)             50.6068         estimate D2E/DX2                !
 ! D22   D(6,5,8,13)          -133.6735         estimate D2E/DX2                !
 ! D23   D(5,6,7,1)              5.5952         estimate D2E/DX2                !
 ! D24   D(5,6,7,18)          -177.6167         estimate D2E/DX2                !
 ! D25   D(5,8,9,10)           177.2839         estimate D2E/DX2                !
 ! D26   D(5,8,9,19)            -2.7827         estimate D2E/DX2                !
 ! D27   D(13,8,9,10)            1.4636         estimate D2E/DX2                !
 ! D28   D(13,8,9,19)         -178.6029         estimate D2E/DX2                !
 ! D29   D(5,8,13,12)         -179.8093         estimate D2E/DX2                !
 ! D30   D(5,8,13,14)            4.9489         estimate D2E/DX2                !
 ! D31   D(9,8,13,12)           -4.0823         estimate D2E/DX2                !
 ! D32   D(9,8,13,14)         -179.3241         estimate D2E/DX2                !
 ! D33   D(8,9,10,11)            0.8081         estimate D2E/DX2                !
 ! D34   D(8,9,10,20)          178.3529         estimate D2E/DX2                !
 ! D35   D(19,9,10,11)        -179.1272         estimate D2E/DX2                !
 ! D36   D(19,9,10,20)          -1.5823         estimate D2E/DX2                !
 ! D37   D(9,10,11,12)          -0.5114         estimate D2E/DX2                !
 ! D38   D(9,10,11,21)         175.3371         estimate D2E/DX2                !
 ! D39   D(20,10,11,12)       -178.3102         estimate D2E/DX2                !
 ! D40   D(20,10,11,21)         -2.4616         estimate D2E/DX2                !
 ! D41   D(10,11,12,13)         -1.8776         estimate D2E/DX2                !
 ! D42   D(10,11,12,22)       -178.5278         estimate D2E/DX2                !
 ! D43   D(21,11,12,13)       -177.3102         estimate D2E/DX2                !
 ! D44   D(21,11,12,22)          6.0396         estimate D2E/DX2                !
 ! D45   D(11,12,13,8)           4.3016         estimate D2E/DX2                !
 ! D46   D(11,12,13,14)        179.5406         estimate D2E/DX2                !
 ! D47   D(22,12,13,8)        -179.6482         estimate D2E/DX2                !
 ! D48   D(22,12,13,14)         -4.4092         estimate D2E/DX2                !
 ! D49   D(8,13,14,15)        -177.3731         estimate D2E/DX2                !
 ! D50   D(12,13,14,15)          7.2366         estimate D2E/DX2                !
 ! D51   D(13,14,15,23)        -65.3693         estimate D2E/DX2                !
 ! D52   D(13,14,15,24)         56.5328         estimate D2E/DX2                !
 ! D53   D(13,14,15,25)        172.1239         estimate D2E/DX2                !
 --------------------------------------------------------------------------------
 Trust Radius=3.00D-01 FncErr=1.00D-07 GrdErr=1.00D-06 EigMax=2.50D+02 EigMin=1.00D-04
 Number of steps in this run=    130 maximum allowed number of steps=    150.
 GradGradGradGradGradGradGradGradGradGradGradGradGradGradGradGradGradGrad

 Leave Link  103 at Sat Jul 25 08:49:03 2020, MaxMem=  4026531840 cpu:               0.1 elap:               0.0
 (Enter /opt/ohpc/pub/libs/gaussian/g16-A.03/sandybridge/g16/l202.exe)
                          Input orientation:                          
 ---------------------------------------------------------------------
 Center     Atomic      Atomic             Coordinates (Angstroms)
 Number     Number       Type             X           Y           Z
 ---------------------------------------------------------------------
      1          6           0        3.683747   -0.139524   -0.238157
      2          6           0        2.983542    0.741701    0.580469
      3          6           0        1.609625    0.589541    0.704083
      4          9           0        0.969235    1.389740    1.443975
      5          6           0        0.968269   -0.409254   -0.088547
      6          7           0        1.653797   -1.352103   -0.836629
      7          6           0        2.929064   -1.132592   -0.906627
      8          6           0       -0.543900   -0.635244   -0.023968
      9          6           0       -1.023410   -1.872106    0.325332
     10          6           0       -2.359299   -2.203806    0.475145
     11          6           0       -3.318083   -1.105411    0.209768
     12          6           0       -2.825312    0.176809   -0.157627
     13          6           0       -1.413337    0.372972   -0.219007
     14          8           0       -0.912229    1.647948   -0.594734
     15          6           0       -1.823104    2.741629   -0.749575
     16          1           0        4.798439   -0.089798   -0.377401
     17          1           0        3.465706    1.476920    1.053325
     18          1           0        3.416490   -1.878301   -1.540655
     19          1           0       -0.307977   -2.683902    0.505532
     20          1           0       -2.771067   -3.177475    0.725974
     21          1           0       -4.353975   -1.376340    0.248130
     22          1           0       -3.605004    0.895354   -0.299503
     23          1           0       -2.529000    2.592575   -1.585438
     24          1           0       -2.404368    2.864183    0.254944
     25          1           0       -1.213632    3.598934   -0.890842
 ---------------------------------------------------------------------
                    Distance matrix (angstroms):
                    1          2          3          4          5
     1  C    0.000000
     2  C    1.391759   0.000000
     3  C    2.391931   1.387833   0.000000
     4  F    3.540733   2.285395   1.264064   0.000000
     5  C    2.732939   2.415286   1.427302   2.363261   0.000000
     6  N    2.439101   2.856642   2.479057   3.631457   1.385114
     7  C    1.415126   2.393198   2.702045   3.965907   2.244368
     8  C    4.261997   3.834602   2.582213   2.923182   1.530326
     9  C    5.047444   4.790902   3.624366   3.982667   2.505597
    10  C    6.425610   6.101889   4.858761   4.993130   3.822417
    11  C    7.082316   6.577212   5.234455   5.111765   4.352751
    12  C    6.517239   5.882744   4.536690   4.293590   3.839205
    13  C    5.122820   4.484157   3.168169   3.078307   2.510168
    14  O    4.944209   4.168863   3.027689   2.786200   2.832769
    15  C    6.236024   5.373321   4.304443   3.799529   4.261078
    16  H    1.124455   2.214217   3.435061   4.491018   3.854308
    17  H    2.080471   0.998310   2.086731   2.528354   3.331473
    18  H    2.188898   3.398679   3.793923   5.057387   3.203202
    19  H    4.791742   4.751260   3.798954   4.371099   2.675025
    20  H    7.198841   6.963953   5.777660   5.946834   4.723254
    21  H    8.146850   7.644325   6.295801   6.117010   5.419861
    22  H    7.362108   6.648827   5.319122   4.920142   4.760392
    23  H    6.919375   6.205240   5.136367   4.781402   4.845880
    24  H    6.806655   5.800041   4.635500   3.868976   4.712542
    25  H    6.195675   5.286285   4.423914   3.885462   4.633567
                    6          7          8          9         10
     6  N    0.000000
     7  C    1.295913   0.000000
     8  C    2.450342   3.617723   0.000000
     9  C    2.964455   4.205550   1.371775   0.000000
    10  C    4.307097   5.569881   2.450546   1.384582   0.000000
    11  C    5.086786   6.346174   2.823434   2.422127   1.481946
    12  C    4.781321   5.948813   2.425311   2.770948   2.506970
    13  C    3.572765   4.647149   1.345534   2.342802   2.831338
    14  O    3.955162   4.752285   2.382101   3.640009   4.251431
    15  C    5.371691   6.133299   3.683224   4.804320   5.122965
    16  H    3.419514   2.205008   5.381729   6.128979   7.511929
    17  H    3.854648   3.307408   4.658190   5.647841   6.914674
    18  H    1.969676   1.093461   4.419301   4.816083   6.126103
    19  H    2.724636   3.857355   2.129091   1.096964   2.106974
    20  H    5.035189   6.272035   3.462026   2.217838   1.086508
    21  H    6.104966   7.378044   3.891007   3.368146   2.171398
    22  H    5.744089   6.868421   3.433512   3.835868   3.428798
    23  H    5.798016   6.642900   4.098491   5.084409   5.223033
    24  H    5.952924   6.765276   3.973050   4.934008   5.072971
    25  H    5.721700   6.288841   4.373588   5.607811   6.070442
                   11         12         13         14         15
    11  C    0.000000
    12  C    1.421932   0.000000
    13  C    2.448984   1.426857   0.000000
    14  O    3.743841   2.452590   1.420508   0.000000
    15  C    4.237336   2.816580   2.461696   1.431715   0.000000
    16  H    8.200864   7.631576   6.231004   5.973167   7.211125
    17  H    7.307518   6.537094   5.161646   4.680990   5.729001
    18  H    7.001129   6.715381   5.490192   5.662774   7.030143
    19  H    3.411722   3.867871   3.330354   4.510059   5.771247
    20  H    2.204347   3.469137   3.916898   5.337064   6.173465
    21  H    1.071423   2.216691   3.453355   4.658578   4.935422
    22  H    2.084404   1.069745   2.254499   2.811511   2.605084
    23  H    4.185752   2.821767   2.835220   2.118434   1.104162
    24  H    4.073646   2.751252   2.722665   2.104200   1.167024
    25  H    5.269812   3.853058   3.301223   1.996214   1.061313
                   16         17         18         19         20
    16  H    0.000000
    17  H    2.505546   0.000000
    18  H    2.541985   4.241304   0.000000
    19  H    5.795208   5.643864   4.325220   0.000000
    20  H    8.249158   7.788959   6.716496   2.521710   0.000000
    21  H    9.263539   8.362825   7.989483   4.259821   2.444999
    22  H    8.461350   7.222417   7.650817   4.932499   4.281938
    23  H    7.895938   6.644114   7.439058   6.094777   6.220506
    24  H    7.810653   6.084380   7.719956   5.936236   6.071076
    25  H    7.072154   5.493536   7.201416   6.499546   7.138586
                   21         22         23         24         25
    21  H    0.000000
    22  H    2.453865   0.000000
    23  H    4.737593   2.385786   0.000000
    24  H    4.667231   2.371756   1.864487   0.000000
    25  H    5.992692   3.657552   1.795944   1.808463   0.000000
 Stoichiometry    C12H10FNO
 Framework group  C1[X(C12H10FNO)]
 Deg. of freedom    69
 Full point group                 C1      NOp   1
 Largest Abelian subgroup         C1      NOp   1
 Largest concise Abelian subgroup C1      NOp   1
                         Standard orientation:                         
 ---------------------------------------------------------------------
 Center     Atomic      Atomic             Coordinates (Angstroms)
 Number     Number       Type             X           Y           Z
 ---------------------------------------------------------------------
      1          6           0        3.675530   -0.168026   -0.250083
      2          6           0        2.982341    0.712841    0.574875
      3          6           0        1.608080    0.566953    0.702173
      4          9           0        0.974051    1.366866    1.447829
      5          6           0        0.959226   -0.424917   -0.093046
      6          7           0        1.637654   -1.367663   -0.847701
      7          6           0        2.913774   -1.154185   -0.920755
      8          6           0       -0.553841   -0.643668   -0.024684
      9          6           0       -1.038415   -1.879744    0.320383
     10          6           0       -2.375463   -2.205479    0.472921
     11          6           0       -3.329583   -1.101092    0.215732
     12          6           0       -2.831578    0.180360   -0.147260
     13          6           0       -1.418842    0.369769   -0.212241
     14          8           0       -0.912563    1.643974   -0.583626
     15          6           0       -1.818448    2.742893   -0.730455
     16          1           0        4.790009   -0.123206   -0.392659
     17          1           0        3.469673    1.443429    1.049606
     18          1           0        3.395451   -1.899342   -1.559806
     19          1           0       -0.326480   -2.695929    0.494509
     20          1           0       -2.791294   -3.178246    0.720527
     21          1           0       -4.366689   -1.367031    0.256145
     22          1           0       -3.608115    0.903437   -0.283292
     23          1           0       -2.527731    2.601268   -1.564741
     24          1           0       -2.395899    2.863645    0.276478
     25          1           0       -1.205150    3.597801   -0.869676
 ---------------------------------------------------------------------
 Rotational constants (GHZ):           1.0194628           0.4787990           0.3715886
 Leave Link  202 at Sat Jul 25 08:49:03 2020, MaxMem=  4026531840 cpu:               0.1 elap:               0.0
 (Enter /opt/ohpc/pub/libs/gaussian/g16-A.03/sandybridge/g16/l301.exe)
 Standard basis: CC-pVDZ (5D, 7F)
 Ernie: Thresh=  0.10000D-02 Tol=  0.10000D-05 Strict=F.
 Ernie:  30 primitive shells out of 380 were deleted.
 There are   275 symmetry adapted cartesian basis functions of A   symmetry.
 There are   260 symmetry adapted basis functions of A   symmetry.
   260 basis functions,   565 primitive gaussians,   275 cartesian basis functions
    53 alpha electrons       53 beta electrons
       nuclear repulsion energy       945.8926329422 Hartrees.
 IExCor=32609 DFT=T Ex+Corr=LC-wPBE ExCW=0 ScaHFX=  1.000000
 ScaDFX=  1.000000  0.000000  1.000000  1.000000 ScalE2=  1.000000  1.000000
 IRadAn=      5 IRanWt=     -1 IRanGd=            0 ICorTp=0 IEmpDi=  4
 HFx  wShort=  0.000000 wLong=  0.139700 cFull=  0.000000 cShort=  0.000000 cLong=  1.000000
 DFx  wShort=  0.000000 wLong=  0.139700 cFull=  0.000000 cShort=  0.000000 cLong=  1.000000
 NAtoms=   25 NActive=   25 NUniq=   25 SFac= 1.00D+00 NAtFMM=   60 NAOKFM=F Big=F
 Integral buffers will be    131072 words long.
 Raffenetti 2 integral format.
 Two-electron integral symmetry is turned on.
 Leave Link  301 at Sat Jul 25 08:49:03 2020, MaxMem=  4026531840 cpu:               0.4 elap:               0.1
 (Enter /opt/ohpc/pub/libs/gaussian/g16-A.03/sandybridge/g16/l302.exe)
 NPDir=0 NMtPBC=     1 NCelOv=     1 NCel=       1 NClECP=     1 NCelD=      1
         NCelK=      1 NCelE2=     1 NClLst=     1 CellRange=     0.0.
 One-electron integrals computed using PRISM.
 One-electron integral symmetry used in STVInt
 NBasis=   260 RedAO= T EigKep=  3.18D-04  NBF=   260
 NBsUse=   260 1.00D-06 EigRej= -1.00D+00 NBFU=   260
 Precomputing XC quadrature grid using
 IXCGrd= 4 IRadAn=           5 IRanWt=          -1 IRanGd=           0 AccXCQ= 0.00D+00.
 Generated NRdTot=       0 NPtTot=           0 NUsed=           0 NTot=          32
 NSgBfM=   274   274   274   274   274 MxSgAt=    25 MxSgA2=    25.
 Leave Link  302 at Sat Jul 25 08:49:03 2020, MaxMem=  4026531840 cpu:               2.4 elap:               0.3
 (Enter /opt/ohpc/pub/libs/gaussian/g16-A.03/sandybridge/g16/l303.exe)
 DipDrv:  MaxL=1.
 Leave Link  303 at Sat Jul 25 08:49:04 2020, MaxMem=  4026531840 cpu:               0.4 elap:               0.1
 (Enter /opt/ohpc/pub/libs/gaussian/g16-A.03/sandybridge/g16/l401.exe)
 ExpMin= 1.22D-01 ExpMax= 1.47D+04 ExpMxC= 5.03D+02 IAcc=3 IRadAn=         5 AccDes= 0.00D+00
 Harris functional with IExCor=32609 and IRadAn=       5 diagonalized for initial guess.
 HarFok:  IExCor=32609 AccDes= 0.00D+00 IRadAn=         5 IDoV= 1 UseB2=F ITyADJ=14
 ICtDFT=  3500011 ScaDFX=  1.000000  1.000000  1.000000  1.000000
 FoFCou: FMM=F IPFlag=           0 FMFlag=      100000 FMFlg1=           0
         NFxFlg=           0 DoJE=T BraDBF=F KetDBF=T FulRan=T
         wScrn=  0.000000 ICntrl=       500 IOpCl=  0 I1Cent=   200000004 NGrid=           0
         NMat0=    1 NMatS0=      1 NMatT0=    0 NMatD0=    1 NMtDS0=    0 NMtDT0=    0
 Petite list used in FoFCou.
 Harris En= -692.511541124524    
 JPrj=0 DoOrth=F DoCkMO=F.
 Initial guess <Sx>= 0.0000 <Sy>= 0.0000 <Sz>= 0.0000 <S**2>=-0.0000 S=-0.0000
 Leave Link  401 at Sat Jul 25 08:49:05 2020, MaxMem=  4026531840 cpu:              14.8 elap:               1.9
 (Enter /opt/ohpc/pub/libs/gaussian/g16-A.03/sandybridge/g16/l502.exe)
 Integral symmetry usage will be decided dynamically.
 UHF open shell SCF:
 Using DIIS extrapolation, IDIIS=  1040.
 NGot=  4026531840 LenX=  4026375413 LenY=  4026299347
 Requested convergence on RMS density matrix=1.00D-08 within 128 cycles.
 Requested convergence on MAX density matrix=1.00D-06.
 Requested convergence on             energy=1.00D-06.
 No special actions if energy rises.
 Fock matrices will be formed incrementally for  20 cycles.
 Integral accuracy reduced to 1.0D-05 until final iterations.

 Cycle   1  Pass 0  IDiag  1:
 FoFJK:  IHMeth= 1 ICntrl=       0 DoSepK=T KAlg= 0 I1Cent=           0 FoldK=F
 IRaf=         1 NMat=       1 IRICut=       1 DoRegI=T DoRafI=F ISym2E= 0 IDoP0=0 IntGTp=1.
 FoFCou: FMM=F IPFlag=           0 FMFlag=      100000 FMFlg1=           0
         NFxFlg=           0 DoJE=T BraDBF=F KetDBF=F FulRan=T
         wScrn=  0.000000 ICntrl=       500 IOpCl=  0 I1Cent=           0 NGrid=           0
         NMat0=    1 NMatS0=      1 NMatT0=    0 NMatD0=    1 NMtDS0=    0 NMtDT0=    0
 Symmetry not used in FoFCou.
 E= -692.225053526487    
 DIIS: error= 1.98D-02 at cycle   1 NSaved=   1.
 NSaved= 1 IEnMin= 1 EnMin= -692.225053526487     IErMin= 1 ErrMin= 1.98D-02
 ErrMax= 1.98D-02  0.00D+00 EMaxC= 1.00D-01 BMatC= 7.15D-01 BMatP= 7.15D-01
 IDIUse=3 WtCom= 8.02D-01 WtEn= 1.98D-01
 Coeff-Com:  0.100D+01
 Coeff-En:   0.100D+01
 Coeff:      0.100D+01
 Gap=     0.294 Goal=   None    Shift=    0.000
 Gap=     0.294 Goal=   None    Shift=    0.000
 GapD=    0.294 DampG=1.000 DampE=0.500 DampFc=0.5000 IDamp=-1.
 Damping current iteration by 5.00D-01
 RMSDP=3.48D-03 MaxDP=8.02D-02              OVMax= 1.48D-01

 Cycle   2  Pass 0  IDiag  1:
 RMSU=  1.73D-03    CP:  9.89D-01
 E= -692.325148875279     Delta-E=       -0.100095348793 Rises=F Damp=T
 DIIS: error= 3.60D-03 at cycle   2 NSaved=   2.
 NSaved= 2 IEnMin= 2 EnMin= -692.325148875279     IErMin= 2 ErrMin= 3.60D-03
 ErrMax= 3.60D-03  0.00D+00 EMaxC= 1.00D-01 BMatC= 3.99D-02 BMatP= 7.15D-01
 IDIUse=3 WtCom= 9.64D-01 WtEn= 3.60D-02
 Coeff-Com:  0.114D-01 0.989D+00
 Coeff-En:   0.000D+00 0.100D+01
 Coeff:      0.110D-01 0.989D+00
 Gap=     0.284 Goal=   None    Shift=    0.000
 Gap=     0.284 Goal=   None    Shift=    0.000
 RMSDP=1.02D-03 MaxDP=2.14D-02 DE=-1.00D-01 OVMax= 9.43D-02

 Cycle   3  Pass 0  IDiag  1:
 RMSU=  9.78D-04    CP:  9.85D-01  1.16D+00
 E= -692.424416722618     Delta-E=       -0.099267847339 Rises=F Damp=F
 DIIS: error= 4.26D-03 at cycle   3 NSaved=   3.
 NSaved= 3 IEnMin= 3 EnMin= -692.424416722618     IErMin= 2 ErrMin= 3.60D-03
 ErrMax= 4.26D-03  0.00D+00 EMaxC= 1.00D-01 BMatC= 3.46D-02 BMatP= 3.99D-02
 IDIUse=3 WtCom= 9.57D-01 WtEn= 4.26D-02
 Coeff-Com: -0.345D-01 0.497D+00 0.537D+00
 Coeff-En:   0.000D+00 0.000D+00 0.100D+01
 Coeff:     -0.330D-01 0.476D+00 0.557D+00
 Gap=     0.262 Goal=   None    Shift=    0.000
 Gap=     0.262 Goal=   None    Shift=    0.000
 RMSDP=4.93D-04 MaxDP=1.36D-02 DE=-9.93D-02 OVMax= 3.11D-02

 Cycle   4  Pass 0  IDiag  1:
 RMSU=  2.94D-04    CP:  9.87D-01  1.18D+00  5.97D-01
 E= -692.432077448250     Delta-E=       -0.007660725632 Rises=F Damp=F
 DIIS: error= 1.87D-03 at cycle   4 NSaved=   4.
 NSaved= 4 IEnMin= 4 EnMin= -692.432077448250     IErMin= 4 ErrMin= 1.87D-03
 ErrMax= 1.87D-03  0.00D+00 EMaxC= 1.00D-01 BMatC= 4.68D-03 BMatP= 3.46D-02
 IDIUse=3 WtCom= 9.81D-01 WtEn= 1.87D-02
 Coeff-Com: -0.105D-01 0.127D+00 0.298D+00 0.586D+00
 Coeff-En:   0.000D+00 0.000D+00 0.100D+00 0.900D+00
 Coeff:     -0.103D-01 0.125D+00 0.294D+00 0.592D+00
 Gap=     0.259 Goal=   None    Shift=    0.000
 Gap=     0.259 Goal=   None    Shift=    0.000
 RMSDP=1.57D-04 MaxDP=4.10D-03 DE=-7.66D-03 OVMax= 1.03D-02

 Cycle   5  Pass 0  IDiag  1:
 RMSU=  7.39D-05    CP:  9.87D-01  1.18D+00  6.89D-01  6.44D-01
 E= -692.433218817025     Delta-E=       -0.001141368775 Rises=F Damp=F
 DIIS: error= 3.52D-04 at cycle   5 NSaved=   5.
 NSaved= 5 IEnMin= 5 EnMin= -692.433218817025     IErMin= 5 ErrMin= 3.52D-04
 ErrMax= 3.52D-04  0.00D+00 EMaxC= 1.00D-01 BMatC= 2.99D-04 BMatP= 4.68D-03
 IDIUse=3 WtCom= 9.96D-01 WtEn= 3.52D-03
 Coeff-Com: -0.954D-03 0.246D-01 0.106D+00 0.292D+00 0.579D+00
 Coeff-En:   0.000D+00 0.000D+00 0.000D+00 0.000D+00 0.100D+01
 Coeff:     -0.951D-03 0.245D-01 0.106D+00 0.291D+00 0.580D+00
 Gap=     0.259 Goal=   None    Shift=    0.000
 Gap=     0.259 Goal=   None    Shift=    0.000
 RMSDP=3.85D-05 MaxDP=1.05D-03 DE=-1.14D-03 OVMax= 2.41D-03

 Cycle   6  Pass 0  IDiag  1:
 RMSU=  2.95D-05    CP:  9.87D-01  1.18D+00  6.93D-01  6.90D-01  7.26D-01
 E= -692.433282242153     Delta-E=       -0.000063425128 Rises=F Damp=F
 DIIS: error= 1.35D-04 at cycle   6 NSaved=   6.
 NSaved= 6 IEnMin= 6 EnMin= -692.433282242153     IErMin= 6 ErrMin= 1.35D-04
 ErrMax= 1.35D-04  0.00D+00 EMaxC= 1.00D-01 BMatC= 2.88D-05 BMatP= 2.99D-04
 IDIUse=3 WtCom= 9.99D-01 WtEn= 1.35D-03
 Coeff-Com:  0.160D-02-0.514D-02 0.131D-01 0.624D-01 0.272D+00 0.656D+00
 Coeff-En:   0.000D+00 0.000D+00 0.000D+00 0.000D+00 0.000D+00 0.100D+01
 Coeff:      0.160D-02-0.513D-02 0.131D-01 0.623D-01 0.271D+00 0.657D+00
 Gap=     0.259 Goal=   None    Shift=    0.000
 Gap=     0.259 Goal=   None    Shift=    0.000
 RMSDP=1.23D-05 MaxDP=3.29D-04 DE=-6.34D-05 OVMax= 8.68D-04

 Cycle   7  Pass 0  IDiag  1:
 RMSU=  8.94D-06    CP:  9.87D-01  1.18D+00  6.95D-01  6.96D-01  8.18D-01
                    CP:  8.57D-01
 E= -692.433289446680     Delta-E=       -0.000007204527 Rises=F Damp=F
 DIIS: error= 3.74D-05 at cycle   7 NSaved=   7.
 NSaved= 7 IEnMin= 7 EnMin= -692.433289446680     IErMin= 7 ErrMin= 3.74D-05
 ErrMax= 3.74D-05  0.00D+00 EMaxC= 1.00D-01 BMatC= 2.38D-06 BMatP= 2.88D-05
 IDIUse=1 WtCom= 1.00D+00 WtEn= 0.00D+00
 Coeff-Com:  0.977D-03-0.421D-02-0.128D-02 0.483D-02 0.694D-01 0.279D+00
 Coeff-Com:  0.652D+00
 Coeff:      0.977D-03-0.421D-02-0.128D-02 0.483D-02 0.694D-01 0.279D+00
 Coeff:      0.652D+00
 Gap=     0.259 Goal=   None    Shift=    0.000
 Gap=     0.259 Goal=   None    Shift=    0.000
 RMSDP=4.70D-06 MaxDP=1.20D-04 DE=-7.20D-06 OVMax= 3.40D-04

 Initial convergence to 1.0D-05 achieved.  Increase integral accuracy.
 Cycle   8  Pass 1  IDiag  1:
 E= -692.433108528242     Delta-E=        0.000180918438 Rises=F Damp=F
 DIIS: error= 5.50D-05 at cycle   1 NSaved=   1.
 NSaved= 1 IEnMin= 1 EnMin= -692.433108528242     IErMin= 1 ErrMin= 5.50D-05
 ErrMax= 5.50D-05  0.00D+00 EMaxC= 1.00D-01 BMatC= 3.19D-06 BMatP= 3.19D-06
 IDIUse=1 WtCom= 1.00D+00 WtEn= 0.00D+00
 Coeff-Com:  0.100D+01
 Coeff:      0.100D+01
 Gap=     0.259 Goal=   None    Shift=    0.000
 Gap=     0.259 Goal=   None    Shift=    0.000
 RMSDP=4.70D-06 MaxDP=1.20D-04 DE= 1.81D-04 OVMax= 2.64D-04

 Cycle   9  Pass 1  IDiag  1:
 RMSU=  5.10D-05    CP:  1.00D+00
 E= -692.433109057883     Delta-E=       -0.000000529640 Rises=F Damp=F
 DIIS: error= 3.09D-05 at cycle   2 NSaved=   2.
 NSaved= 2 IEnMin= 2 EnMin= -692.433109057883     IErMin= 2 ErrMin= 3.09D-05
 ErrMax= 3.09D-05  0.00D+00 EMaxC= 1.00D-01 BMatC= 9.53D-07 BMatP= 3.19D-06
 IDIUse=1 WtCom= 1.00D+00 WtEn= 0.00D+00
 Coeff-Com:  0.283D+00 0.717D+00
 Coeff:      0.283D+00 0.717D+00
 Gap=     0.259 Goal=   None    Shift=    0.000
 Gap=     0.259 Goal=   None    Shift=    0.000
 RMSDP=4.07D-06 MaxDP=1.19D-04 DE=-5.30D-07 OVMax= 1.84D-04

 Cycle  10  Pass 1  IDiag  1:
 RMSU=  3.48D-06    CP:  1.00D+00  1.04D+00
 E= -692.433109137425     Delta-E=       -0.000000079543 Rises=F Damp=F
 DIIS: error= 2.93D-05 at cycle   3 NSaved=   3.
 NSaved= 3 IEnMin= 3 EnMin= -692.433109137425     IErMin= 3 ErrMin= 2.93D-05
 ErrMax= 2.93D-05  0.00D+00 EMaxC= 1.00D-01 BMatC= 7.59D-07 BMatP= 9.53D-07
 IDIUse=1 WtCom= 1.00D+00 WtEn= 0.00D+00
 Coeff-Com: -0.175D-01 0.474D+00 0.544D+00
 Coeff:     -0.175D-01 0.474D+00 0.544D+00
 Gap=     0.259 Goal=   None    Shift=    0.000
 Gap=     0.259 Goal=   None    Shift=    0.000
 RMSDP=1.88D-06 MaxDP=6.35D-05 DE=-7.95D-08 OVMax= 9.94D-05

 Cycle  11  Pass 1  IDiag  1:
 RMSU=  7.39D-07    CP:  1.00D+00  1.06D+00  5.90D-01
 E= -692.433109340125     Delta-E=       -0.000000202700 Rises=F Damp=F
 DIIS: error= 2.85D-06 at cycle   4 NSaved=   4.
 NSaved= 4 IEnMin= 4 EnMin= -692.433109340125     IErMin= 4 ErrMin= 2.85D-06
 ErrMax= 2.85D-06  0.00D+00 EMaxC= 1.00D-01 BMatC= 1.83D-08 BMatP= 7.59D-07
 IDIUse=1 WtCom= 1.00D+00 WtEn= 0.00D+00
 Coeff-Com: -0.167D-01 0.242D+00 0.290D+00 0.485D+00
 Coeff:     -0.167D-01 0.242D+00 0.290D+00 0.485D+00
 Gap=     0.259 Goal=   None    Shift=    0.000
 Gap=     0.259 Goal=   None    Shift=    0.000
 RMSDP=2.86D-07 MaxDP=7.39D-06 DE=-2.03D-07 OVMax= 2.03D-05

 Cycle  12  Pass 1  IDiag  1:
 RMSU=  2.62D-07    CP:  1.00D+00  1.06D+00  6.10D-01  9.39D-01
 E= -692.433109344971     Delta-E=       -0.000000004846 Rises=F Damp=F
 DIIS: error= 9.53D-07 at cycle   5 NSaved=   5.
 NSaved= 5 IEnMin= 5 EnMin= -692.433109344971     IErMin= 5 ErrMin= 9.53D-07
 ErrMax= 9.53D-07  0.00D+00 EMaxC= 1.00D-01 BMatC= 9.79D-10 BMatP= 1.83D-08
 IDIUse=1 WtCom= 1.00D+00 WtEn= 0.00D+00
 Coeff-Com:  0.142D-02-0.618D-01-0.786D-01 0.505D-01 0.109D+01
 Coeff:      0.142D-02-0.618D-01-0.786D-01 0.505D-01 0.109D+01
 Gap=     0.259 Goal=   None    Shift=    0.000
 Gap=     0.259 Goal=   None    Shift=    0.000
 RMSDP=2.02D-07 MaxDP=3.93D-06 DE=-4.85D-09 OVMax= 2.23D-05

 Cycle  13  Pass 1  IDiag  1:
 RMSU=  1.16D-07    CP:  1.00D+00  1.06D+00  6.13D-01  1.14D+00  1.22D+00
 E= -692.433109345958     Delta-E=       -0.000000000987 Rises=F Damp=F
 DIIS: error= 5.39D-07 at cycle   6 NSaved=   6.
 NSaved= 6 IEnMin= 6 EnMin= -692.433109345958     IErMin= 6 ErrMin= 5.39D-07
 ErrMax= 5.39D-07  0.00D+00 EMaxC= 1.00D-01 BMatC= 4.69D-10 BMatP= 9.79D-10
 IDIUse=1 WtCom= 1.00D+00 WtEn= 0.00D+00
 Coeff-Com:  0.353D-02-0.727D-01-0.909D-01-0.493D-01 0.624D+00 0.585D+00
 Coeff:      0.353D-02-0.727D-01-0.909D-01-0.493D-01 0.624D+00 0.585D+00
 Gap=     0.259 Goal=   None    Shift=    0.000
 Gap=     0.259 Goal=   None    Shift=    0.000
 RMSDP=7.11D-08 MaxDP=1.56D-06 DE=-9.87D-10 OVMax= 7.74D-06

 Cycle  14  Pass 1  IDiag  1:
 RMSU=  5.20D-08    CP:  1.00D+00  1.06D+00  6.16D-01  1.18D+00  1.36D+00
                    CP:  9.66D-01
 E= -692.433109346123     Delta-E=       -0.000000000166 Rises=F Damp=F
 DIIS: error= 1.37D-07 at cycle   7 NSaved=   7.
 NSaved= 7 IEnMin= 7 EnMin= -692.433109346123     IErMin= 7 ErrMin= 1.37D-07
 ErrMax= 1.37D-07  0.00D+00 EMaxC= 1.00D-01 BMatC= 4.52D-11 BMatP= 4.69D-10
 IDIUse=1 WtCom= 1.00D+00 WtEn= 0.00D+00
 Coeff-Com:  0.164D-02-0.302D-01-0.376D-01-0.321D-01 0.180D+00 0.290D+00
 Coeff-Com:  0.628D+00
 Coeff:      0.164D-02-0.302D-01-0.376D-01-0.321D-01 0.180D+00 0.290D+00
 Coeff:      0.628D+00
 Gap=     0.259 Goal=   None    Shift=    0.000
 Gap=     0.259 Goal=   None    Shift=    0.000
 RMSDP=2.16D-08 MaxDP=4.30D-07 DE=-1.66D-10 OVMax= 2.25D-06

 Cycle  15  Pass 1  IDiag  1:
 RMSU=  1.28D-08    CP:  1.00D+00  1.06D+00  6.16D-01  1.19D+00  1.37D+00
                    CP:  1.09D+00  9.95D-01
 E= -692.433109346123     Delta-E=        0.000000000001 Rises=F Damp=F
 DIIS: error= 4.02D-08 at cycle   8 NSaved=   8.
 NSaved= 8 IEnMin= 7 EnMin= -692.433109346123     IErMin= 8 ErrMin= 4.02D-08
 ErrMax= 4.02D-08  0.00D+00 EMaxC= 1.00D-01 BMatC= 4.41D-12 BMatP= 4.52D-11
 IDIUse=1 WtCom= 1.00D+00 WtEn= 0.00D+00
 Coeff-Com:  0.433D-04 0.581D-03 0.754D-03-0.354D-02-0.356D-01 0.168D-01
 Coeff-Com:  0.261D+00 0.760D+00
 Coeff:      0.433D-04 0.581D-03 0.754D-03-0.354D-02-0.356D-01 0.168D-01
 Coeff:      0.261D+00 0.760D+00
 Gap=     0.259 Goal=   None    Shift=    0.000
 Gap=     0.259 Goal=   None    Shift=    0.000
 RMSDP=9.53D-09 MaxDP=1.48D-07 DE= 6.82D-13 OVMax= 7.26D-07

 SCF Done:  E(ULC-wPBE) =  -692.433109346     A.U. after   15 cycles
            NFock= 15  Conv=0.95D-08     -V/T= 2.0059
 <Sx>= 0.0000 <Sy>= 0.0000 <Sz>= 0.0000 <S**2>=-0.0000 S=-0.0000
 <L.S>= 0.000000000000E+00
 KE= 6.883454188006D+02 PE=-3.508926076280D+03 EE= 1.182254915191D+03
 Annihilation of the first spin contaminant:
 S**2 before annihilation    -0.0000,   after    -0.0000
 Leave Link  502 at Sat Jul 25 08:50:30 2020, MaxMem=  4026531840 cpu:             670.8 elap:              84.5
 (Enter /opt/ohpc/pub/libs/gaussian/g16-A.03/sandybridge/g16/l601.exe)
 Copying SCF densities to generalized density rwf, IOpCl= 1 IROHF=0.

 **********************************************************************

            Population analysis using the SCF density.

 **********************************************************************

 Orbital symmetries:
 Alpha Orbitals:
       Occupied  (A) (A) (A) (A) (A) (A) (A) (A) (A) (A) (A) (A)
                 (A) (A) (A) (A) (A) (A) (A) (A) (A) (A) (A) (A)
                 (A) (A) (A) (A) (A) (A) (A) (A) (A) (A) (A) (A)
                 (A) (A) (A) (A) (A) (A) (A) (A) (A) (A) (A) (A)
                 (A) (A) (A) (A) (A)
       Virtual   (A) (A) (A) (A) (A) (A) (A) (A) (A) (A) (A) (A)
                 (A) (A) (A) (A) (A) (A) (A) (A) (A) (A) (A) (A)
                 (A) (A) (A) (A) (A) (A) (A) (A) (A) (A) (A) (A)
                 (A) (A) (A) (A) (A) (A) (A) (A) (A) (A) (A) (A)
                 (A) (A) (A) (A) (A) (A) (A) (A) (A) (A) (A) (A)
                 (A) (A) (A) (A) (A) (A) (A) (A) (A) (A) (A) (A)
                 (A) (A) (A) (A) (A) (A) (A) (A) (A) (A) (A) (A)
                 (A) (A) (A) (A) (A) (A) (A) (A) (A) (A) (A) (A)
                 (A) (A) (A) (A) (A) (A) (A) (A) (A) (A) (A) (A)
                 (A) (A) (A) (A) (A) (A) (A) (A) (A) (A) (A) (A)
                 (A) (A) (A) (A) (A) (A) (A) (A) (A) (A) (A) (A)
                 (A) (A) (A) (A) (A) (A) (A) (A) (A) (A) (A) (A)
                 (A) (A) (A) (A) (A) (A) (A) (A) (A) (A) (A) (A)
                 (A) (A) (A) (A) (A) (A) (A) (A) (A) (A) (A) (A)
                 (A) (A) (A) (A) (A) (A) (A) (A) (A) (A) (A) (A)
                 (A) (A) (A) (A) (A) (A) (A) (A) (A) (A) (A) (A)
                 (A) (A) (A) (A) (A) (A) (A) (A) (A) (A) (A) (A)
                 (A) (A) (A)
 Beta  Orbitals:
       Occupied  (A) (A) (A) (A) (A) (A) (A) (A) (A) (A) (A) (A)
                 (A) (A) (A) (A) (A) (A) (A) (A) (A) (A) (A) (A)
                 (A) (A) (A) (A) (A) (A) (A) (A) (A) (A) (A) (A)
                 (A) (A) (A) (A) (A) (A) (A) (A) (A) (A) (A) (A)
                 (A) (A) (A) (A) (A)
       Virtual   (A) (A) (A) (A) (A) (A) (A) (A) (A) (A) (A) (A)
                 (A) (A) (A) (A) (A) (A) (A) (A) (A) (A) (A) (A)
                 (A) (A) (A) (A) (A) (A) (A) (A) (A) (A) (A) (A)
                 (A) (A) (A) (A) (A) (A) (A) (A) (A) (A) (A) (A)
                 (A) (A) (A) (A) (A) (A) (A) (A) (A) (A) (A) (A)
                 (A) (A) (A) (A) (A) (A) (A) (A) (A) (A) (A) (A)
                 (A) (A) (A) (A) (A) (A) (A) (A) (A) (A) (A) (A)
                 (A) (A) (A) (A) (A) (A) (A) (A) (A) (A) (A) (A)
                 (A) (A) (A) (A) (A) (A) (A) (A) (A) (A) (A) (A)
                 (A) (A) (A) (A) (A) (A) (A) (A) (A) (A) (A) (A)
                 (A) (A) (A) (A) (A) (A) (A) (A) (A) (A) (A) (A)
                 (A) (A) (A) (A) (A) (A) (A) (A) (A) (A) (A) (A)
                 (A) (A) (A) (A) (A) (A) (A) (A) (A) (A) (A) (A)
                 (A) (A) (A) (A) (A) (A) (A) (A) (A) (A) (A) (A)
                 (A) (A) (A) (A) (A) (A) (A) (A) (A) (A) (A) (A)
                 (A) (A) (A) (A) (A) (A) (A) (A) (A) (A) (A) (A)
                 (A) (A) (A) (A) (A) (A) (A) (A) (A) (A) (A) (A)
                 (A) (A) (A)
 The electronic state is 1-A.
 Alpha  occ. eigenvalues --  -24.38547 -18.86964 -14.07729 -10.06545 -10.03513
 Alpha  occ. eigenvalues --  -10.03070 -10.02187 -10.00147  -9.99418  -9.98689
 Alpha  occ. eigenvalues --   -9.98564  -9.98165  -9.98071  -9.97649  -9.97503
 Alpha  occ. eigenvalues --   -1.25222  -1.03581  -0.94574  -0.85849  -0.81788
 Alpha  occ. eigenvalues --   -0.78403  -0.75626  -0.74192  -0.70232  -0.66699
 Alpha  occ. eigenvalues --   -0.65444  -0.62017  -0.60849  -0.57948  -0.55553
 Alpha  occ. eigenvalues --   -0.54576  -0.52345  -0.51827  -0.49896  -0.49329
 Alpha  occ. eigenvalues --   -0.48266  -0.46866  -0.46171  -0.44968  -0.44018
 Alpha  occ. eigenvalues --   -0.43071  -0.42343  -0.41148  -0.40636  -0.38677
 Alpha  occ. eigenvalues --   -0.36643  -0.34860  -0.34265  -0.33136  -0.30615
 Alpha  occ. eigenvalues --   -0.29320  -0.27942  -0.26010
 Alpha virt. eigenvalues --   -0.00095   0.02611   0.04120   0.04746   0.10813
 Alpha virt. eigenvalues --    0.11635   0.12012   0.14130   0.15708   0.16318
 Alpha virt. eigenvalues --    0.16832   0.16994   0.17757   0.18225   0.18666
 Alpha virt. eigenvalues --    0.19043   0.20501   0.21073   0.24470   0.26547
 Alpha virt. eigenvalues --    0.28578   0.29911   0.33221   0.34435   0.35832
 Alpha virt. eigenvalues --    0.36073   0.38089   0.39419   0.40976   0.46263
 Alpha virt. eigenvalues --    0.46436   0.47339   0.47967   0.48349   0.49605
 Alpha virt. eigenvalues --    0.50280   0.50778   0.51096   0.51432   0.52829
 Alpha virt. eigenvalues --    0.53259   0.54200   0.55003   0.55741   0.56182
 Alpha virt. eigenvalues --    0.56972   0.57261   0.58174   0.59230   0.60016
 Alpha virt. eigenvalues --    0.61199   0.61624   0.62024   0.63495   0.63998
 Alpha virt. eigenvalues --    0.64547   0.65681   0.67553   0.67895   0.68590
 Alpha virt. eigenvalues --    0.68900   0.70071   0.71205   0.71631   0.72996
 Alpha virt. eigenvalues --    0.74448   0.75736   0.76279   0.77488   0.79915
 Alpha virt. eigenvalues --    0.82438   0.86110   0.87659   0.88210   0.90028
 Alpha virt. eigenvalues --    0.91410   0.92230   0.92870   0.94188   0.94477
 Alpha virt. eigenvalues --    0.95950   0.96461   0.98278   1.00183   1.01251
 Alpha virt. eigenvalues --    1.02436   1.02620   1.02865   1.04714   1.05436
 Alpha virt. eigenvalues --    1.06110   1.07882   1.10119   1.10382   1.12297
 Alpha virt. eigenvalues --    1.13625   1.15486   1.17446   1.18602   1.19734
 Alpha virt. eigenvalues --    1.21220   1.22486   1.26118   1.28569   1.30875
 Alpha virt. eigenvalues --    1.34948   1.35540   1.37678   1.38740   1.40007
 Alpha virt. eigenvalues --    1.43140   1.44516   1.46218   1.47597   1.48907
 Alpha virt. eigenvalues --    1.49354   1.50373   1.50888   1.51853   1.52559
 Alpha virt. eigenvalues --    1.55038   1.56214   1.57461   1.58254   1.59336
 Alpha virt. eigenvalues --    1.60366   1.62495   1.63507   1.64466   1.64971
 Alpha virt. eigenvalues --    1.65741   1.67365   1.67885   1.68488   1.68889
 Alpha virt. eigenvalues --    1.69659   1.71931   1.72651   1.72805   1.73937
 Alpha virt. eigenvalues --    1.75370   1.75517   1.77444   1.78941   1.79480
 Alpha virt. eigenvalues --    1.81832   1.83539   1.85057   1.85979   1.87290
 Alpha virt. eigenvalues --    1.89081   1.89969   1.90670   1.90941   1.92268
 Alpha virt. eigenvalues --    1.95397   1.95949   1.97061   2.00278   2.02398
 Alpha virt. eigenvalues --    2.03232   2.06017   2.07132   2.08400   2.09084
 Alpha virt. eigenvalues --    2.11998   2.13091   2.20039   2.20730   2.23627
 Alpha virt. eigenvalues --    2.25242   2.27085   2.29114   2.30621   2.34859
 Alpha virt. eigenvalues --    2.36166   2.39164   2.41276   2.42079   2.44080
 Alpha virt. eigenvalues --    2.46478   2.46874   2.50694   2.52277   2.54204
 Alpha virt. eigenvalues --    2.57846   2.61587   2.64634   2.68617   2.71975
 Alpha virt. eigenvalues --    2.78758   2.80195   2.82372   2.85104   2.91670
 Alpha virt. eigenvalues --    2.92865   2.98022   3.02744   3.21911   3.34092
 Alpha virt. eigenvalues --    3.36218   3.54383   3.55530   3.59652   3.79669
 Alpha virt. eigenvalues --    4.04970   4.20322
  Beta  occ. eigenvalues --  -24.38547 -18.86964 -14.07729 -10.06545 -10.03513
  Beta  occ. eigenvalues --  -10.03070 -10.02187 -10.00147  -9.99418  -9.98689
  Beta  occ. eigenvalues --   -9.98564  -9.98165  -9.98071  -9.97649  -9.97503
  Beta  occ. eigenvalues --   -1.25222  -1.03581  -0.94574  -0.85849  -0.81788
  Beta  occ. eigenvalues --   -0.78403  -0.75626  -0.74192  -0.70232  -0.66699
  Beta  occ. eigenvalues --   -0.65444  -0.62017  -0.60849  -0.57948  -0.55553
  Beta  occ. eigenvalues --   -0.54576  -0.52345  -0.51827  -0.49896  -0.49329
  Beta  occ. eigenvalues --   -0.48266  -0.46866  -0.46171  -0.44968  -0.44018
  Beta  occ. eigenvalues --   -0.43071  -0.42343  -0.41148  -0.40636  -0.38677
  Beta  occ. eigenvalues --   -0.36643  -0.34860  -0.34265  -0.33136  -0.30615
  Beta  occ. eigenvalues --   -0.29320  -0.27942  -0.26010
  Beta virt. eigenvalues --   -0.00095   0.02611   0.04120   0.04746   0.10813
  Beta virt. eigenvalues --    0.11635   0.12012   0.14130   0.15708   0.16318
  Beta virt. eigenvalues --    0.16832   0.16994   0.17757   0.18225   0.18666
  Beta virt. eigenvalues --    0.19043   0.20501   0.21073   0.24470   0.26547
  Beta virt. eigenvalues --    0.28578   0.29911   0.33221   0.34435   0.35832
  Beta virt. eigenvalues --    0.36073   0.38089   0.39419   0.40976   0.46263
  Beta virt. eigenvalues --    0.46436   0.47339   0.47967   0.48349   0.49605
  Beta virt. eigenvalues --    0.50280   0.50778   0.51096   0.51432   0.52829
  Beta virt. eigenvalues --    0.53259   0.54200   0.55003   0.55741   0.56182
  Beta virt. eigenvalues --    0.56972   0.57261   0.58174   0.59230   0.60016
  Beta virt. eigenvalues --    0.61199   0.61624   0.62024   0.63495   0.63998
  Beta virt. eigenvalues --    0.64547   0.65681   0.67553   0.67895   0.68590
  Beta virt. eigenvalues --    0.68900   0.70071   0.71205   0.71631   0.72996
  Beta virt. eigenvalues --    0.74448   0.75736   0.76279   0.77488   0.79915
  Beta virt. eigenvalues --    0.82438   0.86110   0.87659   0.88210   0.90028
  Beta virt. eigenvalues --    0.91410   0.92230   0.92870   0.94188   0.94477
  Beta virt. eigenvalues --    0.95950   0.96461   0.98278   1.00183   1.01251
  Beta virt. eigenvalues --    1.02436   1.02620   1.02865   1.04714   1.05436
  Beta virt. eigenvalues --    1.06110   1.07882   1.10119   1.10382   1.12297
  Beta virt. eigenvalues --    1.13625   1.15486   1.17446   1.18602   1.19734
  Beta virt. eigenvalues --    1.21220   1.22486   1.26118   1.28569   1.30875
  Beta virt. eigenvalues --    1.34948   1.35540   1.37678   1.38740   1.40007
  Beta virt. eigenvalues --    1.43140   1.44516   1.46218   1.47597   1.48907
  Beta virt. eigenvalues --    1.49354   1.50373   1.50888   1.51853   1.52559
  Beta virt. eigenvalues --    1.55038   1.56214   1.57461   1.58254   1.59336
  Beta virt. eigenvalues --    1.60366   1.62495   1.63507   1.64466   1.64971
  Beta virt. eigenvalues --    1.65741   1.67365   1.67885   1.68488   1.68889
  Beta virt. eigenvalues --    1.69659   1.71931   1.72651   1.72805   1.73937
  Beta virt. eigenvalues --    1.75370   1.75517   1.77444   1.78941   1.79480
  Beta virt. eigenvalues --    1.81832   1.83539   1.85057   1.85979   1.87290
  Beta virt. eigenvalues --    1.89081   1.89969   1.90670   1.90941   1.92268
  Beta virt. eigenvalues --    1.95397   1.95949   1.97061   2.00278   2.02398
  Beta virt. eigenvalues --    2.03232   2.06017   2.07132   2.08400   2.09084
  Beta virt. eigenvalues --    2.11998   2.13091   2.20039   2.20730   2.23627
  Beta virt. eigenvalues --    2.25242   2.27085   2.29114   2.30621   2.34859
  Beta virt. eigenvalues --    2.36166   2.39164   2.41276   2.42079   2.44080
  Beta virt. eigenvalues --    2.46478   2.46874   2.50694   2.52277   2.54204
  Beta virt. eigenvalues --    2.57846   2.61587   2.64634   2.68617   2.71975
  Beta virt. eigenvalues --    2.78758   2.80195   2.82372   2.85104   2.91670
  Beta virt. eigenvalues --    2.92865   2.98022   3.02744   3.21911   3.34092
  Beta virt. eigenvalues --    3.36218   3.54383   3.55530   3.59652   3.79669
  Beta virt. eigenvalues --    4.04970   4.20322
          Condensed to atoms (all electrons):
               1          2          3          4          5          6
     1  C    4.946699   0.461232   0.019346   0.004218  -0.050956  -0.039271
     2  C    0.461232   4.798035   0.442611  -0.056676  -0.063204  -0.030394
     3  C    0.019346   0.442611   4.857061   0.461089   0.267625  -0.024966
     4  F    0.004218  -0.056676   0.461089   8.689764  -0.067871   0.001063
     5  C   -0.050956  -0.063204   0.267625  -0.067871   5.499875   0.486059
     6  N   -0.039271  -0.030394  -0.024966   0.001063   0.486059   6.222742
     7  C    0.451968  -0.023539  -0.055544   0.000227  -0.102620   0.607355
     8  C    0.002423   0.003687  -0.072616  -0.000127   0.255334  -0.055847
     9  C    0.000220  -0.000408   0.005400  -0.000917  -0.093372   0.008002
    10  C    0.000000   0.000007   0.000013   0.000013   0.009983   0.000142
    11  C    0.000000  -0.000001  -0.000065  -0.000009  -0.000643   0.000034
    12  C   -0.000002   0.000019   0.000474   0.000265   0.013178  -0.000232
    13  C   -0.000187   0.000930  -0.010175   0.006428  -0.098941   0.000929
    14  O   -0.000008  -0.000245   0.005810  -0.001571   0.009382  -0.000239
    15  C   -0.000000  -0.000010  -0.000353   0.000241  -0.000530   0.000004
    16  H    0.377978  -0.041054   0.008491  -0.000047   0.000257   0.005211
    17  H   -0.053303   0.379321  -0.045789   0.001389   0.013954  -0.000702
    18  H   -0.068821   0.006918   0.001696   0.000007   0.005726  -0.033521
    19  H    0.000152  -0.000096   0.001380  -0.000044  -0.030514   0.014448
    20  H    0.000000  -0.000000   0.000002   0.000000  -0.000139  -0.000015
    21  H    0.000000   0.000000   0.000001  -0.000000   0.000022   0.000000
    22  H   -0.000000  -0.000000   0.000014   0.000008  -0.000314   0.000000
    23  H   -0.000000   0.000000   0.000016   0.000001   0.000105  -0.000001
    24  H    0.000000   0.000003   0.000062   0.000100   0.000103  -0.000001
    25  H    0.000000  -0.000003  -0.000037   0.000100  -0.000122   0.000001
               7          8          9         10         11         12
     1  C    0.451968   0.002423   0.000220   0.000000   0.000000  -0.000002
     2  C   -0.023539   0.003687  -0.000408   0.000007  -0.000001   0.000019
     3  C   -0.055544  -0.072616   0.005400   0.000013  -0.000065   0.000474
     4  F    0.000227  -0.000127  -0.000917   0.000013  -0.000009   0.000265
     5  C   -0.102620   0.255334  -0.093372   0.009983  -0.000643   0.013178
     6  N    0.607355  -0.055847   0.008002   0.000142   0.000034  -0.000232
     7  C    4.675574   0.004220   0.001138   0.000024   0.000000   0.000005
     8  C    0.004220   5.145588   0.457668   0.017837  -0.069392  -0.000885
     9  C    0.001138   0.457668   4.781985   0.470919   0.014582  -0.102975
    10  C    0.000024   0.017837   0.470919   4.831853   0.458188   0.002092
    11  C    0.000000  -0.069392   0.014582   0.458188   4.805741   0.449131
    12  C    0.000005  -0.000885  -0.102975   0.002092   0.449131   5.058168
    13  C   -0.000350   0.358852   0.035101  -0.088510   0.031508   0.280884
    14  O    0.000016  -0.072486   0.003397   0.000066   0.003990  -0.075150
    15  C   -0.000002   0.007183   0.000070  -0.000044   0.001208  -0.000042
    16  H   -0.035309   0.000022  -0.000004   0.000000  -0.000000   0.000000
    17  H    0.010419  -0.000380   0.000018  -0.000000   0.000000  -0.000001
    18  H    0.383732  -0.001048  -0.000153  -0.000003  -0.000000   0.000000
    19  H    0.000223  -0.053188   0.390559  -0.067261   0.011515  -0.001630
    20  H   -0.000001   0.011644  -0.051716   0.394391  -0.049123   0.011107
    21  H    0.000000   0.000574   0.009883  -0.043620   0.382106  -0.045135
    22  H   -0.000000   0.005901   0.000327   0.008875  -0.034865   0.393022
    23  H    0.000001  -0.000037  -0.000106   0.000000   0.000127   0.010233
    24  H   -0.000000   0.000310  -0.000155  -0.000022  -0.000053   0.011147
    25  H   -0.000001  -0.000265   0.000030   0.000001  -0.000055  -0.000513
              13         14         15         16         17         18
     1  C   -0.000187  -0.000008  -0.000000   0.377978  -0.053303  -0.068821
     2  C    0.000930  -0.000245  -0.000010  -0.041054   0.379321   0.006918
     3  C   -0.010175   0.005810  -0.000353   0.008491  -0.045789   0.001696
     4  F    0.006428  -0.001571   0.000241  -0.000047   0.001389   0.000007
     5  C   -0.098941   0.009382  -0.000530   0.000257   0.013954   0.005726
     6  N    0.000929  -0.000239   0.000004   0.005211  -0.000702  -0.033521
     7  C   -0.000350   0.000016  -0.000002  -0.035309   0.010419   0.383732
     8  C    0.358852  -0.072486   0.007183   0.000022  -0.000380  -0.001048
     9  C    0.035101   0.003397   0.000070  -0.000004   0.000018  -0.000153
    10  C   -0.088510   0.000066  -0.000044   0.000000  -0.000000  -0.000003
    11  C    0.031508   0.003990   0.001208  -0.000000   0.000000  -0.000000
    12  C    0.280884  -0.075150  -0.000042   0.000000  -0.000001   0.000000
    13  C    5.090673   0.426074  -0.073468   0.000002  -0.000029   0.000047
    14  O    0.426074   7.720838   0.347712  -0.000000   0.000038   0.000001
    15  C   -0.073468   0.347712   4.477953   0.000000  -0.000000  -0.000000
    16  H    0.000002  -0.000000   0.000000   0.708980  -0.016361  -0.008208
    17  H   -0.000029   0.000038  -0.000000  -0.016361   0.767138  -0.000323
    18  H    0.000047   0.000001  -0.000000  -0.008208  -0.000323   0.730769
    19  H    0.021027  -0.000071   0.000015  -0.000008   0.000007  -0.000120
    20  H   -0.000972   0.000004  -0.000001   0.000000   0.000000   0.000000
    21  H    0.008995  -0.000058  -0.000019  -0.000000  -0.000000  -0.000000
    22  H   -0.063927  -0.008219   0.006498   0.000000   0.000000   0.000000
    23  H   -0.009234  -0.027919   0.382683  -0.000000   0.000000   0.000000
    24  H   -0.010141  -0.033781   0.372801   0.000000  -0.000001   0.000000
    25  H    0.004376  -0.018451   0.397973   0.000000  -0.000001  -0.000000
              19         20         21         22         23         24
     1  C    0.000152   0.000000   0.000000  -0.000000  -0.000000   0.000000
     2  C   -0.000096  -0.000000   0.000000  -0.000000   0.000000   0.000003
     3  C    0.001380   0.000002   0.000001   0.000014   0.000016   0.000062
     4  F   -0.000044   0.000000  -0.000000   0.000008   0.000001   0.000100
     5  C   -0.030514  -0.000139   0.000022  -0.000314   0.000105   0.000103
     6  N    0.014448  -0.000015   0.000000   0.000000  -0.000001  -0.000001
     7  C    0.000223  -0.000001   0.000000  -0.000000   0.000001  -0.000000
     8  C   -0.053188   0.011644   0.000574   0.005901  -0.000037   0.000310
     9  C    0.390559  -0.051716   0.009883   0.000327  -0.000106  -0.000155
    10  C   -0.067261   0.394391  -0.043620   0.008875   0.000000  -0.000022
    11  C    0.011515  -0.049123   0.382106  -0.034865   0.000127  -0.000053
    12  C   -0.001630   0.011107  -0.045135   0.393022   0.010233   0.011147
    13  C    0.021027  -0.000972   0.008995  -0.063927  -0.009234  -0.010141
    14  O   -0.000071   0.000004  -0.000058  -0.008219  -0.027919  -0.033781
    15  C    0.000015  -0.000001  -0.000019   0.006498   0.382683   0.372801
    16  H   -0.000008   0.000000  -0.000000   0.000000  -0.000000   0.000000
    17  H    0.000007   0.000000  -0.000000   0.000000   0.000000  -0.000001
    18  H   -0.000120   0.000000  -0.000000   0.000000   0.000000   0.000000
    19  H    0.763504  -0.015612  -0.000427   0.000048  -0.000001  -0.000001
    20  H   -0.015612   0.739080  -0.013549  -0.000295   0.000000   0.000000
    21  H   -0.000427  -0.013549   0.742218  -0.014894   0.000017   0.000017
    22  H    0.000048  -0.000295  -0.014894   0.726120   0.002734   0.003352
    23  H   -0.000001   0.000000   0.000017   0.002734   0.674553  -0.046120
    24  H   -0.000001   0.000000   0.000017   0.003352  -0.046120   0.683574
    25  H   -0.000000  -0.000000  -0.000001  -0.000326  -0.031378  -0.024170
              25
     1  C    0.000000
     2  C   -0.000003
     3  C   -0.000037
     4  F    0.000100
     5  C   -0.000122
     6  N    0.000001
     7  C   -0.000001
     8  C   -0.000265
     9  C    0.000030
    10  C    0.000001
    11  C   -0.000055
    12  C   -0.000513
    13  C    0.004376
    14  O   -0.018451
    15  C    0.397973
    16  H    0.000000
    17  H   -0.000001
    18  H   -0.000000
    19  H   -0.000000
    20  H   -0.000000
    21  H   -0.000001
    22  H   -0.000326
    23  H   -0.031378
    24  H   -0.024170
    25  H    0.635086
          Atomic-Atomic Spin Densities.
               1          2          3          4          5          6
     1  C    0.000000  -0.000000  -0.000000   0.000000   0.000000  -0.000000
     2  C   -0.000000   0.000000  -0.000000  -0.000000  -0.000000   0.000000
     3  C   -0.000000  -0.000000  -0.000000  -0.000000   0.000000  -0.000000
     4  F    0.000000  -0.000000  -0.000000  -0.000000   0.000000  -0.000000
     5  C    0.000000  -0.000000   0.000000   0.000000  -0.000000   0.000000
     6  N   -0.000000   0.000000  -0.000000  -0.000000   0.000000  -0.000000
     7  C    0.000000   0.000000   0.000000  -0.000000  -0.000000   0.000000
     8  C   -0.000000   0.000000  -0.000000  -0.000000   0.000000   0.000000
     9  C   -0.000000  -0.000000  -0.000000   0.000000   0.000000  -0.000000
    10  C    0.000000  -0.000000   0.000000  -0.000000   0.000000   0.000000
    11  C   -0.000000   0.000000  -0.000000   0.000000  -0.000000  -0.000000
    12  C    0.000000  -0.000000   0.000000  -0.000000   0.000000   0.000000
    13  C    0.000000  -0.000000   0.000000  -0.000000  -0.000000   0.000000
    14  O    0.000000  -0.000000   0.000000   0.000000  -0.000000   0.000000
    15  C   -0.000000   0.000000  -0.000000   0.000000   0.000000   0.000000
    16  H    0.000000  -0.000000  -0.000000   0.000000   0.000000  -0.000000
    17  H    0.000000  -0.000000   0.000000   0.000000  -0.000000   0.000000
    18  H   -0.000000   0.000000  -0.000000  -0.000000   0.000000  -0.000000
    19  H   -0.000000  -0.000000  -0.000000   0.000000  -0.000000  -0.000000
    20  H    0.000000   0.000000  -0.000000  -0.000000   0.000000   0.000000
    21  H   -0.000000   0.000000   0.000000   0.000000   0.000000  -0.000000
    22  H    0.000000  -0.000000  -0.000000  -0.000000   0.000000   0.000000
    23  H    0.000000  -0.000000   0.000000  -0.000000  -0.000000   0.000000
    24  H    0.000000  -0.000000  -0.000000   0.000000  -0.000000   0.000000
    25  H   -0.000000   0.000000  -0.000000   0.000000   0.000000  -0.000000
               7          8          9         10         11         12
     1  C    0.000000  -0.000000  -0.000000   0.000000  -0.000000   0.000000
     2  C    0.000000   0.000000  -0.000000  -0.000000   0.000000  -0.000000
     3  C    0.000000  -0.000000  -0.000000   0.000000  -0.000000   0.000000
     4  F   -0.000000  -0.000000   0.000000  -0.000000   0.000000  -0.000000
     5  C   -0.000000   0.000000   0.000000   0.000000  -0.000000   0.000000
     6  N    0.000000   0.000000  -0.000000   0.000000  -0.000000   0.000000
     7  C   -0.000000  -0.000000  -0.000000   0.000000  -0.000000   0.000000
     8  C   -0.000000  -0.000000   0.000000  -0.000000  -0.000000   0.000000
     9  C   -0.000000   0.000000  -0.000000  -0.000000   0.000000   0.000000
    10  C    0.000000  -0.000000  -0.000000   0.000000  -0.000000  -0.000000
    11  C   -0.000000  -0.000000   0.000000  -0.000000   0.000000  -0.000000
    12  C    0.000000   0.000000   0.000000  -0.000000  -0.000000  -0.000000
    13  C    0.000000  -0.000000   0.000000  -0.000000   0.000000   0.000000
    14  O   -0.000000  -0.000000   0.000000  -0.000000   0.000000   0.000000
    15  C    0.000000   0.000000  -0.000000   0.000000   0.000000   0.000000
    16  H    0.000000   0.000000   0.000000  -0.000000   0.000000  -0.000000
    17  H   -0.000000   0.000000  -0.000000   0.000000  -0.000000  -0.000000
    18  H    0.000000   0.000000   0.000000  -0.000000   0.000000  -0.000000
    19  H   -0.000000   0.000000  -0.000000  -0.000000   0.000000  -0.000000
    20  H    0.000000  -0.000000  -0.000000   0.000000   0.000000   0.000000
    21  H   -0.000000   0.000000  -0.000000   0.000000   0.000000  -0.000000
    22  H    0.000000   0.000000   0.000000  -0.000000  -0.000000  -0.000000
    23  H   -0.000000   0.000000   0.000000  -0.000000   0.000000  -0.000000
    24  H   -0.000000   0.000000   0.000000  -0.000000   0.000000  -0.000000
    25  H   -0.000000  -0.000000   0.000000   0.000000  -0.000000  -0.000000
              13         14         15         16         17         18
     1  C    0.000000   0.000000  -0.000000   0.000000   0.000000  -0.000000
     2  C   -0.000000  -0.000000   0.000000  -0.000000  -0.000000   0.000000
     3  C    0.000000   0.000000  -0.000000  -0.000000   0.000000  -0.000000
     4  F   -0.000000   0.000000   0.000000   0.000000   0.000000  -0.000000
     5  C   -0.000000  -0.000000   0.000000   0.000000  -0.000000   0.000000
     6  N    0.000000   0.000000   0.000000  -0.000000   0.000000  -0.000000
     7  C    0.000000  -0.000000   0.000000   0.000000  -0.000000   0.000000
     8  C   -0.000000  -0.000000   0.000000   0.000000   0.000000   0.000000
     9  C    0.000000   0.000000  -0.000000   0.000000  -0.000000   0.000000
    10  C   -0.000000  -0.000000   0.000000  -0.000000   0.000000  -0.000000
    11  C    0.000000   0.000000   0.000000   0.000000  -0.000000   0.000000
    12  C    0.000000   0.000000   0.000000  -0.000000  -0.000000  -0.000000
    13  C   -0.000000  -0.000000  -0.000000  -0.000000   0.000000  -0.000000
    14  O   -0.000000   0.000000   0.000000   0.000000  -0.000000   0.000000
    15  C   -0.000000   0.000000  -0.000000  -0.000000   0.000000   0.000000
    16  H   -0.000000   0.000000  -0.000000  -0.000000   0.000000  -0.000000
    17  H    0.000000  -0.000000   0.000000   0.000000  -0.000000   0.000000
    18  H   -0.000000   0.000000   0.000000  -0.000000   0.000000   0.000000
    19  H    0.000000   0.000000  -0.000000   0.000000   0.000000   0.000000
    20  H    0.000000  -0.000000   0.000000  -0.000000   0.000000  -0.000000
    21  H   -0.000000  -0.000000  -0.000000   0.000000  -0.000000   0.000000
    22  H    0.000000  -0.000000   0.000000  -0.000000  -0.000000   0.000000
    23  H    0.000000   0.000000  -0.000000   0.000000  -0.000000   0.000000
    24  H    0.000000  -0.000000  -0.000000   0.000000  -0.000000  -0.000000
    25  H    0.000000  -0.000000   0.000000  -0.000000   0.000000  -0.000000
              19         20         21         22         23         24
     1  C   -0.000000   0.000000  -0.000000   0.000000   0.000000   0.000000
     2  C   -0.000000   0.000000   0.000000  -0.000000  -0.000000  -0.000000
     3  C   -0.000000  -0.000000   0.000000  -0.000000   0.000000  -0.000000
     4  F    0.000000  -0.000000   0.000000  -0.000000  -0.000000   0.000000
     5  C   -0.000000   0.000000   0.000000   0.000000  -0.000000  -0.000000
     6  N   -0.000000   0.000000  -0.000000   0.000000   0.000000   0.000000
     7  C   -0.000000   0.000000  -0.000000   0.000000  -0.000000  -0.000000
     8  C    0.000000  -0.000000   0.000000   0.000000   0.000000   0.000000
     9  C   -0.000000  -0.000000  -0.000000   0.000000   0.000000   0.000000
    10  C   -0.000000   0.000000   0.000000  -0.000000  -0.000000  -0.000000
    11  C    0.000000   0.000000   0.000000  -0.000000   0.000000   0.000000
    12  C   -0.000000   0.000000  -0.000000  -0.000000  -0.000000  -0.000000
    13  C    0.000000   0.000000  -0.000000   0.000000   0.000000   0.000000
    14  O    0.000000  -0.000000  -0.000000  -0.000000   0.000000  -0.000000
    15  C   -0.000000   0.000000  -0.000000   0.000000  -0.000000  -0.000000
    16  H    0.000000  -0.000000   0.000000  -0.000000   0.000000   0.000000
    17  H    0.000000   0.000000  -0.000000  -0.000000  -0.000000  -0.000000
    18  H    0.000000  -0.000000   0.000000   0.000000   0.000000  -0.000000
    19  H   -0.000000  -0.000000  -0.000000   0.000000  -0.000000  -0.000000
    20  H   -0.000000   0.000000   0.000000  -0.000000  -0.000000  -0.000000
    21  H   -0.000000   0.000000  -0.000000   0.000000   0.000000   0.000000
    22  H    0.000000  -0.000000   0.000000  -0.000000  -0.000000  -0.000000
    23  H   -0.000000  -0.000000   0.000000  -0.000000   0.000000  -0.000000
    24  H   -0.000000  -0.000000   0.000000  -0.000000  -0.000000  -0.000000
    25  H   -0.000000   0.000000  -0.000000   0.000000   0.000000  -0.000000
              25
     1  C   -0.000000
     2  C    0.000000
     3  C   -0.000000
     4  F    0.000000
     5  C    0.000000
     6  N   -0.000000
     7  C   -0.000000
     8  C   -0.000000
     9  C    0.000000
    10  C    0.000000
    11  C   -0.000000
    12  C   -0.000000
    13  C    0.000000
    14  O   -0.000000
    15  C    0.000000
    16  H   -0.000000
    17  H    0.000000
    18  H   -0.000000
    19  H   -0.000000
    20  H    0.000000
    21  H   -0.000000
    22  H    0.000000
    23  H    0.000000
    24  H   -0.000000
    25  H    0.000000
 Mulliken charges and spin densities:
               1          2
     1  C   -0.051688  -0.000000
     2  C    0.122866   0.000000
     3  C    0.138455  -0.000000
     4  F   -0.037651   0.000000
     5  C   -0.052377  -0.000000
     6  N   -0.160800  -0.000000
     7  C    0.082464   0.000000
     8  C    0.055030   0.000000
     9  C    0.070507  -0.000000
    10  C    0.005055   0.000000
    11  C   -0.003925   0.000000
    12  C   -0.003159  -0.000000
    13  C    0.090109   0.000000
    14  O   -0.279127   0.000000
    15  C    0.080127  -0.000000
    16  H    0.000049  -0.000000
    17  H   -0.055395  -0.000000
    18  H   -0.016701   0.000000
    19  H   -0.033903  -0.000000
    20  H   -0.024807   0.000000
    21  H   -0.026130   0.000000
    22  H   -0.024056  -0.000000
    23  H    0.044325   0.000000
    24  H    0.042975  -0.000000
    25  H    0.037759   0.000000
 Sum of Mulliken charges =  -0.00000  -0.00000
 Mulliken charges and spin densities with hydrogens summed into heavy atoms:
               1          2
     1  C   -0.051639  -0.000000
     2  C    0.067470   0.000000
     3  C    0.138455  -0.000000
     4  F   -0.037651   0.000000
     5  C   -0.052377  -0.000000
     6  N   -0.160800  -0.000000
     7  C    0.065763   0.000000
     8  C    0.055030   0.000000
     9  C    0.036603  -0.000000
    10  C   -0.019752   0.000000
    11  C   -0.030055   0.000000
    12  C   -0.027215  -0.000000
    13  C    0.090109   0.000000
    14  O   -0.279127   0.000000
    15  C    0.205186  -0.000000
 Electronic spatial extent (au):  <R**2>=           3053.5379
 Charge=             -0.0000 electrons
 Dipole moment (field-independent basis, Debye):
    X=             -0.0305    Y=              1.8618    Z=              0.5550  Tot=              1.9430
 Quadrupole moment (field-independent basis, Debye-Ang):
   XX=            -69.7931   YY=            -79.0042   ZZ=            -88.4330
   XY=             -0.6672   XZ=              1.3184   YZ=             -2.5796
 Traceless Quadrupole moment (field-independent basis, Debye-Ang):
   XX=              9.2836   YY=              0.0726   ZZ=             -9.3562
   XY=             -0.6672   XZ=              1.3184   YZ=             -2.5796
 Octapole moment (field-independent basis, Debye-Ang**2):
  XXX=             19.4996  YYY=             32.9658  ZZZ=              6.7729  XYY=            -14.3266
  XXY=             12.7187  XXZ=             -0.6212  XZZ=              5.9075  YZZ=             11.2318
  YYZ=              3.8271  XYZ=             10.5789
 Hexadecapole moment (field-independent basis, Debye-Ang**3):
 XXXX=          -2388.9204 YYYY=          -1041.8731 ZZZZ=           -302.2977 XXXY=             18.4197
 XXXZ=              0.5158 YYYX=             -2.2748 YYYZ=            -18.3101 ZZZX=             19.4005
 ZZZY=             13.7918 XXYY=           -585.4485 XXZZ=           -511.4915 YYZZ=           -238.9576
 XXYZ=              9.7050 YYXZ=              4.9956 ZZXY=            -10.9311
 N-N= 9.458926329422D+02 E-N=-3.508926067312D+03  KE= 6.883454188006D+02
                          Isotropic Fermi Contact Couplings
        Atom                 a.u.       MegaHertz       Gauss      10(-4) cm-1
     1  C(13)              0.00000       0.00000       0.00000       0.00000
     2  C(13)             -0.00000      -0.00000      -0.00000      -0.00000
     3  C(13)              0.00000       0.00000       0.00000       0.00000
     4  F(19)             -0.00000      -0.00000      -0.00000      -0.00000
     5  C(13)             -0.00000      -0.00000      -0.00000      -0.00000
     6  N(14)              0.00000       0.00000       0.00000       0.00000
     7  C(13)              0.00000       0.00000       0.00000       0.00000
     8  C(13)              0.00000       0.00000       0.00000       0.00000
     9  C(13)             -0.00000      -0.00000      -0.00000      -0.00000
    10  C(13)             -0.00000      -0.00000      -0.00000      -0.00000
    11  C(13)              0.00000       0.00000       0.00000       0.00000
    12  C(13)             -0.00000      -0.00000      -0.00000      -0.00000
    13  C(13)             -0.00000      -0.00000      -0.00000      -0.00000
    14  O(17)              0.00000      -0.00000      -0.00000      -0.00000
    15  C(13)              0.00000       0.00000       0.00000       0.00000
    16  H(1)              -0.00000      -0.00000      -0.00000      -0.00000
    17  H(1)              -0.00000      -0.00000      -0.00000      -0.00000
    18  H(1)               0.00000       0.00000       0.00000       0.00000
    19  H(1)              -0.00000      -0.00000      -0.00000      -0.00000
    20  H(1)               0.00000       0.00000       0.00000       0.00000
    21  H(1)              -0.00000      -0.00000      -0.00000      -0.00000
    22  H(1)              -0.00000      -0.00000      -0.00000      -0.00000
    23  H(1)               0.00000       0.00000       0.00000       0.00000
    24  H(1)              -0.00000      -0.00000      -0.00000      -0.00000
    25  H(1)              -0.00000      -0.00000      -0.00000      -0.00000
 --------------------------------------------------------
       Center         ----  Spin Dipole Couplings  ----
                      3XX-RR        3YY-RR        3ZZ-RR
 --------------------------------------------------------
     1   Atom        0.000000     -0.000000      0.000000
     2   Atom       -0.000000      0.000000      0.000000
     3   Atom        0.000000      0.000000     -0.000000
     4   Atom        0.000000     -0.000000     -0.000000
     5   Atom       -0.000000      0.000000      0.000000
[...]
              19         20         21         22         23         24
     1  C   -0.000000   0.000000   0.000000   0.000000   0.000000  -0.000000
     2  C    0.000000  -0.000000   0.000000  -0.000000  -0.000000   0.000000
     3  C   -0.000000   0.000000  -0.000000   0.000000  -0.000000   0.000000
     4  F   -0.000000   0.000000  -0.000000  -0.000000   0.000000   0.000000
     5  C   -0.000000   0.000000  -0.000000   0.000000  -0.000000  -0.000000
     6  N    0.000000   0.000000   0.000000   0.000000   0.000000  -0.000000
     7  C    0.000000   0.000000  -0.000000   0.000000  -0.000000   0.000000
     8  C   -0.000000   0.000000  -0.000000   0.000000  -0.000000   0.000000
     9  C   -0.000000   0.000000   0.000000  -0.000000   0.000000  -0.000000
    10  C    0.000000  -0.000000  -0.000000   0.000000   0.000000   0.000000
    11  C    0.000000  -0.000000   0.000000  -0.000000  -0.000000  -0.000000
    12  C   -0.000000  -0.000000  -0.000000  -0.000000  -0.000000  -0.000000
    13  C    0.000000  -0.000000   0.000000   0.000000  -0.000000  -0.000000
    14  O   -0.000000  -0.000000   0.000000  -0.000000  -0.000000   0.000000
    15  C    0.000000  -0.000000   0.000000  -0.000000   0.000000  -0.000000
    16  H    0.000000  -0.000000   0.000000  -0.000000   0.000000  -0.000000
    17  H    0.000000  -0.000000   0.000000  -0.000000  -0.000000   0.000000
    18  H   -0.000000   0.000000  -0.000000   0.000000  -0.000000   0.000000
    19  H    0.000000  -0.000000   0.000000  -0.000000   0.000000  -0.000000
    20  H   -0.000000  -0.000000  -0.000000   0.000000   0.000000   0.000000
    21  H    0.000000  -0.000000   0.000000  -0.000000  -0.000000  -0.000000
    22  H   -0.000000   0.000000  -0.000000   0.000000  -0.000000   0.000000
    23  H    0.000000   0.000000  -0.000000  -0.000000   0.000000   0.000000
    24  H   -0.000000   0.000000  -0.000000   0.000000   0.000000  -0.000000
    25  H   -0.000000   0.000000   0.000000   0.000000  -0.000000   0.000000
              25
     1  C   -0.000000
     2  C   -0.000000
     3  C   -0.000000
     4  F   -0.000000
     5  C    0.000000
     6  N    0.000000
     7  C    0.000000
     8  C    0.000000
     9  C   -0.000000
    10  C    0.000000
    11  C    0.000000
    12  C    0.000000
    13  C    0.000000
    14  O   -0.000000
    15  C    0.000000
    16  H    0.000000
    17  H    0.000000
    18  H    0.000000
    19  H   -0.000000
    20  H    0.000000
    21  H    0.000000
    22  H    0.000000
    23  H   -0.000000
    24  H    0.000000
    25  H   -0.000000
 Mulliken charges and spin densities:
               1          2
     1  C   -0.017041  -0.000000
     2  C    0.060063   0.000000
     3  C    0.124043  -0.000000
     4  F   -0.119324   0.000000
     5  C    0.010287   0.000000
     6  N   -0.182081  -0.000000
     7  C    0.079607   0.000000
     8  C    0.004079  -0.000000
     9  C    0.049663   0.000000
    10  C    0.026682  -0.000000
    11  C    0.029772   0.000000
    12  C   -0.027235  -0.000000
    13  C    0.102236  -0.000000
    14  O   -0.234066   0.000000
    15  C    0.063781  -0.000000
    16  H   -0.010207  -0.000000
    17  H   -0.000125   0.000000
    18  H    0.000280   0.000000
    19  H   -0.032035   0.000000
    20  H   -0.023534  -0.000000
    21  H   -0.021075   0.000000
    22  H   -0.020721   0.000000
    23  H    0.043903   0.000000
    24  H    0.044412  -0.000000
    25  H    0.048636  -0.000000
 Sum of Mulliken charges =  -0.00000   0.00000
 Mulliken charges and spin densities with hydrogens summed into heavy atoms:
               1          2
     1  C   -0.027248  -0.000000
     2  C    0.059938   0.000000
     3  C    0.124043  -0.000000
     4  F   -0.119324   0.000000
     5  C    0.010287   0.000000
     6  N   -0.182081  -0.000000
     7  C    0.079887   0.000000
     8  C    0.004079  -0.000000
     9  C    0.017628   0.000000
    10  C    0.003148  -0.000000
    11  C    0.008698   0.000000
    12  C   -0.047956  -0.000000
    13  C    0.102236  -0.000000
    14  O   -0.234066   0.000000
    15  C    0.200732  -0.000000
 Electronic spatial extent (au):  <R**2>=           3058.5470
 Charge=             -0.0000 electrons
 Dipole moment (field-independent basis, Debye):
    X=              0.1117    Y=              1.8381    Z=              0.0634  Tot=              1.8426
 Quadrupole moment (field-independent basis, Debye-Ang):
   XX=            -69.1755   YY=            -78.8160   ZZ=            -88.9329
   XY=             -2.1178   XZ=              0.8782   YZ=             -2.8405
 Traceless Quadrupole moment (field-independent basis, Debye-Ang):
   XX=              9.7993   YY=              0.1588   ZZ=             -9.9581
   XY=             -2.1178   XZ=              0.8782   YZ=             -2.8405
 Octapole moment (field-independent basis, Debye-Ang**2):
  XXX=             25.2425  YYY=             33.1686  ZZZ=              5.0261  XYY=            -12.5668
  XXY=             14.2057  XXZ=             -1.4284  XZZ=              4.9241  YZZ=             10.9376
  YYZ=              1.7763  XYZ=             10.4780
 Hexadecapole moment (field-independent basis, Debye-Ang**3):
 XXXX=          -2401.4299 YYYY=          -1060.7869 ZZZZ=           -278.7799 XXXY=             -1.1448
 XXXZ=             -6.4707 YYYX=            -14.6090 YYYZ=            -15.9605 ZZZX=             16.3827
 ZZZY=             12.9309 XXYY=           -587.0879 XXZZ=           -511.2483 YYZZ=           -238.4917
 XXYZ=             15.7026 YYXZ=              3.8261 ZZXY=            -12.4321
 N-N= 9.455010239722D+02 E-N=-3.508050602815D+03  KE= 6.879893435497D+02
                          Isotropic Fermi Contact Couplings
        Atom                 a.u.       MegaHertz       Gauss      10(-4) cm-1
     1  C(13)              0.00000       0.00000       0.00000       0.00000
     2  C(13)              0.00000       0.00000       0.00000       0.00000
     3  C(13)             -0.00000      -0.00000      -0.00000      -0.00000
     4  F(19)             -0.00000      -0.00000      -0.00000      -0.00000
     5  C(13)             -0.00000      -0.00000      -0.00000      -0.00000
     6  N(14)              0.00000       0.00000       0.00000       0.00000
     7  C(13)              0.00000       0.00000       0.00000       0.00000
     8  C(13)             -0.00000      -0.00000      -0.00000      -0.00000
     9  C(13)             -0.00000      -0.00000      -0.00000      -0.00000
    10  C(13)             -0.00000      -0.00000      -0.00000      -0.00000
    11  C(13)              0.00000       0.00000       0.00000       0.00000
    12  C(13)             -0.00000      -0.00000      -0.00000      -0.00000
    13  C(13)             -0.00000      -0.00000      -0.00000      -0.00000
    14  O(17)              0.00000      -0.00000      -0.00000      -0.00000
    15  C(13)             -0.00000      -0.00000      -0.00000      -0.00000
    16  H(1)              -0.00000      -0.00000      -0.00000      -0.00000
    17  H(1)              -0.00000      -0.00000      -0.00000      -0.00000
    18  H(1)              -0.00000      -0.00000      -0.00000      -0.00000
    19  H(1)               0.00000       0.00000       0.00000       0.00000
    20  H(1)              -0.00000      -0.00000      -0.00000      -0.00000
    21  H(1)              -0.00000      -0.00000      -0.00000      -0.00000
    22  H(1)               0.00000       0.00000       0.00000       0.00000
    23  H(1)               0.00000       0.00000       0.00000       0.00000
    24  H(1)              -0.00000      -0.00000      -0.00000      -0.00000
    25  H(1)              -0.00000      -0.00000      -0.00000      -0.00000
 --------------------------------------------------------
       Center         ----  Spin Dipole Couplings  ----
                      3XX-RR        3YY-RR        3ZZ-RR
 --------------------------------------------------------
     1   Atom        0.000000     -0.000000     -0.000000
     2   Atom        0.000000     -0.000000      0.000000
     3   Atom       -0.000000      0.000000      0.000000
     4   Atom        0.000000     -0.000000     -0.000000
     5   Atom       -0.000000      0.000000      0.000000
     6   Atom        0.000000     -0.000000     -0.000000
     7   Atom       -0.000000      0.000000      0.000000
     8   Atom        0.000000     -0.000000      0.000000
     9   Atom       -0.000000     -0.000000      0.000000
    10   Atom        0.000000      0.000000     -0.000000
    11   Atom        0.000000     -0.000000     -0.000000
    12   Atom       -0.000000      0.000000     -0.000000
    13   Atom       -0.000000     -0.000000      0.000000
    14   Atom        0.000000     -0.000000     -0.000000
    15   Atom       -0.000000      0.000000      0.000000
    16   Atom       -0.000000      0.000000      0.000000
    17   Atom       -0.000000      0.000000     -0.000000
    18   Atom       -0.000000      0.000000     -0.000000
    19   Atom        0.000000      0.000000     -0.000000
    20   Atom       -0.000000     -0.000000      0.000000
    21   Atom        0.000000     -0.000000     -0.000000
    22   Atom        0.000000      0.000000     -0.000000
    23   Atom        0.000000      0.000000     -0.000000
    24   Atom        0.000000      0.000000     -0.000000
    25   Atom       -0.000000      0.000000     -0.000000
 --------------------------------------------------------
                        XY            XZ            YZ
 --------------------------------------------------------
     1   Atom        0.000000      0.000000     -0.000000
     2   Atom        0.000000      0.000000      0.000000
     3   Atom        0.000000      0.000000     -0.000000
     4   Atom        0.000000     -0.000000      0.000000
     5   Atom       -0.000000     -0.000000     -0.000000
     6   Atom        0.000000     -0.000000     -0.000000
     7   Atom       -0.000000     -0.000000      0.000000
     8   Atom       -0.000000      0.000000      0.000000
     9   Atom       -0.000000      0.000000      0.000000
    10   Atom       -0.000000      0.000000      0.000000
    11   Atom        0.000000     -0.000000      0.000000
    12   Atom       -0.000000      0.000000     -0.000000
    13   Atom        0.000000      0.000000      0.000000
    14   Atom        0.000000      0.000000     -0.000000
    15   Atom       -0.000000     -0.000000     -0.000000
    16   Atom        0.000000      0.000000     -0.000000
    17   Atom        0.000000     -0.000000     -0.000000
    18   Atom       -0.000000     -0.000000      0.000000
    19   Atom       -0.000000     -0.000000      0.000000
    20   Atom       -0.000000      0.000000      0.000000
    21   Atom        0.000000     -0.000000     -0.000000
    22   Atom       -0.000000     -0.000000     -0.000000
    23   Atom       -0.000000     -0.000000     -0.000000
    24   Atom       -0.000000     -0.000000     -0.000000
    25   Atom        0.000000     -0.000000     -0.000000
 --------------------------------------------------------


 ---------------------------------------------------------------------------------
              Anisotropic Spin Dipole Couplings in Principal Axis System
 ---------------------------------------------------------------------------------

       Atom             a.u.   MegaHertz   Gauss  10(-4) cm-1        Axes

              Baa    -0.0000    -0.000    -0.000    -0.000 -0.1528  0.8392  0.5219
     1 C(13)  Bbb    -0.0000    -0.000    -0.000    -0.000  0.1206 -0.5083  0.8527
              Bcc     0.0000     0.000     0.000     0.000  0.9809  0.1932 -0.0235
 
              Baa    -0.0000    -0.000    -0.000    -0.000  0.0680  0.7428 -0.6661
     2 C(13)  Bbb    -0.0000    -0.000    -0.000    -0.000  0.9421 -0.2676 -0.2023
              Bcc     0.0000     0.000     0.000     0.000  0.3285  0.6137  0.7179
 
              Baa    -0.0000    -0.000    -0.000    -0.000  0.8547 -0.1857 -0.4847
     3 C(13)  Bbb     0.0000     0.000     0.000     0.000  0.4998  0.5467  0.6718
              Bcc     0.0000     0.000     0.000     0.000 -0.1402  0.8164 -0.5601
 
              Baa    -0.0000    -0.000    -0.000    -0.000  0.1778 -0.6143  0.7688
     4 F(19)  Bbb     0.0000     0.000     0.000     0.000 -0.5035  0.6144  0.6074
              Bcc     0.0000     0.000     0.000     0.000  0.8455  0.4951  0.2000
 
              Baa    -0.0000    -0.000    -0.000    -0.000  0.6933  0.6678  0.2709
     5 C(13)  Bbb     0.0000     0.000     0.000     0.000 -0.5174  0.1995  0.8322
              Bcc     0.0000     0.000     0.000     0.000 -0.5017  0.7171 -0.4838
 
              Baa    -0.0000    -0.000    -0.000    -0.000 -0.2943  0.8579  0.4212
     6 N(14)  Bbb    -0.0000    -0.000    -0.000    -0.000  0.4557 -0.2614  0.8509
              Bcc     0.0000     0.000     0.000     0.000  0.8401  0.4423 -0.3140
 
              Baa    -0.0000    -0.000    -0.000    -0.000  0.9552  0.2848  0.0809
     7 C(13)  Bbb     0.0000     0.000     0.000     0.000  0.0352 -0.3804  0.9241
              Bcc     0.0000     0.000     0.000     0.000 -0.2940  0.8799  0.3734
 
              Baa    -0.0000    -0.000    -0.000    -0.000  0.5774  0.8009 -0.1585
     8 C(13)  Bbb     0.0000     0.000     0.000     0.000 -0.0814  0.2496  0.9649
              Bcc     0.0000     0.000     0.000     0.000  0.8124 -0.5443  0.2093
 
              Baa    -0.0000    -0.000    -0.000    -0.000  0.6897  0.6423 -0.3343
     9 C(13)  Bbb     0.0000     0.000     0.000     0.000  0.7228 -0.6377  0.2661
              Bcc     0.0000     0.000     0.000     0.000  0.0423  0.4251  0.9041
 
              Baa    -0.0000    -0.000    -0.000    -0.000 -0.1534 -0.1042  0.9826
    10 C(13)  Bbb    -0.0000    -0.000    -0.000    -0.000  0.9112  0.3699  0.1815
              Bcc     0.0000     0.000     0.000     0.000 -0.3824  0.9232  0.0382
 
              Baa    -0.0000    -0.000    -0.000    -0.000 -0.0196  0.7479 -0.6635
    11 C(13)  Bbb    -0.0000    -0.000    -0.000    -0.000  0.0142  0.6638  0.7478
              Bcc     0.0000     0.000     0.000     0.000  0.9997  0.0052 -0.0237
 
              Baa    -0.0000    -0.000    -0.000    -0.000  0.8912  0.4527  0.0273
    12 C(13)  Bbb    -0.0000    -0.000    -0.000    -0.000 -0.1058  0.1491  0.9832
              Bcc     0.0000     0.000     0.000     0.000 -0.4410  0.8791 -0.1808
 
              Baa    -0.0000    -0.000    -0.000    -0.000 -0.6876  0.7246 -0.0465
    13 C(13)  Bbb     0.0000     0.000     0.000     0.000 -0.3528 -0.2774  0.8936
              Bcc     0.0000     0.000     0.000     0.000  0.6346  0.6309  0.4464
 
              Baa    -0.0000     0.000     0.000     0.000 -0.4008  0.8318  0.3841
    14 O(17)  Bbb    -0.0000     0.000     0.000     0.000 -0.2195 -0.4942  0.8412
              Bcc     0.0000    -0.000    -0.000    -0.000  0.8895  0.2529  0.3807
 
              Baa    -0.0000    -0.000    -0.000    -0.000  0.7835  0.2921  0.5485
    15 C(13)  Bbb     0.0000     0.000     0.000     0.000 -0.2326  0.9563 -0.1771
              Bcc     0.0000     0.000     0.000     0.000 -0.5762  0.0111  0.8172
 
              Baa    -0.0000    -0.000    -0.000    -0.000  0.7036 -0.5529 -0.4464
    16 H(1)   Bbb     0.0000     0.000     0.000     0.000  0.5631  0.0507  0.8248
              Bcc     0.0000     0.000     0.000     0.000  0.4334  0.8317 -0.3470
 
              Baa    -0.0000    -0.000    -0.000    -0.000  0.3646  0.2027  0.9088
    17 H(1)   Bbb    -0.0000    -0.000    -0.000    -0.000  0.8794 -0.3959 -0.2645
              Bcc     0.0000     0.000     0.000     0.000  0.3062  0.8956 -0.3226
 
              Baa    -0.0000    -0.000    -0.000    -0.000  0.2834 -0.3169  0.9051
    18 H(1)   Bbb    -0.0000    -0.000    -0.000    -0.000  0.8425  0.5331 -0.0771
              Bcc     0.0000     0.000     0.000     0.000 -0.4581  0.7845  0.4180
 
              Baa    -0.0000    -0.000    -0.000    -0.000  0.0230 -0.2297  0.9730
    19 H(1)   Bbb     0.0000     0.000     0.000     0.000  0.0449  0.9725  0.2285
              Bcc     0.0000     0.000     0.000     0.000  0.9987 -0.0385 -0.0327
 
              Baa    -0.0000    -0.000    -0.000    -0.000  0.4565  0.8530 -0.2529
    20 H(1)   Bbb     0.0000     0.000     0.000     0.000  0.8850 -0.4063  0.2272
              Bcc     0.0000     0.000     0.000     0.000 -0.0911  0.3275  0.9404
 
              Baa    -0.0000    -0.000    -0.000    -0.000  0.0928  0.2248  0.9700
    21 H(1)   Bbb    -0.0000    -0.000    -0.000    -0.000 -0.4546  0.8763 -0.1596
              Bcc     0.0000     0.000     0.000     0.000  0.8858  0.4262 -0.1835
 
              Baa    -0.0000    -0.000    -0.000    -0.000  0.0825  0.2534  0.9638
    22 H(1)   Bbb    -0.0000    -0.000    -0.000    -0.000  0.5401  0.8014 -0.2569
              Bcc     0.0000     0.000     0.000     0.000  0.8376 -0.5417  0.0708
 
              Baa    -0.0000    -0.000    -0.000    -0.000  0.2427  0.0290  0.9697
    23 H(1)   Bbb     0.0000     0.000     0.000     0.000  0.1753  0.9818 -0.0732
              Bcc     0.0000     0.000     0.000     0.000  0.9542 -0.1877 -0.2332
 
              Baa    -0.0000    -0.000    -0.000    -0.000  0.1410  0.4020  0.9047
    24 H(1)   Bbb     0.0000     0.000     0.000     0.000  0.1514  0.8943 -0.4210
              Bcc     0.0000     0.000     0.000     0.000  0.9784 -0.1964 -0.0652
 
              Baa    -0.0000    -0.000    -0.000    -0.000  0.9701 -0.2345  0.0625
    25 H(1)   Bbb    -0.0000    -0.000    -0.000    -0.000 -0.0556  0.0361  0.9978
              Bcc     0.0000     0.000     0.000     0.000  0.2363  0.9714 -0.0219
 

 ---------------------------------------------------------------------------------

 No NMR shielding tensors so no spin-rotation constants.
 Leave Link  601 at Sat Jul 25 09:05:12 2020, MaxMem=  4026531840 cpu:               2.6 elap:               0.4
 (Enter /opt/ohpc/pub/libs/gaussian/g16-A.03/sandybridge/g16/l9999.exe)

 Test job not archived.
 1\1\GINC-SKYLAKE040\FOpt\ULC-wPBE\CC-pVDZ\C12H10F1N1O1\RDU230\25-Jul-2
 020\0\\#P uLC-wPBE/cc-pVDZ iop(3/107=0139700000, 3/108=0139700000) opt
 \\H10 C12 N1 O1 F1\\0,1\C,3.6944659364,-0.1648036213,-0.2560586629\C,2
 .9866599667,0.7676193571,0.5098377285\C,1.6050129398,0.6160471949,0.60
 87012642\F,0.9151610369,1.4674049969,1.4014491207\C,0.9384171303,-0.42
 74397497,-0.066227415\N,1.6417849627,-1.3383300322,-0.7736338363\C,2.9
 746561725,-1.2038720135,-0.8597815356\C,-0.5332823175,-0.6366621592,0.
 0253155284\C,-1.019145798,-1.928618568,0.2823713796\C,-2.3914627338,-2
 .1865777895,0.3855356779\C,-3.2984389915,-1.1349756782,0.2141989918\C,
 -2.8438930333,0.1586535054,-0.0785930751\C,-1.4645078544,0.4123667256,
 -0.1879985731\O,-0.9358457282,1.6230893901,-0.5358177388\C,-1.82975552
 81,2.716416472,-0.6994006762\H,4.7848679232,-0.0936061913,-0.368931516
 3\H,3.4783985743,1.5926677969,1.0423203937\H,3.4962820371,-1.974798493
 8,-1.4497391648\H,-0.2832621365,-2.7353320635,0.4019773823\H,-2.748385
 2367,-3.2025579162,0.6011496797\H,-4.3795795196,-1.3160199193,0.297393
 8609\H,-3.5712306362,0.9643868156,-0.2348457714\H,-2.546668358,2.54346
 32737,-1.5314286103\H,-2.3988164857,2.9254645678,0.2322537795\H,-1.197
 2153225,3.5884640996,-0.9420812117\\Version=EM64L-G16RevA.03\State=1-A
 \HF=-692.4789497\S2=0.\S2-1=0.\S2A=0.\RMSD=8.175e-09\RMSF=1.324e-05\Di
 pole=0.042855,0.7228183,0.0346651\Quadrupole=7.2947511,0.1691332,-7.46
 38843,-1.5782108,0.5861303,-2.0021749\PG=C01 [X(C12H10F1N1O1)]\\@


 BE CAREFUL NOT TO BECOME TOO GOOD OF A SONGBIRD OR 
 THEY'LL THROW YOU INTO A CAGE.

                                    -- SNOOPY TO WOODSTOCK
 Job cpu time:       0 days  2 hours  7 minutes 31.3 seconds.
 Elapsed time:       0 days  0 hours 16 minutes  8.5 seconds.
 File lengths (MBytes):  RWF=    136 Int=      0 D2E=      0 Chk=     12 Scr=      8
 Normal termination of Gaussian 16 at Sat Jul 25 09:05:12 2020.
