 Entering Gaussian System, Link 0=g16
 Input=mols_66_3_04_c-n-c-cF_opt_0.gjf
 Output=mols_66_3_04_c-n-c-cF_opt_0.log
 Initial command:
 /opt/ohpc/pub/libs/gaussian/g16-A.03/sandybridge/g16/l1.exe "/mnt/gpfs2_4m/scratch/rdu230/ondemand/projects/dihedral_energies/7trial/wtuning/mols_66_3_04_c-n-c-cF/Gau-168146.inp" -scrdir="/mnt/gpfs2_4m/scratch/rdu230/ondemand/projects/dihedral_energies/7trial/wtuning/mols_66_3_04_c-n-c-cF/"
 Entering Link 1 = /opt/ohpc/pub/libs/gaussian/g16-A.03/sandybridge/g16/l1.exe PID=    168147.
  
 Copyright (c) 1988,1990,1992,1993,1995,1998,2003,2009,2016,
            Gaussian, Inc.  All Rights Reserved.
  
 This is part of the Gaussian(R) 16 program.  It is based on
 the Gaussian(R) 09 system (copyright 2009, Gaussian, Inc.),
 the Gaussian(R) 03 system (copyright 2003, Gaussian, Inc.),
 the Gaussian(R) 98 system (copyright 1998, Gaussian, Inc.),
 the Gaussian(R) 94 system (copyright 1995, Gaussian, Inc.),
 the Gaussian 92(TM) system (copyright 1992, Gaussian, Inc.),
 the Gaussian 90(TM) system (copyright 1990, Gaussian, Inc.),
 the Gaussian 88(TM) system (copyright 1988, Gaussian, Inc.),
 the Gaussian 86(TM) system (copyright 1986, Carnegie Mellon
 University), and the Gaussian 82(TM) system (copyright 1983,
 Carnegie Mellon University). Gaussian is a federally registered
 trademark of Gaussian, Inc.
  
 This software contains proprietary and confidential information,
 including trade secrets, belonging to Gaussian, Inc.
  
 This software is provided under written license and may be
 used, copied, transmitted, or stored only in accord with that
 written license.
  
 The following legend is applicable only to US Government
 contracts under FAR:
  
                    RESTRICTED RIGHTS LEGEND
  
 Use, reproduction and disclosure by the US Government is
 subject to restrictions as set forth in subparagraphs (a)
 and (c) of the Commercial Computer Software - Restricted
 Rights clause in FAR 52.227-19.
  
 Gaussian, Inc.
 340 Quinnipiac St., Bldg. 40, Wallingford CT 06492
  
  
 ---------------------------------------------------------------
 Warning -- This program may not be used in any manner that
 competes with the business of Gaussian, Inc. or will provide
 assistance to any competitor of Gaussian, Inc.  The licensee
 of this program is prohibited from giving any competitor of
 Gaussian, Inc. access to this program.  By using this program,
 the user acknowledges that Gaussian, Inc. is engaged in the
 business of creating and licensing software in the field of
 computational chemistry and represents and warrants to the
 licensee that it is not a competitor of Gaussian, Inc. and that
 it will not use this program in any manner prohibited above.
 ---------------------------------------------------------------
  

 Cite this work as:
 Gaussian 16, Revision A.03,
 M. J. Frisch, G. W. Trucks, H. B. Schlegel, G. E. Scuseria, 
 M. A. Robb, J. R. Cheeseman, G. Scalmani, V. Barone, 
 G. A. Petersson, H. Nakatsuji, X. Li, M. Caricato, A. V. Marenich, 
 J. Bloino, B. G. Janesko, R. Gomperts, B. Mennucci, H. P. Hratchian, 
 J. V. Ortiz, A. F. Izmaylov, J. L. Sonnenberg, D. Williams-Young, 
 F. Ding, F. Lipparini, F. Egidi, J. Goings, B. Peng, A. Petrone, 
 T. Henderson, D. Ranasinghe, V. G. Zakrzewski, J. Gao, N. Rega, 
 G. Zheng, W. Liang, M. Hada, M. Ehara, K. Toyota, R. Fukuda, 
 J. Hasegawa, M. Ishida, T. Nakajima, Y. Honda, O. Kitao, H. Nakai, 
 T. Vreven, K. Throssell, J. A. Montgomery, Jr., J. E. Peralta, 
 F. Ogliaro, M. J. Bearpark, J. J. Heyd, E. N. Brothers, K. N. Kudin, 
 V. N. Staroverov, T. A. Keith, R. Kobayashi, J. Normand, 
 K. Raghavachari, A. P. Rendell, J. C. Burant, S. S. Iyengar, 
 J. Tomasi, M. Cossi, J. M. Millam, M. Klene, C. Adamo, R. Cammi, 
 J. W. Ochterski, R. L. Martin, K. Morokuma, O. Farkas, 
 J. B. Foresman, and D. J. Fox, Gaussian, Inc., Wallingford CT, 2016.
 
 ******************************************
 Gaussian 16:  EM64L-G16RevA.03 25-Dec-2016
                24-Jul-2020 
 ******************************************
 %mem=30GB
 %nproc=8
 Will use up to    8 processors via shared memory.
 ---------------------------------------------------------------
 #P uLC-wPBE/cc-pVDZ iop(3/107=0133000000, 3/108=0133000000) opt
 ---------------------------------------------------------------
 1/18=20,19=15,26=3,38=1/1,3;
 2/9=110,12=2,17=6,18=5,40=1/2;
 3/5=16,11=2,25=1,30=1,71=1,74=-41,107=133000000,108=133000000,116=2/1,2,3;
 4//1;
 5/5=2,38=5/2;
 6/7=2,8=2,9=2,10=2,28=1/1;
 7//1,2,3,16;
 1/18=20,19=15,26=3/3(2);
 2/9=110/2;
 99//99;
 2/9=110/2;
 3/5=16,11=2,25=1,30=1,71=1,74=-41,107=133000000,108=133000000,116=2/1,2,3;
 4/5=5,16=3,69=1/1;
 5/5=2,38=5/2;
 7//1,2,3,16;
 1/18=20,19=15,26=3/3(-5);
 2/9=110/2;
 6/7=2,8=2,9=2,10=2,19=2,28=1/1;
 99/9=1/99;
 Leave Link    1 at Fri Jul 24 12:11:57 2020, MaxMem=  4026531840 cpu:               3.0 elap:               0.4
 (Enter /opt/ohpc/pub/libs/gaussian/g16-A.03/sandybridge/g16/l101.exe)
 -------------
 H20 C33 N3 F3
 -------------
 Symbolic Z-matrix:
 Charge =  0 Multiplicity = 1
 C                    -12.11111  -0.49914   0.04204 
 C                    -11.59685   0.73653   0.51276 
 C                    -10.18267   0.86485   0.4003 
 C                    -9.41117  -0.14259  -0.04049 
 N                    -9.95921  -1.36846  -0.56784 
 C                    -11.26834  -1.43221  -0.49594 
 C                    -7.95013  -0.13397  -0.066 
 C                    -7.20659  -0.34164  -1.28222 
 C                    -5.87478  -0.31918  -1.33376 
 C                    -5.04753   0.04951  -0.22048 
 C                    -5.80271   0.28366   0.96332 
 C                    -7.1259    0.18271   1.03918 
 F                    -7.77542   0.37711   2.16294 
 C                    -3.65435   0.11268  -0.25108 
 C                    -2.96067   0.83796  -1.1962 
 C                    -1.58046   0.90781  -1.15411 
 C                    -0.82291   0.17727  -0.25047 
 N                    -1.45917  -0.61163   0.63502 
 C                    -2.78885  -0.63017   0.60534 
 C                     0.63515   0.11337  -0.25704 
 C                     1.29555  -1.16043  -0.03329 
 C                     2.71497  -1.24768   0.06116 
 C                     3.44694  -0.07581  -0.04739 
 C                     2.83276   1.1133   -0.3086 
 C                     1.42607   1.26199  -0.39388 
 F                     0.84532   2.39407  -0.53724 
 C                     4.95728  -0.10381  -0.02413 
 C                     5.54486  -0.64603   1.15021 
 C                     6.98421  -0.68826   1.23249 
 C                     7.75617  -0.30431   0.05635 
 N                     7.14905   0.1952   -0.98969 
 C                     5.74811   0.24057  -1.00554 
 C                     9.18568  -0.4279    0.06868 
 C                     9.78221  -1.61785  -0.2769 
 C                     11.14801  -1.69609  -0.35099 
 C                     11.96875  -0.58345   0.03774 
 C                     11.34279   0.57528   0.35512 
 C                     9.95691   0.69999   0.42282 
 F                     9.40286   1.87156   0.81812 
 H                    -13.23202  -0.55688   0.07126 
 H                    -12.16781   1.5055    0.93375 
 H                    -9.72606   1.81652   0.81122 
 H                    -11.74134  -2.41551  -0.80715 
 H                    -7.83744  -0.65899  -2.21304 
 H                    -5.30005  -0.51157  -2.32312 
 H                    -5.25736   0.4501    1.87019 
 H                    -3.49222   1.53245  -1.92509 
 H                    -1.06668   1.5324   -1.8898 
 H                    -3.31396  -1.32137   1.3893 
 H                     0.74039  -2.00819   0.12109 
 H                     3.14407  -2.17114   0.20807 
 H                     3.38469   2.08923  -0.34455 
 H                     5.00216  -0.93236   1.97797 
 H                     7.52864  -1.08103   2.05385 
 H                     5.3558    0.7046   -1.99294 
 H                     9.18188  -2.43307  -0.6096 
 H                     11.67569  -2.66687  -0.56304 
 H                     13.06586  -0.6536   -0.07037 
 H                     11.96964   1.43625   0.66048 
 
 ITRead=  0  0  0  0  0  0  0  0  0  0  0  0  0  0  0  0  0  0  0  0
 ITRead=  0  0  0  0  0  0  0  0  0  0  0  0  0  0  0  0  0  0  0  0
 ITRead=  0  0  0  0  0  0  0  0  0  0  0  0  0  0  0  0  0  0  0
 MicOpt= -1 -1 -1 -1 -1 -1 -1 -1 -1 -1 -1 -1 -1 -1 -1 -1 -1 -1 -1 -1
 MicOpt= -1 -1 -1 -1 -1 -1 -1 -1 -1 -1 -1 -1 -1 -1 -1 -1 -1 -1 -1 -1
 MicOpt= -1 -1 -1 -1 -1 -1 -1 -1 -1 -1 -1 -1 -1 -1 -1 -1 -1 -1 -1
 NAtoms=     59 NQM=       59 NQMF=       0 NMMI=      0 NMMIF=      0
                NMic=       0 NMicF=      0.
                    Isotopes and Nuclear Properties:
 (Nuclear quadrupole moments (NQMom) in fm**2, nuclear magnetic moments (NMagM)
  in nuclear magnetons)

  Atom         1           2           3           4           5           6           7           8           9          10
 IAtWgt=          12          12          12          12          14          12          12          12          12          12
 AtmWgt=  12.0000000  12.0000000  12.0000000  12.0000000  14.0030740  12.0000000  12.0000000  12.0000000  12.0000000  12.0000000
 NucSpn=           0           0           0           0           2           0           0           0           0           0
 AtZEff=  -0.0000000  -0.0000000  -0.0000000  -0.0000000  -0.0000000  -0.0000000  -0.0000000  -0.0000000  -0.0000000  -0.0000000
 NQMom=    0.0000000   0.0000000   0.0000000   0.0000000   2.0440000   0.0000000   0.0000000   0.0000000   0.0000000   0.0000000
 NMagM=    0.0000000   0.0000000   0.0000000   0.0000000   0.4037610   0.0000000   0.0000000   0.0000000   0.0000000   0.0000000
 AtZNuc=   6.0000000   6.0000000   6.0000000   6.0000000   7.0000000   6.0000000   6.0000000   6.0000000   6.0000000   6.0000000

  Atom        11          12          13          14          15          16          17          18          19          20
 IAtWgt=          12          12          19          12          12          12          12          14          12          12
 AtmWgt=  12.0000000  12.0000000  18.9984033  12.0000000  12.0000000  12.0000000  12.0000000  14.0030740  12.0000000  12.0000000
 NucSpn=           0           0           1           0           0           0           0           2           0           0
 AtZEff=  -0.0000000  -0.0000000  -0.0000000  -0.0000000  -0.0000000  -0.0000000  -0.0000000  -0.0000000  -0.0000000  -0.0000000
 NQMom=    0.0000000   0.0000000   0.0000000   0.0000000   0.0000000   0.0000000   0.0000000   2.0440000   0.0000000   0.0000000
 NMagM=    0.0000000   0.0000000   2.6288670   0.0000000   0.0000000   0.0000000   0.0000000   0.4037610   0.0000000   0.0000000
 AtZNuc=   6.0000000   6.0000000   9.0000000   6.0000000   6.0000000   6.0000000   6.0000000   7.0000000   6.0000000   6.0000000

  Atom        21          22          23          24          25          26          27          28          29          30
 IAtWgt=          12          12          12          12          12          19          12          12          12          12
 AtmWgt=  12.0000000  12.0000000  12.0000000  12.0000000  12.0000000  18.9984033  12.0000000  12.0000000  12.0000000  12.0000000
 NucSpn=           0           0           0           0           0           1           0           0           0           0
 AtZEff=  -0.0000000  -0.0000000  -0.0000000  -0.0000000  -0.0000000  -0.0000000  -0.0000000  -0.0000000  -0.0000000  -0.0000000
 NQMom=    0.0000000   0.0000000   0.0000000   0.0000000   0.0000000   0.0000000   0.0000000   0.0000000   0.0000000   0.0000000
 NMagM=    0.0000000   0.0000000   0.0000000   0.0000000   0.0000000   2.6288670   0.0000000   0.0000000   0.0000000   0.0000000
 AtZNuc=   6.0000000   6.0000000   6.0000000   6.0000000   6.0000000   9.0000000   6.0000000   6.0000000   6.0000000   6.0000000

  Atom        31          32          33          34          35          36          37          38          39          40
 IAtWgt=          14          12          12          12          12          12          12          12          19           1
 AtmWgt=  14.0030740  12.0000000  12.0000000  12.0000000  12.0000000  12.0000000  12.0000000  12.0000000  18.9984033   1.0078250
 NucSpn=           2           0           0           0           0           0           0           0           1           1
 AtZEff=  -0.0000000  -0.0000000  -0.0000000  -0.0000000  -0.0000000  -0.0000000  -0.0000000  -0.0000000  -0.0000000  -0.0000000
 NQMom=    2.0440000   0.0000000   0.0000000   0.0000000   0.0000000   0.0000000   0.0000000   0.0000000   0.0000000   0.0000000
 NMagM=    0.4037610   0.0000000   0.0000000   0.0000000   0.0000000   0.0000000   0.0000000   0.0000000   2.6288670   2.7928460
 AtZNuc=   7.0000000   6.0000000   6.0000000   6.0000000   6.0000000   6.0000000   6.0000000   6.0000000   9.0000000   1.0000000

  Atom        41          42          43          44          45          46          47          48          49          50
 IAtWgt=           1           1           1           1           1           1           1           1           1           1
 AtmWgt=   1.0078250   1.0078250   1.0078250   1.0078250   1.0078250   1.0078250   1.0078250   1.0078250   1.0078250   1.0078250
 NucSpn=           1           1           1           1           1           1           1           1           1           1
 AtZEff=  -0.0000000  -0.0000000  -0.0000000  -0.0000000  -0.0000000  -0.0000000  -0.0000000  -0.0000000  -0.0000000  -0.0000000
 NQMom=    0.0000000   0.0000000   0.0000000   0.0000000   0.0000000   0.0000000   0.0000000   0.0000000   0.0000000   0.0000000
 NMagM=    2.7928460   2.7928460   2.7928460   2.7928460   2.7928460   2.7928460   2.7928460   2.7928460   2.7928460   2.7928460
 AtZNuc=   1.0000000   1.0000000   1.0000000   1.0000000   1.0000000   1.0000000   1.0000000   1.0000000   1.0000000   1.0000000

  Atom        51          52          53          54          55          56          57          58          59
 IAtWgt=           1           1           1           1           1           1           1           1           1
 AtmWgt=   1.0078250   1.0078250   1.0078250   1.0078250   1.0078250   1.0078250   1.0078250   1.0078250   1.0078250
 NucSpn=           1           1           1           1           1           1           1           1           1
 AtZEff=  -0.0000000  -0.0000000  -0.0000000  -0.0000000  -0.0000000  -0.0000000  -0.0000000  -0.0000000  -0.0000000
 NQMom=    0.0000000   0.0000000   0.0000000   0.0000000   0.0000000   0.0000000   0.0000000   0.0000000   0.0000000
 NMagM=    2.7928460   2.7928460   2.7928460   2.7928460   2.7928460   2.7928460   2.7928460   2.7928460   2.7928460
 AtZNuc=   1.0000000   1.0000000   1.0000000   1.0000000   1.0000000   1.0000000   1.0000000   1.0000000   1.0000000
 Leave Link  101 at Fri Jul 24 12:11:58 2020, MaxMem=  4026531840 cpu:               2.9 elap:               0.4
 (Enter /opt/ohpc/pub/libs/gaussian/g16-A.03/sandybridge/g16/l103.exe)

 GradGradGradGradGradGradGradGradGradGradGradGradGradGradGradGradGradGrad
 Berny optimization.
 Initialization pass.
                           ----------------------------
                           !    Initial Parameters    !
                           ! (Angstroms and Degrees)  !
 --------------------------                            --------------------------
 ! Name  Definition              Value          Derivative Info.                !
 --------------------------------------------------------------------------------
 ! R1    R(1,2)                  1.4188         estimate D2E/DX2                !
 ! R2    R(1,6)                  1.3676         estimate D2E/DX2                !
 ! R3    R(1,40)                 1.1228         estimate D2E/DX2                !
 ! R4    R(2,3)                  1.4244         estimate D2E/DX2                !
 ! R5    R(2,41)                 1.0462         estimate D2E/DX2                !
 ! R6    R(3,4)                  1.3433         estimate D2E/DX2                !
 ! R7    R(3,42)                 1.1327         estimate D2E/DX2                !
 ! R8    R(4,5)                  1.4426         estimate D2E/DX2                !
 ! R9    R(4,7)                  1.4613         estimate D2E/DX2                !
 ! R10   R(5,6)                  1.3127         estimate D2E/DX2                !
 ! R11   R(6,43)                 1.1347         estimate D2E/DX2                !
 ! R12   R(7,8)                  1.4406         estimate D2E/DX2                !
 ! R13   R(7,12)                 1.4146         estimate D2E/DX2                !
 ! R14   R(8,9)                  1.333          estimate D2E/DX2                !
 ! R15   R(8,44)                 1.1684         estimate D2E/DX2                !
 ! R16   R(9,10)                 1.4352         estimate D2E/DX2                !
 ! R17   R(9,45)                 1.1602         estimate D2E/DX2                !
 ! R18   R(10,11)                1.4236         estimate D2E/DX2                !
 ! R19   R(10,14)                1.3949         estimate D2E/DX2                !
 ! R20   R(11,12)                1.3292         estimate D2E/DX2                !
 ! R21   R(11,46)                1.0712         estimate D2E/DX2                !
 ! R22   R(12,13)                1.3124         estimate D2E/DX2                !
 ! R23   R(14,15)                1.3786         estimate D2E/DX2                !
 ! R24   R(14,19)                1.4263         estimate D2E/DX2                !
 ! R25   R(15,16)                1.3826         estimate D2E/DX2                !
 ! R26   R(15,47)                1.1385         estimate D2E/DX2                !
 ! R27   R(16,17)                1.3871         estimate D2E/DX2                !
 ! R28   R(16,48)                1.0933         estimate D2E/DX2                !
 ! R29   R(17,18)                1.3458         estimate D2E/DX2                !
 ! R30   R(17,20)                1.4595         estimate D2E/DX2                !
 ! R31   R(18,19)                1.3301         estimate D2E/DX2                !
 ! R32   R(19,49)                1.1697         estimate D2E/DX2                !
 ! R33   R(20,21)                1.4522         estimate D2E/DX2                !
 ! R34   R(20,25)                1.4013         estimate D2E/DX2                !
 ! R35   R(21,22)                1.4252         estimate D2E/DX2                !
 ! R36   R(21,50)                1.0251         estimate D2E/DX2                !
 ! R37   R(22,23)                1.386          estimate D2E/DX2                !
 ! R38   R(22,51)                1.0288         estimate D2E/DX2                !
 ! R39   R(23,24)                1.3636         estimate D2E/DX2                !
 ! R40   R(23,27)                1.5108         estimate D2E/DX2                !
 ! R41   R(24,25)                1.4171         estimate D2E/DX2                !
 ! R42   R(24,52)                1.1218         estimate D2E/DX2                !
 ! R43   R(25,26)                1.2804         estimate D2E/DX2                !
 ! R44   R(27,28)                1.4207         estimate D2E/DX2                !
 ! R45   R(27,32)                1.3066         estimate D2E/DX2                !
 ! R46   R(28,29)                1.4423         estimate D2E/DX2                !
 ! R47   R(28,53)                1.0304         estimate D2E/DX2                !
 ! R48   R(29,30)                1.4583         estimate D2E/DX2                !
 ! R49   R(29,54)                1.0608         estimate D2E/DX2                !
 ! R50   R(30,31)                1.3085         estimate D2E/DX2                !
 ! R51   R(30,33)                1.4349         estimate D2E/DX2                !
 ! R52   R(31,32)                1.4018         estimate D2E/DX2                !
 ! R53   R(32,55)                1.1594         estimate D2E/DX2                !
 ! R54   R(33,34)                1.3752         estimate D2E/DX2                !
 ! R55   R(33,38)                1.4115         estimate D2E/DX2                !
 ! R56   R(34,35)                1.3701         estimate D2E/DX2                !
 ! R57   R(34,56)                1.0657         estimate D2E/DX2                !
 ! R58   R(35,36)                1.4362         estimate D2E/DX2                !
 ! R59   R(35,57)                1.1251         estimate D2E/DX2                !
 ! R60   R(36,37)                1.3547         estimate D2E/DX2                !
 ! R61   R(36,58)                1.1047         estimate D2E/DX2                !
 ! R62   R(37,38)                1.3931         estimate D2E/DX2                !
 ! R63   R(37,59)                1.1079         estimate D2E/DX2                !
 ! R64   R(38,39)                1.3549         estimate D2E/DX2                !
 ! A1    A(2,1,6)              120.0905         estimate D2E/DX2                !
 ! A2    A(2,1,40)             113.4546         estimate D2E/DX2                !
 ! A3    A(6,1,40)             126.1831         estimate D2E/DX2                !
 ! A4    A(1,2,3)              114.3386         estimate D2E/DX2                !
 ! A5    A(1,2,41)             125.1584         estimate D2E/DX2                !
 ! A6    A(3,2,41)             120.4888         estimate D2E/DX2                !
 ! A7    A(2,3,4)              121.9069         estimate D2E/DX2                !
 ! A8    A(2,3,42)             116.5683         estimate D2E/DX2                !
 ! A9    A(4,3,42)             121.1732         estimate D2E/DX2                !
 ! A10   A(3,4,5)              122.6193         estimate D2E/DX2                !
 ! A11   A(3,4,7)              125.1373         estimate D2E/DX2                !
 ! A12   A(5,4,7)              112.2382         estimate D2E/DX2                !
 ! A13   A(4,5,6)              113.5856         estimate D2E/DX2                !
 ! A14   A(1,6,5)              127.0847         estimate D2E/DX2                !
 ! A15   A(1,6,43)             116.2486         estimate D2E/DX2                !
 ! A16   A(5,6,43)             116.2836         estimate D2E/DX2                !
 ! A17   A(4,7,8)              122.0021         estimate D2E/DX2                !
 ! A18   A(4,7,12)             124.7678         estimate D2E/DX2                !
 ! A19   A(8,7,12)             113.0253         estimate D2E/DX2                !
 ! A20   A(7,8,9)              123.0866         estimate D2E/DX2                !
 ! A21   A(7,8,44)             115.6633         estimate D2E/DX2                !
 ! A22   A(9,8,44)             120.8793         estimate D2E/DX2                !
 ! A23   A(8,9,10)             123.3835         estimate D2E/DX2                !
 ! A24   A(8,9,45)             121.6743         estimate D2E/DX2                !
 ! A25   A(10,9,45)            114.7424         estimate D2E/DX2                !
 ! A26   A(9,10,11)            112.4294         estimate D2E/DX2                !
 ! A27   A(9,10,14)            124.7718         estimate D2E/DX2                !
 ! A28   A(11,10,14)           122.7251         estimate D2E/DX2                !
 ! A29   A(10,11,12)           124.2674         estimate D2E/DX2                !
 ! A30   A(10,11,46)           117.3532         estimate D2E/DX2                !
 ! A31   A(12,11,46)           118.0526         estimate D2E/DX2                !
 ! A32   A(7,12,11)            123.5352         estimate D2E/DX2                !
 ! A33   A(7,12,13)            114.4408         estimate D2E/DX2                !
 ! A34   A(11,12,13)           122.0237         estimate D2E/DX2                !
 ! A35   A(10,14,15)           122.7793         estimate D2E/DX2                !
 ! A36   A(10,14,19)           124.7008         estimate D2E/DX2                !
 ! A37   A(15,14,19)           112.3534         estimate D2E/DX2                !
 ! A38   A(14,15,16)           120.5316         estimate D2E/DX2                !
 ! A39   A(14,15,47)           121.6632         estimate D2E/DX2                !
 ! A40   A(16,15,47)           117.0494         estimate D2E/DX2                !
 ! A41   A(15,16,17)           122.5752         estimate D2E/DX2                !
 ! A42   A(15,16,48)           118.5216         estimate D2E/DX2                !
 ! A43   A(17,16,48)           118.8541         estimate D2E/DX2                !
 ! A44   A(16,17,18)           118.6288         estimate D2E/DX2                !
 ! A45   A(16,17,20)           124.4529         estimate D2E/DX2                !
 ! A46   A(18,17,20)           116.7182         estimate D2E/DX2                !
 ! A47   A(17,18,19)           117.7808         estimate D2E/DX2                !
 ! A48   A(14,19,18)           127.7879         estimate D2E/DX2                !
 ! A49   A(14,19,49)           115.9629         estimate D2E/DX2                !
 ! A50   A(18,19,49)           116.2364         estimate D2E/DX2                !
 ! A51   A(17,20,21)           119.4749         estimate D2E/DX2                !
 ! A52   A(17,20,25)           121.8994         estimate D2E/DX2                !
 ! A53   A(21,20,25)           118.5141         estimate D2E/DX2                !
 ! A54   A(20,21,22)           121.1199         estimate D2E/DX2                !
 ! A55   A(20,21,50)           120.1566         estimate D2E/DX2                !
 ! A56   A(22,21,50)           118.6052         estimate D2E/DX2                !
 ! A57   A(21,22,23)           117.9714         estimate D2E/DX2                !
 ! A58   A(21,22,51)           118.672          estimate D2E/DX2                !
 ! A59   A(23,22,51)           123.3565         estimate D2E/DX2                !
 ! A60   A(22,23,24)           120.9612         estimate D2E/DX2                !
 ! A61   A(22,23,27)           120.7378         estimate D2E/DX2                !
 ! A62   A(24,23,27)           117.9948         estimate D2E/DX2                !
 ! A63   A(23,24,25)           123.3761         estimate D2E/DX2                !
 ! A64   A(23,24,52)           122.9007         estimate D2E/DX2                !
 ! A65   A(25,24,52)           113.2781         estimate D2E/DX2                !
 ! A66   A(20,25,24)           117.93           estimate D2E/DX2                !
 ! A67   A(20,25,26)           118.6635         estimate D2E/DX2                !
 ! A68   A(24,25,26)           123.35           estimate D2E/DX2                !
 ! A69   A(23,27,28)           115.6753         estimate D2E/DX2                !
 ! A70   A(23,27,32)           126.0603         estimate D2E/DX2                !
 ! A71   A(28,27,32)           118.1089         estimate D2E/DX2                !
 ! A72   A(27,28,29)           118.1034         estimate D2E/DX2                !
 ! A73   A(27,28,53)           123.5231         estimate D2E/DX2                !
 ! A74   A(29,28,53)           118.1418         estimate D2E/DX2                !
 ! A75   A(28,29,30)           118.3301         estimate D2E/DX2                !
 ! A76   A(28,29,54)           124.5532         estimate D2E/DX2                !
 ! A77   A(30,29,54)           116.7616         estimate D2E/DX2                !
 ! A78   A(29,30,31)           119.9747         estimate D2E/DX2                !
 ! A79   A(29,30,33)           119.8516         estimate D2E/DX2                !
 ! A80   A(31,30,33)           120.1309         estimate D2E/DX2                !
 ! A81   A(30,31,32)           119.0181         estimate D2E/DX2                !
 ! A82   A(27,32,31)           126.0072         estimate D2E/DX2                !
 ! A83   A(27,32,55)           122.7097         estimate D2E/DX2                !
 ! A84   A(31,32,55)           111.1466         estimate D2E/DX2                !
 ! A85   A(30,33,34)           120.2989         estimate D2E/DX2                !
 ! A86   A(30,33,38)           118.5331         estimate D2E/DX2                !
 ! A87   A(34,33,38)           121.1616         estimate D2E/DX2                !
 ! A88   A(33,34,35)           119.6981         estimate D2E/DX2                !
 ! A89   A(33,34,56)           119.7367         estimate D2E/DX2                !
 ! A90   A(35,34,56)           120.067          estimate D2E/DX2                !
 ! A91   A(34,35,36)           120.7177         estimate D2E/DX2                !
 ! A92   A(34,35,57)           121.8048         estimate D2E/DX2                !
 ! A93   A(36,35,57)           116.8367         estimate D2E/DX2                !
 ! A94   A(35,36,37)           117.516          estimate D2E/DX2                !
 ! A95   A(35,36,58)           119.4634         estimate D2E/DX2                !
 ! A96   A(37,36,58)           122.4229         estimate D2E/DX2                !
 ! A97   A(36,37,38)           123.204          estimate D2E/DX2                !
 ! A98   A(36,37,59)           117.8936         estimate D2E/DX2                !
 ! A99   A(38,37,59)           118.6783         estimate D2E/DX2                !
 ! A100  A(33,38,37)           117.3755         estimate D2E/DX2                !
 ! A101  A(33,38,39)           122.7319         estimate D2E/DX2                !
 ! A102  A(37,38,39)           119.8926         estimate D2E/DX2                !
 ! D1    D(6,1,2,3)             -1.6169         estimate D2E/DX2                !
 ! D2    D(6,1,2,41)           179.7544         estimate D2E/DX2                !
 ! D3    D(40,1,2,3)          -175.9921         estimate D2E/DX2                !
 ! D4    D(40,1,2,41)            5.3793         estimate D2E/DX2                !
 ! D5    D(2,1,6,5)              4.6646         estimate D2E/DX2                !
 ! D6    D(2,1,6,43)           177.2485         estimate D2E/DX2                !
 ! D7    D(40,1,6,5)           178.2685         estimate D2E/DX2                !
 ! D8    D(40,1,6,43)           -9.1476         estimate D2E/DX2                !
 ! D9    D(1,2,3,4)             -3.8654         estimate D2E/DX2                !
 ! D10   D(1,2,3,42)          -177.1291         estimate D2E/DX2                !
 ! D11   D(41,2,3,4)           174.8336         estimate D2E/DX2                !
 ! D12   D(41,2,3,42)            1.5699         estimate D2E/DX2                !
 ! D13   D(2,3,4,5)              6.9505         estimate D2E/DX2                !
 ! D14   D(2,3,4,7)           -173.9473         estimate D2E/DX2                !
 ! D15   D(42,3,4,5)           179.9073         estimate D2E/DX2                !
 ! D16   D(42,3,4,7)            -0.9906         estimate D2E/DX2                !
 ! D17   D(3,4,5,6)             -4.006          estimate D2E/DX2                !
 ! D18   D(7,4,5,6)            176.7873         estimate D2E/DX2                !
 ! D19   D(3,4,7,8)           -122.8902         estimate D2E/DX2                !
 ! D20   D(3,4,7,12)            51.5414         estimate D2E/DX2                !
 ! D21   D(5,4,7,8)             56.2928         estimate D2E/DX2                !
 ! D22   D(5,4,7,12)          -129.2756         estimate D2E/DX2                !
 ! D23   D(4,5,6,1)             -1.8463         estimate D2E/DX2                !
 ! D24   D(4,5,6,43)          -174.428          estimate D2E/DX2                !
 ! D25   D(4,7,8,9)            179.0107         estimate D2E/DX2                !
 ! D26   D(4,7,8,44)            -7.9357         estimate D2E/DX2                !
 ! D27   D(12,7,8,9)             3.9793         estimate D2E/DX2                !
 ! D28   D(12,7,8,44)          177.0329         estimate D2E/DX2                !
 ! D29   D(4,7,12,11)         -174.6201         estimate D2E/DX2                !
 ! D30   D(4,7,12,13)            5.1612         estimate D2E/DX2                !
 ! D31   D(8,7,12,11)            0.2502         estimate D2E/DX2                !
 ! D32   D(8,7,12,13)         -179.9685         estimate D2E/DX2                !
 ! D33   D(7,8,9,10)            -6.7054         estimate D2E/DX2                !
 ! D34   D(7,8,9,45)           178.7034         estimate D2E/DX2                !
 ! D35   D(44,8,9,10)         -179.4083         estimate D2E/DX2                !
 ! D36   D(44,8,9,45)            6.0005         estimate D2E/DX2                !
 ! D37   D(8,9,10,11)            4.6087         estimate D2E/DX2                !
 ! D38   D(8,9,10,14)         -178.4504         estimate D2E/DX2                !
 ! D39   D(45,9,10,11)         179.5412         estimate D2E/DX2                !
 ! D40   D(45,9,10,14)          -3.5179         estimate D2E/DX2                !
 ! D41   D(9,10,11,12)          -0.3598         estimate D2E/DX2                !
 ! D42   D(9,10,11,46)         172.9316         estimate D2E/DX2                !
 ! D43   D(14,10,11,12)       -177.3728         estimate D2E/DX2                !
 ! D44   D(14,10,11,46)         -4.0815         estimate D2E/DX2                !
 ! D45   D(9,10,14,15)          53.0257         estimate D2E/DX2                !
 ! D46   D(9,10,14,19)        -121.9213         estimate D2E/DX2                !
 ! D47   D(11,10,14,15)       -130.3359         estimate D2E/DX2                !
 ! D48   D(11,10,14,19)         54.7171         estimate D2E/DX2                !
 ! D49   D(10,11,12,7)          -1.9247         estimate D2E/DX2                !
 ! D50   D(10,11,12,13)        178.3101         estimate D2E/DX2                !
 ! D51   D(46,11,12,7)        -175.1727         estimate D2E/DX2                !
 ! D52   D(46,11,12,13)          5.0621         estimate D2E/DX2                !
 ! D53   D(10,14,15,16)        177.6368         estimate D2E/DX2                !
 ! D54   D(10,14,15,47)          7.8902         estimate D2E/DX2                !
 ! D55   D(19,14,15,16)         -6.8538         estimate D2E/DX2                !
 ! D56   D(19,14,15,47)       -176.6004         estimate D2E/DX2                !
 ! D57   D(10,14,19,18)       -179.5587         estimate D2E/DX2                !
 ! D58   D(10,14,19,49)         -0.922          estimate D2E/DX2                !
 ! D59   D(15,14,19,18)          5.0338         estimate D2E/DX2                !
 ! D60   D(15,14,19,49)       -176.3294         estimate D2E/DX2                !
 ! D61   D(14,15,16,17)          5.5806         estimate D2E/DX2                !
 ! D62   D(14,15,16,48)       -176.9984         estimate D2E/DX2                !
 ! D63   D(47,15,16,17)        175.7862         estimate D2E/DX2                !
 ! D64   D(47,15,16,48)         -6.7928         estimate D2E/DX2                !
 ! D65   D(15,16,17,18)         -1.22           estimate D2E/DX2                !
 ! D66   D(15,16,17,20)        173.4616         estimate D2E/DX2                !
 ! D67   D(48,16,17,18)       -178.6327         estimate D2E/DX2                !
 ! D68   D(48,16,17,20)         -3.9511         estimate D2E/DX2                !
 ! D69   D(16,17,18,19)         -0.9838         estimate D2E/DX2                !
 ! D70   D(20,17,18,19)       -176.0751         estimate D2E/DX2                !
 ! D71   D(16,17,20,21)       -137.8655         estimate D2E/DX2                !
 ! D72   D(16,17,20,25)         46.0335         estimate D2E/DX2                !
 ! D73   D(18,17,20,21)         36.9086         estimate D2E/DX2                !
 ! D74   D(18,17,20,25)       -139.1924         estimate D2E/DX2                !
 ! D75   D(17,18,19,14)         -1.12           estimate D2E/DX2                !
 ! D76   D(17,18,19,49)       -179.7535         estimate D2E/DX2                !
 ! D77   D(17,20,21,22)       -175.5481         estimate D2E/DX2                !
 ! D78   D(17,20,21,50)          0.4427         estimate D2E/DX2                !
 ! D79   D(25,20,21,22)          0.6851         estimate D2E/DX2                !
 ! D80   D(25,20,21,50)        176.6758         estimate D2E/DX2                !
 ! D81   D(17,20,25,24)        176.2775         estimate D2E/DX2                !
 ! D82   D(17,20,25,26)         -1.0807         estimate D2E/DX2                !
 ! D83   D(21,20,25,24)          0.1403         estimate D2E/DX2                !
 ! D84   D(21,20,25,26)       -177.2179         estimate D2E/DX2                !
 ! D85   D(20,21,22,23)          0.9329         estimate D2E/DX2                !
 ! D86   D(20,21,22,51)       -179.2195         estimate D2E/DX2                !
 ! D87   D(50,21,22,23)       -175.1186         estimate D2E/DX2                !
 ! D88   D(50,21,22,51)          4.7289         estimate D2E/DX2                !
 ! D89   D(21,22,23,24)         -3.4736         estimate D2E/DX2                !
 ! D90   D(21,22,23,27)       -176.9906         estimate D2E/DX2                !
 ! D91   D(51,22,23,24)        176.6866         estimate D2E/DX2                !
 ! D92   D(51,22,23,27)          3.1695         estimate D2E/DX2                !
 ! D93   D(22,23,24,25)          4.5389         estimate D2E/DX2                !
 ! D94   D(22,23,24,52)        176.3643         estimate D2E/DX2                !
 ! D95   D(27,23,24,25)        178.229          estimate D2E/DX2                !
 ! D96   D(27,23,24,52)         -9.9455         estimate D2E/DX2                !
 ! D97   D(22,23,27,28)        -59.7309         estimate D2E/DX2                !
 ! D98   D(22,23,27,32)        115.6245         estimate D2E/DX2                !
 ! D99   D(24,23,27,28)        126.5642         estimate D2E/DX2                !
 ! D100  D(24,23,27,32)        -58.0804         estimate D2E/DX2                !
 ! D101  D(23,24,25,20)         -2.7547         estimate D2E/DX2                !
 ! D102  D(23,24,25,26)        174.4702         estimate D2E/DX2                !
 ! D103  D(52,24,25,20)       -175.2872         estimate D2E/DX2                !
 ! D104  D(52,24,25,26)          1.9377         estimate D2E/DX2                !
 ! D105  D(23,27,28,29)       -179.5141         estimate D2E/DX2                !
 ! D106  D(23,27,28,53)         -5.1565         estimate D2E/DX2                !
 ! D107  D(32,27,28,29)          4.7419         estimate D2E/DX2                !
 ! D108  D(32,27,28,53)        179.0995         estimate D2E/DX2                !
 ! D109  D(23,27,32,31)       -178.9798         estimate D2E/DX2                !
 ! D110  D(23,27,32,55)          5.6505         estimate D2E/DX2                !
 ! D111  D(28,27,32,31)         -3.7258         estimate D2E/DX2                !
 ! D112  D(28,27,32,55)       -179.0955         estimate D2E/DX2                !
 ! D113  D(27,28,29,30)         -6.2965         estimate D2E/DX2                !
 ! D114  D(27,28,29,54)       -179.219          estimate D2E/DX2                !
 ! D115  D(53,28,29,30)        179.0371         estimate D2E/DX2                !
 ! D116  D(53,28,29,54)          6.1146         estimate D2E/DX2                !
 ! D117  D(28,29,30,31)          6.9563         estimate D2E/DX2                !
 ! D118  D(28,29,30,33)       -175.4191         estimate D2E/DX2                !
 ! D119  D(54,29,30,31)       -179.5695         estimate D2E/DX2                !
 ! D120  D(54,29,30,33)         -1.9449         estimate D2E/DX2                !
 ! D121  D(29,30,31,32)         -5.6973         estimate D2E/DX2                !
 ! D122  D(33,30,31,32)        176.6848         estimate D2E/DX2                !
 ! D123  D(29,30,33,34)         86.4281         estimate D2E/DX2                !
 ! D124  D(29,30,33,38)        -94.479          estimate D2E/DX2                !
 ! D125  D(31,30,33,34)        -95.9511         estimate D2E/DX2                !
 ! D126  D(31,30,33,38)         83.1418         estimate D2E/DX2                !
 ! D127  D(30,31,32,27)          4.3001         estimate D2E/DX2                !
 ! D128  D(30,31,32,55)       -179.8764         estimate D2E/DX2                !
 ! D129  D(30,33,34,35)        175.482          estimate D2E/DX2                !
 ! D130  D(30,33,34,56)          3.5717         estimate D2E/DX2                !
 ! D131  D(38,33,34,35)         -3.5867         estimate D2E/DX2                !
 ! D132  D(38,33,34,56)       -175.497          estimate D2E/DX2                !
 ! D133  D(30,33,38,37)       -176.5201         estimate D2E/DX2                !
 ! D134  D(30,33,38,39)          3.5343         estimate D2E/DX2                !
 ! D135  D(34,33,38,37)          2.5646         estimate D2E/DX2                !
 ! D136  D(34,33,38,39)       -177.381          estimate D2E/DX2                !
 ! D137  D(33,34,35,36)          5.3329         estimate D2E/DX2                !
 ! D138  D(33,34,35,57)        175.8657         estimate D2E/DX2                !
 ! D139  D(56,34,35,36)        177.2161         estimate D2E/DX2                !
 ! D140  D(56,34,35,57)        -12.2511         estimate D2E/DX2                !
 ! D141  D(34,35,36,37)         -6.088          estimate D2E/DX2                !
 ! D142  D(34,35,36,58)       -177.441          estimate D2E/DX2                !
 ! D143  D(57,35,36,37)       -177.075          estimate D2E/DX2                !
 ! D144  D(57,35,36,58)         11.572          estimate D2E/DX2                !
 ! D145  D(35,36,37,38)          5.2365         estimate D2E/DX2                !
 ! D146  D(35,36,37,59)        179.7183         estimate D2E/DX2                !
 ! D147  D(58,36,37,38)        176.3153         estimate D2E/DX2                !
 ! D148  D(58,36,37,59)         -9.2028         estimate D2E/DX2                !
 ! D149  D(36,37,38,33)         -3.5555         estimate D2E/DX2                !
 ! D150  D(36,37,38,39)        176.3918         estimate D2E/DX2                !
 ! D151  D(59,37,38,33)       -177.9964         estimate D2E/DX2                !
 ! D152  D(59,37,38,39)          1.9509         estimate D2E/DX2                !
 --------------------------------------------------------------------------------
 Trust Radius=3.00D-01 FncErr=1.00D-07 GrdErr=1.00D-06 EigMax=2.50D+02 EigMin=1.00D-04
 Number of steps in this run=    328 maximum allowed number of steps=    354.
 GradGradGradGradGradGradGradGradGradGradGradGradGradGradGradGradGradGrad

 Leave Link  103 at Fri Jul 24 12:11:58 2020, MaxMem=  4026531840 cpu:               0.2 elap:               0.0
 (Enter /opt/ohpc/pub/libs/gaussian/g16-A.03/sandybridge/g16/l202.exe)
 Stoichiometry    C33H20F3N3
 Framework group  C1[X(C33H20F3N3)]
 Deg. of freedom   171
 Full point group                 C1      NOp   1
 Largest Abelian subgroup         C1      NOp   1
 Largest concise Abelian subgroup C1      NOp   1
                         Standard orientation:                         
 ---------------------------------------------------------------------
 Center     Atomic      Atomic             Coordinates (Angstroms)
 Number     Number       Type             X           Y           Z
 ---------------------------------------------------------------------
      1          6           0      -12.104434   -0.503963    0.070867
      2          6           0      -11.590398    0.745756    0.503159
      3          6           0      -10.176459    0.871517    0.384967
      4          6           0       -9.404849   -0.148351   -0.026055
      5          7           0       -9.952741   -1.390014   -0.515211
      6          6           0      -11.261735   -1.452403   -0.439659
      7          6           0       -7.943850   -0.139562   -0.053766
      8          6           0       -7.201768   -0.383586   -1.264121
      9          6           0       -5.870042   -0.361846   -1.318100
     10          6           0       -5.041578    0.041012   -0.217634
     11          6           0       -5.795366    0.310517    0.959524
     12          6           0       -7.118378    0.211056    1.040180
     13          9           0       -7.766552    0.439074    2.158391
     14          6           0       -3.648484    0.104118   -0.251992
     15          6           0       -2.956547    0.800820   -1.219628
     16          6           0       -1.576334    0.872800   -1.181524
     17          6           0       -0.817089    0.170524   -0.257136
     18          7           0       -1.451649   -0.591533    0.652752
     19          6           0       -2.781348   -0.611825    0.625424
     20          6           0        0.640998    0.107400   -0.263706
     21          6           0        1.302568   -1.158593   -0.002261
     22          6           0        2.722167   -1.242023    0.092894
     23          6           0        3.453195   -0.073514   -0.052167
     24          6           0        2.837852    1.106718   -0.348545
     25          6           0        1.430948    1.251846   -0.436417
     26          9           0        0.849234    2.378669   -0.613306
     27          6           0        4.963582   -0.099818   -0.030085
     28          6           0        5.553077   -0.605758    1.159394
     29          6           0        6.992565   -0.644541    1.240986
     30          6           0        7.762712   -0.295977    0.052697
     31          7           0        7.153868    0.171148   -1.007211
     32          6           0        5.752880    0.215111   -1.022553
     33          6           0        9.192319   -0.418219    0.066868
     34          6           0        9.789208   -1.617723   -0.243220
     35          6           0       11.154969   -1.697299   -0.316726
     36          6           0       11.975454   -0.572835    0.036947
     37          6           0       11.349117    0.594584    0.319828
     38          6           0        9.963244    0.720402    0.385572
     39          9           0        9.408915    1.903074    0.745853
     40          1           0      -13.225266   -0.561512    0.103325
     41          1           0      -12.161331    1.526786    0.901371
     42          1           0       -9.719956    1.835518    0.766190
     43          1           0      -11.734470   -2.445000   -0.720239
     44          1           0       -7.833629   -0.729464   -2.184029
     45          1           0       -5.296486   -0.583814   -2.301925
     46          1           0       -5.248930    0.504764    1.860187
     47          1           0       -3.489537    1.472510   -1.968561
     48          1           0       -1.063947    1.475100   -1.936527
     49          1           0       -3.304957   -1.279235    1.430712
     50          1           0        0.748191   -2.001635    0.178523
     51          1           0        3.152096   -2.160313    0.267199
     52          1           0        3.389069    2.081461   -0.414849
     53          1           0        5.011663   -0.867166    1.996186
     54          1           0        7.538343   -1.011831    2.073173
     55          1           0        5.358951    0.648693   -2.023070
     56          1           0        9.189004   -2.443058   -0.550205
     57          1           0       11.683030   -2.673729   -0.499907
     58          1           0       13.072467   -0.645534   -0.070446
     59          1           0       11.975784    1.464841    0.598068
 ---------------------------------------------------------------------
 Rotational constants (GHZ):           0.6056901           0.0178862           0.0177872
 Leave Link  202 at Fri Jul 24 12:11:58 2020, MaxMem=  4026531840 cpu:               0.2 elap:               0.0
 (Enter /opt/ohpc/pub/libs/gaussian/g16-A.03/sandybridge/g16/l301.exe)
 Standard basis: CC-pVDZ (5D, 7F)
 Ernie: Thresh=  0.10000D-02 Tol=  0.10000D-05 Strict=F.
 Ernie:  78 primitive shells out of 958 were deleted.
 There are   685 symmetry adapted cartesian basis functions of A   symmetry.
 There are   646 symmetry adapted basis functions of A   symmetry.
   646 basis functions,  1427 primitive gaussians,   685 cartesian basis functions
   133 alpha electrons      133 beta electrons
       nuclear repulsion energy      3460.2475970644 Hartrees.
 IExCor=32609 DFT=T Ex+Corr=LC-wPBE ExCW=0 ScaHFX=  1.000000
 ScaDFX=  1.000000  0.000000  1.000000  1.000000 ScalE2=  1.000000  1.000000
 IRadAn=      5 IRanWt=     -1 IRanGd=            0 ICorTp=0 IEmpDi=  4
 HFx  wShort=  0.000000 wLong=  0.133000 cFull=  0.000000 cShort=  0.000000 cLong=  1.000000
 DFx  wShort=  0.000000 wLong=  0.133000 cFull=  0.000000 cShort=  0.000000 cLong=  1.000000
 NAtoms=   59 NActive=   59 NUniq=   59 SFac= 1.00D+00 NAtFMM=   60 NAOKFM=F Big=F
 Integral buffers will be    131072 words long.
 Raffenetti 2 integral format.
 Two-electron integral symmetry is turned on.
 Leave Link  301 at Fri Jul 24 12:11:58 2020, MaxMem=  4026531840 cpu:               0.4 elap:               0.1
 (Enter /opt/ohpc/pub/libs/gaussian/g16-A.03/sandybridge/g16/l302.exe)
 NPDir=0 NMtPBC=     1 NCelOv=     1 NCel=       1 NClECP=     1 NCelD=      1
         NCelK=      1 NCelE2=     1 NClLst=     1 CellRange=     0.0.
 One-electron integrals computed using PRISM.
 One-electron integral symmetry used in STVInt
 NBasis=   646 RedAO= T EigKep=  2.84D-04  NBF=   646
 NBsUse=   646 1.00D-06 EigRej= -1.00D+00 NBFU=   646
 Precomputing XC quadrature grid using
 IXCGrd= 4 IRadAn=           5 IRanWt=          -1 IRanGd=           0 AccXCQ= 0.00D+00.
 Generated NRdTot=       0 NPtTot=           0 NUsed=           0 NTot=          32
 NSgBfM=   566   561   561   566   566 MxSgAt=    59 MxSgA2=    59.
 Leave Link  302 at Fri Jul 24 12:11:59 2020, MaxMem=  4026531840 cpu:              11.1 elap:               1.4
 (Enter /opt/ohpc/pub/libs/gaussian/g16-A.03/sandybridge/g16/l303.exe)
 DipDrv:  MaxL=1.
 Leave Link  303 at Fri Jul 24 12:11:59 2020, MaxMem=  4026531840 cpu:               0.9 elap:               0.1
 (Enter /opt/ohpc/pub/libs/gaussian/g16-A.03/sandybridge/g16/l401.exe)
 ExpMin= 1.22D-01 ExpMax= 1.47D+04 ExpMxC= 5.03D+02 IAcc=3 IRadAn=         5 AccDes= 0.00D+00
 Harris functional with IExCor=32609 and IRadAn=       5 diagonalized for initial guess.
 HarFok:  IExCor=32609 AccDes= 0.00D+00 IRadAn=         5 IDoV= 1 UseB2=F ITyADJ=14
 ICtDFT=  3500011 ScaDFX=  1.000000  1.000000  1.000000  1.000000
 FoFCou: FMM=F IPFlag=           0 FMFlag=      100000 FMFlg1=           0
         NFxFlg=           0 DoJE=T BraDBF=F KetDBF=T FulRan=T
         wScrn=  0.000000 ICntrl=       500 IOpCl=  0 I1Cent=   200000004 NGrid=           0
         NMat0=    1 NMatS0=      1 NMatT0=    0 NMatD0=    1 NMtDS0=    0 NMtDT0=    0
 Petite list used in FoFCou.
 Harris En= -1731.85715134959    
 JPrj=0 DoOrth=F DoCkMO=F.
 Initial guess <Sx>= 0.0000 <Sy>= 0.0000 <Sz>= 0.0000 <S**2>=-0.0000 S=-0.0000
 Leave Link  401 at Fri Jul 24 12:12:05 2020, MaxMem=  4026531840 cpu:              48.8 elap:               6.2
 (Enter /opt/ohpc/pub/libs/gaussian/g16-A.03/sandybridge/g16/l502.exe)
 Integral symmetry usage will be decided dynamically.
 UHF open shell SCF:
 Using DIIS extrapolation, IDIIS=  1040.
 NGot=  4026531840 LenX=  4025580977 LenY=  4025111067
 Requested convergence on RMS density matrix=1.00D-08 within 128 cycles.
 Requested convergence on MAX density matrix=1.00D-06.
 Requested convergence on             energy=1.00D-06.
 No special actions if energy rises.
 Fock matrices will be formed incrementally for  20 cycles.
 Integral accuracy reduced to 1.0D-05 until final iterations.

 Cycle   1  Pass 0  IDiag  1:
 FoFJK:  IHMeth= 1 ICntrl=       0 DoSepK=T KAlg= 0 I1Cent=           0 FoldK=F
 IRaf=         1 NMat=       1 IRICut=       1 DoRegI=T DoRafI=F ISym2E= 0 IDoP0=0 IntGTp=1.
 FoFCou: FMM=F IPFlag=           0 FMFlag=      100000 FMFlg1=           0
         NFxFlg=           0 DoJE=T BraDBF=F KetDBF=F FulRan=T
         wScrn=  0.000000 ICntrl=       500 IOpCl=  0 I1Cent=           0 NGrid=           0
         NMat0=    1 NMatS0=      1 NMatT0=    0 NMatD0=    1 NMtDS0=    0 NMtDT0=    0
 Symmetry not used in FoFCou.
 E= -1731.17358895485    
 DIIS: error= 1.46D-02 at cycle   1 NSaved=   1.
 NSaved= 1 IEnMin= 1 EnMin= -1731.17358895485     IErMin= 1 ErrMin= 1.46D-02
 ErrMax= 1.46D-02  0.00D+00 EMaxC= 1.00D-01 BMatC= 1.70D+00 BMatP= 1.70D+00
 IDIUse=3 WtCom= 8.54D-01 WtEn= 1.46D-01
 Coeff-Com:  0.100D+01
 Coeff-En:   0.100D+01
 Coeff:      0.100D+01
 Gap=     0.241 Goal=   None    Shift=    0.000
 Gap=     0.241 Goal=   None    Shift=    0.000
 GapD=    0.241 DampG=1.000 DampE=0.500 DampFc=0.5000 IDamp=-1.
 Damping current iteration by 5.00D-01
 RMSDP=2.30D-03 MaxDP=9.79D-02              OVMax= 1.71D-01

 Cycle   2  Pass 0  IDiag  1:
 RMSU=  1.14D-03    CP:  9.87D-01
 E= -1731.41528636734     Delta-E=       -0.241697412497 Rises=F Damp=T
 DIIS: error= 4.73D-03 at cycle   2 NSaved=   2.
 NSaved= 2 IEnMin= 2 EnMin= -1731.41528636734     IErMin= 2 ErrMin= 4.73D-03
 ErrMax= 4.73D-03  0.00D+00 EMaxC= 1.00D-01 BMatC= 9.96D-02 BMatP= 1.70D+00
 IDIUse=3 WtCom= 9.53D-01 WtEn= 4.73D-02
 Coeff-Com:  0.127D-01 0.987D+00
 Coeff-En:   0.000D+00 0.100D+01
 Coeff:      0.121D-01 0.988D+00
 Gap=     0.243 Goal=   None    Shift=    0.000
 Gap=     0.243 Goal=   None    Shift=    0.000
 RMSDP=7.76D-04 MaxDP=3.74D-02 DE=-2.42D-01 OVMax= 1.46D-01

 Cycle   3  Pass 0  IDiag  1:
 RMSU=  7.51D-04    CP:  9.85D-01  1.17D+00
 E= -1731.65640587536     Delta-E=       -0.241119508015 Rises=F Damp=F
 DIIS: error= 4.55D-03 at cycle   3 NSaved=   3.
 NSaved= 3 IEnMin= 3 EnMin= -1731.65640587536     IErMin= 3 ErrMin= 4.55D-03
 ErrMax= 4.55D-03  0.00D+00 EMaxC= 1.00D-01 BMatC= 9.30D-02 BMatP= 9.96D-02
 IDIUse=3 WtCom= 9.55D-01 WtEn= 4.55D-02
 Coeff-Com: -0.379D-01 0.510D+00 0.528D+00
 Coeff-En:   0.000D+00 0.000D+00 0.100D+01
 Coeff:     -0.362D-01 0.487D+00 0.549D+00
 Gap=     0.234 Goal=   None    Shift=    0.000
 Gap=     0.234 Goal=   None    Shift=    0.000
 RMSDP=3.39D-04 MaxDP=2.26D-02 DE=-2.41D-01 OVMax= 4.26D-02

 Cycle   4  Pass 0  IDiag  1:
 RMSU=  2.07D-04    CP:  9.85D-01  1.18D+00  6.42D-01
 E= -1731.67715319808     Delta-E=       -0.020747322726 Rises=F Damp=F
 DIIS: error= 1.59D-03 at cycle   4 NSaved=   4.
 NSaved= 4 IEnMin= 4 EnMin= -1731.67715319808     IErMin= 4 ErrMin= 1.59D-03
 ErrMax= 1.59D-03  0.00D+00 EMaxC= 1.00D-01 BMatC= 1.22D-02 BMatP= 9.30D-02
 IDIUse=3 WtCom= 9.84D-01 WtEn= 1.59D-02
 Coeff-Com: -0.151D-01 0.155D+00 0.300D+00 0.560D+00
 Coeff-En:   0.000D+00 0.000D+00 0.930D-01 0.907D+00
 Coeff:     -0.149D-01 0.153D+00 0.297D+00 0.565D+00
 Gap=     0.233 Goal=   None    Shift=    0.000
 Gap=     0.233 Goal=   None    Shift=    0.000
 RMSDP=1.09D-04 MaxDP=5.87D-03 DE=-2.07D-02 OVMax= 1.26D-02

 Cycle   5  Pass 0  IDiag  1:
 RMSU=  5.90D-05    CP:  9.85D-01  1.18D+00  7.08D-01  6.27D-01
 E= -1731.68000679930     Delta-E=       -0.002853601216 Rises=F Damp=F
 DIIS: error= 5.67D-04 at cycle   5 NSaved=   5.
 NSaved= 5 IEnMin= 5 EnMin= -1731.68000679930     IErMin= 5 ErrMin= 5.67D-04
 ErrMax= 5.67D-04  0.00D+00 EMaxC= 1.00D-01 BMatC= 1.46D-03 BMatP= 1.22D-02
 IDIUse=3 WtCom= 9.94D-01 WtEn= 5.67D-03
 Coeff-Com: -0.392D-02 0.388D-01 0.122D+00 0.333D+00 0.510D+00
 Coeff-En:   0.000D+00 0.000D+00 0.000D+00 0.450D-01 0.955D+00
 Coeff:     -0.390D-02 0.386D-01 0.122D+00 0.331D+00 0.512D+00
 Gap=     0.233 Goal=   None    Shift=    0.000
 Gap=     0.233 Goal=   None    Shift=    0.000
 RMSDP=3.68D-05 MaxDP=1.91D-03 DE=-2.85D-03 OVMax= 3.95D-03

 Cycle   6  Pass 0  IDiag  1:
 RMSU=  2.43D-05    CP:  9.85D-01  1.18D+00  7.12D-01  6.88D-01  5.88D-01
 E= -1731.68034938391     Delta-E=       -0.000342584613 Rises=F Damp=F
 DIIS: error= 1.43D-04 at cycle   6 NSaved=   6.
 NSaved= 6 IEnMin= 6 EnMin= -1731.68034938391     IErMin= 6 ErrMin= 1.43D-04
 ErrMax= 1.43D-04  0.00D+00 EMaxC= 1.00D-01 BMatC= 9.77D-05 BMatP= 1.46D-03
 IDIUse=3 WtCom= 9.99D-01 WtEn= 1.43D-03
 Coeff-Com:  0.726D-03-0.886D-03 0.233D-01 0.924D-01 0.249D+00 0.635D+00
 Coeff-En:   0.000D+00 0.000D+00 0.000D+00 0.000D+00 0.000D+00 0.100D+01
 Coeff:      0.725D-03-0.884D-03 0.232D-01 0.923D-01 0.249D+00 0.636D+00
 Gap=     0.233 Goal=   None    Shift=    0.000
 Gap=     0.233 Goal=   None    Shift=    0.000
 RMSDP=1.03D-05 MaxDP=6.53D-04 DE=-3.43D-04 OVMax= 1.26D-03

 Cycle   7  Pass 0  IDiag  1:
 RMSU=  7.30D-06    CP:  9.85D-01  1.18D+00  7.14D-01  6.91D-01  6.80D-01
                    CP:  8.10D-01
 E= -1731.68037148791     Delta-E=       -0.000022103998 Rises=F Damp=F
 DIIS: error= 4.71D-05 at cycle   7 NSaved=   7.
 NSaved= 7 IEnMin= 7 EnMin= -1731.68037148791     IErMin= 7 ErrMin= 4.71D-05
 ErrMax= 4.71D-05  0.00D+00 EMaxC= 1.00D-01 BMatC= 1.22D-05 BMatP= 9.77D-05
 IDIUse=1 WtCom= 1.00D+00 WtEn= 0.00D+00
 Coeff-Com:  0.948D-03-0.393D-02 0.246D-02 0.192D-01 0.782D-01 0.323D+00
 Coeff-Com:  0.580D+00
 Coeff:      0.948D-03-0.393D-02 0.246D-02 0.192D-01 0.782D-01 0.323D+00
 Coeff:      0.580D+00
 Gap=     0.233 Goal=   None    Shift=    0.000
 Gap=     0.233 Goal=   None    Shift=    0.000
 RMSDP=3.85D-06 MaxDP=2.18D-04 DE=-2.21D-05 OVMax= 4.47D-04

 Initial convergence to 1.0D-05 achieved.  Increase integral accuracy.
 Cycle   8  Pass 1  IDiag  1:
 E= -1731.67984597844     Delta-E=        0.000525509467 Rises=F Damp=F
 DIIS: error= 1.59D-04 at cycle   1 NSaved=   1.
 NSaved= 1 IEnMin= 1 EnMin= -1731.67984597844     IErMin= 1 ErrMin= 1.59D-04
 ErrMax= 1.59D-04  0.00D+00 EMaxC= 1.00D-01 BMatC= 4.45D-05 BMatP= 4.45D-05
 IDIUse=3 WtCom= 9.98D-01 WtEn= 1.59D-03
 Coeff-Com:  0.100D+01
 Coeff-En:   0.100D+01
 Coeff:      0.100D+01
 Gap=     0.233 Goal=   None    Shift=    0.000
 Gap=     0.233 Goal=   None    Shift=    0.000
 RMSDP=3.85D-06 MaxDP=2.18D-04 DE= 5.26D-04 OVMax= 3.27D-04

 Cycle   9  Pass 1  IDiag  1:
 RMSU=  9.48D-05    CP:  1.00D+00
 E= -1731.67985459885     Delta-E=       -0.000008620406 Rises=F Damp=F
 DIIS: error= 2.87D-05 at cycle   2 NSaved=   2.
 NSaved= 2 IEnMin= 2 EnMin= -1731.67985459885     IErMin= 2 ErrMin= 2.87D-05
 ErrMax= 2.87D-05  0.00D+00 EMaxC= 1.00D-01 BMatC= 3.39D-06 BMatP= 4.45D-05
 IDIUse=1 WtCom= 1.00D+00 WtEn= 0.00D+00
 Coeff-Com:  0.800D-01 0.920D+00
 Coeff:      0.800D-01 0.920D+00
 Gap=     0.233 Goal=   None    Shift=    0.000
 Gap=     0.233 Goal=   None    Shift=    0.000
 RMSDP=5.88D-06 MaxDP=2.92D-04 DE=-8.62D-06 OVMax= 4.09D-04

 Cycle  10  Pass 1  IDiag  1:
 RMSU=  3.96D-06    CP:  1.00D+00  1.05D+00
 E= -1731.67985332025     Delta-E=        0.000001278599 Rises=F Damp=F
 DIIS: error= 4.67D-05 at cycle   3 NSaved=   3.
 NSaved= 3 IEnMin= 2 EnMin= -1731.67985459885     IErMin= 2 ErrMin= 2.87D-05
 ErrMax= 4.67D-05  0.00D+00 EMaxC= 1.00D-01 BMatC= 8.09D-06 BMatP= 3.39D-06
 IDIUse=1 WtCom= 1.00D+00 WtEn= 0.00D+00
 Coeff-Com: -0.202D-01 0.617D+00 0.403D+00
 Coeff:     -0.202D-01 0.617D+00 0.403D+00
 Gap=     0.233 Goal=   None    Shift=    0.000
 Gap=     0.233 Goal=   None    Shift=    0.000
 RMSDP=2.45D-06 MaxDP=1.91D-04 DE= 1.28D-06 OVMax= 2.78D-04

 Cycle  11  Pass 1  IDiag  1:
 RMSU=  9.16D-07    CP:  1.00D+00  1.05D+00  4.52D-01
 E= -1731.67985541718     Delta-E=       -0.000002096928 Rises=F Damp=F
 DIIS: error= 3.39D-06 at cycle   4 NSaved=   4.
 NSaved= 4 IEnMin= 4 EnMin= -1731.67985541718     IErMin= 4 ErrMin= 3.39D-06
 ErrMax= 3.39D-06  0.00D+00 EMaxC= 1.00D-01 BMatC= 8.54D-08 BMatP= 3.39D-06
 IDIUse=1 WtCom= 1.00D+00 WtEn= 0.00D+00
 Coeff-Com: -0.131D-01 0.344D+00 0.232D+00 0.438D+00
 Coeff:     -0.131D-01 0.344D+00 0.232D+00 0.438D+00
 Gap=     0.233 Goal=   None    Shift=    0.000
 Gap=     0.233 Goal=   None    Shift=    0.000
 RMSDP=2.53D-07 MaxDP=1.43D-05 DE=-2.10D-06 OVMax= 2.47D-05

 Cycle  12  Pass 1  IDiag  1:
 RMSU=  2.33D-07    CP:  1.00D+00  1.05D+00  4.67D-01  9.42D-01
 E= -1731.67985541963     Delta-E=       -0.000000002452 Rises=F Damp=F
 DIIS: error= 8.17D-07 at cycle   5 NSaved=   5.
 NSaved= 5 IEnMin= 5 EnMin= -1731.67985541963     IErMin= 5 ErrMin= 8.17D-07
 ErrMax= 8.17D-07  0.00D+00 EMaxC= 1.00D-01 BMatC= 2.46D-09 BMatP= 8.54D-08
 IDIUse=1 WtCom= 1.00D+00 WtEn= 0.00D+00
 Coeff-Com: -0.887D-03 0.927D-02 0.643D-02 0.101D+00 0.885D+00
 Coeff:     -0.887D-03 0.927D-02 0.643D-02 0.101D+00 0.885D+00
 Gap=     0.233 Goal=   None    Shift=    0.000
 Gap=     0.233 Goal=   None    Shift=    0.000
 RMSDP=1.18D-07 MaxDP=4.99D-06 DE=-2.45D-09 OVMax= 2.33D-05

 Cycle  13  Pass 1  IDiag  1:
 RMSU=  7.87D-08    CP:  1.00D+00  1.05D+00  4.71D-01  1.01D+00  9.74D-01
 E= -1731.67985542079     Delta-E=       -0.000000001161 Rises=F Damp=F
 DIIS: error= 6.61D-07 at cycle   6 NSaved=   6.
 NSaved= 6 IEnMin= 6 EnMin= -1731.67985542079     IErMin= 6 ErrMin= 6.61D-07
 ErrMax= 6.61D-07  0.00D+00 EMaxC= 1.00D-01 BMatC= 1.88D-09 BMatP= 2.46D-09
 IDIUse=1 WtCom= 1.00D+00 WtEn= 0.00D+00
 Coeff-Com:  0.133D-02-0.428D-01-0.293D-01-0.132D-01 0.542D+00 0.542D+00
 Coeff:      0.133D-02-0.428D-01-0.293D-01-0.132D-01 0.542D+00 0.542D+00
 Gap=     0.233 Goal=   None    Shift=    0.000
 Gap=     0.233 Goal=   None    Shift=    0.000
 RMSDP=4.95D-08 MaxDP=2.49D-06 DE=-1.16D-09 OVMax= 8.09D-06

 Cycle  14  Pass 1  IDiag  1:
 RMSU=  3.97D-08    CP:  1.00D+00  1.05D+00  4.71D-01  1.02D+00  1.07D+00
                    CP:  8.89D-01
 E= -1731.67985542143     Delta-E=       -0.000000000640 Rises=F Damp=F
 DIIS: error= 1.37D-07 at cycle   7 NSaved=   7.
 NSaved= 7 IEnMin= 7 EnMin= -1731.67985542143     IErMin= 7 ErrMin= 1.37D-07
 ErrMax= 1.37D-07  0.00D+00 EMaxC= 1.00D-01 BMatC= 1.46D-10 BMatP= 1.88D-09
 IDIUse=1 WtCom= 1.00D+00 WtEn= 0.00D+00
 Coeff-Com:  0.695D-03-0.192D-01-0.134D-01-0.285D-01 0.806D-01 0.237D+00
 Coeff-Com:  0.743D+00
 Coeff:      0.695D-03-0.192D-01-0.134D-01-0.285D-01 0.806D-01 0.237D+00
 Coeff:      0.743D+00
 Gap=     0.233 Goal=   None    Shift=    0.000
 Gap=     0.233 Goal=   None    Shift=    0.000
 RMSDP=1.87D-08 MaxDP=8.18D-07 DE=-6.40D-10 OVMax= 4.48D-06

 Cycle  15  Pass 1  IDiag  1:
 RMSU=  1.11D-08    CP:  1.00D+00  1.05D+00  4.71D-01  1.03D+00  1.09D+00
                    CP:  1.06D+00  1.07D+00
 E= -1731.67985542082     Delta-E=        0.000000000616 Rises=F Damp=F
 DIIS: error= 6.57D-08 at cycle   8 NSaved=   8.
 NSaved= 8 IEnMin= 7 EnMin= -1731.67985542143     IErMin= 8 ErrMin= 6.57D-08
 ErrMax= 6.57D-08  0.00D+00 EMaxC= 1.00D-01 BMatC= 2.86D-11 BMatP= 1.46D-10
 IDIUse=1 WtCom= 1.00D+00 WtEn= 0.00D+00
 Coeff-Com:  0.114D-03-0.204D-02-0.160D-02-0.141D-01-0.560D-01 0.311D-01
 Coeff-Com:  0.377D+00 0.665D+00
 Coeff:      0.114D-03-0.204D-02-0.160D-02-0.141D-01-0.560D-01 0.311D-01
 Coeff:      0.377D+00 0.665D+00
 Gap=     0.233 Goal=   None    Shift=    0.000
 Gap=     0.233 Goal=   None    Shift=    0.000
 RMSDP=8.17D-09 MaxDP=3.08D-07 DE= 6.16D-10 OVMax= 1.59D-06

 SCF Done:  E(ULC-wPBE) =  -1731.67985542     A.U. after   15 cycles
            NFock= 15  Conv=0.82D-08     -V/T= 2.0057
 <Sx>= 0.0000 <Sy>= 0.0000 <Sz>= 0.0000 <S**2>=-0.0000 S=-0.0000
 <L.S>= 0.000000000000E+00
 KE= 1.721900407438D+03 PE=-1.096058659645D+04 EE= 4.046758736529D+03
 Annihilation of the first spin contaminant:
 S**2 before annihilation    -0.0000,   after    -0.0000
 Leave Link  502 at Fri Jul 24 12:19:14 2020, MaxMem=  4026531840 cpu:            3415.8 elap:             428.6
 (Enter /opt/ohpc/pub/libs/gaussian/g16-A.03/sandybridge/g16/l601.exe)
 Copying SCF densities to generalized density rwf, IOpCl= 1 IROHF=0.

 **********************************************************************

            Population analysis using the SCF density.

 **********************************************************************

 Orbital symmetries:
 Alpha Orbitals:
       Occupied  (A) (A) (A) (A) (A) (A) (A) (A) (A) (A) (A) (A)
                 (A) (A) (A) (A) (A) (A) (A) (A) (A) (A) (A) (A)
                 (A) (A) (A) (A) (A) (A) (A) (A) (A) (A) (A) (A)
                 (A) (A) (A) (A) (A) (A) (A) (A) (A) (A) (A) (A)
                 (A) (A) (A) (A) (A) (A) (A) (A) (A) (A) (A) (A)
                 (A) (A) (A) (A) (A) (A) (A) (A) (A) (A) (A) (A)
                 (A) (A) (A) (A) (A) (A) (A) (A) (A) (A) (A) (A)
                 (A) (A) (A) (A) (A) (A) (A) (A) (A) (A) (A) (A)
                 (A) (A) (A) (A) (A) (A) (A) (A) (A) (A) (A) (A)
                 (A) (A) (A) (A) (A) (A) (A) (A) (A) (A) (A) (A)
                 (A) (A) (A) (A) (A) (A) (A) (A) (A) (A) (A) (A)
                 (A)
       Virtual   (A) (A) (A) (A) (A) (A) (A) (A) (A) (A) (A) (A)
                 (A) (A) (A) (A) (A) (A) (A) (A) (A) (A) (A) (A)
                 (A) (A) (A) (A) (A) (A) (A) (A) (A) (A) (A) (A)
                 (A) (A) (A) (A) (A) (A) (A) (A) (A) (A) (A) (A)
                 (A) (A) (A) (A) (A) (A) (A) (A) (A) (A) (A) (A)
                 (A) (A) (A) (A) (A) (A) (A) (A) (A) (A) (A) (A)
                 (A) (A) (A) (A) (A) (A) (A) (A) (A) (A) (A) (A)
                 (A) (A) (A) (A) (A) (A) (A) (A) (A) (A) (A) (A)
                 (A) (A) (A) (A) (A) (A) (A) (A) (A) (A) (A) (A)
                 (A) (A) (A) (A) (A) (A) (A) (A) (A) (A) (A) (A)
                 (A) (A) (A) (A) (A) (A) (A) (A) (A) (A) (A) (A)
                 (A) (A) (A) (A) (A) (A) (A) (A) (A) (A) (A) (A)
                 (A) (A) (A) (A) (A) (A) (A) (A) (A) (A) (A) (A)
                 (A) (A) (A) (A) (A) (A) (A) (A) (A) (A) (A) (A)
                 (A) (A) (A) (A) (A) (A) (A) (A) (A) (A) (A) (A)
                 (A) (A) (A) (A) (A) (A) (A) (A) (A) (A) (A) (A)
                 (A) (A) (A) (A) (A) (A) (A) (A) (A) (A) (A) (A)
                 (A) (A) (A) (A) (A) (A) (A) (A) (A) (A) (A) (A)
                 (A) (A) (A) (A) (A) (A) (A) (A) (A) (A) (A) (A)
                 (A) (A) (A) (A) (A) (A) (A) (A) (A) (A) (A) (A)
                 (A) (A) (A) (A) (A) (A) (A) (A) (A) (A) (A) (A)
                 (A) (A) (A) (A) (A) (A) (A) (A) (A) (A) (A) (A)
                 (A) (A) (A) (A) (A) (A) (A) (A) (A) (A) (A) (A)
                 (A) (A) (A) (A) (A) (A) (A) (A) (A) (A) (A) (A)
                 (A) (A) (A) (A) (A) (A) (A) (A) (A) (A) (A) (A)
                 (A) (A) (A) (A) (A) (A) (A) (A) (A) (A) (A) (A)
                 (A) (A) (A) (A) (A) (A) (A) (A) (A) (A) (A) (A)
                 (A) (A) (A) (A) (A) (A) (A) (A) (A) (A) (A) (A)
                 (A) (A) (A) (A) (A) (A) (A) (A) (A) (A) (A) (A)
                 (A) (A) (A) (A) (A) (A) (A) (A) (A) (A) (A) (A)
                 (A) (A) (A) (A) (A) (A) (A) (A) (A) (A) (A) (A)
                 (A) (A) (A) (A) (A) (A) (A) (A) (A) (A) (A) (A)
                 (A) (A) (A) (A) (A) (A) (A) (A) (A) (A) (A) (A)
                 (A) (A) (A) (A) (A) (A) (A) (A) (A) (A) (A) (A)
                 (A) (A) (A) (A) (A) (A) (A) (A) (A) (A) (A) (A)
                 (A) (A) (A) (A) (A) (A) (A) (A) (A) (A) (A) (A)
                 (A) (A) (A) (A) (A) (A) (A) (A) (A) (A) (A) (A)
                 (A) (A) (A) (A) (A) (A) (A) (A) (A) (A) (A) (A)
                 (A) (A) (A) (A) (A) (A) (A) (A) (A) (A) (A) (A)
                 (A) (A) (A) (A) (A) (A) (A) (A) (A) (A) (A) (A)
                 (A) (A) (A) (A) (A) (A) (A) (A) (A) (A) (A) (A)
                 (A) (A) (A) (A) (A) (A) (A) (A) (A) (A) (A) (A)
                 (A) (A) (A) (A) (A) (A) (A) (A) (A)
 Beta  Orbitals:
       Occupied  (A) (A) (A) (A) (A) (A) (A) (A) (A) (A) (A) (A)
                 (A) (A) (A) (A) (A) (A) (A) (A) (A) (A) (A) (A)
                 (A) (A) (A) (A) (A) (A) (A) (A) (A) (A) (A) (A)
                 (A) (A) (A) (A) (A) (A) (A) (A) (A) (A) (A) (A)
                 (A) (A) (A) (A) (A) (A) (A) (A) (A) (A) (A) (A)
                 (A) (A) (A) (A) (A) (A) (A) (A) (A) (A) (A) (A)
                 (A) (A) (A) (A) (A) (A) (A) (A) (A) (A) (A) (A)
                 (A) (A) (A) (A) (A) (A) (A) (A) (A) (A) (A) (A)
                 (A) (A) (A) (A) (A) (A) (A) (A) (A) (A) (A) (A)
                 (A) (A) (A) (A) (A) (A) (A) (A) (A) (A) (A) (A)
                 (A) (A) (A) (A) (A) (A) (A) (A) (A) (A) (A) (A)
                 (A)
       Virtual   (A) (A) (A) (A) (A) (A) (A) (A) (A) (A) (A) (A)
                 (A) (A) (A) (A) (A) (A) (A) (A) (A) (A) (A) (A)
                 (A) (A) (A) (A) (A) (A) (A) (A) (A) (A) (A) (A)
                 (A) (A) (A) (A) (A) (A) (A) (A) (A) (A) (A) (A)
                 (A) (A) (A) (A) (A) (A) (A) (A) (A) (A) (A) (A)
                 (A) (A) (A) (A) (A) (A) (A) (A) (A) (A) (A) (A)
                 (A) (A) (A) (A) (A) (A) (A) (A) (A) (A) (A) (A)
                 (A) (A) (A) (A) (A) (A) (A) (A) (A) (A) (A) (A)
                 (A) (A) (A) (A) (A) (A) (A) (A) (A) (A) (A) (A)
                 (A) (A) (A) (A) (A) (A) (A) (A) (A) (A) (A) (A)
                 (A) (A) (A) (A) (A) (A) (A) (A) (A) (A) (A) (A)
                 (A) (A) (A) (A) (A) (A) (A) (A) (A) (A) (A) (A)
                 (A) (A) (A) (A) (A) (A) (A) (A) (A) (A) (A) (A)
                 (A) (A) (A) (A) (A) (A) (A) (A) (A) (A) (A) (A)
                 (A) (A) (A) (A) (A) (A) (A) (A) (A) (A) (A) (A)
                 (A) (A) (A) (A) (A) (A) (A) (A) (A) (A) (A) (A)
                 (A) (A) (A) (A) (A) (A) (A) (A) (A) (A) (A) (A)
                 (A) (A) (A) (A) (A) (A) (A) (A) (A) (A) (A) (A)
                 (A) (A) (A) (A) (A) (A) (A) (A) (A) (A) (A) (A)
                 (A) (A) (A) (A) (A) (A) (A) (A) (A) (A) (A) (A)
                 (A) (A) (A) (A) (A) (A) (A) (A) (A) (A) (A) (A)
                 (A) (A) (A) (A) (A) (A) (A) (A) (A) (A) (A) (A)
                 (A) (A) (A) (A) (A) (A) (A) (A) (A) (A) (A) (A)
                 (A) (A) (A) (A) (A) (A) (A) (A) (A) (A) (A) (A)
                 (A) (A) (A) (A) (A) (A) (A) (A) (A) (A) (A) (A)
                 (A) (A) (A) (A) (A) (A) (A) (A) (A) (A) (A) (A)
                 (A) (A) (A) (A) (A) (A) (A) (A) (A) (A) (A) (A)
                 (A) (A) (A) (A) (A) (A) (A) (A) (A) (A) (A) (A)
                 (A) (A) (A) (A) (A) (A) (A) (A) (A) (A) (A) (A)
                 (A) (A) (A) (A) (A) (A) (A) (A) (A) (A) (A) (A)
                 (A) (A) (A) (A) (A) (A) (A) (A) (A) (A) (A) (A)
                 (A) (A) (A) (A) (A) (A) (A) (A) (A) (A) (A) (A)
                 (A) (A) (A) (A) (A) (A) (A) (A) (A) (A) (A) (A)
                 (A) (A) (A) (A) (A) (A) (A) (A) (A) (A) (A) (A)
                 (A) (A) (A) (A) (A) (A) (A) (A) (A) (A) (A) (A)
                 (A) (A) (A) (A) (A) (A) (A) (A) (A) (A) (A) (A)
                 (A) (A) (A) (A) (A) (A) (A) (A) (A) (A) (A) (A)
                 (A) (A) (A) (A) (A) (A) (A) (A) (A) (A) (A) (A)
                 (A) (A) (A) (A) (A) (A) (A) (A) (A) (A) (A) (A)
                 (A) (A) (A) (A) (A) (A) (A) (A) (A) (A) (A) (A)
                 (A) (A) (A) (A) (A) (A) (A) (A) (A) (A) (A) (A)
                 (A) (A) (A) (A) (A) (A) (A) (A) (A) (A) (A) (A)
                 (A) (A) (A) (A) (A) (A) (A) (A) (A)
 The electronic state is 1-A.
 Alpha  occ. eigenvalues --  -24.38946 -24.36849 -24.36661 -14.08008 -14.07665
 Alpha  occ. eigenvalues --  -14.06954 -10.06581 -10.05919 -10.05465 -10.02123
 Alpha  occ. eigenvalues --  -10.02032 -10.01963 -10.01537 -10.01055 -10.00724
 Alpha  occ. eigenvalues --  -10.00080 -10.00064  -9.99905  -9.99733  -9.99649
 Alpha  occ. eigenvalues --   -9.99628  -9.99384  -9.99383  -9.99213  -9.99197
 Alpha  occ. eigenvalues --   -9.99148  -9.99081  -9.98996  -9.98746  -9.98695
 Alpha  occ. eigenvalues --   -9.98673  -9.98659  -9.98636  -9.98602  -9.98351
 Alpha  occ. eigenvalues --   -9.98181  -9.98074  -9.97972  -9.97949  -1.24887
 Alpha  occ. eigenvalues --   -1.21934  -1.19801  -0.95092  -0.93830  -0.93726
 Alpha  occ. eigenvalues --   -0.88030  -0.87564  -0.86918  -0.83576  -0.82472
 Alpha  occ. eigenvalues --   -0.81081  -0.80067  -0.79367  -0.79003  -0.76702
 Alpha  occ. eigenvalues --   -0.76679  -0.76105  -0.76037  -0.74596  -0.72969
 Alpha  occ. eigenvalues --   -0.68969  -0.66759  -0.66348  -0.65457  -0.65045
 Alpha  occ. eigenvalues --   -0.64317  -0.63937  -0.63351  -0.62741  -0.62209
 Alpha  occ. eigenvalues --   -0.61294  -0.60895  -0.57763  -0.57331  -0.56951
 Alpha  occ. eigenvalues --   -0.55265  -0.54603  -0.54111  -0.53661  -0.52822
 Alpha  occ. eigenvalues --   -0.51772  -0.51705  -0.51538  -0.51464  -0.50979
 Alpha  occ. eigenvalues --   -0.50551  -0.50354  -0.49404  -0.49211  -0.48500
 Alpha  occ. eigenvalues --   -0.47657  -0.47295  -0.46552  -0.46429  -0.45943
 Alpha  occ. eigenvalues --   -0.45451  -0.45209  -0.44675  -0.44408  -0.44189
 Alpha  occ. eigenvalues --   -0.43764  -0.43614  -0.43318  -0.42766  -0.42537
 Alpha  occ. eigenvalues --   -0.41810  -0.41716  -0.40905  -0.40538  -0.40132
 Alpha  occ. eigenvalues --   -0.39846  -0.39493  -0.39217  -0.38744  -0.37693
 Alpha  occ. eigenvalues --   -0.36804  -0.36385  -0.36096  -0.34513  -0.33239
 Alpha  occ. eigenvalues --   -0.33117  -0.32603  -0.31845  -0.30900  -0.30677
 Alpha  occ. eigenvalues --   -0.30413  -0.29520  -0.29395  -0.29197  -0.28526
 Alpha  occ. eigenvalues --   -0.28267  -0.27720  -0.26503
 Alpha virt. eigenvalues --   -0.03207  -0.01238  -0.00541   0.00285   0.00737
 Alpha virt. eigenvalues --    0.01631   0.01971   0.02338   0.03030   0.03695
 Alpha virt. eigenvalues --    0.04142   0.05509   0.09886   0.09933   0.10541
 Alpha virt. eigenvalues --    0.11168   0.12348   0.12496   0.12917   0.13076
 Alpha virt. eigenvalues --    0.13938   0.14000   0.14427   0.15100   0.15694
 Alpha virt. eigenvalues --    0.15720   0.15983   0.16151   0.16448   0.16765
 Alpha virt. eigenvalues --    0.17264   0.17402   0.17596   0.17850   0.18020
 Alpha virt. eigenvalues --    0.18221   0.18621   0.18847   0.19689   0.20706
 Alpha virt. eigenvalues --    0.21618   0.24893   0.24977   0.25104   0.26134
 Alpha virt. eigenvalues --    0.26778   0.27585   0.28188   0.28363   0.28883
 Alpha virt. eigenvalues --    0.30731   0.31028   0.31077   0.31831   0.32309
 Alpha virt. eigenvalues --    0.32971   0.33215   0.33737   0.33969   0.34326
 Alpha virt. eigenvalues --    0.35083   0.35235   0.35824   0.36720   0.36862
 Alpha virt. eigenvalues --    0.37459   0.38136   0.39167   0.40169   0.40391
 Alpha virt. eigenvalues --    0.40910   0.41528   0.42330   0.43181   0.43240
 Alpha virt. eigenvalues --    0.43772   0.44368   0.44858   0.45271   0.45868
 Alpha virt. eigenvalues --    0.46136   0.46612   0.47400   0.47674   0.48142
 Alpha virt. eigenvalues --    0.48581   0.48689   0.48712   0.49150   0.49338
 Alpha virt. eigenvalues --    0.49764   0.50200   0.50658   0.50755   0.51548
 Alpha virt. eigenvalues --    0.51605   0.52028   0.52179   0.52285   0.52304
 Alpha virt. eigenvalues --    0.52513   0.52646   0.53077   0.53267   0.53602
 Alpha virt. eigenvalues --    0.53841   0.54147   0.54333   0.54496   0.54674
 Alpha virt. eigenvalues --    0.54975   0.55280   0.55417   0.55510   0.55936
 Alpha virt. eigenvalues --    0.56271   0.56743   0.56892   0.56973   0.57484
 Alpha virt. eigenvalues --    0.57706   0.57821   0.58194   0.58594   0.58874
 Alpha virt. eigenvalues --    0.59786   0.60047   0.60385   0.60859   0.61370
 Alpha virt. eigenvalues --    0.61478   0.61963   0.62208   0.62396   0.62535
 Alpha virt. eigenvalues --    0.63181   0.63677   0.64504   0.64902   0.64967
 Alpha virt. eigenvalues --    0.65545   0.65879   0.66306   0.66854   0.67210
 Alpha virt. eigenvalues --    0.67330   0.67399   0.67708   0.67825   0.68585
 Alpha virt. eigenvalues --    0.68748   0.69378   0.70001   0.70404   0.70934
 Alpha virt. eigenvalues --    0.71245   0.71721   0.72140   0.72326   0.72640
 Alpha virt. eigenvalues --    0.72980   0.73122   0.73755   0.74248   0.74321
 Alpha virt. eigenvalues --    0.74658   0.74993   0.75464   0.76479   0.76641
 Alpha virt. eigenvalues --    0.77267   0.77795   0.78347   0.78997   0.79541
 Alpha virt. eigenvalues --    0.80937   0.82178   0.83719   0.85801   0.85976
 Alpha virt. eigenvalues --    0.86234   0.86986   0.87419   0.87590   0.88148
 Alpha virt. eigenvalues --    0.88930   0.89210   0.89410   0.90650   0.90844
 Alpha virt. eigenvalues --    0.91906   0.92431   0.92639   0.92826   0.93852
 Alpha virt. eigenvalues --    0.94198   0.94540   0.94816   0.95114   0.95354
 Alpha virt. eigenvalues --    0.95472   0.95668   0.96526   0.96990   0.98035
 Alpha virt. eigenvalues --    0.98300   0.98798   0.98984   0.99483   1.00072
 Alpha virt. eigenvalues --    1.00389   1.00586   1.01384   1.02065   1.02590
 Alpha virt. eigenvalues --    1.02947   1.03356   1.03966   1.04077   1.04739
 Alpha virt. eigenvalues --    1.04839   1.05412   1.05536   1.05690   1.06141
 Alpha virt. eigenvalues --    1.06452   1.06978   1.07802   1.08308   1.08787
 Alpha virt. eigenvalues --    1.09444   1.09957   1.10207   1.10591   1.11130
 Alpha virt. eigenvalues --    1.11773   1.11976   1.12286   1.12606   1.13365
 Alpha virt. eigenvalues --    1.13781   1.14201   1.14777   1.14940   1.15591
 Alpha virt. eigenvalues --    1.15946   1.16823   1.17384   1.17725   1.17743
 Alpha virt. eigenvalues --    1.18945   1.19622   1.19917   1.20903   1.21294
 Alpha virt. eigenvalues --    1.21989   1.22915   1.23663   1.23785   1.24614
 Alpha virt. eigenvalues --    1.26194   1.26407   1.28254   1.29222   1.29747
 Alpha virt. eigenvalues --    1.30953   1.31681   1.32659   1.33112   1.33922
 Alpha virt. eigenvalues --    1.34453   1.34687   1.35593   1.37272   1.37691
 Alpha virt. eigenvalues --    1.38644   1.39051   1.40659   1.41230   1.41809
 Alpha virt. eigenvalues --    1.43034   1.44020   1.44604   1.45030   1.45684
 Alpha virt. eigenvalues --    1.45822   1.47338   1.47963   1.48346   1.48809
 Alpha virt. eigenvalues --    1.49103   1.49281   1.49549   1.50042   1.50177
 Alpha virt. eigenvalues --    1.50905   1.51820   1.52009   1.52815   1.53061
 Alpha virt. eigenvalues --    1.53713   1.54172   1.54913   1.55818   1.55963
 Alpha virt. eigenvalues --    1.56590   1.56853   1.57350   1.57501   1.57646
 Alpha virt. eigenvalues --    1.59107   1.59234   1.59568   1.59748   1.60052
 Alpha virt. eigenvalues --    1.60580   1.60795   1.61501   1.61874   1.62163
 Alpha virt. eigenvalues --    1.62554   1.62900   1.63053   1.63320   1.63469
 Alpha virt. eigenvalues --    1.64065   1.64404   1.64620   1.64852   1.65228
 Alpha virt. eigenvalues --    1.65328   1.65591   1.66098   1.66329   1.67142
 Alpha virt. eigenvalues --    1.67627   1.68109   1.69029   1.69349   1.69415
 Alpha virt. eigenvalues --    1.69483   1.70049   1.70164   1.70447   1.71147
 Alpha virt. eigenvalues --    1.71486   1.72308   1.72664   1.72915   1.73640
 Alpha virt. eigenvalues --    1.73932   1.74613   1.75135   1.75638   1.76142
 Alpha virt. eigenvalues --    1.76476   1.76810   1.77278   1.78040   1.78467
 Alpha virt. eigenvalues --    1.79059   1.79490   1.80403   1.80975   1.81555
 Alpha virt. eigenvalues --    1.81909   1.82156   1.83425   1.83736   1.84081
 Alpha virt. eigenvalues --    1.84364   1.84916   1.85186   1.85487   1.86036
 Alpha virt. eigenvalues --    1.86131   1.86242   1.86628   1.87189   1.87426
 Alpha virt. eigenvalues --    1.88520   1.88770   1.89425   1.89756   1.90873
 Alpha virt. eigenvalues --    1.91641   1.92379   1.93356   1.93798   1.94131
 Alpha virt. eigenvalues --    1.94876   1.95112   1.95304   1.96241   1.96368
 Alpha virt. eigenvalues --    1.96701   1.97897   1.98180   1.98914   1.99067
 Alpha virt. eigenvalues --    1.99428   2.00564   2.01488   2.01908   2.02139
 Alpha virt. eigenvalues --    2.02693   2.03228   2.04387   2.05665   2.06047
 Alpha virt. eigenvalues --    2.06157   2.06923   2.07347   2.07939   2.09114
 Alpha virt. eigenvalues --    2.10154   2.10577   2.11911   2.13251   2.14599
 Alpha virt. eigenvalues --    2.16180   2.16649   2.17489   2.18999   2.19457
 Alpha virt. eigenvalues --    2.19751   2.20578   2.22895   2.23498   2.24435
 Alpha virt. eigenvalues --    2.26106   2.26955   2.26973   2.29480   2.29752
 Alpha virt. eigenvalues --    2.31189   2.32167   2.32543   2.34310   2.34599
 Alpha virt. eigenvalues --    2.35448   2.36159   2.38155   2.39857   2.41892
 Alpha virt. eigenvalues --    2.42536   2.43171   2.43335   2.44784   2.45656
 Alpha virt. eigenvalues --    2.45827   2.46109   2.47357   2.48635   2.49090
 Alpha virt. eigenvalues --    2.49636   2.50978   2.51295   2.52303   2.54905
 Alpha virt. eigenvalues --    2.55377   2.56309   2.57363   2.58646   2.59526
 Alpha virt. eigenvalues --    2.61761   2.62140   2.63156   2.64994   2.65328
 Alpha virt. eigenvalues --    2.65760   2.67395   2.67859   2.69169   2.69659
 Alpha virt. eigenvalues --    2.72817   2.74339   2.75884   2.76362   2.78711
 Alpha virt. eigenvalues --    2.80547   2.81017   2.81571   2.82623   2.84272
[...]
    41   Atom        0.000000     -0.000000     -0.000000
    42   Atom       -0.000000     -0.000000      0.000000
    43   Atom       -0.000000      0.000000     -0.000000
    44   Atom       -0.000000     -0.000000     -0.000000
    45   Atom       -0.000000      0.000000      0.000000
    46   Atom        0.000000     -0.000000      0.000000
    47   Atom        0.000000      0.000000     -0.000000
    48   Atom       -0.000000     -0.000000     -0.000000
    49   Atom       -0.000000     -0.000000     -0.000000
    50   Atom        0.000000      0.000000      0.000000
    51   Atom       -0.000000     -0.000000      0.000000
    52   Atom        0.000000      0.000000      0.000000
    53   Atom        0.000000     -0.000000     -0.000000
    54   Atom       -0.000000      0.000000     -0.000000
    55   Atom        0.000000      0.000000      0.000000
    56   Atom        0.000000      0.000000     -0.000000
    57   Atom       -0.000000     -0.000000      0.000000
    58   Atom        0.000000      0.000000     -0.000000
    59   Atom        0.000000      0.000000     -0.000000
 --------------------------------------------------------


 ---------------------------------------------------------------------------------
              Anisotropic Spin Dipole Couplings in Principal Axis System
 ---------------------------------------------------------------------------------

       Atom             a.u.   MegaHertz   Gauss  10(-4) cm-1        Axes

              Baa    -0.0000    -0.000    -0.000    -0.000  0.9587 -0.0206  0.2837
     1 C(13)  Bbb     0.0000     0.000     0.000     0.000 -0.2837 -0.1397  0.9487
              Bcc     0.0000     0.000     0.000     0.000 -0.0201  0.9900  0.1398
 
              Baa    -0.0000    -0.000    -0.000    -0.000  0.8222 -0.3800 -0.4238
     2 C(13)  Bbb    -0.0000    -0.000    -0.000    -0.000  0.4231 -0.0902  0.9016
              Bcc     0.0000     0.000     0.000     0.000  0.3809  0.9206 -0.0866
 
              Baa    -0.0000    -0.000    -0.000    -0.000  0.6883 -0.6673  0.2844
     3 C(13)  Bbb     0.0000     0.000     0.000     0.000  0.0408  0.4271  0.9033
              Bcc     0.0000     0.000     0.000     0.000  0.7243  0.6102 -0.3212
 
              Baa    -0.0000    -0.000    -0.000    -0.000  0.1401 -0.6638  0.7347
     4 C(13)  Bbb    -0.0000    -0.000    -0.000    -0.000 -0.0322  0.7385  0.6734
              Bcc     0.0000     0.000     0.000     0.000  0.9896  0.1180 -0.0821
 
              Baa    -0.0000    -0.000    -0.000    -0.000  0.0722  0.9901 -0.1201
     5 N(14)  Bbb     0.0000     0.000     0.000     0.000  0.0436  0.1172  0.9921
              Bcc     0.0000     0.000     0.000     0.000  0.9964 -0.0769 -0.0347
 
              Baa    -0.0000    -0.000    -0.000    -0.000  0.0818  0.2123  0.9738
     6 C(13)  Bbb    -0.0000    -0.000    -0.000    -0.000 -0.4819  0.8637 -0.1479
              Bcc     0.0000     0.000     0.000     0.000  0.8724  0.4571 -0.1729
 
              Baa    -0.0000    -0.000    -0.000    -0.000  0.3674  0.9294  0.0348
     7 C(13)  Bbb    -0.0000    -0.000    -0.000    -0.000  0.9281 -0.3639 -0.0788
              Bcc     0.0000     0.000     0.000     0.000  0.0605 -0.0612  0.9963
 
              Baa    -0.0000    -0.000    -0.000    -0.000 -0.4984 -0.3388  0.7980
     8 C(13)  Bbb     0.0000     0.000     0.000     0.000  0.6711  0.4319  0.6026
              Bcc     0.0000     0.000     0.000     0.000 -0.5488  0.8359  0.0121
 
              Baa    -0.0000    -0.000    -0.000    -0.000  0.9324 -0.2923  0.2125
     9 C(13)  Bbb    -0.0000    -0.000    -0.000    -0.000  0.3472  0.8877 -0.3024
              Bcc     0.0000     0.000     0.000     0.000 -0.1003  0.3557  0.9292
 
              Baa    -0.0000    -0.000    -0.000    -0.000  0.9975  0.0125  0.0700
    10 C(13)  Bbb     0.0000     0.000     0.000     0.000 -0.0632  0.6045  0.7941
              Bcc     0.0000     0.000     0.000     0.000  0.0324  0.7965 -0.6037
 
              Baa    -0.0000    -0.000    -0.000    -0.000 -0.1939  0.9012 -0.3875
    11 C(13)  Bbb     0.0000     0.000     0.000     0.000  0.9251  0.2994  0.2335
              Bcc     0.0000     0.000     0.000     0.000 -0.3264  0.3132  0.8918
 
              Baa    -0.0000    -0.000    -0.000    -0.000  0.3041  0.2314  0.9241
    12 C(13)  Bbb    -0.0000    -0.000    -0.000    -0.000  0.6639  0.6442 -0.3798
              Bcc     0.0000     0.000     0.000     0.000 -0.6832  0.7290  0.0422
 
              Baa    -0.0000    -0.000    -0.000    -0.000 -0.3868  0.7911 -0.4738
    13 F(19)  Bbb     0.0000     0.000     0.000     0.000  0.0731  0.5385  0.8394
              Bcc     0.0000     0.000     0.000     0.000  0.9193  0.2900 -0.2662
 
              Baa    -0.0000    -0.000    -0.000    -0.000  0.7752  0.2977 -0.5572
    14 C(13)  Bbb     0.0000     0.000     0.000     0.000 -0.5211  0.7999 -0.2976
              Bcc     0.0000     0.000     0.000     0.000  0.3571  0.5211  0.7752
 
              Baa    -0.0000    -0.000    -0.000    -0.000  0.5441 -0.1208  0.8303
    15 C(13)  Bbb    -0.0000    -0.000    -0.000    -0.000  0.8382  0.1216 -0.5316
              Bcc     0.0000     0.000     0.000     0.000 -0.0367  0.9852  0.1674
 
              Baa    -0.0000    -0.000    -0.000    -0.000  0.0232  0.0237  0.9995
    16 C(13)  Bbb    -0.0000    -0.000    -0.000    -0.000  0.4657  0.8844 -0.0317
              Bcc     0.0000     0.000     0.000     0.000  0.8846 -0.4662 -0.0095
 
              Baa    -0.0000    -0.000    -0.000    -0.000  0.9478 -0.3077  0.0831
    17 C(13)  Bbb    -0.0000    -0.000    -0.000    -0.000 -0.1202 -0.1035  0.9873
              Bcc     0.0000     0.000     0.000     0.000  0.2952  0.9458  0.1350
 
              Baa    -0.0000    -0.000    -0.000    -0.000  0.9979  0.0067  0.0642
    18 N(14)  Bbb     0.0000     0.000     0.000     0.000 -0.0616  0.3976  0.9155
              Bcc     0.0000     0.000     0.000     0.000  0.0194  0.9175 -0.3972
 
              Baa    -0.0000    -0.000    -0.000    -0.000  0.7701  0.6356  0.0542
    19 C(13)  Bbb     0.0000     0.000     0.000     0.000  0.1345 -0.2448  0.9602
              Bcc     0.0000     0.000     0.000     0.000 -0.6236  0.7321  0.2740
 
              Baa    -0.0000    -0.000    -0.000    -0.000  0.5727  0.8152  0.0868
    20 C(13)  Bbb     0.0000     0.000     0.000     0.000  0.5742 -0.4744  0.6673
              Bcc     0.0000     0.000     0.000     0.000 -0.5851  0.3323  0.7397
 
              Baa    -0.0000    -0.000    -0.000    -0.000 -0.1894 -0.1990  0.9615
    21 C(13)  Bbb    -0.0000    -0.000    -0.000    -0.000  0.7662 -0.6424  0.0180
              Bcc     0.0000     0.000     0.000     0.000  0.6141  0.7401  0.2742
 
              Baa    -0.0000    -0.000    -0.000    -0.000 -0.2264 -0.4423  0.8678
    22 C(13)  Bbb     0.0000     0.000     0.000     0.000  0.8152  0.4016  0.4173
              Bcc     0.0000     0.000     0.000     0.000 -0.5331  0.8020  0.2696
 
              Baa    -0.0000    -0.000    -0.000    -0.000  0.8890 -0.2956  0.3497
    23 C(13)  Bbb    -0.0000    -0.000    -0.000    -0.000 -0.4146 -0.1955  0.8888
              Bcc     0.0000     0.000     0.000     0.000  0.1944  0.9351  0.2963
 
              Baa    -0.0000    -0.000    -0.000    -0.000 -0.0329 -0.1201  0.9922
    24 C(13)  Bbb    -0.0000    -0.000    -0.000    -0.000 -0.4635  0.8814  0.0913
              Bcc     0.0000     0.000     0.000     0.000  0.8855  0.4569  0.0847
 
              Baa    -0.0000    -0.000    -0.000    -0.000  0.7029  0.6480  0.2932
    25 C(13)  Bbb    -0.0000    -0.000    -0.000    -0.000 -0.0132 -0.4002  0.9163
              Bcc     0.0000     0.000     0.000     0.000  0.7112 -0.6480 -0.2728
 
              Baa    -0.0000    -0.000    -0.000    -0.000  0.9879 -0.1013  0.1178
    26 F(19)  Bbb    -0.0000    -0.000    -0.000    -0.000 -0.1226 -0.0427  0.9915
              Bcc     0.0000     0.000     0.000     0.000  0.0954  0.9939  0.0546
 
              Baa    -0.0000    -0.000    -0.000    -0.000 -0.4150  0.2857  0.8638
    27 C(13)  Bbb     0.0000     0.000     0.000     0.000  0.6443 -0.5780  0.5008
              Bcc     0.0000     0.000     0.000     0.000  0.6424  0.7644  0.0558
 
              Baa    -0.0000    -0.000    -0.000    -0.000  0.1019  0.3345  0.9369
    28 C(13)  Bbb     0.0000     0.000     0.000     0.000  0.9786 -0.2029 -0.0340
              Bcc     0.0000     0.000     0.000     0.000  0.1787  0.9203 -0.3481
 
              Baa    -0.0000    -0.000    -0.000    -0.000  0.3688  0.8856 -0.2823
    29 C(13)  Bbb     0.0000     0.000     0.000     0.000  0.8555 -0.2047  0.4756
              Bcc     0.0000     0.000     0.000     0.000 -0.3634  0.4170  0.8331
 
              Baa    -0.0000    -0.000    -0.000    -0.000 -0.3420  0.1666  0.9248
    30 C(13)  Bbb    -0.0000    -0.000    -0.000    -0.000  0.9240 -0.1198  0.3632
              Bcc     0.0000     0.000     0.000     0.000  0.1713  0.9787 -0.1129
 
              Baa    -0.0000    -0.000    -0.000    -0.000 -0.6788  0.1901  0.7093
    31 N(14)  Bbb    -0.0000    -0.000    -0.000    -0.000 -0.1113  0.9281 -0.3552
              Bcc     0.0000     0.000     0.000     0.000  0.7259  0.3201  0.6088
 
              Baa    -0.0000    -0.000    -0.000    -0.000  0.9228  0.3442 -0.1729
    32 C(13)  Bbb     0.0000     0.000     0.000     0.000 -0.2528  0.8798  0.4025
              Bcc     0.0000     0.000     0.000     0.000  0.2906 -0.3278  0.8989
 
              Baa    -0.0000    -0.000    -0.000    -0.000  0.3821  0.4759  0.7922
    33 C(13)  Bbb    -0.0000    -0.000    -0.000    -0.000  0.2551  0.7696 -0.5853
              Bcc     0.0000     0.000     0.000     0.000  0.8882 -0.4257 -0.1727
 
              Baa    -0.0000    -0.000    -0.000    -0.000 -0.2599 -0.5174  0.8153
    34 C(13)  Bbb    -0.0000    -0.000    -0.000    -0.000  0.7382  0.4378  0.5132
              Bcc     0.0000     0.000     0.000     0.000 -0.6225  0.7353  0.2682
 
              Baa    -0.0000    -0.000    -0.000    -0.000  0.0118 -0.3119  0.9500
    35 C(13)  Bbb    -0.0000    -0.000    -0.000    -0.000  0.9659 -0.2422 -0.0915
              Bcc     0.0000     0.000     0.000     0.000  0.2587  0.9187  0.2984
 
              Baa    -0.0000    -0.000    -0.000    -0.000  0.8273  0.5565  0.0766
    36 C(13)  Bbb     0.0000     0.000     0.000     0.000 -0.5454  0.7633  0.3463
              Bcc     0.0000     0.000     0.000     0.000  0.1342 -0.3282  0.9350
 
              Baa    -0.0000    -0.000    -0.000    -0.000 -0.2022  0.7193  0.6646
    37 C(13)  Bbb     0.0000     0.000     0.000     0.000  0.8418 -0.2191  0.4933
              Bcc     0.0000     0.000     0.000     0.000  0.5004  0.6592 -0.5612
 
              Baa    -0.0000    -0.000    -0.000    -0.000 -0.3579  0.8521  0.3820
    38 C(13)  Bbb     0.0000     0.000     0.000     0.000  0.4712 -0.1884  0.8617
              Bcc     0.0000     0.000     0.000     0.000  0.8062  0.4884 -0.3341
 
              Baa    -0.0000    -0.000    -0.000    -0.000  0.8111 -0.5821 -0.0564
    39 F(19)  Bbb     0.0000     0.000     0.000     0.000 -0.1004 -0.2337  0.9671
              Bcc     0.0000     0.000     0.000     0.000  0.5762  0.7788  0.2480
 
              Baa    -0.0000    -0.000    -0.000    -0.000  0.8731 -0.4875 -0.0009
    40 H(1)   Bbb     0.0000     0.000     0.000     0.000  0.0696  0.1229  0.9900
              Bcc     0.0000     0.000     0.000     0.000  0.4825  0.8644 -0.1412
 
              Baa    -0.0000    -0.000    -0.000    -0.000 -0.0848  0.8847  0.4583
    41 H(1)   Bbb    -0.0000    -0.000    -0.000    -0.000  0.8229 -0.1971  0.5328
              Bcc     0.0000     0.000     0.000     0.000 -0.5618 -0.4224  0.7114
 
              Baa    -0.0000    -0.000    -0.000    -0.000  0.9933  0.0994  0.0588
    42 H(1)   Bbb     0.0000     0.000     0.000     0.000 -0.0254 -0.3087  0.9508
              Bcc     0.0000     0.000     0.000     0.000 -0.1127  0.9460  0.3041
 
              Baa    -0.0000    -0.000    -0.000    -0.000  0.0064  0.5658  0.8245
    43 H(1)   Bbb     0.0000     0.000     0.000     0.000  0.6281  0.6393 -0.4436
              Bcc     0.0000     0.000     0.000     0.000  0.7781 -0.5207  0.3512
 
              Baa    -0.0000    -0.000    -0.000    -0.000  0.9318  0.3346  0.1407
    44 H(1)   Bbb    -0.0000    -0.000    -0.000    -0.000 -0.3505  0.7282  0.5890
              Bcc     0.0000     0.000     0.000     0.000  0.0946 -0.5981  0.7958
 
              Baa    -0.0000    -0.000    -0.000    -0.000  0.4633  0.7724 -0.4344
    45 H(1)   Bbb     0.0000     0.000     0.000     0.000  0.8453 -0.5324 -0.0451
              Bcc     0.0000     0.000     0.000     0.000  0.2661  0.3464  0.8996
 
              Baa    -0.0000    -0.000    -0.000    -0.000 -0.4771  0.7484 -0.4608
    46 H(1)   Bbb     0.0000     0.000     0.000     0.000 -0.6632  0.0374  0.7475
              Bcc     0.0000     0.000     0.000     0.000  0.5767  0.6622  0.4784
 
              Baa    -0.0000    -0.000    -0.000    -0.000 -0.2125  0.9710  0.1094
    47 H(1)   Bbb     0.0000     0.000     0.000     0.000  0.8683  0.2390 -0.4347
              Bcc     0.0000     0.000     0.000     0.000  0.4483 -0.0026  0.8939
 
              Baa    -0.0000    -0.000    -0.000    -0.000  0.8055  0.5742  0.1466
    48 H(1)   Bbb    -0.0000    -0.000    -0.000    -0.000 -0.5872  0.8067  0.0664
              Bcc     0.0000     0.000     0.000     0.000 -0.0801 -0.1396  0.9870
 
              Baa    -0.0000    -0.000    -0.000    -0.000  0.2729  0.9237  0.2690
    49 H(1)   Bbb     0.0000     0.000     0.000     0.000 -0.0410 -0.2682  0.9625
              Bcc     0.0000     0.000     0.000     0.000  0.9612 -0.2736 -0.0353
 
              Baa    -0.0000    -0.000    -0.000    -0.000  0.0557 -0.3102  0.9491
    50 H(1)   Bbb     0.0000     0.000     0.000     0.000  0.7323 -0.6334 -0.2499
              Bcc     0.0000     0.000     0.000     0.000  0.6787  0.7089  0.1919
 
              Baa    -0.0000    -0.000    -0.000    -0.000 -0.1901 -0.3802  0.9052
    51 H(1)   Bbb    -0.0000    -0.000    -0.000    -0.000  0.9311  0.2225  0.2890
              Bcc     0.0000     0.000     0.000     0.000 -0.3112  0.8978  0.3117
 
              Baa    -0.0000    -0.000    -0.000    -0.000  0.9093 -0.4090 -0.0772
    52 H(1)   Bbb     0.0000     0.000     0.000     0.000 -0.0987 -0.3920  0.9146
              Bcc     0.0000     0.000     0.000     0.000  0.4043  0.8240  0.3969
 
              Baa    -0.0000    -0.000    -0.000    -0.000  0.6007 -0.5519  0.5784
    53 H(1)   Bbb    -0.0000    -0.000    -0.000    -0.000 -0.2716  0.5396  0.7969
              Bcc     0.0000     0.000     0.000     0.000  0.7519  0.6358 -0.1742
 
              Baa    -0.0000    -0.000    -0.000    -0.000  0.9980  0.0246 -0.0581
    54 H(1)   Bbb     0.0000     0.000     0.000     0.000  0.0343  0.5615  0.8268
              Bcc     0.0000     0.000     0.000     0.000 -0.0530  0.8271 -0.5595
 
              Baa    -0.0000    -0.000    -0.000    -0.000 -0.1061  0.8941 -0.4352
    55 H(1)   Bbb     0.0000     0.000     0.000     0.000 -0.5225  0.3223  0.7894
              Bcc     0.0000     0.000     0.000     0.000  0.8460  0.3111  0.4330
 
              Baa    -0.0000    -0.000    -0.000    -0.000 -0.3087  0.7994  0.5154
    56 H(1)   Bbb     0.0000     0.000     0.000     0.000  0.1425 -0.4969  0.8560
              Bcc     0.0000     0.000     0.000     0.000  0.9404  0.3377  0.0394
 
              Baa    -0.0000    -0.000    -0.000    -0.000 -0.0613 -0.4023  0.9134
    57 H(1)   Bbb    -0.0000    -0.000    -0.000    -0.000  0.9461  0.2681  0.1816
              Bcc     0.0000     0.000     0.000     0.000 -0.3180  0.8753  0.3642
 
              Baa    -0.0000    -0.000    -0.000    -0.000  0.8381 -0.5401 -0.0771
    58 H(1)   Bbb     0.0000     0.000     0.000     0.000  0.5123  0.7305  0.4516
              Bcc     0.0000     0.000     0.000     0.000 -0.1876 -0.4180  0.8889
 
              Baa    -0.0000    -0.000    -0.000    -0.000 -0.1540  0.9724  0.1754
    59 H(1)   Bbb     0.0000     0.000     0.000     0.000  0.9783  0.1750 -0.1113
              Bcc     0.0000     0.000     0.000     0.000  0.1389 -0.1544  0.9782
 

 ---------------------------------------------------------------------------------

 No NMR shielding tensors so no spin-rotation constants.
 Leave Link  601 at Fri Jul 24 18:02:08 2020, MaxMem=  4026531840 cpu:              15.2 elap:               3.3
 (Enter /opt/ohpc/pub/libs/gaussian/g16-A.03/sandybridge/g16/l9999.exe)

 Test job not archived.
 1\1\GINC-SKYLAKE011\FOpt\ULC-wPBE\CC-pVDZ\C33H20F3N3\RDU230\24-Jul-202
 0\0\\#P uLC-wPBE/cc-pVDZ iop(3/107=0133000000, 3/108=0133000000) opt\\
 H20 C33 N3 F3\\0,1\C,-12.2464762341,-0.227177174,-0.2063594947\C,-11.6
 402118106,-0.5575129424,1.0098788416\C,-10.2455695025,-0.5163741435,1.
 1134103633\C,-9.4846029734,-0.1416657029,-0.0155940456\N,-10.073561163
 9,0.1705841568,-1.1949282992\C,-11.4098490327,0.125951532,-1.274398945
 6\C,-7.9918137045,-0.0758249698,-0.0247456002\C,-7.3201232898,0.100436
 6079,-1.255991203\C,-5.9310926035,0.1718983995,-1.3469401674\C,-5.1239
 357553,0.0744889674,-0.1926195401\C,-5.7699834625,-0.0940224122,1.0457
 04186\C,-7.1615018323,-0.1652270893,1.1092296952\F,-7.6986235156,-0.30
 84380785,2.3547250975\C,-3.6455091594,0.1449182984,-0.2746406355\C,-2.
 9801473937,0.9826942655,-1.187860275\C,-1.5845726743,1.0140378763,-1.2
 235489112\C,-0.8522150051,0.1998895527,-0.3326171319\N,-1.4832698461,-
 0.6218280945,0.5403479228\C,-2.8187714242,-0.6409690989,0.5573864262\C
 ,0.6382864469,0.151227494,-0.278744436\C,1.2654891406,-0.8294698405,0.
 5237100593\C,2.651318603,-0.9374299916,0.6256438899\C,3.5004808067,-0.
 054808748,-0.0767672579\C,2.8995882422,0.9336189847,-0.8773716479\C,1.
 5103418534,1.0192378683,-0.9646742396\F,1.0186779564,2.0201724189,-1.7
 497222781\C,4.9765374,-0.1613561491,0.0197040885\C,5.624862032,-0.5071
 92047,1.2204985549\C,7.0178492385,-0.5917747944,1.2512603472\C,7.75040
 37842,-0.331263386,0.0750874821\N,7.1460099077,0.0006679409,-1.0878533
 785\C,5.8092315402,0.0758887213,-1.0958665085\C,9.2363074271,-0.430432
 7738,0.0683736041\C,9.8978439696,-1.4791926426,0.7402919689\C,11.29322
 88748,-1.5894335308,0.7385655654\C,12.0657180355,-0.6369291597,0.05930
 7865\C,11.4389891045,0.420527268,-0.6111398001\C,10.0448807235,0.51018
 88511,-0.5997188769\F,9.4735218253,1.5618763974,-1.22663723\H,-13.3376
 967122,-0.2439651536,-0.3309479155\H,-12.2462547446,-0.8489498804,1.87
 96018537\H,-9.7526495446,-0.7761741655,2.0549568747\H,-11.8395769594,0
 .3897962877,-2.2552393163\H,-7.9516704993,0.1767139722,-2.1502679464\H
 ,-5.4605171284,0.2787762363,-2.3339985528\H,-5.2088652417,-0.141731580
 6,1.988087093\H,-3.5565772222,1.6325015229,-1.8618840522\H,-1.06861898
 59,1.6690499807,-1.9316572295\H,-3.276179213,-1.3476023802,1.270328705
 1\H,0.6019671877,-1.514360872,1.0668167512\H,3.0856894923,-1.738046665
 1,1.2401205613\H,3.4966340739,1.6746482182,-1.424687436\H,5.0400680661
 ,-0.6768360745,2.1359999198\H,7.5404746314,-0.8274728555,2.1882950985\
 H,5.3542334692,0.3218459685,-2.070299207\H,9.2907589714,-2.2389831451,
 1.2531444209\H,11.7771920589,-2.4255520318,1.2612176555\H,13.161869935
 9,-0.7139124465,0.0490563805\H,12.0106508359,1.1915492326,-1.144256713
 6\\Version=EM64L-G16RevA.03\State=1-A\HF=-1731.8020471\S2=0.\S2-1=0.\S
 2A=0.\RMSD=7.967e-09\RMSF=7.786e-07\Dipole=-0.6503187,-0.4566967,0.709
 5303\Quadrupole=26.5481281,-15.8212227,-10.7269054,-4.7314852,8.778939
 3,-5.9971176\PG=C01 [X(C33H20F3N3)]\\@


 A COMPUTER IS LIKE A HORSE, IT WILL SENSE WEAKNESS.
     -- GREG WETTSTEIN
 Job cpu time:       1 days 21 hours 47 minutes 37.9 seconds.
 Elapsed time:       0 days  5 hours 50 minutes  8.3 seconds.
 File lengths (MBytes):  RWF=    516 Int=      0 D2E=      0 Chk=     48 Scr=      8
 Normal termination of Gaussian 16 at Fri Jul 24 18:02:08 2020.
