 Entering Gaussian System, Link 0=g16
 Input=mols_65_1_37_cOC-cOC-N_opt_0.gjf
 Output=mols_65_1_37_cOC-cOC-N_opt_0.log
 Initial command:
 /opt/ohpc/pub/libs/gaussian/g16-A.03/sandybridge/g16/l1.exe "/mnt/gpfs2_4m/scratch/rdu230/ondemand/projects/dihedral_energies/7trial/wtuning/mols_65_1_37_cOC-cOC-N/Gau-401442.inp" -scrdir="/mnt/gpfs2_4m/scratch/rdu230/ondemand/projects/dihedral_energies/7trial/wtuning/mols_65_1_37_cOC-cOC-N/"
 Entering Link 1 = /opt/ohpc/pub/libs/gaussian/g16-A.03/sandybridge/g16/l1.exe PID=    401443.
  
 Copyright (c) 1988,1990,1992,1993,1995,1998,2003,2009,2016,
            Gaussian, Inc.  All Rights Reserved.
  
 This is part of the Gaussian(R) 16 program.  It is based on
 the Gaussian(R) 09 system (copyright 2009, Gaussian, Inc.),
 the Gaussian(R) 03 system (copyright 2003, Gaussian, Inc.),
 the Gaussian(R) 98 system (copyright 1998, Gaussian, Inc.),
 the Gaussian(R) 94 system (copyright 1995, Gaussian, Inc.),
 the Gaussian 92(TM) system (copyright 1992, Gaussian, Inc.),
 the Gaussian 90(TM) system (copyright 1990, Gaussian, Inc.),
 the Gaussian 88(TM) system (copyright 1988, Gaussian, Inc.),
 the Gaussian 86(TM) system (copyright 1986, Carnegie Mellon
 University), and the Gaussian 82(TM) system (copyright 1983,
 Carnegie Mellon University). Gaussian is a federally registered
 trademark of Gaussian, Inc.
  
 This software contains proprietary and confidential information,
 including trade secrets, belonging to Gaussian, Inc.
  
 This software is provided under written license and may be
 used, copied, transmitted, or stored only in accord with that
 written license.
  
 The following legend is applicable only to US Government
 contracts under FAR:
  
                    RESTRICTED RIGHTS LEGEND
  
 Use, reproduction and disclosure by the US Government is
 subject to restrictions as set forth in subparagraphs (a)
 and (c) of the Commercial Computer Software - Restricted
 Rights clause in FAR 52.227-19.
  
 Gaussian, Inc.
 340 Quinnipiac St., Bldg. 40, Wallingford CT 06492
  
  
 ---------------------------------------------------------------
 Warning -- This program may not be used in any manner that
 competes with the business of Gaussian, Inc. or will provide
 assistance to any competitor of Gaussian, Inc.  The licensee
 of this program is prohibited from giving any competitor of
 Gaussian, Inc. access to this program.  By using this program,
 the user acknowledges that Gaussian, Inc. is engaged in the
 business of creating and licensing software in the field of
 computational chemistry and represents and warrants to the
 licensee that it is not a competitor of Gaussian, Inc. and that
 it will not use this program in any manner prohibited above.
 ---------------------------------------------------------------
  

 Cite this work as:
 Gaussian 16, Revision A.03,
 M. J. Frisch, G. W. Trucks, H. B. Schlegel, G. E. Scuseria, 
 M. A. Robb, J. R. Cheeseman, G. Scalmani, V. Barone, 
 G. A. Petersson, H. Nakatsuji, X. Li, M. Caricato, A. V. Marenich, 
 J. Bloino, B. G. Janesko, R. Gomperts, B. Mennucci, H. P. Hratchian, 
 J. V. Ortiz, A. F. Izmaylov, J. L. Sonnenberg, D. Williams-Young, 
 F. Ding, F. Lipparini, F. Egidi, J. Goings, B. Peng, A. Petrone, 
 T. Henderson, D. Ranasinghe, V. G. Zakrzewski, J. Gao, N. Rega, 
 G. Zheng, W. Liang, M. Hada, M. Ehara, K. Toyota, R. Fukuda, 
 J. Hasegawa, M. Ishida, T. Nakajima, Y. Honda, O. Kitao, H. Nakai, 
 T. Vreven, K. Throssell, J. A. Montgomery, Jr., J. E. Peralta, 
 F. Ogliaro, M. J. Bearpark, J. J. Heyd, E. N. Brothers, K. N. Kudin, 
 V. N. Staroverov, T. A. Keith, R. Kobayashi, J. Normand, 
 K. Raghavachari, A. P. Rendell, J. C. Burant, S. S. Iyengar, 
 J. Tomasi, M. Cossi, J. M. Millam, M. Klene, C. Adamo, R. Cammi, 
 J. W. Ochterski, R. L. Martin, K. Morokuma, O. Farkas, 
 J. B. Foresman, and D. J. Fox, Gaussian, Inc., Wallingford CT, 2016.
 
 ******************************************
 Gaussian 16:  EM64L-G16RevA.03 25-Dec-2016
                23-Jul-2020 
 ******************************************
 %mem=30GB
 %nproc=8
 Will use up to    8 processors via shared memory.
 ---------------------------------------------------------------
 #P uLC-wPBE/cc-pVDZ iop(3/107=0108100000, 3/108=0108100000) opt
 ---------------------------------------------------------------
 1/18=20,19=15,26=3,38=1/1,3;
 2/9=110,12=2,17=6,18=5,40=1/2;
 3/5=16,11=2,25=1,30=1,71=1,74=-41,107=108100000,108=108100000,116=2/1,2,3;
 4//1;
 5/5=2,38=5/2;
 6/7=2,8=2,9=2,10=2,28=1/1;
 7//1,2,3,16;
 1/18=20,19=15,26=3/3(2);
 2/9=110/2;
 99//99;
 2/9=110/2;
 3/5=16,11=2,25=1,30=1,71=1,74=-41,107=108100000,108=108100000,116=2/1,2,3;
 4/5=5,16=3,69=1/1;
 5/5=2,38=5/2;
 7//1,2,3,16;
 1/18=20,19=15,26=3/3(-5);
 2/9=110/2;
 6/7=2,8=2,9=2,10=2,19=2,28=1/1;
 99/9=1/99;
 Leave Link    1 at Thu Jul 23 10:00:15 2020, MaxMem=  4026531840 cpu:               2.4 elap:               0.3
 (Enter /opt/ohpc/pub/libs/gaussian/g16-A.03/sandybridge/g16/l101.exe)
 ----------------
 H11 C11 S1 N1 O2
 ----------------
 Symbolic Z-matrix:
 Charge =  0 Multiplicity = 1
 C                     3.18056   0.52089  -0.31747 
 C                     2.3123    1.6126   -0.40884 
 C                     0.87206   1.43651  -0.30144 
 O                     0.02416   2.50445  -0.47465 
 C                    -0.03651   3.17804   0.76122 
 C                     0.35384   0.12928  -0.02081 
 C                     1.286    -0.9854    0.12611 
 O                     0.78197  -2.22254   0.3294 
 C                     1.64805  -3.22489   0.5537 
 C                     2.65813  -0.73501  -0.00806 
 C                    -1.05242  -0.12376   0.0836 
 N                    -1.74375   0.28767   1.1578 
 C                    -3.05854  -0.04689   0.91902 
 C                    -3.40775  -0.65776  -0.27523 
 S                    -1.93724  -0.71537  -1.23255 
 H                     4.21698   0.74574  -0.48551 
 H                     2.60985   2.61905  -0.63189 
 H                    -0.85544   3.99346   0.66828 
 H                    -0.24296   2.56869   1.64725 
 H                     0.86528   3.81844   0.98638 
 H                     2.2045   -3.52092  -0.30503 
 H                     2.28719  -3.12939   1.42185 
 H                     1.07434  -4.18643   0.83214 
 H                     3.37387  -1.53152   0.00727 
 H                    -3.78614   0.0761    1.75121 
 H                    -4.36196  -0.93044  -0.694 
 
 ITRead=  0  0  0  0  0  0  0  0  0  0  0  0  0  0  0  0  0  0  0  0
 ITRead=  0  0  0  0  0  0
 MicOpt= -1 -1 -1 -1 -1 -1 -1 -1 -1 -1 -1 -1 -1 -1 -1 -1 -1 -1 -1 -1
 MicOpt= -1 -1 -1 -1 -1 -1
 NAtoms=     26 NQM=       26 NQMF=       0 NMMI=      0 NMMIF=      0
                NMic=       0 NMicF=      0.
                    Isotopes and Nuclear Properties:
 (Nuclear quadrupole moments (NQMom) in fm**2, nuclear magnetic moments (NMagM)
  in nuclear magnetons)

  Atom         1           2           3           4           5           6           7           8           9          10
 IAtWgt=          12          12          12          16          12          12          12          16          12          12
 AtmWgt=  12.0000000  12.0000000  12.0000000  15.9949146  12.0000000  12.0000000  12.0000000  15.9949146  12.0000000  12.0000000
 NucSpn=           0           0           0           0           0           0           0           0           0           0
 AtZEff=  -0.0000000  -0.0000000  -0.0000000  -0.0000000  -0.0000000  -0.0000000  -0.0000000  -0.0000000  -0.0000000  -0.0000000
 NQMom=    0.0000000   0.0000000   0.0000000   0.0000000   0.0000000   0.0000000   0.0000000   0.0000000   0.0000000   0.0000000
 NMagM=    0.0000000   0.0000000   0.0000000   0.0000000   0.0000000   0.0000000   0.0000000   0.0000000   0.0000000   0.0000000
 AtZNuc=   6.0000000   6.0000000   6.0000000   8.0000000   6.0000000   6.0000000   6.0000000   8.0000000   6.0000000   6.0000000

  Atom        11          12          13          14          15          16          17          18          19          20
 IAtWgt=          12          14          12          12          32           1           1           1           1           1
 AtmWgt=  12.0000000  14.0030740  12.0000000  12.0000000  31.9720718   1.0078250   1.0078250   1.0078250   1.0078250   1.0078250
 NucSpn=           0           2           0           0           0           1           1           1           1           1
 AtZEff=  -0.0000000  -0.0000000  -0.0000000  -0.0000000  -0.0000000  -0.0000000  -0.0000000  -0.0000000  -0.0000000  -0.0000000
 NQMom=    0.0000000   2.0440000   0.0000000   0.0000000   0.0000000   0.0000000   0.0000000   0.0000000   0.0000000   0.0000000
 NMagM=    0.0000000   0.4037610   0.0000000   0.0000000   0.0000000   2.7928460   2.7928460   2.7928460   2.7928460   2.7928460
 AtZNuc=   6.0000000   7.0000000   6.0000000   6.0000000  16.0000000   1.0000000   1.0000000   1.0000000   1.0000000   1.0000000

  Atom        21          22          23          24          25          26
 IAtWgt=           1           1           1           1           1           1
 AtmWgt=   1.0078250   1.0078250   1.0078250   1.0078250   1.0078250   1.0078250
 NucSpn=           1           1           1           1           1           1
 AtZEff=  -0.0000000  -0.0000000  -0.0000000  -0.0000000  -0.0000000  -0.0000000
 NQMom=    0.0000000   0.0000000   0.0000000   0.0000000   0.0000000   0.0000000
 NMagM=    2.7928460   2.7928460   2.7928460   2.7928460   2.7928460   2.7928460
 AtZNuc=   1.0000000   1.0000000   1.0000000   1.0000000   1.0000000   1.0000000
 Leave Link  101 at Thu Jul 23 10:00:15 2020, MaxMem=  4026531840 cpu:               2.9 elap:               0.4
 (Enter /opt/ohpc/pub/libs/gaussian/g16-A.03/sandybridge/g16/l103.exe)

 GradGradGradGradGradGradGradGradGradGradGradGradGradGradGradGradGradGrad
 Berny optimization.
 Initialization pass.
                           ----------------------------
                           !    Initial Parameters    !
                           ! (Angstroms and Degrees)  !
 --------------------------                            --------------------------
 ! Name  Definition              Value          Derivative Info.                !
 --------------------------------------------------------------------------------
 ! R1    R(1,2)                  1.3979         estimate D2E/DX2                !
 ! R2    R(1,10)                 1.395          estimate D2E/DX2                !
 ! R3    R(1,16)                 1.0738         estimate D2E/DX2                !
 ! R4    R(2,3)                  1.4549         estimate D2E/DX2                !
 ! R5    R(2,17)                 1.0729         estimate D2E/DX2                !
 ! R6    R(3,4)                  1.3746         estimate D2E/DX2                !
 ! R7    R(3,6)                  1.4339         estimate D2E/DX2                !
 ! R8    R(4,5)                  1.4088         estimate D2E/DX2                !
 ! R9    R(5,18)                 1.1594         estimate D2E/DX2                !
 ! R10   R(5,19)                 1.095          estimate D2E/DX2                !
 ! R11   R(5,20)                 1.1287         estimate D2E/DX2                !
 ! R12   R(6,7)                  1.4605         estimate D2E/DX2                !
 ! R13   R(6,11)                 1.4327         estimate D2E/DX2                !
 ! R14   R(7,8)                  1.3512         estimate D2E/DX2                !
 ! R15   R(7,10)                 1.4012         estimate D2E/DX2                !
 ! R16   R(8,9)                  1.3435         estimate D2E/DX2                !
 ! R17   R(9,21)                 1.0652         estimate D2E/DX2                !
 ! R18   R(9,22)                 1.0823         estimate D2E/DX2                !
 ! R19   R(9,23)                 1.1538         estimate D2E/DX2                !
 ! R20   R(10,24)                1.071          estimate D2E/DX2                !
 ! R21   R(11,12)                1.3421         estimate D2E/DX2                !
 ! R22   R(11,15)                1.6927         estimate D2E/DX2                !
 ! R23   R(12,13)                1.3775         estimate D2E/DX2                !
 ! R24   R(13,14)                1.3861         estimate D2E/DX2                !
 ! R25   R(13,25)                1.1122         estimate D2E/DX2                !
 ! R26   R(14,15)                1.7556         estimate D2E/DX2                !
 ! R27   R(14,26)                1.0771         estimate D2E/DX2                !
 ! A1    A(2,1,10)             119.012          estimate D2E/DX2                !
 ! A2    A(2,1,16)             115.1985         estimate D2E/DX2                !
 ! A3    A(10,1,16)            125.784          estimate D2E/DX2                !
 ! A4    A(1,2,3)              121.0313         estimate D2E/DX2                !
 ! A5    A(1,2,17)             125.0234         estimate D2E/DX2                !
 ! A6    A(3,2,17)             113.7904         estimate D2E/DX2                !
 ! A7    A(2,3,4)              120.4828         estimate D2E/DX2                !
 ! A8    A(2,3,6)              118.8508         estimate D2E/DX2                !
 ! A9    A(4,3,6)              120.6651         estimate D2E/DX2                !
 ! A10   A(3,4,5)              106.7078         estimate D2E/DX2                !
 ! A11   A(4,5,18)             107.2399         estimate D2E/DX2                !
 ! A12   A(4,5,19)             116.8647         estimate D2E/DX2                !
 ! A13   A(4,5,20)             114.3219         estimate D2E/DX2                !
 ! A14   A(18,5,19)            108.8492         estimate D2E/DX2                !
 ! A15   A(18,5,20)            100.4441         estimate D2E/DX2                !
 ! A16   A(19,5,20)            107.755          estimate D2E/DX2                !
 ! A17   A(3,6,7)              119.0002         estimate D2E/DX2                !
 ! A18   A(3,6,11)             122.0066         estimate D2E/DX2                !
 ! A19   A(7,6,11)             118.9707         estimate D2E/DX2                !
 ! A20   A(6,7,8)              118.4132         estimate D2E/DX2                !
 ! A21   A(6,7,10)             118.6189         estimate D2E/DX2                !
 ! A22   A(8,7,10)             122.9071         estimate D2E/DX2                !
 ! A23   A(7,8,9)              117.8858         estimate D2E/DX2                !
 ! A24   A(8,9,21)             114.1727         estimate D2E/DX2                !
 ! A25   A(8,9,22)             116.665          estimate D2E/DX2                !
 ! A26   A(8,9,23)             109.9685         estimate D2E/DX2                !
 ! A27   A(21,9,22)            111.265          estimate D2E/DX2                !
 ! A28   A(21,9,23)            102.8674         estimate D2E/DX2                !
 ! A29   A(22,9,23)             99.9971         estimate D2E/DX2                !
 ! A30   A(1,10,7)             123.2887         estimate D2E/DX2                !
 ! A31   A(1,10,24)            114.9906         estimate D2E/DX2                !
 ! A32   A(7,10,24)            121.3432         estimate D2E/DX2                !
 ! A33   A(6,11,12)            120.6521         estimate D2E/DX2                !
 ! A34   A(6,11,15)            121.2089         estimate D2E/DX2                !
 ! A35   A(12,11,15)           117.403          estimate D2E/DX2                !
 ! A36   A(11,12,13)           106.1685         estimate D2E/DX2                !
 ! A37   A(12,13,14)           119.7904         estimate D2E/DX2                !
 ! A38   A(12,13,25)           117.8935         estimate D2E/DX2                !
 ! A39   A(14,13,25)           121.9087         estimate D2E/DX2                !
 ! A40   A(13,14,15)           105.8579         estimate D2E/DX2                !
 ! A41   A(13,14,26)           132.0439         estimate D2E/DX2                !
 ! A42   A(15,14,26)           121.4468         estimate D2E/DX2                !
 ! A43   A(11,15,14)            90.1361         estimate D2E/DX2                !
 ! D1    D(10,1,2,3)            -5.3585         estimate D2E/DX2                !
 ! D2    D(10,1,2,17)          179.4517         estimate D2E/DX2                !
 ! D3    D(16,1,2,3)           175.4438         estimate D2E/DX2                !
 ! D4    D(16,1,2,17)            0.2541         estimate D2E/DX2                !
 ! D5    D(2,1,10,7)             4.6638         estimate D2E/DX2                !
 ! D6    D(2,1,10,24)          177.6836         estimate D2E/DX2                !
 ! D7    D(16,1,10,7)         -176.2311         estimate D2E/DX2                !
 ! D8    D(16,1,10,24)          -3.2113         estimate D2E/DX2                !
 ! D9    D(1,2,3,4)           -175.9871         estimate D2E/DX2                !
 ! D10   D(1,2,3,6)              3.609          estimate D2E/DX2                !
 ! D11   D(17,2,3,4)            -0.2911         estimate D2E/DX2                !
 ! D12   D(17,2,3,6)           179.305          estimate D2E/DX2                !
 ! D13   D(2,3,4,5)            -83.2986         estimate D2E/DX2                !
 ! D14   D(6,3,4,5)             97.1127         estimate D2E/DX2                !
 ! D15   D(2,3,6,7)             -0.9934         estimate D2E/DX2                !
 ! D16   D(2,3,6,11)          -179.2495         estimate D2E/DX2                !
 ! D17   D(4,3,6,7)            178.602          estimate D2E/DX2                !
 ! D18   D(4,3,6,11)             0.3458         estimate D2E/DX2                !
 ! D19   D(3,4,5,18)          -172.5497         estimate D2E/DX2                !
 ! D20   D(3,4,5,19)           -50.1113         estimate D2E/DX2                !
 ! D21   D(3,4,5,20)            77.0519         estimate D2E/DX2                !
 ! D22   D(3,6,7,8)           -177.0107         estimate D2E/DX2                !
 ! D23   D(3,6,7,10)             0.2355         estimate D2E/DX2                !
 ! D24   D(11,6,7,8)             1.299          estimate D2E/DX2                !
 ! D25   D(11,6,7,10)          178.5453         estimate D2E/DX2                !
 ! D26   D(3,6,11,12)          -73.5246         estimate D2E/DX2                !
 ! D27   D(3,6,11,15)           96.3914         estimate D2E/DX2                !
 ! D28   D(7,6,11,12)          108.2188         estimate D2E/DX2                !
 ! D29   D(7,6,11,15)          -81.8652         estimate D2E/DX2                !
 ! D30   D(6,7,8,9)           -175.566          estimate D2E/DX2                !
 ! D31   D(10,7,8,9)             7.3134         estimate D2E/DX2                !
 ! D32   D(6,7,10,1)            -2.087          estimate D2E/DX2                !
 ! D33   D(6,7,10,24)         -174.6769         estimate D2E/DX2                !
 ! D34   D(8,7,10,1)           175.0279         estimate D2E/DX2                !
 ! D35   D(8,7,10,24)            2.438          estimate D2E/DX2                !
 ! D36   D(7,8,9,21)           -71.6981         estimate D2E/DX2                !
 ! D37   D(7,8,9,22)            60.3887         estimate D2E/DX2                !
 ! D38   D(7,8,9,23)           173.2904         estimate D2E/DX2                !
 ! D39   D(6,11,12,13)         177.052          estimate D2E/DX2                !
 ! D40   D(15,11,12,13)          6.7631         estimate D2E/DX2                !
 ! D41   D(6,11,15,14)        -178.2626         estimate D2E/DX2                !
 ! D42   D(12,11,15,14)         -8.031          estimate D2E/DX2                !
 ! D43   D(11,12,13,14)         -1.3367         estimate D2E/DX2                !
 ! D44   D(11,12,13,25)        171.4785         estimate D2E/DX2                !
 ! D45   D(12,13,14,15)         -4.0647         estimate D2E/DX2                !
 ! D46   D(12,13,14,26)       -174.6291         estimate D2E/DX2                !
 ! D47   D(25,13,14,15)       -176.5826         estimate D2E/DX2                !
 ! D48   D(25,13,14,26)         12.853          estimate D2E/DX2                !
 ! D49   D(13,14,15,11)          6.21           estimate D2E/DX2                !
 ! D50   D(26,14,15,11)        178.0056         estimate D2E/DX2                !
 --------------------------------------------------------------------------------
 Trust Radius=3.00D-01 FncErr=1.00D-07 GrdErr=1.00D-06 EigMax=2.50D+02 EigMin=1.00D-04
 Number of steps in this run=    130 maximum allowed number of steps=    156.
 GradGradGradGradGradGradGradGradGradGradGradGradGradGradGradGradGradGrad

 Leave Link  103 at Thu Jul 23 10:00:15 2020, MaxMem=  4026531840 cpu:               0.1 elap:               0.0
 (Enter /opt/ohpc/pub/libs/gaussian/g16-A.03/sandybridge/g16/l202.exe)
                          Input orientation:                          
 ---------------------------------------------------------------------
 Center     Atomic      Atomic             Coordinates (Angstroms)
 Number     Number       Type             X           Y           Z
 ---------------------------------------------------------------------
      1          6           0        3.180564    0.520888   -0.317466
      2          6           0        2.312302    1.612603   -0.408840
      3          6           0        0.872055    1.436509   -0.301437
      4          8           0        0.024161    2.504451   -0.474647
      5          6           0       -0.036508    3.178036    0.761215
      6          6           0        0.353838    0.129277   -0.020812
      7          6           0        1.286002   -0.985404    0.126105
      8          8           0        0.781971   -2.222538    0.329395
      9          6           0        1.648045   -3.224887    0.553696
     10          6           0        2.658126   -0.735007   -0.008063
     11          6           0       -1.052422   -0.123760    0.083603
     12          7           0       -1.743748    0.287674    1.157799
     13          6           0       -3.058542   -0.046885    0.919019
     14          6           0       -3.407747   -0.657763   -0.275230
     15         16           0       -1.937235   -0.715370   -1.232554
     16          1           0        4.216983    0.745740   -0.485507
     17          1           0        2.609849    2.619047   -0.631890
     18          1           0       -0.855444    3.993464    0.668281
     19          1           0       -0.242956    2.568686    1.647245
     20          1           0        0.865275    3.818437    0.986383
     21          1           0        2.204499   -3.520919   -0.305031
     22          1           0        2.287194   -3.129387    1.421851
     23          1           0        1.074340   -4.186432    0.832142
     24          1           0        3.373871   -1.531524    0.007273
     25          1           0       -3.786139    0.076103    1.751207
     26          1           0       -4.361962   -0.930436   -0.694000
 ---------------------------------------------------------------------
                    Distance matrix (angstroms):
                    1          2          3          4          5
     1  C    0.000000
     2  C    1.397880   0.000000
     3  C    2.483512   1.454942   0.000000
     4  O    3.731234   2.456687   1.374564   0.000000
     5  C    4.309703   3.055572   2.233301   1.408812   0.000000
     6  C    2.869101   2.487248   1.433930   2.440513   3.171572
     7  C    2.460698   2.844134   2.493954   3.759286   4.414366
     8  O    3.701090   4.194665   3.714120   4.854398   5.479286
     9  C    4.139851   4.976849   4.802294   6.043162   6.624063
    10  C    1.394971   2.406551   2.826942   4.201138   4.812977
    11  C    4.300535   3.818223   2.507251   2.894506   3.520383
    12  N    5.145838   4.545474   3.208055   3.271771   3.380257
    13  C    6.385742   5.776078   4.374879   4.237296   4.422410
    14  C    6.693044   6.155597   4.764805   4.670905   5.210837
    15  S    5.343930   4.914929   3.659190   3.845614   4.769328
    16  H    1.073760   2.094072   3.420466   4.546750   5.055944
    17  H    2.197009   1.072947   2.127798   2.592998   3.042436
    18  H    5.414780   4.106495   3.234598   2.072957   1.159403
    19  H    4.446803   3.416273   2.514445   2.139604   1.094978
    20  H    4.234904   2.984332   2.707786   2.137438   1.128728
    21  H    4.158012   5.135703   5.133372   6.409971   7.143878
    22  H    4.140995   5.083161   5.081313   6.360672   6.754229
    23  H    5.283620   6.058167   5.739633   6.897716   7.448114
    24  H    2.086916   3.344490   3.894047   5.267058   5.863367
    25  H    7.280947   6.649633   5.269044   5.036833   4.966065
    26  H    7.690112   7.148018   5.757731   5.575360   6.140582
                    6          7          8          9         10
     6  C    0.000000
     7  C    1.460489   0.000000
     8  O    2.415984   1.351249   0.000000
     9  C    3.640803   2.308505   1.343540   0.000000
    10  C    2.461075   1.401222   2.417971   2.745057   0.000000
    11  C    1.432654   2.492481   2.798264   4.138901   3.761674
    12  N    2.411240   3.444489   3.656046   4.920090   4.667077
    13  C    3.543819   4.514930   4.453163   5.690792   5.832091
    14  C    3.851452   4.722256   4.513073   5.730469   6.072245
    15  S    2.725943   3.508294   3.479270   4.726796   4.755745
    16  H    3.939525   3.458551   4.612380   4.842031   2.202408
    17  H    3.414961   3.913974   5.263663   6.040053   3.411916
    18  H    4.107207   5.446914   6.436975   7.641019   5.929676
    19  H    3.014846   4.157299   5.073759   6.191706   4.697947
    20  H    3.858226   4.898365   6.077166   7.099884   4.993705
    21  H    4.102397   2.730998   2.027776   1.065217   2.838181
    22  H    4.054384   2.697778   2.069186   1.082278   2.813414
    23  H    4.457802   3.284794   2.048198   1.153793   3.889300
    24  H    3.446687   2.161380   2.701705   2.478817   1.070965
    25  H    4.503586   5.430872   5.307818   6.470002   6.729152
    26  H    4.880056   5.707459   5.401566   6.552971   7.056227
                   11         12         13         14         15
    11  C    0.000000
    12  N    1.342053   0.000000
    13  C    2.174476   1.377545   0.000000
    14  C    2.441613   2.390882   1.386127   0.000000
    15  S    1.692680   2.599485   2.516638   1.755618   0.000000
    16  H    5.370898   6.200048   7.452128   7.755678   6.369248
    17  H    4.631107   5.252818   6.453152   6.861206   5.670547
    18  H    4.163194   3.842082   4.608788   5.388727   5.191971
    19  H    3.217060   2.773977   3.911400   4.911393   4.684960
    20  H    4.475879   4.393481   5.508320   6.315596   5.773487
    21  H    4.722209   5.677491   6.423925   6.300465   5.087766
    22  H    4.688042   5.290985   6.191248   6.435943   5.542485
    23  H    4.646368   5.297669   5.850138   5.810928   5.037939
    24  H    4.645395   5.551866   6.664186   6.843509   5.514628
    25  H    3.208435   2.137348   1.112232   2.188193   3.598292
    26  H    3.494059   3.430451   2.254195   1.077147   2.493109
                   16         17         18         19         20
    16  H    0.000000
    17  H    2.472567   0.000000
    18  H    6.132573   3.948129   0.000000
    19  H    5.269043   3.651779   1.833986   0.000000
    20  H    4.779317   2.664748   1.758607   1.796327   0.000000
    21  H    4.720915   6.162007   8.171691   6.847241   7.571487
    22  H    4.730614   6.112810   7.821704   6.238629   7.105191
    23  H    5.994892   7.128515   8.406046   6.930460   8.009084
    24  H    2.477822   4.268430   6.989244   5.708123   5.989474
    25  H    8.336742   7.283844   5.010730   4.333350   6.018777
    26  H    8.743645   7.823608   6.196472   5.889949   7.259441
                   21         22         23         24         25
    21  H    0.000000
    22  H    1.772641   0.000000
    23  H    1.735894   1.713510   0.000000
    24  H    2.328660   2.394799   3.607879   0.000000
    25  H    7.283847   6.875247   6.529789   7.542646   0.000000
    26  H    7.069675   7.315975   6.517975   7.790777   2.706239
                   26
    26  H    0.000000
 Stoichiometry    C11H11NO2S
 Framework group  C1[X(C11H11NO2S)]
 Deg. of freedom    72
 Full point group                 C1      NOp   1
 Largest Abelian subgroup         C1      NOp   1
 Largest concise Abelian subgroup C1      NOp   1
                         Standard orientation:                         
 ---------------------------------------------------------------------
 Center     Atomic      Atomic             Coordinates (Angstroms)
 Number     Number       Type             X           Y           Z
 ---------------------------------------------------------------------
      1          6           0        3.170647    0.603759   -0.334190
      2          6           0        2.273650    1.672558   -0.418649
      3          6           0        0.839335    1.459128   -0.300136
      4          8           0       -0.037318    2.504689   -0.466591
      5          6           0       -0.105889    3.176501    0.769823
      6          6           0        0.357423    0.138887   -0.015741
      7          6           0        1.319326   -0.951210    0.123761
      8          8           0        0.849176   -2.201009    0.330727
      9          6           0        1.742695   -3.180526    0.548142
     10          6           0        2.683406   -0.665271   -0.020976
     11          6           0       -1.040942   -0.150577    0.099508
     12          7           0       -1.734383    0.242793    1.179094
     13          6           0       -3.041855   -0.125799    0.950436
     14          6           0       -3.384314   -0.745568   -0.241184
     15         16           0       -1.920255   -0.764995   -1.209868
     16          1           0        4.199547    0.855443   -0.510206
     17          1           0        2.543228    2.686383   -0.643817
     18          1           0       -0.946417    3.970387    0.683373
     19          1           0       -0.289582    2.562017    1.657316
     20          1           0        0.780677    3.840108    0.988119
     21          1           0        2.299985   -3.462030   -0.314918
     22          1           0        2.385849   -3.068441    1.411342
     23          1           0        1.196323   -4.156637    0.830849
     24          1           0        3.419689   -1.442934   -0.011319
     25          1           0       -3.765938   -0.021726    1.788250
     26          1           0       -4.334340   -1.042936   -0.652606
 ---------------------------------------------------------------------
 Rotational constants (GHZ):           0.6983631           0.5247301           0.3444510
 Leave Link  202 at Thu Jul 23 10:00:15 2020, MaxMem=  4026531840 cpu:               0.3 elap:               0.1
 (Enter /opt/ohpc/pub/libs/gaussian/g16-A.03/sandybridge/g16/l301.exe)
 Standard basis: CC-pVDZ (5D, 7F)
 Ernie: Thresh=  0.10000D-02 Tol=  0.10000D-05 Strict=F.
 Ernie:  38 primitive shells out of 413 were deleted.
 There are   284 symmetry adapted cartesian basis functions of A   symmetry.
 There are   269 symmetry adapted basis functions of A   symmetry.
   269 basis functions,   610 primitive gaussians,   284 cartesian basis functions
    58 alpha electrons       58 beta electrons
       nuclear repulsion energy      1093.2718178368 Hartrees.
 IExCor=32609 DFT=T Ex+Corr=LC-wPBE ExCW=0 ScaHFX=  1.000000
 ScaDFX=  1.000000  0.000000  1.000000  1.000000 ScalE2=  1.000000  1.000000
 IRadAn=      5 IRanWt=     -1 IRanGd=            0 ICorTp=0 IEmpDi=  4
 HFx  wShort=  0.000000 wLong=  0.108100 cFull=  0.000000 cShort=  0.000000 cLong=  1.000000
 DFx  wShort=  0.000000 wLong=  0.108100 cFull=  0.000000 cShort=  0.000000 cLong=  1.000000
 NAtoms=   26 NActive=   26 NUniq=   26 SFac= 1.00D+00 NAtFMM=   60 NAOKFM=F Big=F
 Integral buffers will be    131072 words long.
 Raffenetti 2 integral format.
 Two-electron integral symmetry is turned on.
 Leave Link  301 at Thu Jul 23 10:00:16 2020, MaxMem=  4026531840 cpu:               0.5 elap:               0.1
 (Enter /opt/ohpc/pub/libs/gaussian/g16-A.03/sandybridge/g16/l302.exe)
 NPDir=0 NMtPBC=     1 NCelOv=     1 NCel=       1 NClECP=     1 NCelD=      1
         NCelK=      1 NCelE2=     1 NClLst=     1 CellRange=     0.0.
 One-electron integrals computed using PRISM.
 One-electron integral symmetry used in STVInt
 NBasis=   269 RedAO= T EigKep=  4.01D-04  NBF=   269
 NBsUse=   269 1.00D-06 EigRej= -1.00D+00 NBFU=   269
 Precomputing XC quadrature grid using
 IXCGrd= 4 IRadAn=           5 IRanWt=          -1 IRanGd=           0 AccXCQ= 0.00D+00.
 Generated NRdTot=       0 NPtTot=           0 NUsed=           0 NTot=          32
 NSgBfM=   284   284   284   284   284 MxSgAt=    26 MxSgA2=    26.
 Leave Link  302 at Thu Jul 23 10:00:16 2020, MaxMem=  4026531840 cpu:               3.0 elap:               0.4
 (Enter /opt/ohpc/pub/libs/gaussian/g16-A.03/sandybridge/g16/l303.exe)
 DipDrv:  MaxL=1.
 Leave Link  303 at Thu Jul 23 10:00:17 2020, MaxMem=  4026531840 cpu:               0.4 elap:               0.2
 (Enter /opt/ohpc/pub/libs/gaussian/g16-A.03/sandybridge/g16/l401.exe)
 ExpMin= 1.22D-01 ExpMax= 1.11D+05 ExpMxC= 1.07D+03 IAcc=3 IRadAn=         5 AccDes= 0.00D+00
 Harris functional with IExCor=32609 and IRadAn=       5 diagonalized for initial guess.
 HarFok:  IExCor=32609 AccDes= 0.00D+00 IRadAn=         5 IDoV= 1 UseB2=F ITyADJ=14
 ICtDFT=  3500011 ScaDFX=  1.000000  1.000000  1.000000  1.000000
 FoFCou: FMM=F IPFlag=           0 FMFlag=      100000 FMFlg1=           0
         NFxFlg=           0 DoJE=T BraDBF=F KetDBF=T FulRan=T
         wScrn=  0.000000 ICntrl=       500 IOpCl=  0 I1Cent=   200000004 NGrid=           0
         NMat0=    1 NMatS0=      1 NMatT0=    0 NMatD0=    1 NMtDS0=    0 NMtDT0=    0
 Petite list used in FoFCou.
 Harris En= -1028.44858204406    
 JPrj=0 DoOrth=F DoCkMO=F.
 Initial guess <Sx>= 0.0000 <Sy>= 0.0000 <Sz>= 0.0000 <S**2>= 0.0000 S= 0.0000
 Leave Link  401 at Thu Jul 23 10:00:19 2020, MaxMem=  4026531840 cpu:              15.5 elap:               2.1
 (Enter /opt/ohpc/pub/libs/gaussian/g16-A.03/sandybridge/g16/l502.exe)
 Integral symmetry usage will be decided dynamically.
 UHF open shell SCF:
 Using DIIS extrapolation, IDIIS=  1040.
 NGot=  4026531840 LenX=  4026365180 LenY=  4026284083
 Requested convergence on RMS density matrix=1.00D-08 within 128 cycles.
 Requested convergence on MAX density matrix=1.00D-06.
 Requested convergence on             energy=1.00D-06.
 No special actions if energy rises.
 Fock matrices will be formed incrementally for  20 cycles.
 Integral accuracy reduced to 1.0D-05 until final iterations.

 Cycle   1  Pass 0  IDiag  1:
 FoFJK:  IHMeth= 1 ICntrl=       0 DoSepK=T KAlg= 0 I1Cent=           0 FoldK=F
 IRaf=         1 NMat=       1 IRICut=       1 DoRegI=T DoRafI=F ISym2E= 0 IDoP0=0 IntGTp=1.
 FoFCou: FMM=F IPFlag=           0 FMFlag=      100000 FMFlg1=           0
         NFxFlg=           0 DoJE=T BraDBF=F KetDBF=F FulRan=T
         wScrn=  0.000000 ICntrl=       500 IOpCl=  0 I1Cent=           0 NGrid=           0
         NMat0=    1 NMatS0=      1 NMatT0=    0 NMatD0=    1 NMtDS0=    0 NMtDT0=    0
 Symmetry not used in FoFCou.
 E= -1028.09285681685    
 DIIS: error= 1.99D-02 at cycle   1 NSaved=   1.
 NSaved= 1 IEnMin= 1 EnMin= -1028.09285681685     IErMin= 1 ErrMin= 1.99D-02
 ErrMax= 1.99D-02  0.00D+00 EMaxC= 1.00D-01 BMatC= 9.93D-01 BMatP= 9.93D-01
 IDIUse=3 WtCom= 8.01D-01 WtEn= 1.99D-01
 Coeff-Com:  0.100D+01
 Coeff-En:   0.100D+01
 Coeff:      0.100D+01
 Gap=     0.359 Goal=   None    Shift=    0.000
 Gap=     0.359 Goal=   None    Shift=    0.000
 GapD=    0.359 DampG=1.000 DampE=0.500 DampFc=0.5000 IDamp=-1.
 Damping current iteration by 5.00D-01
 RMSDP=5.00D-03 MaxDP=1.70D-01              OVMax= 2.58D-01

 Cycle   2  Pass 0  IDiag  1:
 RMSU=  2.50D-03    CP:  9.95D-01
 E= -1028.19020352553     Delta-E=       -0.097346708676 Rises=F Damp=T
 DIIS: error= 1.03D-02 at cycle   2 NSaved=   2.
 NSaved= 2 IEnMin= 2 EnMin= -1028.19020352553     IErMin= 2 ErrMin= 1.03D-02
 ErrMax= 1.03D-02  0.00D+00 EMaxC= 1.00D-01 BMatC= 1.10D-01 BMatP= 9.93D-01
 IDIUse=3 WtCom= 8.97D-01 WtEn= 1.03D-01
 Coeff-Com:  0.176D+00 0.824D+00
 Coeff-En:   0.278D+00 0.722D+00
 Coeff:      0.186D+00 0.814D+00
 Gap=     0.367 Goal=   None    Shift=    0.000
 Gap=     0.367 Goal=   None    Shift=    0.000
 RMSDP=1.43D-03 MaxDP=4.55D-02 DE=-9.73D-02 OVMax= 2.38D-01

 Cycle   3  Pass 0  IDiag  1:
 RMSU=  1.36D-03    CP:  9.93D-01  8.29D-01
 E= -1028.35299853114     Delta-E=       -0.162795005614 Rises=F Damp=F
 DIIS: error= 7.99D-03 at cycle   3 NSaved=   3.
 NSaved= 3 IEnMin= 3 EnMin= -1028.35299853114     IErMin= 3 ErrMin= 7.99D-03
 ErrMax= 7.99D-03  0.00D+00 EMaxC= 1.00D-01 BMatC= 1.10D-01 BMatP= 1.10D-01
 IDIUse=3 WtCom= 9.20D-01 WtEn= 7.99D-02
 Coeff-Com:  0.665D-01 0.493D+00 0.441D+00
 Coeff-En:   0.000D+00 0.000D+00 0.100D+01
 Coeff:      0.612D-01 0.453D+00 0.486D+00
 Gap=     0.246 Goal=   None    Shift=    0.000
 Gap=     0.246 Goal=   None    Shift=    0.000
 RMSDP=7.25D-04 MaxDP=4.00D-02 DE=-1.63D-01 OVMax= 6.17D-02

 Cycle   4  Pass 0  IDiag  1:
 RMSU=  4.11D-04    CP:  9.94D-01  8.94D-01  5.77D-01
 E= -1028.37697131000     Delta-E=       -0.023972778862 Rises=F Damp=F
 DIIS: error= 2.57D-03 at cycle   4 NSaved=   4.
 NSaved= 4 IEnMin= 4 EnMin= -1028.37697131000     IErMin= 4 ErrMin= 2.57D-03
 ErrMax= 2.57D-03  0.00D+00 EMaxC= 1.00D-01 BMatC= 1.25D-02 BMatP= 1.10D-01
 IDIUse=3 WtCom= 9.74D-01 WtEn= 2.57D-02
 Coeff-Com:  0.182D-01 0.118D+00 0.267D+00 0.597D+00
 Coeff-En:   0.000D+00 0.000D+00 0.827D-01 0.917D+00
 Coeff:      0.177D-01 0.115D+00 0.262D+00 0.606D+00
 Gap=     0.247 Goal=   None    Shift=    0.000
 Gap=     0.247 Goal=   None    Shift=    0.000
 RMSDP=1.94D-04 MaxDP=1.17D-02 DE=-2.40D-02 OVMax= 1.22D-02

 Cycle   5  Pass 0  IDiag  1:
 RMSU=  1.29D-04    CP:  9.94D-01  8.78D-01  6.47D-01  7.51D-01
 E= -1028.37959433052     Delta-E=       -0.002623020518 Rises=F Damp=F
 DIIS: error= 4.63D-04 at cycle   5 NSaved=   5.
 NSaved= 5 IEnMin= 5 EnMin= -1028.37959433052     IErMin= 5 ErrMin= 4.63D-04
 ErrMax= 4.63D-04  0.00D+00 EMaxC= 1.00D-01 BMatC= 8.76D-04 BMatP= 1.25D-02
 IDIUse=3 WtCom= 9.95D-01 WtEn= 4.63D-03
 Coeff-Com:  0.634D-02 0.122D-01 0.877D-01 0.312D+00 0.582D+00
 Coeff-En:   0.000D+00 0.000D+00 0.000D+00 0.000D+00 0.100D+01
 Coeff:      0.631D-02 0.121D-01 0.873D-01 0.310D+00 0.584D+00
 Gap=     0.246 Goal=   None    Shift=    0.000
 Gap=     0.246 Goal=   None    Shift=    0.000
 RMSDP=6.11D-05 MaxDP=2.23D-03 DE=-2.62D-03 OVMax= 2.96D-03

 Cycle   6  Pass 0  IDiag  1:
 RMSU=  4.27D-05    CP:  9.94D-01  8.75D-01  6.61D-01  7.82D-01  7.21D-01
 E= -1028.37979674716     Delta-E=       -0.000202416639 Rises=F Damp=F
 DIIS: error= 1.25D-04 at cycle   6 NSaved=   6.
 NSaved= 6 IEnMin= 6 EnMin= -1028.37979674716     IErMin= 6 ErrMin= 1.25D-04
 ErrMax= 1.25D-04  0.00D+00 EMaxC= 1.00D-01 BMatC= 4.63D-05 BMatP= 8.76D-04
 IDIUse=3 WtCom= 9.99D-01 WtEn= 1.25D-03
 Coeff-Com:  0.162D-02-0.100D-01 0.566D-02 0.612D-01 0.232D+00 0.710D+00
 Coeff-En:   0.000D+00 0.000D+00 0.000D+00 0.000D+00 0.000D+00 0.100D+01
 Coeff:      0.162D-02-0.100D-01 0.565D-02 0.611D-01 0.232D+00 0.710D+00
 Gap=     0.247 Goal=   None    Shift=    0.000
 Gap=     0.247 Goal=   None    Shift=    0.000
 RMSDP=1.82D-05 MaxDP=6.02D-04 DE=-2.02D-04 OVMax= 8.77D-04

 Cycle   7  Pass 0  IDiag  1:
 RMSU=  1.35D-05    CP:  9.94D-01  8.73D-01  6.62D-01  7.94D-01  7.87D-01
                    CP:  9.06D-01
 E= -1028.37980855937     Delta-E=       -0.000011812211 Rises=F Damp=F
 DIIS: error= 4.38D-05 at cycle   7 NSaved=   7.
 NSaved= 7 IEnMin= 7 EnMin= -1028.37980855937     IErMin= 7 ErrMin= 4.38D-05
 ErrMax= 4.38D-05  0.00D+00 EMaxC= 1.00D-01 BMatC= 5.32D-06 BMatP= 4.63D-05
 IDIUse=1 WtCom= 1.00D+00 WtEn= 0.00D+00
 Coeff-Com:  0.680D-03-0.558D-02-0.124D-02 0.121D-01 0.720D-01 0.328D+00
 Coeff-Com:  0.595D+00
 Coeff:      0.680D-03-0.558D-02-0.124D-02 0.121D-01 0.720D-01 0.328D+00
 Coeff:      0.595D+00
 Gap=     0.247 Goal=   None    Shift=    0.000
 Gap=     0.247 Goal=   None    Shift=    0.000
 RMSDP=6.93D-06 MaxDP=2.21D-04 DE=-1.18D-05 OVMax= 4.19D-04

 Initial convergence to 1.0D-05 achieved.  Increase integral accuracy.
 Cycle   8  Pass 1  IDiag  1:
 E= -1028.37964164014     Delta-E=        0.000166919236 Rises=F Damp=F
 DIIS: error= 7.17D-05 at cycle   1 NSaved=   1.
 NSaved= 1 IEnMin= 1 EnMin= -1028.37964164014     IErMin= 1 ErrMin= 7.17D-05
 ErrMax= 7.17D-05  0.00D+00 EMaxC= 1.00D-01 BMatC= 3.24D-06 BMatP= 3.24D-06
 IDIUse=1 WtCom= 1.00D+00 WtEn= 0.00D+00
 Coeff-Com:  0.100D+01
 Coeff:      0.100D+01
 Gap=     0.247 Goal=   None    Shift=    0.000
 Gap=     0.247 Goal=   None    Shift=    0.000
 RMSDP=6.93D-06 MaxDP=2.21D-04 DE= 1.67D-04 OVMax= 4.55D-04

 Cycle   9  Pass 1  IDiag  1:
 RMSU=  3.70D-05    CP:  1.00D+00
 E= -1028.37964109223     Delta-E=        0.000000547905 Rises=F Damp=F
 DIIS: error= 4.75D-05 at cycle   2 NSaved=   2.
 NSaved= 2 IEnMin= 1 EnMin= -1028.37964164014     IErMin= 2 ErrMin= 4.75D-05
 ErrMax= 4.75D-05  0.00D+00 EMaxC= 1.00D-01 BMatC= 5.05D-06 BMatP= 3.24D-06
 IDIUse=1 WtCom= 1.00D+00 WtEn= 0.00D+00
 Coeff-Com:  0.568D+00 0.432D+00
 Coeff:      0.568D+00 0.432D+00
 Gap=     0.247 Goal=   None    Shift=    0.000
 Gap=     0.247 Goal=   None    Shift=    0.000
 RMSDP=5.68D-06 MaxDP=1.80D-04 DE= 5.48D-07 OVMax= 3.89D-04

 Cycle  10  Pass 1  IDiag  1:
 RMSU=  5.67D-06    CP:  1.00D+00  9.91D-01
 E= -1028.37964236334     Delta-E=       -0.000001271109 Rises=F Damp=F
 DIIS: error= 1.53D-05 at cycle   3 NSaved=   3.
 NSaved= 3 IEnMin= 3 EnMin= -1028.37964236334     IErMin= 3 ErrMin= 1.53D-05
 ErrMax= 1.53D-05  0.00D+00 EMaxC= 1.00D-01 BMatC= 4.66D-07 BMatP= 3.24D-06
 IDIUse=1 WtCom= 1.00D+00 WtEn= 0.00D+00
 Coeff-Com:  0.193D-01 0.230D+00 0.751D+00
 Coeff:      0.193D-01 0.230D+00 0.751D+00
 Gap=     0.247 Goal=   None    Shift=    0.000
 Gap=     0.247 Goal=   None    Shift=    0.000
 RMSDP=1.84D-06 MaxDP=7.63D-05 DE=-1.27D-06 OVMax= 1.26D-04

 Cycle  11  Pass 1  IDiag  1:
 RMSU=  9.14D-07    CP:  1.00D+00  1.02D+00  8.21D-01
 E= -1028.37964242122     Delta-E=       -0.000000057884 Rises=F Damp=F
 DIIS: error= 4.34D-06 at cycle   4 NSaved=   4.
 NSaved= 4 IEnMin= 4 EnMin= -1028.37964242122     IErMin= 4 ErrMin= 4.34D-06
 ErrMax= 4.34D-06  0.00D+00 EMaxC= 1.00D-01 BMatC= 7.82D-08 BMatP= 4.66D-07
 IDIUse=1 WtCom= 1.00D+00 WtEn= 0.00D+00
 Coeff-Com: -0.157D-01 0.127D+00 0.477D+00 0.412D+00
 Coeff:     -0.157D-01 0.127D+00 0.477D+00 0.412D+00
 Gap=     0.247 Goal=   None    Shift=    0.000
 Gap=     0.247 Goal=   None    Shift=    0.000
 RMSDP=5.20D-07 MaxDP=2.52D-05 DE=-5.79D-08 OVMax= 3.75D-05

 Cycle  12  Pass 1  IDiag  1:
 RMSU=  3.44D-07    CP:  1.00D+00  1.03D+00  8.25D-01  5.85D-01
 E= -1028.37964244071     Delta-E=       -0.000000019486 Rises=F Damp=F
 DIIS: error= 6.06D-07 at cycle   5 NSaved=   5.
 NSaved= 5 IEnMin= 5 EnMin= -1028.37964244071     IErMin= 5 ErrMin= 6.06D-07
 ErrMax= 6.06D-07  0.00D+00 EMaxC= 1.00D-01 BMatC= 1.17D-09 BMatP= 7.82D-08
 IDIUse=1 WtCom= 1.00D+00 WtEn= 0.00D+00
 Coeff-Com: -0.767D-02 0.444D-01 0.169D+00 0.171D+00 0.623D+00
 Coeff:     -0.767D-02 0.444D-01 0.169D+00 0.171D+00 0.623D+00
 Gap=     0.247 Goal=   None    Shift=    0.000
 Gap=     0.247 Goal=   None    Shift=    0.000
 RMSDP=1.18D-07 MaxDP=3.26D-06 DE=-1.95D-08 OVMax= 7.35D-06

 Cycle  13  Pass 1  IDiag  1:
 RMSU=  9.82D-08    CP:  1.00D+00  1.03D+00  8.26D-01  6.50D-01  1.01D+00
 E= -1028.37964244102     Delta-E=       -0.000000000306 Rises=F Damp=F
 DIIS: error= 3.24D-07 at cycle   6 NSaved=   6.
 NSaved= 6 IEnMin= 6 EnMin= -1028.37964244102     IErMin= 6 ErrMin= 3.24D-07
 ErrMax= 3.24D-07  0.00D+00 EMaxC= 1.00D-01 BMatC= 2.98D-10 BMatP= 1.17D-09
 IDIUse=1 WtCom= 1.00D+00 WtEn= 0.00D+00
 Coeff-Com:  0.433D-03-0.115D-01-0.436D-01-0.298D-01 0.324D+00 0.760D+00
 Coeff:      0.433D-03-0.115D-01-0.436D-01-0.298D-01 0.324D+00 0.760D+00
 Gap=     0.247 Goal=   None    Shift=    0.000
 Gap=     0.247 Goal=   None    Shift=    0.000
 RMSDP=6.83D-08 MaxDP=2.03D-06 DE=-3.06D-10 OVMax= 5.49D-06

 Cycle  14  Pass 1  IDiag  1:
 RMSU=  3.73D-08    CP:  1.00D+00  1.03D+00  8.27D-01  6.68D-01  1.16D+00
                    CP:  8.62D-01
 E= -1028.37964244113     Delta-E=       -0.000000000114 Rises=F Damp=F
 DIIS: error= 9.59D-08 at cycle   7 NSaved=   7.
 NSaved= 7 IEnMin= 7 EnMin= -1028.37964244113     IErMin= 7 ErrMin= 9.59D-08
 ErrMax= 9.59D-08  0.00D+00 EMaxC= 1.00D-01 BMatC= 4.11D-11 BMatP= 2.98D-10
 IDIUse=1 WtCom= 1.00D+00 WtEn= 0.00D+00
 Coeff-Com:  0.112D-02-0.112D-01-0.426D-01-0.367D-01 0.885D-01 0.386D+00
 Coeff-Com:  0.615D+00
 Coeff:      0.112D-02-0.112D-01-0.426D-01-0.367D-01 0.885D-01 0.386D+00
 Coeff:      0.615D+00
 Gap=     0.247 Goal=   None    Shift=    0.000
 Gap=     0.247 Goal=   None    Shift=    0.000
 RMSDP=1.91D-08 MaxDP=5.38D-07 DE=-1.14D-10 OVMax= 1.43D-06

 Cycle  15  Pass 1  IDiag  1:
 RMSU=  1.30D-08    CP:  1.00D+00  1.03D+00  8.27D-01  6.75D-01  1.19D+00
                    CP:  9.45D-01  9.76D-01
 E= -1028.37964244120     Delta-E=       -0.000000000066 Rises=F Damp=F
 DIIS: error= 4.43D-08 at cycle   8 NSaved=   8.
 NSaved= 8 IEnMin= 8 EnMin= -1028.37964244120     IErMin= 8 ErrMin= 4.43D-08
 ErrMax= 4.43D-08  0.00D+00 EMaxC= 1.00D-01 BMatC= 3.02D-12 BMatP= 4.11D-11
 IDIUse=1 WtCom= 1.00D+00 WtEn= 0.00D+00
 Coeff-Com:  0.475D-03-0.417D-02-0.158D-01-0.145D-01 0.126D-01 0.114D+00
 Coeff-Com:  0.286D+00 0.621D+00
 Coeff:      0.475D-03-0.417D-02-0.158D-01-0.145D-01 0.126D-01 0.114D+00
 Coeff:      0.286D+00 0.621D+00
 Gap=     0.247 Goal=   None    Shift=    0.000
 Gap=     0.247 Goal=   None    Shift=    0.000
 RMSDP=5.29D-09 MaxDP=1.69D-07 DE=-6.59D-11 OVMax= 3.66D-07

 SCF Done:  E(ULC-wPBE) =  -1028.37964244     A.U. after   15 cycles
            NFock= 15  Conv=0.53D-08     -V/T= 2.0046
 <Sx>= 0.0000 <Sy>= 0.0000 <Sz>= 0.0000 <S**2>=-0.0000 S=-0.0000
 <L.S>= 0.000000000000E+00
 KE= 1.023644727843D+03 PE=-4.602273343366D+03 EE= 1.456977155245D+03
 Annihilation of the first spin contaminant:
 S**2 before annihilation    -0.0000,   after     0.0000
 Leave Link  502 at Thu Jul 23 10:01:52 2020, MaxMem=  4026531840 cpu:             743.6 elap:              93.3
 (Enter /opt/ohpc/pub/libs/gaussian/g16-A.03/sandybridge/g16/l601.exe)
 Copying SCF densities to generalized density rwf, IOpCl= 1 IROHF=0.

 **********************************************************************

            Population analysis using the SCF density.

 **********************************************************************

 Orbital symmetries:
 Alpha Orbitals:
       Occupied  (A) (A) (A) (A) (A) (A) (A) (A) (A) (A) (A) (A)
                 (A) (A) (A) (A) (A) (A) (A) (A) (A) (A) (A) (A)
                 (A) (A) (A) (A) (A) (A) (A) (A) (A) (A) (A) (A)
                 (A) (A) (A) (A) (A) (A) (A) (A) (A) (A) (A) (A)
                 (A) (A) (A) (A) (A) (A) (A) (A) (A) (A)
       Virtual   (A) (A) (A) (A) (A) (A) (A) (A) (A) (A) (A) (A)
                 (A) (A) (A) (A) (A) (A) (A) (A) (A) (A) (A) (A)
                 (A) (A) (A) (A) (A) (A) (A) (A) (A) (A) (A) (A)
                 (A) (A) (A) (A) (A) (A) (A) (A) (A) (A) (A) (A)
                 (A) (A) (A) (A) (A) (A) (A) (A) (A) (A) (A) (A)
                 (A) (A) (A) (A) (A) (A) (A) (A) (A) (A) (A) (A)
                 (A) (A) (A) (A) (A) (A) (A) (A) (A) (A) (A) (A)
                 (A) (A) (A) (A) (A) (A) (A) (A) (A) (A) (A) (A)
                 (A) (A) (A) (A) (A) (A) (A) (A) (A) (A) (A) (A)
                 (A) (A) (A) (A) (A) (A) (A) (A) (A) (A) (A) (A)
                 (A) (A) (A) (A) (A) (A) (A) (A) (A) (A) (A) (A)
                 (A) (A) (A) (A) (A) (A) (A) (A) (A) (A) (A) (A)
                 (A) (A) (A) (A) (A) (A) (A) (A) (A) (A) (A) (A)
                 (A) (A) (A) (A) (A) (A) (A) (A) (A) (A) (A) (A)
                 (A) (A) (A) (A) (A) (A) (A) (A) (A) (A) (A) (A)
                 (A) (A) (A) (A) (A) (A) (A) (A) (A) (A) (A) (A)
                 (A) (A) (A) (A) (A) (A) (A) (A) (A) (A) (A) (A)
                 (A) (A) (A) (A) (A) (A) (A)
 Beta  Orbitals:
       Occupied  (A) (A) (A) (A) (A) (A) (A) (A) (A) (A) (A) (A)
                 (A) (A) (A) (A) (A) (A) (A) (A) (A) (A) (A) (A)
                 (A) (A) (A) (A) (A) (A) (A) (A) (A) (A) (A) (A)
                 (A) (A) (A) (A) (A) (A) (A) (A) (A) (A) (A) (A)
                 (A) (A) (A) (A) (A) (A) (A) (A) (A) (A)
       Virtual   (A) (A) (A) (A) (A) (A) (A) (A) (A) (A) (A) (A)
                 (A) (A) (A) (A) (A) (A) (A) (A) (A) (A) (A) (A)
                 (A) (A) (A) (A) (A) (A) (A) (A) (A) (A) (A) (A)
                 (A) (A) (A) (A) (A) (A) (A) (A) (A) (A) (A) (A)
                 (A) (A) (A) (A) (A) (A) (A) (A) (A) (A) (A) (A)
                 (A) (A) (A) (A) (A) (A) (A) (A) (A) (A) (A) (A)
                 (A) (A) (A) (A) (A) (A) (A) (A) (A) (A) (A) (A)
                 (A) (A) (A) (A) (A) (A) (A) (A) (A) (A) (A) (A)
                 (A) (A) (A) (A) (A) (A) (A) (A) (A) (A) (A) (A)
                 (A) (A) (A) (A) (A) (A) (A) (A) (A) (A) (A) (A)
                 (A) (A) (A) (A) (A) (A) (A) (A) (A) (A) (A) (A)
                 (A) (A) (A) (A) (A) (A) (A) (A) (A) (A) (A) (A)
                 (A) (A) (A) (A) (A) (A) (A) (A) (A) (A) (A) (A)
                 (A) (A) (A) (A) (A) (A) (A) (A) (A) (A) (A) (A)
                 (A) (A) (A) (A) (A) (A) (A) (A) (A) (A) (A) (A)
                 (A) (A) (A) (A) (A) (A) (A) (A) (A) (A) (A) (A)
                 (A) (A) (A) (A) (A) (A) (A) (A) (A) (A) (A) (A)
                 (A) (A) (A) (A) (A) (A) (A)
 The electronic state is 1-A.
 Alpha  occ. eigenvalues --  -88.16413 -18.87300 -18.85054 -14.05722 -10.03094
 Alpha  occ. eigenvalues --  -10.02225 -10.01301 -10.01091 -10.00170  -9.98743
 Alpha  occ. eigenvalues --   -9.98673  -9.97599  -9.96839  -9.95994  -9.95855
 Alpha  occ. eigenvalues --   -7.76806  -5.78832  -5.78409  -5.78115  -1.07494
 Alpha  occ. eigenvalues --   -1.03724  -0.93600  -0.83499  -0.78831  -0.77412
 Alpha  occ. eigenvalues --   -0.74712  -0.71798  -0.69356  -0.67354  -0.62688
 Alpha  occ. eigenvalues --   -0.59691  -0.58543  -0.56203  -0.54676  -0.51282
 Alpha  occ. eigenvalues --   -0.51147  -0.49771  -0.49548  -0.47841  -0.46745
 Alpha  occ. eigenvalues --   -0.45054  -0.44030  -0.43126  -0.42356  -0.41261
 Alpha  occ. eigenvalues --   -0.39098  -0.38687  -0.38500  -0.36997  -0.35457
 Alpha  occ. eigenvalues --   -0.34215  -0.33870  -0.30456  -0.29173  -0.28503
 Alpha  occ. eigenvalues --   -0.27780  -0.26616  -0.25139
 Alpha virt. eigenvalues --   -0.00485   0.01344   0.02398   0.05723   0.06879
 Alpha virt. eigenvalues --    0.09563   0.11211   0.11626   0.12540   0.13571
 Alpha virt. eigenvalues --    0.13855   0.15048   0.15216   0.16071   0.16433
 Alpha virt. eigenvalues --    0.16746   0.17282   0.18300   0.19279   0.20523
 Alpha virt. eigenvalues --    0.25369   0.25955   0.26432   0.28358   0.30697
 Alpha virt. eigenvalues --    0.31045   0.34057   0.36437   0.37788   0.38668
 Alpha virt. eigenvalues --    0.43055   0.43781   0.44196   0.45536   0.45731
 Alpha virt. eigenvalues --    0.46359   0.46838   0.47388   0.48397   0.48568
 Alpha virt. eigenvalues --    0.48908   0.49695   0.50272   0.50840   0.51283
 Alpha virt. eigenvalues --    0.51487   0.52159   0.54039   0.54525   0.55371
 Alpha virt. eigenvalues --    0.55885   0.56494   0.57630   0.58187   0.59159
 Alpha virt. eigenvalues --    0.61114   0.61439   0.62272   0.63036   0.63429
 Alpha virt. eigenvalues --    0.64405   0.64764   0.65746   0.66235   0.66925
 Alpha virt. eigenvalues --    0.67748   0.68678   0.69540   0.70170   0.72465
 Alpha virt. eigenvalues --    0.73131   0.74559   0.76500   0.77195   0.77971
 Alpha virt. eigenvalues --    0.79324   0.82185   0.84092   0.84676   0.86051
 Alpha virt. eigenvalues --    0.88618   0.89606   0.90540   0.91968   0.92781
 Alpha virt. eigenvalues --    0.93252   0.93483   0.94277   0.95790   0.97507
 Alpha virt. eigenvalues --    0.97823   0.99891   1.00659   1.02483   1.03301
 Alpha virt. eigenvalues --    1.03646   1.04573   1.06416   1.07180   1.08890
 Alpha virt. eigenvalues --    1.09676   1.13392   1.14582   1.16216   1.20552
 Alpha virt. eigenvalues --    1.21638   1.22611   1.23470   1.24904   1.26351
 Alpha virt. eigenvalues --    1.29047   1.30070   1.31564   1.33371   1.37042
 Alpha virt. eigenvalues --    1.38852   1.40399   1.41046   1.41451   1.41919
 Alpha virt. eigenvalues --    1.44242   1.45044   1.46767   1.48818   1.49886
 Alpha virt. eigenvalues --    1.50468   1.52090   1.53574   1.55343   1.57521
 Alpha virt. eigenvalues --    1.58781   1.59176   1.60392   1.61018   1.61338
 Alpha virt. eigenvalues --    1.62354   1.64205   1.64940   1.65284   1.65567
 Alpha virt. eigenvalues --    1.66684   1.67647   1.68183   1.68828   1.70531
 Alpha virt. eigenvalues --    1.70881   1.72327   1.72945   1.74495   1.76154
 Alpha virt. eigenvalues --    1.77468   1.79257   1.82409   1.83445   1.84835
 Alpha virt. eigenvalues --    1.85283   1.86690   1.89592   1.91664   1.92710
 Alpha virt. eigenvalues --    1.94899   1.96450   1.96864   1.98631   1.99412
 Alpha virt. eigenvalues --    2.00904   2.02834   2.03797   2.04273   2.05449
 Alpha virt. eigenvalues --    2.07634   2.10770   2.13113   2.13769   2.15616
 Alpha virt. eigenvalues --    2.18225   2.21300   2.24031   2.25635   2.28294
 Alpha virt. eigenvalues --    2.31440   2.34395   2.36030   2.36812   2.39145
 Alpha virt. eigenvalues --    2.39997   2.41556   2.42484   2.43595   2.45009
 Alpha virt. eigenvalues --    2.47724   2.50939   2.56554   2.57746   2.65501
 Alpha virt. eigenvalues --    2.68609   2.71595   2.74348   2.77439   2.86646
 Alpha virt. eigenvalues --    2.95723   2.97382   2.99599   3.04250   3.08271
 Alpha virt. eigenvalues --    3.13097   3.17684   3.21898   3.34518   3.39533
 Alpha virt. eigenvalues --    3.57189
  Beta  occ. eigenvalues --  -88.16413 -18.87300 -18.85054 -14.05722 -10.03094
  Beta  occ. eigenvalues --  -10.02225 -10.01301 -10.01091 -10.00170  -9.98743
  Beta  occ. eigenvalues --   -9.98673  -9.97599  -9.96839  -9.95994  -9.95855
  Beta  occ. eigenvalues --   -7.76806  -5.78832  -5.78409  -5.78115  -1.07494
  Beta  occ. eigenvalues --   -1.03724  -0.93600  -0.83499  -0.78831  -0.77412
  Beta  occ. eigenvalues --   -0.74712  -0.71798  -0.69356  -0.67354  -0.62688
  Beta  occ. eigenvalues --   -0.59691  -0.58543  -0.56203  -0.54676  -0.51282
  Beta  occ. eigenvalues --   -0.51147  -0.49771  -0.49548  -0.47841  -0.46745
  Beta  occ. eigenvalues --   -0.45054  -0.44030  -0.43126  -0.42356  -0.41261
  Beta  occ. eigenvalues --   -0.39098  -0.38687  -0.38500  -0.36997  -0.35457
  Beta  occ. eigenvalues --   -0.34215  -0.33870  -0.30456  -0.29173  -0.28503
  Beta  occ. eigenvalues --   -0.27780  -0.26616  -0.25139
  Beta virt. eigenvalues --   -0.00485   0.01344   0.02398   0.05723   0.06879
  Beta virt. eigenvalues --    0.09563   0.11211   0.11626   0.12540   0.13571
  Beta virt. eigenvalues --    0.13855   0.15048   0.15216   0.16071   0.16433
  Beta virt. eigenvalues --    0.16746   0.17282   0.18300   0.19279   0.20523
  Beta virt. eigenvalues --    0.25369   0.25955   0.26432   0.28358   0.30697
  Beta virt. eigenvalues --    0.31045   0.34057   0.36437   0.37788   0.38668
  Beta virt. eigenvalues --    0.43055   0.43781   0.44196   0.45536   0.45731
  Beta virt. eigenvalues --    0.46359   0.46838   0.47388   0.48397   0.48568
  Beta virt. eigenvalues --    0.48908   0.49695   0.50272   0.50840   0.51283
  Beta virt. eigenvalues --    0.51487   0.52159   0.54039   0.54525   0.55371
  Beta virt. eigenvalues --    0.55885   0.56494   0.57630   0.58187   0.59159
  Beta virt. eigenvalues --    0.61114   0.61439   0.62272   0.63036   0.63429
  Beta virt. eigenvalues --    0.64405   0.64764   0.65746   0.66235   0.66925
  Beta virt. eigenvalues --    0.67748   0.68678   0.69540   0.70170   0.72465
  Beta virt. eigenvalues --    0.73131   0.74559   0.76500   0.77195   0.77971
  Beta virt. eigenvalues --    0.79324   0.82185   0.84092   0.84676   0.86051
  Beta virt. eigenvalues --    0.88618   0.89606   0.90540   0.91968   0.92781
  Beta virt. eigenvalues --    0.93252   0.93483   0.94277   0.95790   0.97507
  Beta virt. eigenvalues --    0.97823   0.99891   1.00659   1.02483   1.03301
  Beta virt. eigenvalues --    1.03646   1.04573   1.06416   1.07180   1.08890
  Beta virt. eigenvalues --    1.09676   1.13392   1.14582   1.16216   1.20552
  Beta virt. eigenvalues --    1.21638   1.22611   1.23470   1.24904   1.26351
  Beta virt. eigenvalues --    1.29047   1.30070   1.31564   1.33371   1.37042
  Beta virt. eigenvalues --    1.38852   1.40399   1.41046   1.41451   1.41919
  Beta virt. eigenvalues --    1.44242   1.45044   1.46767   1.48818   1.49886
  Beta virt. eigenvalues --    1.50468   1.52090   1.53574   1.55343   1.57521
  Beta virt. eigenvalues --    1.58781   1.59176   1.60392   1.61018   1.61338
  Beta virt. eigenvalues --    1.62354   1.64205   1.64940   1.65284   1.65567
  Beta virt. eigenvalues --    1.66684   1.67647   1.68183   1.68828   1.70531
  Beta virt. eigenvalues --    1.70881   1.72327   1.72945   1.74495   1.76154
  Beta virt. eigenvalues --    1.77468   1.79257   1.82409   1.83445   1.84835
  Beta virt. eigenvalues --    1.85283   1.86690   1.89592   1.91664   1.92710
  Beta virt. eigenvalues --    1.94899   1.96450   1.96864   1.98631   1.99412
  Beta virt. eigenvalues --    2.00904   2.02834   2.03797   2.04273   2.05449
  Beta virt. eigenvalues --    2.07634   2.10770   2.13113   2.13769   2.15616
  Beta virt. eigenvalues --    2.18225   2.21300   2.24031   2.25635   2.28294
  Beta virt. eigenvalues --    2.31440   2.34395   2.36030   2.36812   2.39145
  Beta virt. eigenvalues --    2.39997   2.41556   2.42484   2.43595   2.45009
  Beta virt. eigenvalues --    2.47724   2.50939   2.56554   2.57746   2.65501
  Beta virt. eigenvalues --    2.68609   2.71595   2.74348   2.77439   2.86646
  Beta virt. eigenvalues --    2.95723   2.97382   2.99599   3.04250   3.08271
  Beta virt. eigenvalues --    3.13097   3.17684   3.21898   3.34518   3.39533
  Beta virt. eigenvalues --    3.57189
          Condensed to atoms (all electrons):
               1          2          3          4          5          6
     1  C    4.788933   0.432556   0.032751   0.005762   0.000655  -0.069206
     2  C    0.432556   4.890993   0.426892  -0.054090  -0.009202  -0.015465
     3  C    0.032751   0.426892   5.049446   0.416341  -0.085247   0.349835
     4  O    0.005762  -0.054090   0.416341   7.645245   0.360491  -0.078446
     5  C    0.000655  -0.009202  -0.085247   0.360491   4.566460  -0.008714
     6  C   -0.069206  -0.015465   0.349835  -0.078446  -0.008714   5.479868
     7  C    0.038639  -0.090703   0.048603   0.005535   0.000503   0.349470
     8  O    0.003749  -0.000075   0.001869  -0.000002   0.000001  -0.073219
     9  C    0.001558  -0.000027   0.000194   0.000001   0.000000   0.008387
    10  C    0.420940   0.024780  -0.106744  -0.000464  -0.000121  -0.008174
    11  C   -0.001274   0.014343  -0.108538   0.003286  -0.002709   0.154730
    12  N    0.000027  -0.000085  -0.003660  -0.001263  -0.001920  -0.028750
    13  C   -0.000003   0.000030   0.000407   0.000152   0.000070   0.001282
    14  C    0.000001  -0.000001   0.000117  -0.000087  -0.000035   0.005920
    15  S   -0.000057  -0.000108  -0.002447   0.000530  -0.000255  -0.069318
    16  H    0.386073  -0.037770   0.009969  -0.000114  -0.000002  -0.000546
    17  H   -0.058418   0.358508  -0.031944   0.001828  -0.000976   0.017483
    18  H    0.000036   0.000072   0.004674  -0.020444   0.380798   0.000398
    19  H   -0.000289  -0.001746  -0.002324  -0.031374   0.373203   0.012020
    20  H   -0.001026   0.010322  -0.002555  -0.035296   0.372957  -0.003635
    21  H    0.000442  -0.000030  -0.000088  -0.000000   0.000000  -0.000774
    22  H    0.000023   0.000023  -0.000157   0.000000  -0.000000   0.000185
    23  H   -0.000041  -0.000001   0.000037  -0.000000  -0.000000   0.000211
    24  H   -0.040193   0.010405   0.000197   0.000000  -0.000001   0.007656
    25  H    0.000000  -0.000000  -0.000041   0.000004   0.000028  -0.001024
    26  H    0.000000  -0.000000   0.000003  -0.000001  -0.000001  -0.000289
               7          8          9         10         11         12
     1  C    0.038639   0.003749   0.001558   0.420940  -0.001274   0.000027
     2  C   -0.090703  -0.000075  -0.000027   0.024780   0.014343  -0.000085
     3  C    0.048603   0.001869   0.000194  -0.106744  -0.108538  -0.003660
     4  O    0.005535  -0.000002   0.000001  -0.000464   0.003286  -0.001263
     5  C    0.000503   0.000001   0.000000  -0.000121  -0.002709  -0.001920
     6  C    0.349470  -0.073219   0.008387  -0.008174   0.154730  -0.028750
     7  C    5.023961   0.468395  -0.093074   0.298848  -0.093630   0.001225
     8  O    0.468395   7.531183   0.393063  -0.075199   0.013686  -0.000600
     9  C   -0.093074   0.393063   4.453552  -0.000072  -0.001144   0.000010
    10  C    0.298848  -0.075199  -0.000072   5.067662   0.019646  -0.000087
    11  C   -0.093630   0.013686  -0.001144   0.019646   5.309205   0.552601
    12  N    0.001225  -0.000600   0.000010  -0.000087   0.552601   6.288956
    13  C    0.000344   0.000150  -0.000011   0.000034  -0.119563   0.511295
    14  C   -0.000150  -0.000083   0.000002  -0.000004  -0.077971  -0.047737
    15  S   -0.003845   0.001558   0.000077   0.000028   0.330070  -0.091270
    16  H    0.009230  -0.000059  -0.000018  -0.055502   0.000038  -0.000000
    17  H   -0.001260   0.000003  -0.000002   0.012725  -0.000324  -0.000006
    18  H    0.000031  -0.000000   0.000000  -0.000006  -0.000495   0.000091
    19  H   -0.001504   0.000002  -0.000002   0.000171  -0.001290   0.016332
    20  H   -0.000038  -0.000000   0.000000   0.000025   0.000873   0.000118
    21  H   -0.010932  -0.031400   0.388774   0.012750   0.000227  -0.000003
    22  H   -0.010024  -0.029316   0.383561   0.013199   0.000227  -0.000000
    23  H    0.004413  -0.021189   0.381396  -0.001022  -0.000230   0.000009
    24  H   -0.057379  -0.009301   0.011630   0.378587  -0.000475  -0.000001
    25  H    0.000029   0.000004  -0.000000  -0.000000   0.003607  -0.026518
    26  H   -0.000010  -0.000001  -0.000000  -0.000000   0.003001   0.004784
              13         14         15         16         17         18
     1  C   -0.000003   0.000001  -0.000057   0.386073  -0.058418   0.000036
     2  C    0.000030  -0.000001  -0.000108  -0.037770   0.358508   0.000072
     3  C    0.000407   0.000117  -0.002447   0.009969  -0.031944   0.004674
     4  O    0.000152  -0.000087   0.000530  -0.000114   0.001828  -0.020444
     5  C    0.000070  -0.000035  -0.000255  -0.000002  -0.000976   0.380798
     6  C    0.001282   0.005920  -0.069318  -0.000546   0.017483   0.000398
     7  C    0.000344  -0.000150  -0.003845   0.009230  -0.001260   0.000031
     8  O    0.000150  -0.000083   0.001558  -0.000059   0.000003  -0.000000
     9  C   -0.000011   0.000002   0.000077  -0.000018  -0.000002   0.000000
    10  C    0.000034  -0.000004   0.000028  -0.055502   0.012725  -0.000006
    11  C   -0.119563  -0.077971   0.330070   0.000038  -0.000324  -0.000495
    12  N    0.511295  -0.047737  -0.091270  -0.000000  -0.000006   0.000091
    13  C    4.702166   0.525083  -0.102187   0.000000  -0.000000   0.000016
    14  C    0.525083   5.071625   0.349939   0.000000   0.000000  -0.000002
    15  S   -0.102187   0.349939  15.433734  -0.000001   0.000010   0.000017
    16  H    0.000000   0.000000  -0.000001   0.747157  -0.017154  -0.000001
    17  H   -0.000000   0.000000   0.000010  -0.017154   0.754212  -0.000327
    18  H    0.000016  -0.000002   0.000017  -0.000001  -0.000327   0.662900
    19  H    0.000322   0.000157   0.000662  -0.000017   0.001585  -0.026352
    20  H    0.000007  -0.000001   0.000001   0.000054  -0.000640  -0.038644
    21  H    0.000000  -0.000000   0.000007   0.000031   0.000000   0.000000
    22  H    0.000003   0.000000   0.000007   0.000005   0.000001  -0.000000
    23  H   -0.000005  -0.000001   0.000043  -0.000001  -0.000000  -0.000000
    24  H   -0.000000  -0.000000   0.000008  -0.015880  -0.000309   0.000000
    25  H    0.390905  -0.057798   0.008450   0.000000  -0.000000  -0.000004
    26  H   -0.017911   0.383949  -0.035865  -0.000000   0.000000   0.000000
              19         20         21         22         23         24
     1  C   -0.000289  -0.001026   0.000442   0.000023  -0.000041  -0.040193
     2  C   -0.001746   0.010322  -0.000030   0.000023  -0.000001   0.010405
     3  C   -0.002324  -0.002555  -0.000088  -0.000157   0.000037   0.000197
     4  O   -0.031374  -0.035296  -0.000000   0.000000  -0.000000   0.000000
     5  C    0.373203   0.372957   0.000000  -0.000000  -0.000000  -0.000001
     6  C    0.012020  -0.003635  -0.000774   0.000185   0.000211   0.007656
     7  C   -0.001504  -0.000038  -0.010932  -0.010024   0.004413  -0.057379
     8  O    0.000002  -0.000000  -0.031400  -0.029316  -0.021189  -0.009301
     9  C   -0.000002   0.000000   0.388774   0.383561   0.381396   0.011630
    10  C    0.000171   0.000025   0.012750   0.013199  -0.001022   0.378587
    11  C   -0.001290   0.000873   0.000227   0.000227  -0.000230  -0.000475
    12  N    0.016332   0.000118  -0.000003  -0.000000   0.000009  -0.000001
    13  C    0.000322   0.000007   0.000000   0.000003  -0.000005  -0.000000
    14  C    0.000157  -0.000001  -0.000000   0.000000  -0.000001  -0.000000
    15  S    0.000662   0.000001   0.000007   0.000007   0.000043   0.000008
    16  H   -0.000017   0.000054   0.000031   0.000005  -0.000001  -0.015880
    17  H    0.001585  -0.000640   0.000000   0.000001  -0.000000  -0.000309
    18  H   -0.026352  -0.038644   0.000000  -0.000000  -0.000000   0.000000
    19  H    0.661989  -0.047967  -0.000000  -0.000000   0.000000   0.000003
    20  H   -0.047967   0.724369   0.000000  -0.000000  -0.000000   0.000000
    21  H   -0.000000   0.000000   0.704404  -0.053772  -0.035361   0.002271
    22  H   -0.000000  -0.000000  -0.053772   0.701288  -0.034481   0.002699
    23  H    0.000000  -0.000000  -0.035361  -0.034481   0.668368  -0.000710
    24  H    0.000003   0.000000   0.002271   0.002699  -0.000710   0.739715
    25  H   -0.000074   0.000000   0.000000  -0.000000  -0.000000   0.000000
    26  H   -0.000003  -0.000000  -0.000000   0.000000   0.000000  -0.000000
              25         26
     1  C    0.000000   0.000000
     2  C   -0.000000  -0.000000
     3  C   -0.000041   0.000003
     4  O    0.000004  -0.000001
     5  C    0.000028  -0.000001
     6  C   -0.001024  -0.000289
     7  C    0.000029  -0.000010
     8  O    0.000004  -0.000001
     9  C   -0.000000  -0.000000
    10  C   -0.000000  -0.000000
    11  C    0.003607   0.003001
    12  N   -0.026518   0.004784
    13  C    0.390905  -0.017911
    14  C   -0.057798   0.383949
    15  S    0.008450  -0.035865
    16  H    0.000000  -0.000000
    17  H   -0.000000   0.000000
    18  H   -0.000004   0.000000
    19  H   -0.000074  -0.000003
    20  H    0.000000  -0.000000
    21  H    0.000000  -0.000000
    22  H   -0.000000   0.000000
    23  H   -0.000000   0.000000
    24  H    0.000000  -0.000000
    25  H    0.686978  -0.004309
    26  H   -0.004309   0.651563
          Atomic-Atomic Spin Densities.
               1          2          3          4          5          6
     1  C    0.000000  -0.000000   0.000000   0.000000   0.000000  -0.000000
     2  C   -0.000000   0.000000  -0.000000  -0.000000  -0.000000   0.000000
     3  C    0.000000  -0.000000   0.000000   0.000000   0.000000  -0.000000
     4  O    0.000000  -0.000000   0.000000  -0.000000  -0.000000  -0.000000
     5  C    0.000000  -0.000000   0.000000  -0.000000   0.000000  -0.000000
     6  C   -0.000000   0.000000  -0.000000  -0.000000  -0.000000   0.000000
     7  C    0.000000  -0.000000   0.000000   0.000000   0.000000  -0.000000
     8  O    0.000000  -0.000000   0.000000   0.000000  -0.000000  -0.000000
     9  C    0.000000  -0.000000   0.000000   0.000000   0.000000   0.000000
    10  C   -0.000000   0.000000  -0.000000  -0.000000  -0.000000   0.000000
    11  C   -0.000000   0.000000  -0.000000  -0.000000  -0.000000  -0.000000
    12  N    0.000000  -0.000000   0.000000  -0.000000  -0.000000  -0.000000
    13  C   -0.000000   0.000000  -0.000000  -0.000000  -0.000000  -0.000000
    14  C    0.000000   0.000000   0.000000   0.000000  -0.000000   0.000000
    15  S   -0.000000   0.000000  -0.000000  -0.000000  -0.000000  -0.000000
    16  H    0.000000  -0.000000   0.000000   0.000000   0.000000  -0.000000
    17  H   -0.000000   0.000000  -0.000000  -0.000000  -0.000000   0.000000
    18  H    0.000000  -0.000000  -0.000000  -0.000000   0.000000   0.000000
    19  H   -0.000000   0.000000  -0.000000  -0.000000   0.000000  -0.000000
    20  H    0.000000   0.000000   0.000000   0.000000  -0.000000  -0.000000
    21  H   -0.000000   0.000000  -0.000000  -0.000000  -0.000000   0.000000
    22  H   -0.000000   0.000000  -0.000000   0.000000  -0.000000  -0.000000
    23  H    0.000000  -0.000000   0.000000  -0.000000   0.000000   0.000000
    24  H   -0.000000   0.000000  -0.000000  -0.000000   0.000000  -0.000000
    25  H   -0.000000   0.000000  -0.000000  -0.000000  -0.000000  -0.000000
    26  H   -0.000000   0.000000   0.000000   0.000000  -0.000000  -0.000000
               7          8          9         10         11         12
     1  C    0.000000   0.000000   0.000000  -0.000000  -0.000000   0.000000
     2  C   -0.000000  -0.000000  -0.000000   0.000000   0.000000  -0.000000
     3  C    0.000000   0.000000   0.000000  -0.000000  -0.000000   0.000000
     4  O    0.000000   0.000000   0.000000  -0.000000  -0.000000  -0.000000
     5  C    0.000000  -0.000000   0.000000  -0.000000  -0.000000  -0.000000
     6  C   -0.000000  -0.000000   0.000000   0.000000  -0.000000  -0.000000
     7  C    0.000000   0.000000   0.000000  -0.000000  -0.000000  -0.000000
     8  O    0.000000  -0.000000  -0.000000  -0.000000   0.000000   0.000000
     9  C    0.000000  -0.000000   0.000000  -0.000000  -0.000000  -0.000000
    10  C   -0.000000  -0.000000  -0.000000   0.000000   0.000000  -0.000000
    11  C   -0.000000   0.000000  -0.000000   0.000000   0.000000   0.000000
    12  N   -0.000000   0.000000  -0.000000  -0.000000   0.000000  -0.000000
    13  C    0.000000   0.000000  -0.000000   0.000000  -0.000000  -0.000000
    14  C   -0.000000   0.000000   0.000000  -0.000000   0.000000   0.000000
    15  S   -0.000000   0.000000  -0.000000   0.000000   0.000000  -0.000000
    16  H    0.000000   0.000000   0.000000  -0.000000  -0.000000   0.000000
    17  H   -0.000000  -0.000000  -0.000000   0.000000   0.000000  -0.000000
    18  H    0.000000   0.000000   0.000000  -0.000000  -0.000000   0.000000
    19  H   -0.000000  -0.000000  -0.000000   0.000000   0.000000  -0.000000
    20  H   -0.000000   0.000000  -0.000000   0.000000   0.000000  -0.000000
    21  H   -0.000000   0.000000  -0.000000   0.000000   0.000000  -0.000000
    22  H   -0.000000   0.000000   0.000000   0.000000   0.000000  -0.000000
    23  H   -0.000000  -0.000000   0.000000  -0.000000  -0.000000  -0.000000
    24  H    0.000000  -0.000000   0.000000   0.000000   0.000000  -0.000000
    25  H    0.000000   0.000000  -0.000000   0.000000  -0.000000   0.000000
    26  H    0.000000   0.000000  -0.000000   0.000000   0.000000   0.000000
              13         14         15         16         17         18
     1  C   -0.000000   0.000000  -0.000000   0.000000  -0.000000   0.000000
     2  C    0.000000   0.000000   0.000000  -0.000000   0.000000  -0.000000
     3  C   -0.000000   0.000000  -0.000000   0.000000  -0.000000  -0.000000
     4  O   -0.000000   0.000000  -0.000000   0.000000  -0.000000  -0.000000
     5  C   -0.000000  -0.000000  -0.000000   0.000000  -0.000000   0.000000
     6  C   -0.000000   0.000000  -0.000000  -0.000000   0.000000   0.000000
     7  C    0.000000  -0.000000  -0.000000   0.000000  -0.000000   0.000000
     8  O    0.000000   0.000000   0.000000   0.000000  -0.000000   0.000000
     9  C   -0.000000   0.000000  -0.000000   0.000000  -0.000000   0.000000
    10  C    0.000000  -0.000000   0.000000  -0.000000   0.000000  -0.000000
    11  C   -0.000000   0.000000   0.000000  -0.000000   0.000000  -0.000000
    12  N   -0.000000   0.000000  -0.000000   0.000000  -0.000000   0.000000
    13  C   -0.000000   0.000000   0.000000  -0.000000   0.000000  -0.000000
    14  C    0.000000  -0.000000  -0.000000   0.000000  -0.000000  -0.000000
    15  S    0.000000  -0.000000  -0.000000  -0.000000   0.000000  -0.000000
    16  H   -0.000000   0.000000  -0.000000   0.000000  -0.000000   0.000000
    17  H    0.000000  -0.000000   0.000000  -0.000000   0.000000  -0.000000
    18  H   -0.000000  -0.000000  -0.000000   0.000000  -0.000000  -0.000000
    19  H    0.000000  -0.000000   0.000000  -0.000000   0.000000   0.000000
    20  H   -0.000000   0.000000  -0.000000   0.000000  -0.000000  -0.000000
    21  H    0.000000   0.000000   0.000000  -0.000000   0.000000   0.000000
    22  H    0.000000   0.000000  -0.000000  -0.000000   0.000000   0.000000
    23  H   -0.000000  -0.000000  -0.000000   0.000000  -0.000000   0.000000
    24  H    0.000000  -0.000000   0.000000  -0.000000   0.000000  -0.000000
    25  H   -0.000000  -0.000000   0.000000  -0.000000   0.000000  -0.000000
    26  H    0.000000  -0.000000  -0.000000  -0.000000   0.000000  -0.000000
              19         20         21         22         23         24
     1  C   -0.000000   0.000000  -0.000000  -0.000000   0.000000  -0.000000
     2  C    0.000000   0.000000   0.000000   0.000000  -0.000000   0.000000
     3  C   -0.000000   0.000000  -0.000000  -0.000000   0.000000  -0.000000
     4  O   -0.000000   0.000000  -0.000000   0.000000  -0.000000  -0.000000
     5  C    0.000000  -0.000000  -0.000000  -0.000000   0.000000   0.000000
     6  C   -0.000000  -0.000000   0.000000  -0.000000   0.000000  -0.000000
     7  C   -0.000000  -0.000000  -0.000000  -0.000000  -0.000000   0.000000
     8  O   -0.000000   0.000000   0.000000   0.000000  -0.000000  -0.000000
     9  C   -0.000000  -0.000000  -0.000000   0.000000   0.000000   0.000000
    10  C    0.000000   0.000000   0.000000   0.000000  -0.000000   0.000000
    11  C    0.000000   0.000000   0.000000   0.000000  -0.000000   0.000000
    12  N   -0.000000  -0.000000  -0.000000  -0.000000  -0.000000  -0.000000
    13  C    0.000000  -0.000000   0.000000   0.000000  -0.000000   0.000000
    14  C   -0.000000   0.000000   0.000000   0.000000  -0.000000  -0.000000
    15  S    0.000000  -0.000000   0.000000  -0.000000  -0.000000   0.000000
    16  H   -0.000000   0.000000  -0.000000  -0.000000   0.000000  -0.000000
    17  H    0.000000  -0.000000   0.000000   0.000000  -0.000000   0.000000
    18  H    0.000000  -0.000000   0.000000   0.000000   0.000000  -0.000000
    19  H   -0.000000  -0.000000  -0.000000  -0.000000   0.000000   0.000000
    20  H   -0.000000   0.000000  -0.000000  -0.000000  -0.000000  -0.000000
    21  H   -0.000000  -0.000000  -0.000000  -0.000000   0.000000   0.000000
    22  H   -0.000000  -0.000000  -0.000000  -0.000000  -0.000000   0.000000
    23  H    0.000000  -0.000000   0.000000  -0.000000   0.000000  -0.000000
    24  H    0.000000  -0.000000   0.000000   0.000000  -0.000000  -0.000000
    25  H    0.000000   0.000000   0.000000   0.000000  -0.000000   0.000000
    26  H    0.000000   0.000000   0.000000   0.000000  -0.000000   0.000000
              25         26
     1  C   -0.000000  -0.000000
     2  C    0.000000   0.000000
     3  C   -0.000000   0.000000
     4  O   -0.000000   0.000000
     5  C   -0.000000  -0.000000
     6  C   -0.000000  -0.000000
     7  C    0.000000   0.000000
     8  O    0.000000   0.000000
     9  C   -0.000000  -0.000000
    10  C    0.000000   0.000000
    11  C   -0.000000   0.000000
    12  N    0.000000   0.000000
    13  C   -0.000000   0.000000
    14  C   -0.000000  -0.000000
    15  S    0.000000  -0.000000
    16  H   -0.000000  -0.000000
    17  H    0.000000   0.000000
    18  H   -0.000000  -0.000000
    19  H    0.000000   0.000000
    20  H    0.000000   0.000000
    21  H    0.000000   0.000000
    22  H    0.000000   0.000000
    23  H   -0.000000  -0.000000
    24  H    0.000000   0.000000
    25  H    0.000000   0.000000
    26  H    0.000000   0.000000
 Mulliken charges and spin densities:
               1          2
     1  C    0.058361  -0.000000
     2  C    0.040380   0.000000
     3  C    0.002411   0.000000
     4  O   -0.217596  -0.000000
     5  C    0.054016   0.000000
     6  C   -0.029885  -0.000000
     7  C    0.113325  -0.000000
     8  O   -0.173217  -0.000000
     9  C    0.072145   0.000000
    10  C   -0.002001   0.000000
    11  C    0.002101  -0.000000
    12  N   -0.173549  -0.000000
    13  C    0.107415  -0.000000
    14  C   -0.152921   0.000000
    15  S    0.180212  -0.000000
    16  H   -0.025491   0.000000
    17  H   -0.034995   0.000000
    18  H    0.037239   0.000000
    19  H    0.046493  -0.000000
    20  H    0.021075  -0.000000
    21  H    0.023453  -0.000000
    22  H    0.026529  -0.000000
    23  H    0.038566  -0.000000
    24  H   -0.028923  -0.000000
    25  H   -0.000236   0.000000
    26  H    0.015093   0.000000
 Sum of Mulliken charges =  -0.00000  -0.00000
 Mulliken charges and spin densities with hydrogens summed into heavy atoms:
               1          2
     1  C    0.032870  -0.000000
     2  C    0.005385   0.000000
     3  C    0.002411   0.000000
     4  O   -0.217596  -0.000000
     5  C    0.158823   0.000000
     6  C   -0.029885  -0.000000
     7  C    0.113325  -0.000000
     8  O   -0.173217  -0.000000
     9  C    0.160693  -0.000000
    10  C   -0.030923   0.000000
    11  C    0.002101  -0.000000
    12  N   -0.173549  -0.000000
    13  C    0.107178  -0.000000
    14  C   -0.137828   0.000000
    15  S    0.180212  -0.000000
 Electronic spatial extent (au):  <R**2>=           3331.8869
 Charge=              0.0000 electrons
 Dipole moment (field-independent basis, Debye):
    X=              0.9852    Y=             -1.4358    Z=              0.0024  Tot=              1.7414
 Quadrupole moment (field-independent basis, Debye-Ang):
   XX=            -80.3904   YY=            -84.9467   ZZ=            -96.3920
   XY=             -1.2656   XZ=              1.0209   YZ=              1.6294
 Traceless Quadrupole moment (field-independent basis, Debye-Ang):
   XX=              6.8526   YY=              2.2963   ZZ=             -9.1489
   XY=             -1.2656   XZ=              1.0209   YZ=              1.6294
 Octapole moment (field-independent basis, Debye-Ang**2):
  XXX=            -17.9230  YYY=             -9.6525  ZZZ=             -1.2685  XYY=             20.5957
  XXY=            -15.5769  XXZ=             -5.1642  XZZ=             -6.8688  YZZ=             -4.1074
  YYZ=             12.6041  XYZ=             -7.9907
 Hexadecapole moment (field-independent basis, Debye-Ang**3):
 XXXX=          -2122.0448 YYYY=          -1561.1519 ZZZZ=           -387.7100 XXXY=             30.3754
 XXXZ=             -6.7808 YYYX=            -64.7763 YYYZ=              2.2532 ZZZX=              9.1405
 ZZZY=             -4.0873 XXYY=           -644.5200 XXZZ=           -455.9710 YYZZ=           -346.6189
 XXYZ=             -2.2906 YYXZ=              9.2670 ZZXY=             -5.2149
 N-N= 1.093271817837D+03 E-N=-4.602273335591D+03  KE= 1.023644727843D+03
                          Isotropic Fermi Contact Couplings
        Atom                 a.u.       MegaHertz       Gauss      10(-4) cm-1
     1  C(13)             -0.00000      -0.00000      -0.00000      -0.00000
[...]
    12  N    0.000000   0.000000  -0.000000   0.000000  -0.000000  -0.000000
    13  C   -0.000000   0.000000   0.000000  -0.000000   0.000000   0.000000
    14  C   -0.000000   0.000000  -0.000000   0.000000  -0.000000   0.000000
    15  S   -0.000000  -0.000000  -0.000000   0.000000   0.000000  -0.000000
    16  H    0.000000  -0.000000  -0.000000   0.000000   0.000000  -0.000000
    17  H   -0.000000   0.000000   0.000000  -0.000000  -0.000000   0.000000
    18  H    0.000000  -0.000000  -0.000000   0.000000   0.000000  -0.000000
    19  H   -0.000000   0.000000   0.000000  -0.000000  -0.000000  -0.000000
    20  H    0.000000  -0.000000  -0.000000  -0.000000   0.000000   0.000000
    21  H    0.000000  -0.000000   0.000000  -0.000000  -0.000000   0.000000
    22  H   -0.000000  -0.000000  -0.000000  -0.000000   0.000000  -0.000000
    23  H   -0.000000   0.000000  -0.000000   0.000000   0.000000  -0.000000
    24  H   -0.000000   0.000000   0.000000  -0.000000  -0.000000   0.000000
    25  H   -0.000000   0.000000   0.000000  -0.000000  -0.000000   0.000000
    26  H   -0.000000   0.000000  -0.000000  -0.000000   0.000000  -0.000000
              25         26
     1  C   -0.000000   0.000000
     2  C    0.000000  -0.000000
     3  C    0.000000  -0.000000
     4  O    0.000000   0.000000
     5  C   -0.000000   0.000000
     6  C   -0.000000   0.000000
     7  C   -0.000000   0.000000
     8  O    0.000000  -0.000000
     9  C   -0.000000   0.000000
    10  C   -0.000000   0.000000
    11  C    0.000000   0.000000
    12  N   -0.000000  -0.000000
    13  C    0.000000   0.000000
    14  C   -0.000000  -0.000000
    15  S    0.000000   0.000000
    16  H   -0.000000   0.000000
    17  H   -0.000000  -0.000000
    18  H    0.000000   0.000000
    19  H   -0.000000  -0.000000
    20  H    0.000000   0.000000
    21  H    0.000000  -0.000000
    22  H   -0.000000  -0.000000
    23  H   -0.000000   0.000000
    24  H    0.000000  -0.000000
    25  H    0.000000   0.000000
    26  H    0.000000  -0.000000
 Mulliken charges and spin densities:
               1          2
     1  C    0.041148  -0.000000
     2  C    0.055396   0.000000
     3  C    0.015946  -0.000000
     4  O   -0.242216  -0.000000
     5  C    0.080156   0.000000
     6  C    0.054701  -0.000000
     7  C    0.087841   0.000000
     8  O   -0.244715  -0.000000
     9  C    0.065893   0.000000
    10  C   -0.017678   0.000000
    11  C   -0.013905   0.000000
    12  N   -0.174197  -0.000000
    13  C    0.124496   0.000000
    14  C   -0.167363  -0.000000
    15  S    0.152035   0.000000
    16  H   -0.019059   0.000000
    17  H   -0.025968   0.000000
    18  H    0.039355   0.000000
    19  H    0.034100  -0.000000
    20  H    0.017961  -0.000000
    21  H    0.047366  -0.000000
    22  H    0.047567  -0.000000
    23  H    0.052153  -0.000000
    24  H   -0.023710   0.000000
    25  H   -0.005766   0.000000
    26  H    0.018466  -0.000000
 Sum of Mulliken charges =  -0.00000   0.00000
 Mulliken charges and spin densities with hydrogens summed into heavy atoms:
               1          2
     1  C    0.022089  -0.000000
     2  C    0.029427   0.000000
     3  C    0.015946  -0.000000
     4  O   -0.242216  -0.000000
     5  C    0.171572  -0.000000
     6  C    0.054701  -0.000000
     7  C    0.087841   0.000000
     8  O   -0.244715  -0.000000
     9  C    0.212978  -0.000000
    10  C   -0.041389   0.000000
    11  C   -0.013905   0.000000
    12  N   -0.174197  -0.000000
    13  C    0.118729   0.000000
    14  C   -0.148897  -0.000000
    15  S    0.152035   0.000000
 Electronic spatial extent (au):  <R**2>=           3412.6822
 Charge=              0.0000 electrons
 Dipole moment (field-independent basis, Debye):
    X=              1.0809    Y=             -2.0521    Z=              0.7792  Tot=              2.4468
 Quadrupole moment (field-independent basis, Debye-Ang):
   XX=            -80.9489   YY=            -80.9844   ZZ=            -97.9108
   XY=             -2.2722   XZ=              0.6100   YZ=              1.5263
 Traceless Quadrupole moment (field-independent basis, Debye-Ang):
   XX=              5.6658   YY=              5.6303   ZZ=            -11.2961
   XY=             -2.2722   XZ=              0.6100   YZ=              1.5263
 Octapole moment (field-independent basis, Debye-Ang**2):
  XXX=            -19.9463  YYY=            -18.0550  ZZZ=              0.4094  XYY=             15.6236
  XXY=             -7.1499  XXZ=             -0.6437  XZZ=             -1.9048  YZZ=             -3.2564
  YYZ=             10.5895  XYZ=             -5.1734
 Hexadecapole moment (field-independent basis, Debye-Ang**3):
 XXXX=          -2165.9698 YYYY=          -1723.5840 ZZZZ=           -193.9219 XXXY=              7.9425
 XXXZ=             -5.2209 YYYX=            -45.1877 YYYZ=             -3.7321 ZZZX=              3.4306
 ZZZY=             -6.7033 XXYY=           -680.3203 XXZZ=           -469.4874 YYZZ=           -362.2688
 XXYZ=              3.9243 YYXZ=              6.6046 ZZXY=             -5.8885
 N-N= 1.090216564227D+03 E-N=-4.596444666783D+03  KE= 1.023372863896D+03
                          Isotropic Fermi Contact Couplings
        Atom                 a.u.       MegaHertz       Gauss      10(-4) cm-1
     1  C(13)              0.00000       0.00000       0.00000       0.00000
     2  C(13)              0.00000       0.00000       0.00000       0.00000
     3  C(13)              0.00000       0.00000       0.00000       0.00000
     4  O(17)              0.00000      -0.00000      -0.00000      -0.00000
     5  C(13)              0.00000       0.00000       0.00000       0.00000
     6  C(13)              0.00000       0.00000       0.00000       0.00000
     7  C(13)              0.00000       0.00000       0.00000       0.00000
     8  O(17)              0.00000      -0.00000      -0.00000      -0.00000
     9  C(13)              0.00000       0.00000       0.00000       0.00000
    10  C(13)              0.00000       0.00000       0.00000       0.00000
    11  C(13)              0.00000       0.00000       0.00000       0.00000
    12  N(14)             -0.00000      -0.00000      -0.00000      -0.00000
    13  C(13)              0.00000       0.00000       0.00000       0.00000
    14  C(13)              0.00000       0.00000       0.00000       0.00000
    15  S(33)             -0.00000      -0.00000      -0.00000      -0.00000
    16  H(1)               0.00000       0.00000       0.00000       0.00000
    17  H(1)              -0.00000      -0.00000      -0.00000      -0.00000
    18  H(1)              -0.00000      -0.00000      -0.00000      -0.00000
    19  H(1)              -0.00000      -0.00000      -0.00000      -0.00000
    20  H(1)              -0.00000      -0.00000      -0.00000      -0.00000
    21  H(1)              -0.00000      -0.00000      -0.00000      -0.00000
    22  H(1)              -0.00000      -0.00000      -0.00000      -0.00000
    23  H(1)               0.00000       0.00000       0.00000       0.00000
    24  H(1)               0.00000       0.00000       0.00000       0.00000
    25  H(1)              -0.00000      -0.00000      -0.00000      -0.00000
    26  H(1)              -0.00000      -0.00000      -0.00000      -0.00000
 --------------------------------------------------------
       Center         ----  Spin Dipole Couplings  ----
                      3XX-RR        3YY-RR        3ZZ-RR
 --------------------------------------------------------
     1   Atom       -0.000000      0.000000     -0.000000
     2   Atom        0.000000      0.000000     -0.000000
     3   Atom       -0.000000      0.000000     -0.000000
     4   Atom       -0.000000      0.000000     -0.000000
     5   Atom        0.000000     -0.000000     -0.000000
     6   Atom        0.000000      0.000000     -0.000000
     7   Atom       -0.000000      0.000000     -0.000000
     8   Atom       -0.000000     -0.000000      0.000000
     9   Atom       -0.000000     -0.000000      0.000000
    10   Atom        0.000000     -0.000000     -0.000000
    11   Atom       -0.000000      0.000000      0.000000
    12   Atom        0.000000     -0.000000      0.000000
    13   Atom       -0.000000      0.000000      0.000000
    14   Atom        0.000000     -0.000000     -0.000000
    15   Atom       -0.000000      0.000000      0.000000
    16   Atom        0.000000     -0.000000     -0.000000
    17   Atom       -0.000000      0.000000     -0.000000
    18   Atom        0.000000     -0.000000      0.000000
    19   Atom       -0.000000      0.000000     -0.000000
    20   Atom       -0.000000     -0.000000      0.000000
    21   Atom       -0.000000     -0.000000      0.000000
    22   Atom       -0.000000     -0.000000      0.000000
    23   Atom        0.000000     -0.000000     -0.000000
    24   Atom       -0.000000      0.000000     -0.000000
    25   Atom        0.000000     -0.000000      0.000000
    26   Atom       -0.000000     -0.000000      0.000000
 --------------------------------------------------------
                        XY            XZ            YZ
 --------------------------------------------------------
     1   Atom        0.000000     -0.000000     -0.000000
     2   Atom        0.000000      0.000000     -0.000000
     3   Atom       -0.000000      0.000000     -0.000000
     4   Atom       -0.000000     -0.000000     -0.000000
     5   Atom        0.000000     -0.000000     -0.000000
     6   Atom        0.000000      0.000000     -0.000000
     7   Atom       -0.000000     -0.000000     -0.000000
     8   Atom        0.000000     -0.000000     -0.000000
     9   Atom        0.000000      0.000000     -0.000000
    10   Atom       -0.000000     -0.000000     -0.000000
    11   Atom       -0.000000      0.000000      0.000000
    12   Atom        0.000000     -0.000000     -0.000000
    13   Atom        0.000000      0.000000      0.000000
    14   Atom        0.000000     -0.000000     -0.000000
    15   Atom        0.000000      0.000000      0.000000
    16   Atom        0.000000     -0.000000     -0.000000
    17   Atom        0.000000     -0.000000     -0.000000
    18   Atom       -0.000000      0.000000     -0.000000
    19   Atom        0.000000      0.000000     -0.000000
    20   Atom       -0.000000      0.000000     -0.000000
    21   Atom        0.000000     -0.000000      0.000000
    22   Atom        0.000000      0.000000      0.000000
    23   Atom        0.000000     -0.000000      0.000000
    24   Atom       -0.000000      0.000000     -0.000000
    25   Atom       -0.000000     -0.000000     -0.000000
    26   Atom       -0.000000     -0.000000     -0.000000
 --------------------------------------------------------


 ---------------------------------------------------------------------------------
              Anisotropic Spin Dipole Couplings in Principal Axis System
 ---------------------------------------------------------------------------------

       Atom             a.u.   MegaHertz   Gauss  10(-4) cm-1        Axes

              Baa    -0.0000    -0.000    -0.000    -0.000 -0.0401  0.1731  0.9841
     1 C(13)  Bbb    -0.0000    -0.000    -0.000    -0.000  0.9945 -0.0885  0.0561
              Bcc     0.0000     0.000     0.000     0.000  0.0968  0.9809 -0.1686
 
              Baa    -0.0000    -0.000    -0.000    -0.000 -0.0166  0.0975  0.9951
     2 C(13)  Bbb     0.0000     0.000     0.000     0.000 -0.0451  0.9942 -0.0981
              Bcc     0.0000     0.000     0.000     0.000  0.9988  0.0465  0.0121
 
              Baa    -0.0000    -0.000    -0.000    -0.000 -0.1188  0.2034  0.9719
     3 C(13)  Bbb    -0.0000    -0.000    -0.000    -0.000  0.8394  0.5434 -0.0111
              Bcc     0.0000     0.000     0.000     0.000 -0.5304  0.8144 -0.2353
 
              Baa    -0.0000     0.000     0.000     0.000  0.6239  0.4066  0.6674
     4 O(17)  Bbb    -0.0000     0.000     0.000     0.000 -0.6347 -0.2346  0.7363
              Bcc     0.0000    -0.000    -0.000    -0.000 -0.4559  0.8830 -0.1117
 
              Baa    -0.0000    -0.000    -0.000    -0.000  0.0485  0.7914  0.6093
     5 C(13)  Bbb    -0.0000    -0.000    -0.000    -0.000  0.6798 -0.4731  0.5604
              Bcc     0.0000     0.000     0.000     0.000  0.7318  0.3871 -0.5610
 
              Baa    -0.0000    -0.000    -0.000    -0.000  0.6789 -0.6781 -0.2815
     6 C(13)  Bbb    -0.0000    -0.000    -0.000    -0.000  0.2236 -0.1743  0.9590
              Bcc     0.0000     0.000     0.000     0.000  0.6993  0.7140 -0.0332
 
              Baa    -0.0000    -0.000    -0.000    -0.000  0.9745  0.0658  0.2144
     7 C(13)  Bbb    -0.0000    -0.000    -0.000    -0.000 -0.2198  0.0896  0.9714
              Bcc     0.0000     0.000     0.000     0.000 -0.0447  0.9938 -0.1018
 
              Baa    -0.0000     0.000     0.000     0.000 -0.6720  0.7300  0.1246
     8 O(17)  Bbb     0.0000    -0.000    -0.000    -0.000  0.3915  0.2073  0.8965
              Bcc     0.0000    -0.000    -0.000    -0.000  0.6286  0.6512 -0.4251
 
              Baa    -0.0000    -0.000    -0.000    -0.000  0.6936 -0.6794 -0.2393
     9 C(13)  Bbb     0.0000     0.000     0.000     0.000 -0.2412 -0.5321  0.8116
              Bcc     0.0000     0.000     0.000     0.000  0.6788  0.5052  0.5330
 
              Baa    -0.0000    -0.000    -0.000    -0.000  0.0658  0.1431  0.9875
    10 C(13)  Bbb    -0.0000    -0.000    -0.000    -0.000  0.0417  0.9884 -0.1460
              Bcc     0.0000     0.000     0.000     0.000  0.9970 -0.0508 -0.0591
 
              Baa    -0.0000    -0.000    -0.000    -0.000  0.9444  0.1112 -0.3094
    11 C(13)  Bbb     0.0000     0.000     0.000     0.000  0.3251 -0.4560  0.8284
              Bcc     0.0000     0.000     0.000     0.000  0.0490  0.8830  0.4668
 
              Baa    -0.0000    -0.000    -0.000    -0.000  0.0957  0.8468  0.5233
    12 N(14)  Bbb     0.0000     0.000     0.000     0.000  0.8998 -0.2984  0.3182
              Bcc     0.0000     0.000     0.000     0.000 -0.4256 -0.4404  0.7905
 
              Baa    -0.0000    -0.000    -0.000    -0.000  0.8732 -0.4687 -0.1333
    13 C(13)  Bbb     0.0000     0.000     0.000     0.000 -0.0277 -0.3209  0.9467
              Bcc     0.0000     0.000     0.000     0.000  0.4865  0.8230  0.2932
 
              Baa    -0.0000    -0.000    -0.000    -0.000 -0.3702  0.9283  0.0358
    14 C(13)  Bbb    -0.0000    -0.000    -0.000    -0.000  0.1878  0.0370  0.9815
              Bcc     0.0000     0.000     0.000     0.000  0.9098  0.3701 -0.1880
 
              Baa    -0.0000    -0.000    -0.000    -0.000  0.8381 -0.1435 -0.5263
    15 S(33)  Bbb    -0.0000    -0.000    -0.000    -0.000 -0.2032  0.8132 -0.5454
              Bcc     0.0000     0.000     0.000     0.000  0.5062  0.5640  0.6524
 
              Baa    -0.0000    -0.000    -0.000    -0.000  0.0289  0.1124  0.9932
    16 H(1)   Bbb    -0.0000    -0.000    -0.000    -0.000 -0.0841  0.9904 -0.1096
              Bcc     0.0000     0.000     0.000     0.000  0.9960  0.0803 -0.0381
 
              Baa    -0.0000    -0.000    -0.000    -0.000  0.0411  0.2899  0.9562
    17 H(1)   Bbb    -0.0000    -0.000    -0.000    -0.000  0.9512 -0.3041  0.0513
              Bcc     0.0000     0.000     0.000     0.000  0.3057  0.9074 -0.2883
 
              Baa    -0.0000    -0.000    -0.000    -0.000  0.0799  0.9706  0.2269
    18 H(1)   Bbb     0.0000     0.000     0.000     0.000 -0.2407 -0.2021  0.9493
              Bcc     0.0000     0.000     0.000     0.000  0.9673 -0.1304  0.2175
 
              Baa    -0.0000    -0.000    -0.000    -0.000 -0.4394  0.3962  0.8062
    19 H(1)   Bbb     0.0000     0.000     0.000     0.000  0.8982  0.1856  0.3984
              Bcc     0.0000     0.000     0.000     0.000  0.0083  0.8992 -0.4375
 
              Baa    -0.0000    -0.000    -0.000    -0.000  0.6587  0.7504  0.0555
    20 H(1)   Bbb     0.0000     0.000     0.000     0.000 -0.6030  0.4824  0.6354
              Bcc     0.0000     0.000     0.000     0.000  0.4500 -0.4520  0.7702
 
              Baa    -0.0000    -0.000    -0.000    -0.000  0.8628 -0.4978  0.0881
    21 H(1)   Bbb     0.0000     0.000     0.000     0.000  0.5053  0.8544 -0.1210
              Bcc     0.0000     0.000     0.000     0.000 -0.0151  0.1489  0.9887
 
              Baa    -0.0000    -0.000    -0.000    -0.000 -0.5662  0.7938  0.2223
    22 H(1)   Bbb    -0.0000    -0.000    -0.000    -0.000  0.7257  0.6079 -0.3222
              Bcc     0.0000     0.000     0.000     0.000  0.3908  0.0211  0.9202
 
              Baa    -0.0000    -0.000    -0.000    -0.000 -0.3549  0.9043 -0.2371
    23 H(1)   Bbb    -0.0000    -0.000    -0.000    -0.000  0.0360  0.2666  0.9631
              Bcc     0.0000     0.000     0.000     0.000  0.9342  0.3333 -0.1272
 
              Baa    -0.0000    -0.000    -0.000    -0.000  0.8599  0.2823 -0.4254
    24 H(1)   Bbb    -0.0000    -0.000    -0.000    -0.000  0.3502  0.2801  0.8938
              Bcc     0.0000     0.000     0.000     0.000 -0.3715  0.9175 -0.1419
 
              Baa    -0.0000    -0.000    -0.000    -0.000  0.5402  0.8360  0.0959
    25 H(1)   Bbb     0.0000     0.000     0.000     0.000  0.0757 -0.1618  0.9839
              Bcc     0.0000     0.000     0.000     0.000  0.8381 -0.5243 -0.1507
 
              Baa    -0.0000    -0.000    -0.000    -0.000  0.6765  0.6796  0.2838
    26 H(1)   Bbb     0.0000     0.000     0.000     0.000 -0.0143 -0.3732  0.9276
              Bcc     0.0000     0.000     0.000     0.000  0.7363 -0.6316 -0.2427
 

 ---------------------------------------------------------------------------------

 No NMR shielding tensors so no spin-rotation constants.
 Leave Link  601 at Thu Jul 23 10:33:54 2020, MaxMem=  4026531840 cpu:               2.0 elap:               0.3
 (Enter /opt/ohpc/pub/libs/gaussian/g16-A.03/sandybridge/g16/l9999.exe)

 Test job not archived.
 1\1\GINC-SKYLAKE015\FOpt\ULC-wPBE\CC-pVDZ\C11H11N1O2S1\RDU230\23-Jul-2
 020\0\\#P uLC-wPBE/cc-pVDZ iop(3/107=0108100000, 3/108=0108100000) opt
 \\H11 C11 S1 N1 O2\\0,1\C,3.1970968,0.5583143772,-0.1765266957\C,2.303
 7102527,1.6268690298,-0.2620154669\C,0.9190685648,1.3994950499,-0.1673
 283827\O,0.0671954708,2.4595969107,-0.3647976923\C,-0.1078756725,3.315
 6619489,0.7715975938\C,0.4049187021,0.0898516445,0.0347747631\C,1.3428
 08016,-0.9847691997,0.0782357167\O,0.8003945698,-2.2330991162,0.217853
 8801\C,1.6810842416,-3.3514027937,0.2699019754\C,2.7245289021,-0.75131
 05897,-0.0110559857\C,-1.0448794784,-0.133173215,0.1883965765\N,-1.874
 8560695,0.7544880455,0.7069038752\C,-3.1730017937,0.3156855417,0.66634
 21889\C,-3.3760684624,-0.9259778016,0.1055650854\S,-1.8612367014,-1.60
 747031,-0.3766474029\H,4.278920645,0.7359751161,-0.2569874139\H,2.6515
 123506,2.6538162972,-0.4365859158\H,-0.6821390753,4.1900184096,0.41239
 21868\H,-0.6880388253,2.7901814594,1.558152694\H,0.86948394,3.66105842
 75,1.1759138146\H,2.2822263726,-3.4442258474,-0.6605368359\H,2.3662866
 541,-3.2915574935,1.1430818809\H,1.0308713574,-4.237884662,0.376026354
 6\H,3.434200908,-1.5853506649,0.0372230453\H,-3.9661675785,0.954300344
 7,1.0765131122\H,-4.3136720907,-1.4784879088,-0.0166559517\\Version=EM
 64L-G16RevA.03\State=1-A\HF=-1028.416539\S2=0.\S2-1=0.\S2A=0.\RMSD=8.1
 18e-09\RMSF=9.990e-06\Dipole=0.526339,-0.7670302,0.2475829\Quadrupole=
 4.5797418,3.6889684,-8.2687102,-1.5672678,-0.407826,1.7739815\PG=C01 [
 X(C11H11N1O2S1)]\\@


 IT IS A CAPITAL MISTAKE TO THEORIZE BEFORE ONE HAS
 DATA.  INSENSIBLY ONE BEGINS TO TWIST FACTS TO SUIT
 THEORIES RATHER THAN THEORIES TO SUIT FACTS.

                                         -- SHERLOCK HOLMES
 Job cpu time:       0 days  4 hours 25 minutes 14.2 seconds.
 Elapsed time:       0 days  0 hours 33 minutes 37.4 seconds.
 File lengths (MBytes):  RWF=    140 Int=      0 D2E=      0 Chk=     12 Scr=      8
 Normal termination of Gaussian 16 at Thu Jul 23 10:33:54 2020.
