 Entering Gaussian System, Link 0=g16
 Input=mols_66_1_12_c-c-cF-cOC_opt_0.gjf
 Output=mols_66_1_12_c-c-cF-cOC_opt_0.log
 Initial command:
 /opt/ohpc/pub/libs/gaussian/g16-A.03/sandybridge/g16/l1.exe "/mnt/gpfs2_4m/scratch/rdu230/ondemand/projects/dihedral_energies/7trial/wtuning/mols_66_1_12_c-c-cF-cOC/Gau-326666.inp" -scrdir="/mnt/gpfs2_4m/scratch/rdu230/ondemand/projects/dihedral_energies/7trial/wtuning/mols_66_1_12_c-c-cF-cOC/"
 Entering Link 1 = /opt/ohpc/pub/libs/gaussian/g16-A.03/sandybridge/g16/l1.exe PID=    326667.
  
 Copyright (c) 1988,1990,1992,1993,1995,1998,2003,2009,2016,
            Gaussian, Inc.  All Rights Reserved.
  
 This is part of the Gaussian(R) 16 program.  It is based on
 the Gaussian(R) 09 system (copyright 2009, Gaussian, Inc.),
 the Gaussian(R) 03 system (copyright 2003, Gaussian, Inc.),
 the Gaussian(R) 98 system (copyright 1998, Gaussian, Inc.),
 the Gaussian(R) 94 system (copyright 1995, Gaussian, Inc.),
 the Gaussian 92(TM) system (copyright 1992, Gaussian, Inc.),
 the Gaussian 90(TM) system (copyright 1990, Gaussian, Inc.),
 the Gaussian 88(TM) system (copyright 1988, Gaussian, Inc.),
 the Gaussian 86(TM) system (copyright 1986, Carnegie Mellon
 University), and the Gaussian 82(TM) system (copyright 1983,
 Carnegie Mellon University). Gaussian is a federally registered
 trademark of Gaussian, Inc.
  
 This software contains proprietary and confidential information,
 including trade secrets, belonging to Gaussian, Inc.
  
 This software is provided under written license and may be
 used, copied, transmitted, or stored only in accord with that
 written license.
  
 The following legend is applicable only to US Government
 contracts under FAR:
  
                    RESTRICTED RIGHTS LEGEND
  
 Use, reproduction and disclosure by the US Government is
 subject to restrictions as set forth in subparagraphs (a)
 and (c) of the Commercial Computer Software - Restricted
 Rights clause in FAR 52.227-19.
  
 Gaussian, Inc.
 340 Quinnipiac St., Bldg. 40, Wallingford CT 06492
  
  
 ---------------------------------------------------------------
 Warning -- This program may not be used in any manner that
 competes with the business of Gaussian, Inc. or will provide
 assistance to any competitor of Gaussian, Inc.  The licensee
 of this program is prohibited from giving any competitor of
 Gaussian, Inc. access to this program.  By using this program,
 the user acknowledges that Gaussian, Inc. is engaged in the
 business of creating and licensing software in the field of
 computational chemistry and represents and warrants to the
 licensee that it is not a competitor of Gaussian, Inc. and that
 it will not use this program in any manner prohibited above.
 ---------------------------------------------------------------
  

 Cite this work as:
 Gaussian 16, Revision A.03,
 M. J. Frisch, G. W. Trucks, H. B. Schlegel, G. E. Scuseria, 
 M. A. Robb, J. R. Cheeseman, G. Scalmani, V. Barone, 
 G. A. Petersson, H. Nakatsuji, X. Li, M. Caricato, A. V. Marenich, 
 J. Bloino, B. G. Janesko, R. Gomperts, B. Mennucci, H. P. Hratchian, 
 J. V. Ortiz, A. F. Izmaylov, J. L. Sonnenberg, D. Williams-Young, 
 F. Ding, F. Lipparini, F. Egidi, J. Goings, B. Peng, A. Petrone, 
 T. Henderson, D. Ranasinghe, V. G. Zakrzewski, J. Gao, N. Rega, 
 G. Zheng, W. Liang, M. Hada, M. Ehara, K. Toyota, R. Fukuda, 
 J. Hasegawa, M. Ishida, T. Nakajima, Y. Honda, O. Kitao, H. Nakai, 
 T. Vreven, K. Throssell, J. A. Montgomery, Jr., J. E. Peralta, 
 F. Ogliaro, M. J. Bearpark, J. J. Heyd, E. N. Brothers, K. N. Kudin, 
 V. N. Staroverov, T. A. Keith, R. Kobayashi, J. Normand, 
 K. Raghavachari, A. P. Rendell, J. C. Burant, S. S. Iyengar, 
 J. Tomasi, M. Cossi, J. M. Millam, M. Klene, C. Adamo, R. Cammi, 
 J. W. Ochterski, R. L. Martin, K. Morokuma, O. Farkas, 
 J. B. Foresman, and D. J. Fox, Gaussian, Inc., Wallingford CT, 2016.
 
 ******************************************
 Gaussian 16:  EM64L-G16RevA.03 25-Dec-2016
                24-Jul-2020 
 ******************************************
 %mem=30GB
 %nproc=8
 Will use up to    8 processors via shared memory.
 ---------------------------------------------------------------
 #P uLC-wPBE/cc-pVDZ iop(3/107=0085300000, 3/108=0085300000) opt
 ---------------------------------------------------------------
 1/18=20,19=15,26=3,38=1/1,3;
 2/9=110,12=2,17=6,18=5,40=1/2;
 3/5=16,11=2,25=1,30=1,71=1,74=-41,107=85300000,108=85300000,116=2/1,2,3;
 4//1;
 5/5=2,38=5/2;
 6/7=2,8=2,9=2,10=2,28=1/1;
 7//1,2,3,16;
 1/18=20,19=15,26=3/3(2);
 2/9=110/2;
 99//99;
 2/9=110/2;
 3/5=16,11=2,25=1,30=1,71=1,74=-41,107=85300000,108=85300000,116=2/1,2,3;
 4/5=5,16=3,69=1/1;
 5/5=2,38=5/2;
 7//1,2,3,16;
 1/18=20,19=15,26=3/3(-5);
 2/9=110/2;
 6/7=2,8=2,9=2,10=2,19=2,28=1/1;
 99/9=1/99;
 Leave Link    1 at Fri Jul 24 15:38:08 2020, MaxMem=  4026531840 cpu:               2.1 elap:               0.3
 (Enter /opt/ohpc/pub/libs/gaussian/g16-A.03/sandybridge/g16/l101.exe)
 -------------
 H11 C13 O1 F1
 -------------
 Symbolic Z-matrix:
 Charge =  0 Multiplicity = 1
 C                     3.62045   0.45619  -0.26354 
 C                     3.1537   -0.47346   0.57887 
 C                     1.76399  -0.77679   0.6594 
 F                     1.31201  -1.74177   1.50416 
 C                     0.9095   -0.07103  -0.24032 
 C                     1.46358   0.87339  -1.08921 
 C                     2.7839    1.11921  -1.08231 
 C                    -0.54441  -0.46184  -0.22169 
 C                    -0.98187  -1.76387  -0.61092 
 C                    -2.28988  -2.08947  -0.64618 
 C                    -3.3161   -1.0778   -0.31598 
 C                    -2.89478   0.24574  -0.0016 
 C                    -1.48644   0.57569   0.04638 
 O                    -1.0327    1.81627   0.39049 
 C                    -2.03519   2.76507   0.8579 
 H                     4.69957   0.64436  -0.23429 
 H                     3.84104  -1.06753   1.2939 
 H                     0.78243   1.33589  -1.83592 
 H                     3.18504   1.83114  -1.79985 
 H                    -0.22077  -2.55001  -0.79174 
 H                    -2.64058  -3.03921  -0.85361 
 H                    -4.37138  -1.38756  -0.36088 
 H                    -3.63361   0.94493   0.18032 
 H                    -1.47376   3.64799   1.04407 
 H                    -2.54101   2.34616   1.69989 
 H                    -2.76468   3.0326    0.02858 
 
 ITRead=  0  0  0  0  0  0  0  0  0  0  0  0  0  0  0  0  0  0  0  0
 ITRead=  0  0  0  0  0  0
 MicOpt= -1 -1 -1 -1 -1 -1 -1 -1 -1 -1 -1 -1 -1 -1 -1 -1 -1 -1 -1 -1
 MicOpt= -1 -1 -1 -1 -1 -1
 NAtoms=     26 NQM=       26 NQMF=       0 NMMI=      0 NMMIF=      0
                NMic=       0 NMicF=      0.
                    Isotopes and Nuclear Properties:
 (Nuclear quadrupole moments (NQMom) in fm**2, nuclear magnetic moments (NMagM)
  in nuclear magnetons)

  Atom         1           2           3           4           5           6           7           8           9          10
 IAtWgt=          12          12          12          19          12          12          12          12          12          12
 AtmWgt=  12.0000000  12.0000000  12.0000000  18.9984033  12.0000000  12.0000000  12.0000000  12.0000000  12.0000000  12.0000000
 NucSpn=           0           0           0           1           0           0           0           0           0           0
 AtZEff=  -0.0000000  -0.0000000  -0.0000000  -0.0000000  -0.0000000  -0.0000000  -0.0000000  -0.0000000  -0.0000000  -0.0000000
 NQMom=    0.0000000   0.0000000   0.0000000   0.0000000   0.0000000   0.0000000   0.0000000   0.0000000   0.0000000   0.0000000
 NMagM=    0.0000000   0.0000000   0.0000000   2.6288670   0.0000000   0.0000000   0.0000000   0.0000000   0.0000000   0.0000000
 AtZNuc=   6.0000000   6.0000000   6.0000000   9.0000000   6.0000000   6.0000000   6.0000000   6.0000000   6.0000000   6.0000000

  Atom        11          12          13          14          15          16          17          18          19          20
 IAtWgt=          12          12          12          16          12           1           1           1           1           1
 AtmWgt=  12.0000000  12.0000000  12.0000000  15.9949146  12.0000000   1.0078250   1.0078250   1.0078250   1.0078250   1.0078250
 NucSpn=           0           0           0           0           0           1           1           1           1           1
 AtZEff=  -0.0000000  -0.0000000  -0.0000000  -0.0000000  -0.0000000  -0.0000000  -0.0000000  -0.0000000  -0.0000000  -0.0000000
 NQMom=    0.0000000   0.0000000   0.0000000   0.0000000   0.0000000   0.0000000   0.0000000   0.0000000   0.0000000   0.0000000
 NMagM=    0.0000000   0.0000000   0.0000000   0.0000000   0.0000000   2.7928460   2.7928460   2.7928460   2.7928460   2.7928460
 AtZNuc=   6.0000000   6.0000000   6.0000000   8.0000000   6.0000000   1.0000000   1.0000000   1.0000000   1.0000000   1.0000000

  Atom        21          22          23          24          25          26
 IAtWgt=           1           1           1           1           1           1
 AtmWgt=   1.0078250   1.0078250   1.0078250   1.0078250   1.0078250   1.0078250
 NucSpn=           1           1           1           1           1           1
 AtZEff=  -0.0000000  -0.0000000  -0.0000000  -0.0000000  -0.0000000  -0.0000000
 NQMom=    0.0000000   0.0000000   0.0000000   0.0000000   0.0000000   0.0000000
 NMagM=    2.7928460   2.7928460   2.7928460   2.7928460   2.7928460   2.7928460
 AtZNuc=   1.0000000   1.0000000   1.0000000   1.0000000   1.0000000   1.0000000
 Leave Link  101 at Fri Jul 24 15:38:09 2020, MaxMem=  4026531840 cpu:               3.2 elap:               0.4
 (Enter /opt/ohpc/pub/libs/gaussian/g16-A.03/sandybridge/g16/l103.exe)

 GradGradGradGradGradGradGradGradGradGradGradGradGradGradGradGradGradGrad
 Berny optimization.
 Initialization pass.
                           ----------------------------
                           !    Initial Parameters    !
                           ! (Angstroms and Degrees)  !
 --------------------------                            --------------------------
 ! Name  Definition              Value          Derivative Info.                !
 --------------------------------------------------------------------------------
 ! R1    R(1,2)                  1.3386         estimate D2E/DX2                !
 ! R2    R(1,7)                  1.3453         estimate D2E/DX2                !
 ! R3    R(1,16)                 1.0958         estimate D2E/DX2                !
 ! R4    R(2,3)                  1.4247         estimate D2E/DX2                !
 ! R5    R(2,17)                 1.1561         estimate D2E/DX2                !
 ! R6    R(3,4)                  1.3598         estimate D2E/DX2                !
 ! R7    R(3,5)                  1.4275         estimate D2E/DX2                !
 ! R8    R(5,6)                  1.3855         estimate D2E/DX2                !
 ! R9    R(5,8)                  1.5056         estimate D2E/DX2                !
 ! R10   R(6,7)                  1.343          estimate D2E/DX2                !
 ! R11   R(6,18)                 1.1115         estimate D2E/DX2                !
 ! R12   R(7,19)                 1.0875         estimate D2E/DX2                !
 ! R13   R(8,9)                  1.4276         estimate D2E/DX2                !
 ! R14   R(8,13)                 1.4268         estimate D2E/DX2                !
 ! R15   R(9,10)                 1.3484         estimate D2E/DX2                !
 ! R16   R(9,20)                 1.109          estimate D2E/DX2                !
 ! R17   R(10,11)                1.4784         estimate D2E/DX2                !
 ! R18   R(10,21)                1.0335         estimate D2E/DX2                !
 ! R19   R(11,12)                1.4241         estimate D2E/DX2                !
 ! R20   R(11,22)                1.1007         estimate D2E/DX2                !
 ! R21   R(12,13)                1.4473         estimate D2E/DX2                !
 ! R22   R(12,23)                1.0334         estimate D2E/DX2                !
 ! R23   R(13,14)                1.365          estimate D2E/DX2                !
 ! R24   R(14,15)                1.4573         estimate D2E/DX2                !
 ! R25   R(15,24)                1.0627         estimate D2E/DX2                !
 ! R26   R(15,25)                1.0678         estimate D2E/DX2                !
 ! R27   R(15,26)                1.1364         estimate D2E/DX2                !
 ! A1    A(2,1,7)              120.5628         estimate D2E/DX2                !
 ! A2    A(2,1,16)             116.4779         estimate D2E/DX2                !
 ! A3    A(7,1,16)             122.9558         estimate D2E/DX2                !
 ! A4    A(1,2,3)              121.5718         estimate D2E/DX2                !
 ! A5    A(1,2,17)             122.6013         estimate D2E/DX2                !
 ! A6    A(3,2,17)             115.8211         estimate D2E/DX2                !
 ! A7    A(2,3,4)              120.6918         estimate D2E/DX2                !
 ! A8    A(2,3,5)              116.2956         estimate D2E/DX2                !
 ! A9    A(4,3,5)              122.9179         estimate D2E/DX2                !
 ! A10   A(3,5,6)              118.9339         estimate D2E/DX2                !
 ! A11   A(3,5,8)              116.225          estimate D2E/DX2                !
 ! A12   A(6,5,8)              124.799          estimate D2E/DX2                !
 ! A13   A(5,6,7)              120.9824         estimate D2E/DX2                !
 ! A14   A(5,6,18)             116.755          estimate D2E/DX2                !
 ! A15   A(7,6,18)             121.9886         estimate D2E/DX2                !
 ! A16   A(1,7,6)              121.6176         estimate D2E/DX2                !
 ! A17   A(1,7,19)             119.6596         estimate D2E/DX2                !
 ! A18   A(6,7,19)             118.6243         estimate D2E/DX2                !
 ! A19   A(5,8,9)              121.955          estimate D2E/DX2                !
 ! A20   A(5,8,13)             116.8162         estimate D2E/DX2                !
 ! A21   A(9,8,13)             120.8042         estimate D2E/DX2                !
 ! A22   A(8,9,10)             121.6417         estimate D2E/DX2                !
 ! A23   A(8,9,20)             118.7275         estimate D2E/DX2                !
 ! A24   A(10,9,20)            119.3589         estimate D2E/DX2                !
 ! A25   A(9,10,11)            120.1508         estimate D2E/DX2                !
 ! A26   A(9,10,21)            123.8039         estimate D2E/DX2                !
 ! A27   A(11,10,21)           115.9856         estimate D2E/DX2                !
 ! A28   A(10,11,12)           118.6804         estimate D2E/DX2                !
 ! A29   A(10,11,22)           117.6332         estimate D2E/DX2                !
 ! A30   A(12,11,22)           123.654          estimate D2E/DX2                !
 ! A31   A(11,12,13)           120.4701         estimate D2E/DX2                !
 ! A32   A(11,12,23)           117.1403         estimate D2E/DX2                !
 ! A33   A(13,12,23)           122.3883         estimate D2E/DX2                !
 ! A34   A(8,13,12)            118.0647         estimate D2E/DX2                !
 ! A35   A(8,13,14)            119.2602         estimate D2E/DX2                !
 ! A36   A(12,13,14)           122.6162         estimate D2E/DX2                !
 ! A37   A(13,14,15)           116.3535         estimate D2E/DX2                !
 ! A38   A(14,15,24)           103.5139         estimate D2E/DX2                !
 ! A39   A(14,15,25)           108.8657         estimate D2E/DX2                !
 ! A40   A(14,15,26)           111.1485         estimate D2E/DX2                !
 ! A41   A(24,15,25)           115.9786         estimate D2E/DX2                !
 ! A42   A(24,15,26)           105.7454         estimate D2E/DX2                !
 ! A43   A(25,15,26)           111.3271         estimate D2E/DX2                !
 ! D1    D(7,1,2,3)             -1.2008         estimate D2E/DX2                !
 ! D2    D(7,1,2,17)           179.7115         estimate D2E/DX2                !
 ! D3    D(16,1,2,3)           178.1335         estimate D2E/DX2                !
 ! D4    D(16,1,2,17)           -0.9543         estimate D2E/DX2                !
 ! D5    D(2,1,7,6)             -0.2315         estimate D2E/DX2                !
 ! D6    D(2,1,7,19)          -176.5731         estimate D2E/DX2                !
 ! D7    D(16,1,7,6)          -179.5213         estimate D2E/DX2                !
 ! D8    D(16,1,7,19)            4.1372         estimate D2E/DX2                !
 ! D9    D(1,2,3,4)            178.7934         estimate D2E/DX2                !
 ! D10   D(1,2,3,5)              2.2296         estimate D2E/DX2                !
 ! D11   D(17,2,3,4)            -2.0603         estimate D2E/DX2                !
 ! D12   D(17,2,3,5)          -178.6242         estimate D2E/DX2                !
 ! D13   D(2,3,5,6)             -1.9045         estimate D2E/DX2                !
 ! D14   D(2,3,5,8)            175.8485         estimate D2E/DX2                !
 ! D15   D(4,3,5,6)           -178.3844         estimate D2E/DX2                !
 ! D16   D(4,3,5,8)             -0.6314         estimate D2E/DX2                !
 ! D17   D(3,5,6,7)              0.6245         estimate D2E/DX2                !
 ! D18   D(3,5,6,18)           174.7281         estimate D2E/DX2                !
 ! D19   D(8,5,6,7)           -176.9207         estimate D2E/DX2                !
 ! D20   D(8,5,6,18)            -2.8172         estimate D2E/DX2                !
 ! D21   D(3,5,8,9)            -64.3457         estimate D2E/DX2                !
 ! D22   D(3,5,8,13)           123.0796         estimate D2E/DX2                !
 ! D23   D(6,5,8,9)            113.2594         estimate D2E/DX2                !
 ! D24   D(6,5,8,13)           -59.3153         estimate D2E/DX2                !
 ! D25   D(5,6,7,1)              0.51           estimate D2E/DX2                !
 ! D26   D(5,6,7,19)           176.8883         estimate D2E/DX2                !
 ! D27   D(18,6,7,1)          -173.281          estimate D2E/DX2                !
 ! D28   D(18,6,7,19)            3.0972         estimate D2E/DX2                !
 ! D29   D(5,8,9,10)          -177.1386         estimate D2E/DX2                !
 ! D30   D(5,8,9,20)             8.891          estimate D2E/DX2                !
 ! D31   D(13,8,9,10)           -4.8556         estimate D2E/DX2                !
 ! D32   D(13,8,9,20)         -178.8259         estimate D2E/DX2                !
 ! D33   D(5,8,13,12)          176.6755         estimate D2E/DX2                !
 ! D34   D(5,8,13,14)           -6.0428         estimate D2E/DX2                !
 ! D35   D(9,8,13,12)            4.0099         estimate D2E/DX2                !
 ! D36   D(9,8,13,14)         -178.7084         estimate D2E/DX2                !
 ! D37   D(8,9,10,11)            1.8348         estimate D2E/DX2                !
 ! D38   D(8,9,10,21)         -175.2388         estimate D2E/DX2                !
 ! D39   D(20,9,10,11)         175.7679         estimate D2E/DX2                !
 ! D40   D(20,9,10,21)          -1.3057         estimate D2E/DX2                !
 ! D41   D(9,10,11,12)           1.8144         estimate D2E/DX2                !
 ! D42   D(9,10,11,22)         179.8218         estimate D2E/DX2                !
 ! D43   D(21,10,11,12)        179.1095         estimate D2E/DX2                !
 ! D44   D(21,10,11,22)         -2.8832         estimate D2E/DX2                !
 ! D45   D(10,11,12,13)         -2.5074         estimate D2E/DX2                !
 ! D46   D(10,11,12,23)        177.0938         estimate D2E/DX2                !
 ! D47   D(22,11,12,13)        179.6135         estimate D2E/DX2                !
 ! D48   D(22,11,12,23)         -0.7854         estimate D2E/DX2                !
 ! D49   D(11,12,13,8)          -0.3564         estimate D2E/DX2                !
 ! D50   D(11,12,13,14)       -177.5409         estimate D2E/DX2                !
 ! D51   D(23,12,13,8)        -179.9361         estimate D2E/DX2                !
 ! D52   D(23,12,13,14)          2.8795         estimate D2E/DX2                !
 ! D53   D(8,13,14,15)        -170.4569         estimate D2E/DX2                !
 ! D54   D(12,13,14,15)          6.6952         estimate D2E/DX2                !
 ! D55   D(13,14,15,24)       -178.8204         estimate D2E/DX2                !
 ! D56   D(13,14,15,25)         57.2476         estimate D2E/DX2                !
 ! D57   D(13,14,15,26)        -65.7279         estimate D2E/DX2                !
 --------------------------------------------------------------------------------
 Trust Radius=3.00D-01 FncErr=1.00D-07 GrdErr=1.00D-06 EigMax=2.50D+02 EigMin=1.00D-04
 Number of steps in this run=    137 maximum allowed number of steps=    156.
 GradGradGradGradGradGradGradGradGradGradGradGradGradGradGradGradGradGrad

 Leave Link  103 at Fri Jul 24 15:38:09 2020, MaxMem=  4026531840 cpu:               0.1 elap:               0.0
 (Enter /opt/ohpc/pub/libs/gaussian/g16-A.03/sandybridge/g16/l202.exe)
                          Input orientation:                          
 ---------------------------------------------------------------------
 Center     Atomic      Atomic             Coordinates (Angstroms)
 Number     Number       Type             X           Y           Z
 ---------------------------------------------------------------------
      1          6           0        3.620451    0.456186   -0.263541
      2          6           0        3.153699   -0.473462    0.578874
      3          6           0        1.763992   -0.776793    0.659398
      4          9           0        1.312012   -1.741771    1.504156
      5          6           0        0.909501   -0.071028   -0.240321
      6          6           0        1.463580    0.873386   -1.089213
      7          6           0        2.783897    1.119209   -1.082305
      8          6           0       -0.544410   -0.461844   -0.221690
      9          6           0       -0.981869   -1.763865   -0.610915
     10          6           0       -2.289879   -2.089466   -0.646177
     11          6           0       -3.316095   -1.077797   -0.315983
     12          6           0       -2.894777    0.245736   -0.001596
     13          6           0       -1.486439    0.575689    0.046376
     14          8           0       -1.032705    1.816266    0.390490
     15          6           0       -2.035189    2.765065    0.857902
     16          1           0        4.699571    0.644360   -0.234289
     17          1           0        3.841043   -1.067532    1.293899
     18          1           0        0.782429    1.335888   -1.835920
     19          1           0        3.185039    1.831139   -1.799854
     20          1           0       -0.220772   -2.550011   -0.791739
     21          1           0       -2.640584   -3.039208   -0.853605
     22          1           0       -4.371380   -1.387555   -0.360879
     23          1           0       -3.633608    0.944925    0.180322
     24          1           0       -1.473755    3.647990    1.044065
     25          1           0       -2.541013    2.346162    1.699892
     26          1           0       -2.764684    3.032599    0.028577
 ---------------------------------------------------------------------
                    Distance matrix (angstroms):
                    1          2          3          4          5
     1  C    0.000000
     2  C    1.338569   0.000000
     3  C    2.412155   1.424703   0.000000
     4  F    3.644813   2.420034   1.359810   0.000000
     5  C    2.761837   2.422696   1.427499   2.448795   0.000000
     6  C    2.346888   2.730021   2.423010   3.686134   1.385474
     7  C    1.345287   2.330852   2.769216   4.128127   2.374650
     8  C    4.265044   3.783788   2.490829   2.839553   1.505637
     9  C    5.121586   4.492623   3.182414   3.120241   2.565213
    10  C    6.446608   5.809024   4.456625   4.209328   3.804582
    11  C    7.104331   6.559285   5.181627   5.017284   4.344533
    12  C    6.523887   6.118681   4.815247   4.890250   3.824900
    13  C    5.117681   4.786977   3.573556   3.914980   2.498193
    14  O    4.891772   4.775387   3.823321   4.404268   2.780641
    15  C    6.210863   6.122946   5.197878   5.650926   4.233287
    16  H    1.095794   2.073760   3.381712   4.493481   3.857000
    17  H    2.189976   1.156124   2.191178   2.625796   3.455545
    18  H    3.361640   3.837694   3.413722   4.572587   2.131079
    19  H    2.107211   3.312177   3.855983   5.214441   3.350889
    20  H    4.906242   4.192576   3.031400   2.876424   2.779737
    21  H    7.194895   6.496827   5.177643   4.781777   4.667902
    22  H    8.202330   7.638424   6.249543   5.992059   5.443848
    23  H    7.284041   6.945373   5.685764   5.781871   4.674285
    24  H    6.152104   6.214185   5.496333   6.084546   4.600071
    25  H    6.737263   6.452651   5.419275   5.620971   4.638241
    26  H    6.891530   6.900909   5.951328   6.449139   4.817099
                    6          7          8          9         10
     6  C    0.000000
     7  C    1.343024   0.000000
     8  C    2.562705   3.783915   0.000000
     9  C    3.628234   4.766059   1.427629   0.000000
    10  C    4.802419   6.019054   2.424047   1.348388   0.000000
    11  C    5.220181   6.528705   2.840867   2.450772   1.478385
    12  C    4.535651   5.846215   2.464414   2.840596   2.496909
    13  C    3.175027   4.450293   1.426798   2.481962   2.868483
    14  O    3.051226   4.149875   2.408938   3.717894   4.232010
    15  C    4.428441   5.449480   3.714954   4.876281   5.088575
    16  H    3.354845   2.148120   5.359401   6.182245   7.516373
    17  H    3.885707   3.397902   4.679323   5.231986   6.511256
    18  H    1.111506   2.149595   2.756462   3.771187   4.752643
    19  H    2.094212   1.087491   4.653726   5.630342   6.832045
    20  H    3.826902   4.751383   2.188639   1.109050   2.124734
    21  H    5.675215   6.838840   3.381725   2.106356   1.033455
    22  H    6.299927   7.615925   3.939799   3.419490   2.215112
    23  H    5.253395   6.542857   3.418151   3.872379   3.419976
    24  H    4.569162   5.389228   4.399608   5.680588   6.036669
    25  H    5.097543   6.131941   3.945098   4.966194   5.024132
    26  H    4.877486   5.973430   4.147696   5.156883   5.188090
                   11         12         13         14         15
    11  C    0.000000
    12  C    1.424109   0.000000
    13  C    2.492581   1.447269   0.000000
    14  O    3.753475   2.467308   1.365035   0.000000
    15  C    4.217382   2.797257   2.398555   1.457281   0.000000
    16  H    8.198988   7.608362   6.192754   5.884106   7.144737
    17  H    7.335970   6.983856   5.713016   5.734619   7.029153
    18  H    4.993394   4.251473   3.044454   2.912452   4.151891
    19  H    7.275199   6.535396   5.177589   4.752598   5.931835
    20  H    3.460460   3.948523   3.474817   4.595789   5.853500
    21  H    2.143009   3.403144   3.899935   5.263903   6.081558
    22  H    1.100723   2.230937   3.513270   4.687833   4.918076
    23  H    2.106784   1.033359   2.182799   2.751018   2.515346
    24  H    5.251382   3.832498   3.230260   1.994216   1.062742
    25  H    4.048209   2.726169   2.642123   2.066474   1.067841
    26  H    4.161506   2.790061   2.769591   2.147137   1.136449
                   16         17         18         19         20
    16  H    0.000000
    17  H    2.450103   0.000000
    18  H    4.288057   4.992726   0.000000
    19  H    2.480574   4.289982   2.453387   0.000000
    20  H    5.892752   4.800622   4.146919   5.640064   0.000000
    21  H    8.235903   7.107093   5.641226   7.652029   2.469541
    22  H    9.296605   8.383591   6.012872   8.338472   4.331800
    23  H    8.348899   7.820514   4.870264   7.155447   4.980656
    24  H    6.983261   7.109546   4.327874   5.752668   6.584479
    25  H    7.685261   7.249053   4.956600   6.730612   5.963577
    26  H    7.841421   7.877039   4.351688   6.339233   6.189502
                   21         22         23         24         25
    21  H    0.000000
    22  H    2.442620   0.000000
    23  H    4.234196   2.505528   0.000000
    24  H    7.048493   5.977191   3.566171   0.000000
    25  H    5.960912   4.640869   2.338017   1.806628   0.000000
    26  H    6.136814   4.719206   2.266371   1.753973   1.820582
                   26
    26  H    0.000000
 Stoichiometry    C13H11FO
 Framework group  C1[X(C13H11FO)]
 Deg. of freedom    72
 Full point group                 C1      NOp   1
 Largest Abelian subgroup         C1      NOp   1
 Largest concise Abelian subgroup C1      NOp   1
                         Standard orientation:                         
 ---------------------------------------------------------------------
 Center     Atomic      Atomic             Coordinates (Angstroms)
 Number     Number       Type             X           Y           Z
 ---------------------------------------------------------------------
      1          6           0        3.625893    0.456819   -0.281189
      2          6           0        3.162068   -0.467116    0.569092
      3          6           0        1.773103   -0.772753    0.653592
      4          9           0        1.324128   -1.731967    1.506479
      5          6           0        0.916102   -0.075957   -0.250719
      6          6           0        1.467215    0.862877   -1.107693
      7          6           0        2.787011    1.111554   -1.104229
      8          6           0       -0.536949   -0.469703   -0.227344
      9          6           0       -0.972062   -1.775695   -0.605748
     10          6           0       -2.279413   -2.104345   -0.636946
     11          6           0       -3.307417   -1.092276   -0.313612
     12          6           0       -2.888574    0.234600   -0.010196
     13          6           0       -1.480891    0.567916    0.033564
     14          8           0       -1.029423    1.812142    0.367326
     15          6           0       -2.033407    2.762481    0.828345
     16          1           0        4.704641    0.647512   -0.254652
     17          1           0        3.851477   -1.054040    1.288020
     18          1           0        0.784244    1.318000   -1.857266
     19          1           0        3.185830    1.818628   -1.827849
     20          1           0       -0.209491   -2.561629   -0.781203
     21          1           0       -2.628321   -3.056444   -0.836448
     22          1           0       -4.362087   -1.404622   -0.354856
     23          1           0       -3.628693    0.933636    0.167016
     24          1           0       -1.473652    3.648045    1.006872
     25          1           0       -2.537394    2.349188    1.674200
     26          1           0       -2.764398    3.021884   -0.002245
 ---------------------------------------------------------------------
 Rotational constants (GHZ):           0.9689795           0.4588699           0.3645087
 Leave Link  202 at Fri Jul 24 15:38:09 2020, MaxMem=  4026531840 cpu:               0.1 elap:               0.0
 (Enter /opt/ohpc/pub/libs/gaussian/g16-A.03/sandybridge/g16/l301.exe)
 Standard basis: CC-pVDZ (5D, 7F)
 Ernie: Thresh=  0.10000D-02 Tol=  0.10000D-05 Strict=F.
 Ernie:  30 primitive shells out of 385 were deleted.
 There are   280 symmetry adapted cartesian basis functions of A   symmetry.
 There are   265 symmetry adapted basis functions of A   symmetry.
   265 basis functions,   572 primitive gaussians,   280 cartesian basis functions
    53 alpha electrons       53 beta electrons
       nuclear repulsion energy       932.5043120737 Hartrees.
 IExCor=32609 DFT=T Ex+Corr=LC-wPBE ExCW=0 ScaHFX=  1.000000
 ScaDFX=  1.000000  0.000000  1.000000  1.000000 ScalE2=  1.000000  1.000000
 IRadAn=      5 IRanWt=     -1 IRanGd=            0 ICorTp=0 IEmpDi=  4
 HFx  wShort=  0.000000 wLong=  0.085300 cFull=  0.000000 cShort=  0.000000 cLong=  1.000000
 DFx  wShort=  0.000000 wLong=  0.085300 cFull=  0.000000 cShort=  0.000000 cLong=  1.000000
 NAtoms=   26 NActive=   26 NUniq=   26 SFac= 1.00D+00 NAtFMM=   60 NAOKFM=F Big=F
 Integral buffers will be    131072 words long.
 Raffenetti 2 integral format.
 Two-electron integral symmetry is turned on.
 Leave Link  301 at Fri Jul 24 15:38:09 2020, MaxMem=  4026531840 cpu:               0.5 elap:               0.1
 (Enter /opt/ohpc/pub/libs/gaussian/g16-A.03/sandybridge/g16/l302.exe)
 NPDir=0 NMtPBC=     1 NCelOv=     1 NCel=       1 NClECP=     1 NCelD=      1
         NCelK=      1 NCelE2=     1 NClLst=     1 CellRange=     0.0.
 One-electron integrals computed using PRISM.
 One-electron integral symmetry used in STVInt
 NBasis=   265 RedAO= T EigKep=  3.38D-04  NBF=   265
 NBsUse=   265 1.00D-06 EigRej= -1.00D+00 NBFU=   265
 Precomputing XC quadrature grid using
 IXCGrd= 4 IRadAn=           5 IRanWt=          -1 IRanGd=           0 AccXCQ= 0.00D+00.
 Generated NRdTot=       0 NPtTot=           0 NUsed=           0 NTot=          32
 NSgBfM=   280   280   280   280   280 MxSgAt=    26 MxSgA2=    26.
 Leave Link  302 at Fri Jul 24 15:38:10 2020, MaxMem=  4026531840 cpu:               4.1 elap:               0.5
 (Enter /opt/ohpc/pub/libs/gaussian/g16-A.03/sandybridge/g16/l303.exe)
 DipDrv:  MaxL=1.
 Leave Link  303 at Fri Jul 24 15:38:10 2020, MaxMem=  4026531840 cpu:               0.5 elap:               0.1
 (Enter /opt/ohpc/pub/libs/gaussian/g16-A.03/sandybridge/g16/l401.exe)
 ExpMin= 1.22D-01 ExpMax= 1.47D+04 ExpMxC= 5.03D+02 IAcc=3 IRadAn=         5 AccDes= 0.00D+00
 Harris functional with IExCor=32609 and IRadAn=       5 diagonalized for initial guess.
 HarFok:  IExCor=32609 AccDes= 0.00D+00 IRadAn=         5 IDoV= 1 UseB2=F ITyADJ=14
 ICtDFT=  3500011 ScaDFX=  1.000000  1.000000  1.000000  1.000000
 FoFCou: FMM=F IPFlag=           0 FMFlag=      100000 FMFlg1=           0
         NFxFlg=           0 DoJE=T BraDBF=F KetDBF=T FulRan=T
         wScrn=  0.000000 ICntrl=       500 IOpCl=  0 I1Cent=   200000004 NGrid=           0
         NMat0=    1 NMatS0=      1 NMatT0=    0 NMatD0=    1 NMtDS0=    0 NMtDT0=    0
 Petite list used in FoFCou.
 Harris En= -676.531806036357    
 JPrj=0 DoOrth=F DoCkMO=F.
 Initial guess <Sx>= 0.0000 <Sy>= 0.0000 <Sz>= 0.0000 <S**2>=-0.0000 S=-0.0000
 Leave Link  401 at Fri Jul 24 15:38:13 2020, MaxMem=  4026531840 cpu:              25.5 elap:               3.2
 (Enter /opt/ohpc/pub/libs/gaussian/g16-A.03/sandybridge/g16/l502.exe)
 Integral symmetry usage will be decided dynamically.
 UHF open shell SCF:
 Using DIIS extrapolation, IDIIS=  1040.
 NGot=  4026531840 LenX=  4026369754 LenY=  4026290913
 Requested convergence on RMS density matrix=1.00D-08 within 128 cycles.
 Requested convergence on MAX density matrix=1.00D-06.
 Requested convergence on             energy=1.00D-06.
 No special actions if energy rises.
 Fock matrices will be formed incrementally for  20 cycles.
 Integral accuracy reduced to 1.0D-05 until final iterations.

 Cycle   1  Pass 0  IDiag  1:
 FoFJK:  IHMeth= 1 ICntrl=       0 DoSepK=T KAlg= 0 I1Cent=           0 FoldK=F
 IRaf=         1 NMat=       1 IRICut=       1 DoRegI=T DoRafI=F ISym2E= 0 IDoP0=0 IntGTp=1.
 FoFCou: FMM=F IPFlag=           0 FMFlag=      100000 FMFlg1=           0
         NFxFlg=           0 DoJE=T BraDBF=F KetDBF=F FulRan=T
         wScrn=  0.000000 ICntrl=       500 IOpCl=  0 I1Cent=           0 NGrid=           0
         NMat0=    1 NMatS0=      1 NMatT0=    0 NMatD0=    1 NMtDS0=    0 NMtDT0=    0
 Symmetry not used in FoFCou.
 E= -676.095020197815    
 DIIS: error= 1.85D-02 at cycle   1 NSaved=   1.
 NSaved= 1 IEnMin= 1 EnMin= -676.095020197815     IErMin= 1 ErrMin= 1.85D-02
 ErrMax= 1.85D-02  0.00D+00 EMaxC= 1.00D-01 BMatC= 9.10D-01 BMatP= 9.10D-01
 IDIUse=3 WtCom= 8.15D-01 WtEn= 1.85D-01
 Coeff-Com:  0.100D+01
 Coeff-En:   0.100D+01
 Coeff:      0.100D+01
 Gap=     0.248 Goal=   None    Shift=    0.000
 Gap=     0.248 Goal=   None    Shift=    0.000
 GapD=    0.248 DampG=1.000 DampE=0.500 DampFc=0.5000 IDamp=-1.
 Damping current iteration by 5.00D-01
 RMSDP=4.19D-03 MaxDP=1.10D-01              OVMax= 2.48D-01

 Cycle   2  Pass 0  IDiag  1:
 RMSU=  2.07D-03    CP:  9.85D-01
 E= -676.203354221149     Delta-E=       -0.108334023334 Rises=F Damp=T
 DIIS: error= 5.67D-03 at cycle   2 NSaved=   2.
 NSaved= 2 IEnMin= 2 EnMin= -676.203354221149     IErMin= 2 ErrMin= 5.67D-03
 ErrMax= 5.67D-03  0.00D+00 EMaxC= 1.00D-01 BMatC= 6.70D-02 BMatP= 9.10D-01
 IDIUse=3 WtCom= 9.43D-01 WtEn= 5.67D-02
 Coeff-Com:  0.123D+00 0.877D+00
 Coeff-En:   0.187D+00 0.813D+00
 Coeff:      0.127D+00 0.873D+00
 Gap=     0.250 Goal=   None    Shift=    0.000
 Gap=     0.250 Goal=   None    Shift=    0.000
 RMSDP=1.34D-03 MaxDP=3.60D-02 DE=-1.08D-01 OVMax= 1.98D-01

 Cycle   3  Pass 0  IDiag  1:
 RMSU=  1.34D-03    CP:  9.85D-01  9.78D-01
 E= -676.348299729052     Delta-E=       -0.144945507903 Rises=F Damp=F
 DIIS: error= 6.15D-03 at cycle   3 NSaved=   3.
 NSaved= 3 IEnMin= 3 EnMin= -676.348299729052     IErMin= 2 ErrMin= 5.67D-03
 ErrMax= 6.15D-03  0.00D+00 EMaxC= 1.00D-01 BMatC= 5.97D-02 BMatP= 6.70D-02
 IDIUse=3 WtCom= 9.38D-01 WtEn= 6.15D-02
 Coeff-Com:  0.269D-01 0.483D+00 0.490D+00
 Coeff-En:   0.000D+00 0.000D+00 0.100D+01
 Coeff:      0.253D-01 0.454D+00 0.521D+00
 Gap=     0.229 Goal=   None    Shift=    0.000
 Gap=     0.229 Goal=   None    Shift=    0.000
 RMSDP=6.77D-04 MaxDP=1.93D-02 DE=-1.45D-01 OVMax= 5.24D-02

 Cycle   4  Pass 0  IDiag  1:
 RMSU=  3.68D-04    CP:  9.86D-01  1.00D+00  5.78D-01
 E= -676.362651832385     Delta-E=       -0.014352103333 Rises=F Damp=F
 DIIS: error= 1.85D-03 at cycle   4 NSaved=   4.
 NSaved= 4 IEnMin= 4 EnMin= -676.362651832385     IErMin= 4 ErrMin= 1.85D-03
 ErrMax= 1.85D-03  0.00D+00 EMaxC= 1.00D-01 BMatC= 6.61D-03 BMatP= 5.97D-02
 IDIUse=3 WtCom= 9.82D-01 WtEn= 1.85D-02
 Coeff-Com:  0.692D-02 0.134D+00 0.279D+00 0.580D+00
 Coeff-En:   0.000D+00 0.000D+00 0.806D-01 0.919D+00
 Coeff:      0.679D-02 0.131D+00 0.276D+00 0.587D+00
 Gap=     0.226 Goal=   None    Shift=    0.000
 Gap=     0.226 Goal=   None    Shift=    0.000
 RMSDP=2.07D-04 MaxDP=6.86D-03 DE=-1.44D-02 OVMax= 1.52D-02

 Cycle   5  Pass 0  IDiag  1:
 RMSU=  1.04D-04    CP:  9.86D-01  9.94D-01  6.53D-01  6.00D-01
 E= -676.364247962390     Delta-E=       -0.001596130006 Rises=F Damp=F
 DIIS: error= 7.10D-04 at cycle   5 NSaved=   5.
 NSaved= 5 IEnMin= 5 EnMin= -676.364247962390     IErMin= 5 ErrMin= 7.10D-04
 ErrMax= 7.10D-04  0.00D+00 EMaxC= 1.00D-01 BMatC= 8.90D-04 BMatP= 6.61D-03
 IDIUse=3 WtCom= 9.93D-01 WtEn= 7.10D-03
 Coeff-Com:  0.270D-02 0.428D-01 0.129D+00 0.361D+00 0.465D+00
 Coeff-En:   0.000D+00 0.000D+00 0.000D+00 0.552D-01 0.945D+00
 Coeff:      0.268D-02 0.425D-01 0.128D+00 0.359D+00 0.468D+00
 Gap=     0.226 Goal=   None    Shift=    0.000
 Gap=     0.226 Goal=   None    Shift=    0.000
 RMSDP=6.85D-05 MaxDP=2.83D-03 DE=-1.60D-03 OVMax= 5.66D-03

 Cycle   6  Pass 0  IDiag  1:
 RMSU=  3.63D-05    CP:  9.86D-01  9.95D-01  6.59D-01  6.72D-01  5.08D-01
 E= -676.364460350323     Delta-E=       -0.000212387932 Rises=F Damp=F
 DIIS: error= 1.65D-04 at cycle   6 NSaved=   6.
 NSaved= 6 IEnMin= 6 EnMin= -676.364460350323     IErMin= 6 ErrMin= 1.65D-04
 ErrMax= 1.65D-04  0.00D+00 EMaxC= 1.00D-01 BMatC= 6.11D-05 BMatP= 8.90D-04
 IDIUse=3 WtCom= 9.98D-01 WtEn= 1.65D-03
 Coeff-Com:  0.908D-03-0.430D-03 0.206D-01 0.921D-01 0.242D+00 0.645D+00
 Coeff-En:   0.000D+00 0.000D+00 0.000D+00 0.000D+00 0.172D-01 0.983D+00
 Coeff:      0.907D-03-0.429D-03 0.205D-01 0.919D-01 0.242D+00 0.645D+00
 Gap=     0.226 Goal=   None    Shift=    0.000
 Gap=     0.226 Goal=   None    Shift=    0.000
 RMSDP=1.82D-05 MaxDP=5.52D-04 DE=-2.12D-04 OVMax= 1.46D-03

 Cycle   7  Pass 0  IDiag  1:
 RMSU=  1.01D-05    CP:  9.86D-01  9.95D-01  6.58D-01  6.69D-01  6.24D-01
                    CP:  7.55D-01
 E= -676.364474881354     Delta-E=       -0.000014531031 Rises=F Damp=F
 DIIS: error= 6.05D-05 at cycle   7 NSaved=   7.
 NSaved= 7 IEnMin= 7 EnMin= -676.364474881354     IErMin= 7 ErrMin= 6.05D-05
 ErrMax= 6.05D-05  0.00D+00 EMaxC= 1.00D-01 BMatC= 5.48D-06 BMatP= 6.11D-05
 IDIUse=1 WtCom= 1.00D+00 WtEn= 0.00D+00
 Coeff-Com:  0.523D-03-0.237D-02 0.515D-02 0.314D-01 0.103D+00 0.349D+00
 Coeff-Com:  0.514D+00
 Coeff:      0.523D-03-0.237D-02 0.515D-02 0.314D-01 0.103D+00 0.349D+00
 Coeff:      0.514D+00
 Gap=     0.226 Goal=   None    Shift=    0.000
 Gap=     0.226 Goal=   None    Shift=    0.000
 RMSDP=5.52D-06 MaxDP=2.06D-04 DE=-1.45D-05 OVMax= 4.10D-04

 Initial convergence to 1.0D-05 achieved.  Increase integral accuracy.
 Cycle   8  Pass 1  IDiag  1:
 E= -676.364292467598     Delta-E=        0.000182413756 Rises=F Damp=F
 DIIS: error= 1.03D-04 at cycle   1 NSaved=   1.
 NSaved= 1 IEnMin= 1 EnMin= -676.364292467598     IErMin= 1 ErrMin= 1.03D-04
 ErrMax= 1.03D-04  0.00D+00 EMaxC= 1.00D-01 BMatC= 4.13D-06 BMatP= 4.13D-06
 IDIUse=3 WtCom= 9.99D-01 WtEn= 1.03D-03
 Coeff-Com:  0.100D+01
 Coeff-En:   0.100D+01
 Coeff:      0.100D+01
 Gap=     0.226 Goal=   None    Shift=    0.000
 Gap=     0.226 Goal=   None    Shift=    0.000
 RMSDP=5.52D-06 MaxDP=2.06D-04 DE= 1.82D-04 OVMax= 2.05D-04

 Cycle   9  Pass 1  IDiag  1:
 RMSU=  7.35D-05    CP:  1.00D+00
 E= -676.364293137235     Delta-E=       -0.000000669637 Rises=F Damp=F
 DIIS: error= 2.35D-05 at cycle   2 NSaved=   2.
 NSaved= 2 IEnMin= 2 EnMin= -676.364293137235     IErMin= 2 ErrMin= 2.35D-05
 ErrMax= 2.35D-05  0.00D+00 EMaxC= 1.00D-01 BMatC= 9.90D-07 BMatP= 4.13D-06
 IDIUse=1 WtCom= 1.00D+00 WtEn= 0.00D+00
 Coeff-Com:  0.244D+00 0.756D+00
 Coeff:      0.244D+00 0.756D+00
 Gap=     0.226 Goal=   None    Shift=    0.000
 Gap=     0.226 Goal=   None    Shift=    0.000
 RMSDP=4.41D-06 MaxDP=1.49D-04 DE=-6.70D-07 OVMax= 2.69D-04

 Cycle  10  Pass 1  IDiag  1:
 RMSU=  3.78D-06    CP:  1.00D+00  1.03D+00
 E= -676.364293089597     Delta-E=        0.000000047638 Rises=F Damp=F
 DIIS: error= 2.64D-05 at cycle   3 NSaved=   3.
 NSaved= 3 IEnMin= 2 EnMin= -676.364293137235     IErMin= 2 ErrMin= 2.35D-05
 ErrMax= 2.64D-05  0.00D+00 EMaxC= 1.00D-01 BMatC= 1.08D-06 BMatP= 9.90D-07
 IDIUse=1 WtCom= 1.00D+00 WtEn= 0.00D+00
 Coeff-Com: -0.110D-01 0.514D+00 0.497D+00
 Coeff:     -0.110D-01 0.514D+00 0.497D+00
 Gap=     0.226 Goal=   None    Shift=    0.000
 Gap=     0.226 Goal=   None    Shift=    0.000
 RMSDP=2.27D-06 MaxDP=7.08D-05 DE= 4.76D-08 OVMax= 1.42D-04

 Cycle  11  Pass 1  IDiag  1:
 RMSU=  6.86D-07    CP:  1.00D+00  1.05D+00  5.01D-01
 E= -676.364293387152     Delta-E=       -0.000000297555 Rises=F Damp=F
 DIIS: error= 3.33D-06 at cycle   4 NSaved=   4.
 NSaved= 4 IEnMin= 4 EnMin= -676.364293387152     IErMin= 4 ErrMin= 3.33D-06
 ErrMax= 3.33D-06  0.00D+00 EMaxC= 1.00D-01 BMatC= 3.18D-08 BMatP= 9.90D-07
 IDIUse=1 WtCom= 1.00D+00 WtEn= 0.00D+00
 Coeff-Com: -0.118D-01 0.314D+00 0.315D+00 0.382D+00
 Coeff:     -0.118D-01 0.314D+00 0.315D+00 0.382D+00
 Gap=     0.226 Goal=   None    Shift=    0.000
 Gap=     0.226 Goal=   None    Shift=    0.000
 RMSDP=3.36D-07 MaxDP=1.03D-05 DE=-2.98D-07 OVMax= 2.26D-05

 Cycle  12  Pass 1  IDiag  1:
 RMSU=  2.46D-07    CP:  1.00D+00  1.05D+00  5.27D-01  7.08D-01
 E= -676.364293391259     Delta-E=       -0.000000004107 Rises=F Damp=F
 DIIS: error= 4.38D-07 at cycle   5 NSaved=   5.
 NSaved= 5 IEnMin= 5 EnMin= -676.364293391259     IErMin= 5 ErrMin= 4.38D-07
 ErrMax= 4.38D-07  0.00D+00 EMaxC= 1.00D-01 BMatC= 4.58D-10 BMatP= 3.18D-08
 IDIUse=1 WtCom= 1.00D+00 WtEn= 0.00D+00
 Coeff-Com: -0.394D-02 0.890D-01 0.881D-01 0.148D+00 0.679D+00
 Coeff:     -0.394D-02 0.890D-01 0.881D-01 0.148D+00 0.679D+00
 Gap=     0.226 Goal=   None    Shift=    0.000
 Gap=     0.226 Goal=   None    Shift=    0.000
 RMSDP=7.53D-08 MaxDP=2.14D-06 DE=-4.11D-09 OVMax= 5.80D-06

 Cycle  13  Pass 1  IDiag  1:
 RMSU=  5.46D-08    CP:  1.00D+00  1.05D+00  5.27D-01  7.62D-01  9.51D-01
 E= -676.364293391387     Delta-E=       -0.000000000128 Rises=F Damp=F
 DIIS: error= 2.63D-07 at cycle   6 NSaved=   6.
 NSaved= 6 IEnMin= 6 EnMin= -676.364293391387     IErMin= 6 ErrMin= 2.63D-07
 ErrMax= 2.63D-07  0.00D+00 EMaxC= 1.00D-01 BMatC= 1.55D-10 BMatP= 4.58D-10
 IDIUse=1 WtCom= 1.00D+00 WtEn= 0.00D+00
 Coeff-Com: -0.579D-03 0.700D-02 0.554D-02 0.279D-01 0.392D+00 0.569D+00
 Coeff:     -0.579D-03 0.700D-02 0.554D-02 0.279D-01 0.392D+00 0.569D+00
 Gap=     0.226 Goal=   None    Shift=    0.000
 Gap=     0.226 Goal=   None    Shift=    0.000
 RMSDP=4.00D-08 MaxDP=1.04D-06 DE=-1.28D-10 OVMax= 3.11D-06

 Cycle  14  Pass 1  IDiag  1:
 RMSU=  2.65D-08    CP:  1.00D+00  1.05D+00  5.26D-01  7.70D-01  1.02D+00
                    CP:  6.82D-01
 E= -676.364293391445     Delta-E=       -0.000000000058 Rises=F Damp=F
 DIIS: error= 1.11D-07 at cycle   7 NSaved=   7.
 NSaved= 7 IEnMin= 7 EnMin= -676.364293391445     IErMin= 7 ErrMin= 1.11D-07
 ErrMax= 1.11D-07  0.00D+00 EMaxC= 1.00D-01 BMatC= 2.03D-11 BMatP= 1.55D-10
 IDIUse=1 WtCom= 1.00D+00 WtEn= 0.00D+00
 Coeff-Com:  0.508D-03-0.148D-01-0.157D-01-0.173D-01 0.736D-01 0.308D+00
 Coeff-Com:  0.666D+00
 Coeff:      0.508D-03-0.148D-01-0.157D-01-0.173D-01 0.736D-01 0.308D+00
 Coeff:      0.666D+00
 Gap=     0.226 Goal=   None    Shift=    0.000
 Gap=     0.226 Goal=   None    Shift=    0.000
 RMSDP=1.36D-08 MaxDP=3.76D-07 DE=-5.78D-11 OVMax= 1.46D-06

 Cycle  15  Pass 1  IDiag  1:
 RMSU=  8.98D-09    CP:  1.00D+00  1.05D+00  5.26D-01  7.77D-01  1.04D+00
                    CP:  8.14D-01  9.27D-01
 E= -676.364293391456     Delta-E=       -0.000000000011 Rises=F Damp=F
 DIIS: error= 2.27D-08 at cycle   8 NSaved=   8.
 NSaved= 8 IEnMin= 8 EnMin= -676.364293391456     IErMin= 8 ErrMin= 2.27D-08
 ErrMax= 2.27D-08  0.00D+00 EMaxC= 1.00D-01 BMatC= 1.43D-12 BMatP= 2.03D-11
 IDIUse=1 WtCom= 1.00D+00 WtEn= 0.00D+00
 Coeff-Com:  0.269D-03-0.723D-02-0.768D-02-0.999D-02 0.105D-01 0.112D+00
 Coeff-Com:  0.313D+00 0.589D+00
 Coeff:      0.269D-03-0.723D-02-0.768D-02-0.999D-02 0.105D-01 0.112D+00
 Coeff:      0.313D+00 0.589D+00
 Gap=     0.226 Goal=   None    Shift=    0.000
 Gap=     0.226 Goal=   None    Shift=    0.000
 RMSDP=3.87D-09 MaxDP=9.42D-08 DE=-1.11D-11 OVMax= 4.25D-07

 SCF Done:  E(ULC-wPBE) =  -676.364293391     A.U. after   15 cycles
            NFock= 15  Conv=0.39D-08     -V/T= 2.0060
 <Sx>= 0.0000 <Sy>= 0.0000 <Sz>= 0.0000 <S**2>=-0.0000 S=-0.0000
 <L.S>= 0.000000000000E+00
 KE= 6.723176050737D+02 PE=-3.443937430462D+03 EE= 1.162751219923D+03
 Annihilation of the first spin contaminant:
 S**2 before annihilation    -0.0000,   after    -0.0000
 Leave Link  502 at Fri Jul 24 15:40:46 2020, MaxMem=  4026531840 cpu:            1222.6 elap:             153.3
 (Enter /opt/ohpc/pub/libs/gaussian/g16-A.03/sandybridge/g16/l601.exe)
 Copying SCF densities to generalized density rwf, IOpCl= 1 IROHF=0.

 **********************************************************************

            Population analysis using the SCF density.

 **********************************************************************

 Orbital symmetries:
 Alpha Orbitals:
       Occupied  (A) (A) (A) (A) (A) (A) (A) (A) (A) (A) (A) (A)
                 (A) (A) (A) (A) (A) (A) (A) (A) (A) (A) (A) (A)
                 (A) (A) (A) (A) (A) (A) (A) (A) (A) (A) (A) (A)
                 (A) (A) (A) (A) (A) (A) (A) (A) (A) (A) (A) (A)
                 (A) (A) (A) (A) (A)
       Virtual   (A) (A) (A) (A) (A) (A) (A) (A) (A) (A) (A) (A)
                 (A) (A) (A) (A) (A) (A) (A) (A) (A) (A) (A) (A)
                 (A) (A) (A) (A) (A) (A) (A) (A) (A) (A) (A) (A)
                 (A) (A) (A) (A) (A) (A) (A) (A) (A) (A) (A) (A)
                 (A) (A) (A) (A) (A) (A) (A) (A) (A) (A) (A) (A)
                 (A) (A) (A) (A) (A) (A) (A) (A) (A) (A) (A) (A)
                 (A) (A) (A) (A) (A) (A) (A) (A) (A) (A) (A) (A)
                 (A) (A) (A) (A) (A) (A) (A) (A) (A) (A) (A) (A)
                 (A) (A) (A) (A) (A) (A) (A) (A) (A) (A) (A) (A)
                 (A) (A) (A) (A) (A) (A) (A) (A) (A) (A) (A) (A)
                 (A) (A) (A) (A) (A) (A) (A) (A) (A) (A) (A) (A)
                 (A) (A) (A) (A) (A) (A) (A) (A) (A) (A) (A) (A)
                 (A) (A) (A) (A) (A) (A) (A) (A) (A) (A) (A) (A)
                 (A) (A) (A) (A) (A) (A) (A) (A) (A) (A) (A) (A)
                 (A) (A) (A) (A) (A) (A) (A) (A) (A) (A) (A) (A)
                 (A) (A) (A) (A) (A) (A) (A) (A) (A) (A) (A) (A)
                 (A) (A) (A) (A) (A) (A) (A) (A) (A) (A) (A) (A)
                 (A) (A) (A) (A) (A) (A) (A) (A)
 Beta  Orbitals:
       Occupied  (A) (A) (A) (A) (A) (A) (A) (A) (A) (A) (A) (A)
                 (A) (A) (A) (A) (A) (A) (A) (A) (A) (A) (A) (A)
                 (A) (A) (A) (A) (A) (A) (A) (A) (A) (A) (A) (A)
                 (A) (A) (A) (A) (A) (A) (A) (A) (A) (A) (A) (A)
                 (A) (A) (A) (A) (A)
       Virtual   (A) (A) (A) (A) (A) (A) (A) (A) (A) (A) (A) (A)
                 (A) (A) (A) (A) (A) (A) (A) (A) (A) (A) (A) (A)
                 (A) (A) (A) (A) (A) (A) (A) (A) (A) (A) (A) (A)
                 (A) (A) (A) (A) (A) (A) (A) (A) (A) (A) (A) (A)
                 (A) (A) (A) (A) (A) (A) (A) (A) (A) (A) (A) (A)
                 (A) (A) (A) (A) (A) (A) (A) (A) (A) (A) (A) (A)
                 (A) (A) (A) (A) (A) (A) (A) (A) (A) (A) (A) (A)
                 (A) (A) (A) (A) (A) (A) (A) (A) (A) (A) (A) (A)
                 (A) (A) (A) (A) (A) (A) (A) (A) (A) (A) (A) (A)
                 (A) (A) (A) (A) (A) (A) (A) (A) (A) (A) (A) (A)
                 (A) (A) (A) (A) (A) (A) (A) (A) (A) (A) (A) (A)
                 (A) (A) (A) (A) (A) (A) (A) (A) (A) (A) (A) (A)
                 (A) (A) (A) (A) (A) (A) (A) (A) (A) (A) (A) (A)
                 (A) (A) (A) (A) (A) (A) (A) (A) (A) (A) (A) (A)
                 (A) (A) (A) (A) (A) (A) (A) (A) (A) (A) (A) (A)
                 (A) (A) (A) (A) (A) (A) (A) (A) (A) (A) (A) (A)
                 (A) (A) (A) (A) (A) (A) (A) (A) (A) (A) (A) (A)
                 (A) (A) (A) (A) (A) (A) (A) (A)
 The electronic state is 1-A.
 Alpha  occ. eigenvalues --  -24.33344 -18.85150 -10.02400 -10.00889 -10.00256
 Alpha  occ. eigenvalues --   -9.95878  -9.95739  -9.95690  -9.95042  -9.94832
 Alpha  occ. eigenvalues --   -9.94760  -9.94485  -9.94090  -9.93649  -9.93542
 Alpha  occ. eigenvalues --   -1.16149  -1.02326  -0.84230  -0.81182  -0.75265
 Alpha  occ. eigenvalues --   -0.72766  -0.72400  -0.70735  -0.67611  -0.61184
 Alpha  occ. eigenvalues --   -0.59902  -0.58144  -0.56965  -0.53329  -0.51797
 Alpha  occ. eigenvalues --   -0.48998  -0.48512  -0.47286  -0.46748  -0.46604
 Alpha  occ. eigenvalues --   -0.44649  -0.43892  -0.42204  -0.41527  -0.41227
 Alpha  occ. eigenvalues --   -0.39209  -0.38280  -0.38000  -0.37203  -0.36133
 Alpha  occ. eigenvalues --   -0.35003  -0.34038  -0.32580  -0.31721  -0.28190
 Alpha  occ. eigenvalues --   -0.26598  -0.25626  -0.23180
 Alpha virt. eigenvalues --   -0.00588   0.01644   0.02217   0.02855   0.07711
 Alpha virt. eigenvalues --    0.08695   0.09805   0.11148   0.12471   0.12995
 Alpha virt. eigenvalues --    0.14224   0.14594   0.15032   0.15380   0.16084
 Alpha virt. eigenvalues --    0.17108   0.17162   0.17853   0.18641   0.22571
 Alpha virt. eigenvalues --    0.24631   0.29099   0.29884   0.30411   0.31793
 Alpha virt. eigenvalues --    0.32723   0.33433   0.34495   0.36148   0.42244
 Alpha virt. eigenvalues --    0.42868   0.43888   0.44641   0.44759   0.45424
 Alpha virt. eigenvalues --    0.46358   0.47477   0.48030   0.48826   0.49835
 Alpha virt. eigenvalues --    0.50248   0.51013   0.51375   0.52114   0.52862
 Alpha virt. eigenvalues --    0.53420   0.53760   0.54174   0.54745   0.55226
 Alpha virt. eigenvalues --    0.56289   0.57299   0.58486   0.59080   0.59829
 Alpha virt. eigenvalues --    0.61366   0.62278   0.63036   0.63750   0.64567
 Alpha virt. eigenvalues --    0.65632   0.66037   0.67253   0.67357   0.68418
 Alpha virt. eigenvalues --    0.68854   0.69853   0.71531   0.73656   0.74126
 Alpha virt. eigenvalues --    0.74527   0.75295   0.77850   0.80564   0.84517
 Alpha virt. eigenvalues --    0.86137   0.87724   0.88030   0.89459   0.90318
 Alpha virt. eigenvalues --    0.91283   0.91964   0.92893   0.93794   0.95520
 Alpha virt. eigenvalues --    0.96647   0.98046   0.99042   1.00396   1.01340
 Alpha virt. eigenvalues --    1.01805   1.02650   1.03651   1.04439   1.05475
 Alpha virt. eigenvalues --    1.06237   1.06953   1.09423   1.10495   1.12188
 Alpha virt. eigenvalues --    1.14269   1.16421   1.19459   1.20332   1.22124
 Alpha virt. eigenvalues --    1.24227   1.26529   1.28012   1.29660   1.31254
 Alpha virt. eigenvalues --    1.32716   1.35952   1.36752   1.38573   1.41606
 Alpha virt. eigenvalues --    1.43959   1.45913   1.47151   1.47648   1.48498
 Alpha virt. eigenvalues --    1.49100   1.51102   1.52051   1.53314   1.54577
 Alpha virt. eigenvalues --    1.55388   1.56032   1.58321   1.59571   1.60349
 Alpha virt. eigenvalues --    1.61355   1.61638   1.62324   1.63022   1.63421
 Alpha virt. eigenvalues --    1.63874   1.64877   1.65839   1.66198   1.67151
 Alpha virt. eigenvalues --    1.68461   1.69017   1.70226   1.71315   1.73340
 Alpha virt. eigenvalues --    1.73840   1.75537   1.75974   1.77930   1.79235
 Alpha virt. eigenvalues --    1.80699   1.81326   1.83000   1.83165   1.84874
 Alpha virt. eigenvalues --    1.86220   1.86482   1.87425   1.88264   1.88649
 Alpha virt. eigenvalues --    1.90486   1.92894   1.94331   1.96281   1.96756
 Alpha virt. eigenvalues --    1.98240   1.98823   2.00795   2.04122   2.07971
 Alpha virt. eigenvalues --    2.09367   2.11977   2.13156   2.15080   2.16642
 Alpha virt. eigenvalues --    2.21146   2.22560   2.24366   2.26787   2.28967
 Alpha virt. eigenvalues --    2.33793   2.36565   2.37572   2.39512   2.42268
 Alpha virt. eigenvalues --    2.42774   2.47436   2.48569   2.48697   2.51504
 Alpha virt. eigenvalues --    2.55297   2.59784   2.62417   2.65953   2.68297
 Alpha virt. eigenvalues --    2.70783   2.75373   2.78087   2.83146   2.83823
 Alpha virt. eigenvalues --    2.84706   2.93994   2.98619   3.22971   3.30080
 Alpha virt. eigenvalues --    3.44598   3.52364   3.53516   3.57203   3.70655
 Alpha virt. eigenvalues --    3.88801   4.14484
  Beta  occ. eigenvalues --  -24.33344 -18.85150 -10.02400 -10.00889 -10.00256
  Beta  occ. eigenvalues --   -9.95878  -9.95739  -9.95690  -9.95042  -9.94832
  Beta  occ. eigenvalues --   -9.94760  -9.94485  -9.94090  -9.93649  -9.93542
  Beta  occ. eigenvalues --   -1.16149  -1.02326  -0.84230  -0.81182  -0.75265
  Beta  occ. eigenvalues --   -0.72766  -0.72400  -0.70735  -0.67611  -0.61184
  Beta  occ. eigenvalues --   -0.59902  -0.58144  -0.56965  -0.53329  -0.51797
  Beta  occ. eigenvalues --   -0.48998  -0.48512  -0.47286  -0.46748  -0.46604
  Beta  occ. eigenvalues --   -0.44649  -0.43892  -0.42204  -0.41527  -0.41227
  Beta  occ. eigenvalues --   -0.39209  -0.38280  -0.38000  -0.37203  -0.36133
  Beta  occ. eigenvalues --   -0.35003  -0.34038  -0.32580  -0.31721  -0.28190
  Beta  occ. eigenvalues --   -0.26598  -0.25626  -0.23180
  Beta virt. eigenvalues --   -0.00588   0.01644   0.02217   0.02855   0.07711
  Beta virt. eigenvalues --    0.08695   0.09805   0.11148   0.12471   0.12995
  Beta virt. eigenvalues --    0.14224   0.14594   0.15032   0.15380   0.16084
  Beta virt. eigenvalues --    0.17108   0.17162   0.17853   0.18641   0.22571
  Beta virt. eigenvalues --    0.24631   0.29099   0.29884   0.30411   0.31793
  Beta virt. eigenvalues --    0.32723   0.33433   0.34495   0.36148   0.42244
  Beta virt. eigenvalues --    0.42868   0.43888   0.44641   0.44759   0.45424
  Beta virt. eigenvalues --    0.46358   0.47477   0.48030   0.48826   0.49835
  Beta virt. eigenvalues --    0.50248   0.51013   0.51375   0.52114   0.52862
  Beta virt. eigenvalues --    0.53420   0.53760   0.54174   0.54745   0.55226
  Beta virt. eigenvalues --    0.56289   0.57299   0.58486   0.59080   0.59829
  Beta virt. eigenvalues --    0.61366   0.62278   0.63036   0.63750   0.64567
  Beta virt. eigenvalues --    0.65632   0.66037   0.67253   0.67357   0.68418
  Beta virt. eigenvalues --    0.68854   0.69853   0.71531   0.73656   0.74126
  Beta virt. eigenvalues --    0.74527   0.75295   0.77850   0.80564   0.84517
  Beta virt. eigenvalues --    0.86137   0.87724   0.88030   0.89459   0.90318
  Beta virt. eigenvalues --    0.91283   0.91964   0.92893   0.93794   0.95520
  Beta virt. eigenvalues --    0.96647   0.98046   0.99042   1.00396   1.01340
  Beta virt. eigenvalues --    1.01805   1.02650   1.03651   1.04439   1.05475
  Beta virt. eigenvalues --    1.06237   1.06953   1.09423   1.10495   1.12188
  Beta virt. eigenvalues --    1.14269   1.16421   1.19459   1.20332   1.22124
  Beta virt. eigenvalues --    1.24227   1.26529   1.28012   1.29660   1.31254
  Beta virt. eigenvalues --    1.32716   1.35952   1.36752   1.38573   1.41606
  Beta virt. eigenvalues --    1.43959   1.45913   1.47151   1.47648   1.48498
  Beta virt. eigenvalues --    1.49100   1.51102   1.52051   1.53314   1.54577
  Beta virt. eigenvalues --    1.55388   1.56032   1.58321   1.59571   1.60349
  Beta virt. eigenvalues --    1.61355   1.61638   1.62324   1.63022   1.63421
  Beta virt. eigenvalues --    1.63874   1.64877   1.65839   1.66198   1.67151
  Beta virt. eigenvalues --    1.68461   1.69017   1.70226   1.71315   1.73340
  Beta virt. eigenvalues --    1.73840   1.75537   1.75974   1.77930   1.79235
  Beta virt. eigenvalues --    1.80699   1.81326   1.83000   1.83165   1.84874
  Beta virt. eigenvalues --    1.86220   1.86482   1.87425   1.88264   1.88649
  Beta virt. eigenvalues --    1.90486   1.92894   1.94331   1.96281   1.96756
  Beta virt. eigenvalues --    1.98240   1.98823   2.00795   2.04122   2.07971
  Beta virt. eigenvalues --    2.09367   2.11977   2.13156   2.15080   2.16642
  Beta virt. eigenvalues --    2.21146   2.22560   2.24366   2.26787   2.28967
  Beta virt. eigenvalues --    2.33793   2.36565   2.37572   2.39512   2.42268
  Beta virt. eigenvalues --    2.42774   2.47436   2.48569   2.48697   2.51504
  Beta virt. eigenvalues --    2.55297   2.59784   2.62417   2.65953   2.68297
  Beta virt. eigenvalues --    2.70783   2.75373   2.78087   2.83146   2.83823
  Beta virt. eigenvalues --    2.84706   2.93994   2.98619   3.22971   3.30080
  Beta virt. eigenvalues --    3.44598   3.52364   3.53516   3.57203   3.70655
  Beta virt. eigenvalues --    3.88801   4.14484
          Condensed to atoms (all electrons):
               1          2          3          4          5          6
     1  C    4.775219   0.425045   0.048137   0.004396  -0.102750   0.047534
     2  C    0.425045   5.040641   0.355498  -0.054080   0.000621  -0.112494
     3  C    0.048137   0.355498   5.009516   0.439110   0.216632   0.041724
     4  F    0.004396  -0.054080   0.439110   8.790920  -0.079799   0.003550
     5  C   -0.102750   0.000621   0.216632  -0.079799   5.482081   0.432455
     6  C    0.047534  -0.112494   0.041724   0.003550   0.432455   4.819901
     7  C    0.437159   0.052468  -0.107033  -0.000360   0.056694   0.451484
     8  C   -0.000779   0.011975  -0.079554   0.005579   0.229867  -0.092951
     9  C   -0.000022   0.000533  -0.004832   0.002916  -0.086189   0.000165
    10  C    0.000000   0.000009  -0.000061  -0.000027   0.008358  -0.000051
    11  C   -0.000000  -0.000000   0.000044   0.000008   0.000119  -0.000044
    12  C   -0.000000   0.000011  -0.000377  -0.000003   0.012483   0.000743
    13  C    0.000045  -0.000329   0.000596  -0.000375  -0.074484  -0.007584
    14  O    0.000008   0.000020  -0.000891   0.000001   0.001690   0.005652
    15  C   -0.000001  -0.000003   0.000035  -0.000000  -0.000384  -0.000178
    16  H    0.391031  -0.050348   0.012104  -0.000054  -0.001447   0.013425
    17  H   -0.045965   0.354554  -0.041317   0.002253   0.012998   0.000035
    18  H    0.013500  -0.001720   0.012674  -0.000032  -0.045349   0.389848
    19  H   -0.066534   0.014149  -0.000284   0.000002   0.013748  -0.054771
    20  H   -0.000065  -0.000309   0.002975   0.003404  -0.022443  -0.000198
    21  H    0.000000  -0.000000  -0.000015  -0.000001  -0.000367   0.000003
    22  H   -0.000000   0.000000   0.000000   0.000000   0.000019   0.000001
    23  H    0.000000  -0.000000   0.000001   0.000000  -0.000484   0.000002
    24  H   -0.000001  -0.000001   0.000009  -0.000000  -0.000006   0.000036
    25  H    0.000000   0.000001  -0.000009   0.000000   0.000116   0.000038
    26  H    0.000000   0.000000  -0.000003  -0.000000   0.000102  -0.000007
               7          8          9         10         11         12
     1  C    0.437159  -0.000779  -0.000022   0.000000  -0.000000  -0.000000
     2  C    0.052468   0.011975   0.000533   0.000009  -0.000000   0.000011
     3  C   -0.107033  -0.079554  -0.004832  -0.000061   0.000044  -0.000377
     4  F   -0.000360   0.005579   0.002916  -0.000027   0.000008  -0.000003
     5  C    0.056694   0.229867  -0.086189   0.008358   0.000119   0.012483
     6  C    0.451484  -0.092951   0.000165  -0.000051  -0.000044   0.000743
     7  C    4.761167   0.010696  -0.000064   0.000006   0.000000  -0.000000
     8  C    0.010696   5.269310   0.483658   0.015628  -0.062641  -0.007091
     9  C   -0.000064   0.483658   4.761548   0.494330   0.008054  -0.082619
    10  C    0.000006   0.015628   0.494330   4.726781   0.461415   0.007800
    11  C    0.000000  -0.062641   0.008054   0.461415   4.846710   0.444261
    12  C   -0.000000  -0.007091  -0.082619   0.007800   0.444261   4.989228
    13  C   -0.000244   0.377014   0.009932  -0.075403   0.016763   0.321642
    14  O   -0.000127  -0.066593   0.002483  -0.000010   0.003856  -0.066528
    15  C    0.000006   0.006239   0.000090  -0.000052   0.001406  -0.002510
    16  H   -0.064335   0.000034   0.000001   0.000000   0.000000   0.000000
    17  H    0.011098  -0.000499  -0.000022  -0.000001   0.000000  -0.000000
    18  H   -0.059739  -0.022424   0.000177  -0.000029  -0.000061   0.000019
    19  H    0.388028  -0.000398   0.000001  -0.000000   0.000000  -0.000000
    20  H   -0.000006  -0.046719   0.388170  -0.058382   0.011431  -0.001782
    21  H   -0.000000   0.012368  -0.054801   0.386029  -0.054820   0.012829
    22  H    0.000000  -0.000122   0.010646  -0.042781   0.383037  -0.046758
    23  H   -0.000001   0.007215   0.000852   0.008894  -0.039006   0.379169
    24  H    0.000002  -0.000285   0.000024   0.000001  -0.000069  -0.000216
    25  H    0.000001   0.001049  -0.000179  -0.000011   0.000095   0.012491
    26  H   -0.000002  -0.000485  -0.000050  -0.000014   0.000133   0.008283
              13         14         15         16         17         18
     1  C    0.000045   0.000008  -0.000001   0.391031  -0.045965   0.013500
     2  C   -0.000329   0.000020  -0.000003  -0.050348   0.354554  -0.001720
     3  C    0.000596  -0.000891   0.000035   0.012104  -0.041317   0.012674
     4  F   -0.000375   0.000001  -0.000000  -0.000054   0.002253  -0.000032
     5  C   -0.074484   0.001690  -0.000384  -0.001447   0.012998  -0.045349
     6  C   -0.007584   0.005652  -0.000178   0.013425   0.000035   0.389848
     7  C   -0.000244  -0.000127   0.000006  -0.064335   0.011098  -0.059739
     8  C    0.377014  -0.066593   0.006239   0.000034  -0.000499  -0.022424
     9  C    0.009932   0.002483   0.000090   0.000001  -0.000022   0.000177
    10  C   -0.075403  -0.000010  -0.000052   0.000000  -0.000001  -0.000029
    11  C    0.016763   0.003856   0.001406   0.000000   0.000000  -0.000061
    12  C    0.321642  -0.066528  -0.002510   0.000000  -0.000000   0.000019
    13  C    5.018360   0.440679  -0.077202   0.000000   0.000010   0.003979
    14  O    0.440679   7.663680   0.337669   0.000000   0.000000   0.002623
    15  C   -0.077202   0.337669   4.474109  -0.000000   0.000000  -0.000090
    16  H    0.000000   0.000000  -0.000000   0.767684  -0.020633  -0.000326
    17  H    0.000010   0.000000   0.000000  -0.020633   0.729994   0.000080
    18  H    0.003979   0.002623  -0.000090  -0.000326   0.000080   0.756210
    19  H   -0.000009   0.000001  -0.000000  -0.019368  -0.000319  -0.019534
    20  H    0.015234  -0.000056   0.000015  -0.000000   0.000023   0.000050
    21  H   -0.000375   0.000003  -0.000001  -0.000000   0.000000   0.000002
    22  H    0.008267  -0.000055  -0.000022  -0.000000  -0.000000  -0.000001
    23  H   -0.057998  -0.008161   0.008872  -0.000000   0.000000   0.000029
    24  H    0.004423  -0.018628   0.395814  -0.000000  -0.000000  -0.000031
    25  H   -0.005710  -0.029604   0.387046   0.000000  -0.000000   0.000031
    26  H   -0.009362  -0.026229   0.377761   0.000000   0.000000  -0.000016
              19         20         21         22         23         24
     1  C   -0.066534  -0.000065   0.000000  -0.000000   0.000000  -0.000001
     2  C    0.014149  -0.000309  -0.000000   0.000000  -0.000000  -0.000001
     3  C   -0.000284   0.002975  -0.000015   0.000000   0.000001   0.000009
     4  F    0.000002   0.003404  -0.000001   0.000000   0.000000  -0.000000
     5  C    0.013748  -0.022443  -0.000367   0.000019  -0.000484  -0.000006
     6  C   -0.054771  -0.000198   0.000003   0.000001   0.000002   0.000036
     7  C    0.388028  -0.000006  -0.000000   0.000000  -0.000001   0.000002
     8  C   -0.000398  -0.046719   0.012368  -0.000122   0.007215  -0.000285
     9  C    0.000001   0.388170  -0.054801   0.010646   0.000852   0.000024
    10  C   -0.000000  -0.058382   0.386029  -0.042781   0.008894   0.000001
    11  C    0.000000   0.011431  -0.054820   0.383037  -0.039006  -0.000069
    12  C   -0.000000  -0.001782   0.012829  -0.046758   0.379169  -0.000216
    13  C   -0.000009   0.015234  -0.000375   0.008267  -0.057998   0.004423
    14  O    0.000001  -0.000056   0.000003  -0.000055  -0.008161  -0.018628
    15  C   -0.000000   0.000015  -0.000001  -0.000022   0.008872   0.395814
    16  H   -0.019368  -0.000000  -0.000000  -0.000000  -0.000000  -0.000000
    17  H   -0.000319   0.000023   0.000000  -0.000000   0.000000  -0.000000
    18  H   -0.019534   0.000050   0.000002  -0.000001   0.000029  -0.000031
    19  H    0.780526   0.000001   0.000000  -0.000000   0.000000   0.000000
    20  H    0.000001   0.756194  -0.018578  -0.000312   0.000052  -0.000000
    21  H    0.000000  -0.018578   0.786734  -0.015607  -0.000378  -0.000000
    22  H   -0.000000  -0.000312  -0.015607   0.735964  -0.014533  -0.000000
    23  H    0.000000   0.000052  -0.000378  -0.014533   0.760273  -0.000439
    24  H    0.000000  -0.000000  -0.000000  -0.000000  -0.000439   0.632469
    25  H    0.000000  -0.000002   0.000000   0.000016   0.002517  -0.024234
    26  H   -0.000001  -0.000000   0.000001   0.000024   0.002189  -0.029256
              25         26
     1  C    0.000000   0.000000
     2  C    0.000001   0.000000
     3  C   -0.000009  -0.000003
     4  F    0.000000  -0.000000
     5  C    0.000116   0.000102
     6  C    0.000038  -0.000007
     7  C    0.000001  -0.000002
     8  C    0.001049  -0.000485
     9  C   -0.000179  -0.000050
    10  C   -0.000011  -0.000014
    11  C    0.000095   0.000133
    12  C    0.012491   0.008283
    13  C   -0.005710  -0.009362
    14  O   -0.029604  -0.026229
    15  C    0.387046   0.377761
    16  H    0.000000   0.000000
    17  H   -0.000000   0.000000
    18  H    0.000031  -0.000016
    19  H    0.000000  -0.000001
    20  H   -0.000002  -0.000000
    21  H    0.000000   0.000001
    22  H    0.000016   0.000024
    23  H    0.002517   0.002189
    24  H   -0.024234  -0.029256
    25  H    0.656230  -0.047169
    26  H   -0.047169   0.677201
          Atomic-Atomic Spin Densities.
               1          2          3          4          5          6
     1  C    0.000000  -0.000000   0.000000   0.000000  -0.000000   0.000000
     2  C   -0.000000   0.000000  -0.000000  -0.000000   0.000000  -0.000000
     3  C    0.000000  -0.000000   0.000000   0.000000  -0.000000   0.000000
     4  F    0.000000  -0.000000   0.000000  -0.000000  -0.000000   0.000000
     5  C   -0.000000   0.000000  -0.000000  -0.000000   0.000000  -0.000000
     6  C    0.000000  -0.000000   0.000000   0.000000  -0.000000  -0.000000
     7  C   -0.000000   0.000000  -0.000000  -0.000000   0.000000  -0.000000
     8  C   -0.000000   0.000000  -0.000000   0.000000  -0.000000   0.000000
     9  C   -0.000000   0.000000  -0.000000  -0.000000  -0.000000  -0.000000
    10  C   -0.000000   0.000000  -0.000000   0.000000  -0.000000  -0.000000
    11  C   -0.000000  -0.000000   0.000000  -0.000000   0.000000   0.000000
    12  C   -0.000000   0.000000  -0.000000   0.000000  -0.000000  -0.000000
    13  C    0.000000  -0.000000   0.000000  -0.000000   0.000000   0.000000
    14  O   -0.000000   0.000000   0.000000   0.000000   0.000000  -0.000000
    15  C    0.000000  -0.000000   0.000000   0.000000  -0.000000   0.000000
    16  H    0.000000  -0.000000   0.000000   0.000000  -0.000000   0.000000
    17  H   -0.000000   0.000000  -0.000000  -0.000000   0.000000  -0.000000
    18  H    0.000000  -0.000000   0.000000   0.000000  -0.000000   0.000000
    19  H   -0.000000   0.000000  -0.000000  -0.000000   0.000000  -0.000000
    20  H   -0.000000  -0.000000   0.000000  -0.000000   0.000000   0.000000
    21  H    0.000000   0.000000   0.000000   0.000000  -0.000000  -0.000000
    22  H   -0.000000  -0.000000   0.000000  -0.000000   0.000000  -0.000000
    23  H    0.000000   0.000000  -0.000000   0.000000  -0.000000   0.000000
    24  H    0.000000  -0.000000   0.000000  -0.000000   0.000000   0.000000
    25  H   -0.000000   0.000000  -0.000000  -0.000000  -0.000000   0.000000
    26  H   -0.000000  -0.000000   0.000000  -0.000000   0.000000  -0.000000
               7          8          9         10         11         12
     1  C   -0.000000  -0.000000  -0.000000  -0.000000  -0.000000  -0.000000
     2  C    0.000000   0.000000   0.000000   0.000000  -0.000000   0.000000
     3  C   -0.000000  -0.000000  -0.000000  -0.000000   0.000000  -0.000000
     4  F   -0.000000   0.000000  -0.000000   0.000000  -0.000000   0.000000
     5  C    0.000000  -0.000000  -0.000000  -0.000000   0.000000  -0.000000
     6  C   -0.000000   0.000000  -0.000000  -0.000000   0.000000  -0.000000
     7  C    0.000000   0.000000   0.000000   0.000000  -0.000000   0.000000
     8  C    0.000000   0.000000  -0.000000   0.000000  -0.000000   0.000000
     9  C    0.000000  -0.000000   0.000000  -0.000000   0.000000   0.000000
    10  C    0.000000   0.000000  -0.000000   0.000000  -0.000000   0.000000
    11  C   -0.000000  -0.000000   0.000000  -0.000000   0.000000   0.000000
    12  C    0.000000   0.000000   0.000000   0.000000   0.000000  -0.000000
    13  C   -0.000000  -0.000000  -0.000000  -0.000000   0.000000  -0.000000
    14  O    0.000000  -0.000000   0.000000  -0.000000  -0.000000   0.000000
    15  C   -0.000000   0.000000  -0.000000   0.000000  -0.000000   0.000000
    16  H   -0.000000  -0.000000  -0.000000   0.000000  -0.000000   0.000000
    17  H    0.000000   0.000000  -0.000000  -0.000000   0.000000  -0.000000
    18  H   -0.000000  -0.000000  -0.000000  -0.000000   0.000000  -0.000000
    19  H    0.000000  -0.000000   0.000000  -0.000000   0.000000  -0.000000
    20  H   -0.000000  -0.000000   0.000000  -0.000000   0.000000  -0.000000
    21  H    0.000000   0.000000  -0.000000   0.000000  -0.000000  -0.000000
    22  H   -0.000000  -0.000000   0.000000  -0.000000  -0.000000   0.000000
    23  H    0.000000   0.000000  -0.000000   0.000000  -0.000000   0.000000
    24  H   -0.000000  -0.000000   0.000000  -0.000000   0.000000  -0.000000
    25  H    0.000000  -0.000000   0.000000  -0.000000   0.000000  -0.000000
    26  H   -0.000000  -0.000000   0.000000  -0.000000   0.000000   0.000000
              13         14         15         16         17         18
     1  C    0.000000  -0.000000   0.000000   0.000000  -0.000000   0.000000
     2  C   -0.000000   0.000000  -0.000000  -0.000000   0.000000  -0.000000
     3  C    0.000000   0.000000   0.000000   0.000000  -0.000000   0.000000
     4  F   -0.000000   0.000000   0.000000   0.000000  -0.000000   0.000000
     5  C    0.000000   0.000000  -0.000000  -0.000000   0.000000  -0.000000
     6  C    0.000000  -0.000000   0.000000   0.000000  -0.000000   0.000000
     7  C   -0.000000   0.000000  -0.000000  -0.000000   0.000000  -0.000000
     8  C   -0.000000  -0.000000   0.000000  -0.000000   0.000000  -0.000000
     9  C   -0.000000   0.000000  -0.000000  -0.000000  -0.000000  -0.000000
    10  C   -0.000000  -0.000000   0.000000   0.000000  -0.000000  -0.000000
    11  C    0.000000  -0.000000  -0.000000  -0.000000   0.000000   0.000000
    12  C   -0.000000   0.000000   0.000000   0.000000  -0.000000  -0.000000
    13  C    0.000000   0.000000  -0.000000   0.000000   0.000000   0.000000
    14  O    0.000000   0.000000   0.000000  -0.000000   0.000000  -0.000000
    15  C   -0.000000   0.000000  -0.000000   0.000000   0.000000   0.000000
    16  H    0.000000  -0.000000   0.000000   0.000000  -0.000000   0.000000
    17  H    0.000000   0.000000   0.000000  -0.000000   0.000000  -0.000000
    18  H    0.000000  -0.000000   0.000000   0.000000  -0.000000   0.000000
    19  H    0.000000   0.000000  -0.000000  -0.000000   0.000000  -0.000000
    20  H    0.000000   0.000000  -0.000000  -0.000000   0.000000   0.000000
    21  H   -0.000000   0.000000   0.000000   0.000000  -0.000000  -0.000000
    22  H    0.000000  -0.000000   0.000000  -0.000000   0.000000   0.000000
    23  H   -0.000000   0.000000  -0.000000   0.000000  -0.000000  -0.000000
    24  H    0.000000   0.000000   0.000000   0.000000   0.000000   0.000000
    25  H    0.000000  -0.000000   0.000000  -0.000000   0.000000  -0.000000
    26  H   -0.000000   0.000000  -0.000000  -0.000000   0.000000   0.000000
              19         20         21         22         23         24
     1  C   -0.000000  -0.000000   0.000000  -0.000000   0.000000   0.000000
     2  C    0.000000  -0.000000   0.000000  -0.000000   0.000000  -0.000000
     3  C   -0.000000   0.000000   0.000000   0.000000  -0.000000   0.000000
     4  F   -0.000000  -0.000000   0.000000  -0.000000   0.000000  -0.000000
     5  C    0.000000   0.000000  -0.000000   0.000000  -0.000000   0.000000
     6  C   -0.000000   0.000000  -0.000000  -0.000000   0.000000   0.000000
     7  C    0.000000  -0.000000   0.000000  -0.000000   0.000000  -0.000000
     8  C   -0.000000  -0.000000   0.000000  -0.000000   0.000000  -0.000000
     9  C    0.000000   0.000000  -0.000000   0.000000  -0.000000   0.000000
    10  C   -0.000000  -0.000000   0.000000  -0.000000   0.000000  -0.000000
    11  C    0.000000   0.000000  -0.000000  -0.000000  -0.000000   0.000000
    12  C   -0.000000  -0.000000  -0.000000   0.000000   0.000000  -0.000000
    13  C    0.000000   0.000000  -0.000000   0.000000  -0.000000   0.000000
    14  O    0.000000   0.000000   0.000000  -0.000000   0.000000   0.000000
    15  C   -0.000000  -0.000000   0.000000   0.000000  -0.000000   0.000000
    16  H   -0.000000  -0.000000   0.000000  -0.000000   0.000000   0.000000
    17  H    0.000000   0.000000  -0.000000   0.000000  -0.000000   0.000000
    18  H   -0.000000   0.000000  -0.000000   0.000000  -0.000000   0.000000
    19  H    0.000000   0.000000  -0.000000   0.000000  -0.000000   0.000000
    20  H    0.000000   0.000000  -0.000000   0.000000  -0.000000  -0.000000
    21  H   -0.000000  -0.000000  -0.000000   0.000000   0.000000  -0.000000
    22  H    0.000000   0.000000   0.000000   0.000000  -0.000000   0.000000
    23  H   -0.000000  -0.000000   0.000000  -0.000000   0.000000  -0.000000
    24  H    0.000000  -0.000000  -0.000000   0.000000  -0.000000  -0.000000
    25  H    0.000000   0.000000  -0.000000   0.000000  -0.000000   0.000000
    26  H    0.000000   0.000000  -0.000000   0.000000  -0.000000   0.000000
              25         26
     1  C   -0.000000  -0.000000
     2  C    0.000000  -0.000000
     3  C   -0.000000   0.000000
     4  F   -0.000000  -0.000000
     5  C   -0.000000   0.000000
     6  C    0.000000  -0.000000
     7  C    0.000000  -0.000000
     8  C   -0.000000  -0.000000
     9  C    0.000000   0.000000
    10  C   -0.000000  -0.000000
    11  C    0.000000   0.000000
    12  C   -0.000000   0.000000
    13  C    0.000000  -0.000000
    14  O   -0.000000   0.000000
    15  C    0.000000  -0.000000
    16  H   -0.000000  -0.000000
    17  H    0.000000   0.000000
    18  H   -0.000000   0.000000
    19  H    0.000000   0.000000
    20  H    0.000000   0.000000
    21  H   -0.000000  -0.000000
    22  H    0.000000   0.000000
    23  H   -0.000000  -0.000000
    24  H    0.000000   0.000000
    25  H    0.000000   0.000000
    26  H    0.000000   0.000000
 Mulliken charges and spin densities:
               1          2
     1  C    0.074041  -0.000000
     2  C   -0.036240  -0.000000
     3  C    0.095321   0.000000
     4  F   -0.117408  -0.000000
     5  C   -0.054282  -0.000000
     6  C    0.061684  -0.000000
     7  C    0.063101   0.000000
     8  C   -0.050092  -0.000000
     9  C    0.065200   0.000000
    10  C    0.067572   0.000000
    11  C   -0.020690  -0.000000
    12  C    0.018925  -0.000000
    13  C    0.092131  -0.000000
    14  O   -0.241485   0.000000
    15  C    0.091380  -0.000000
    16  H   -0.027769   0.000000
    17  H   -0.002288   0.000000
    18  H   -0.029869   0.000000
    19  H   -0.035240   0.000000
    20  H   -0.028696   0.000000
    21  H   -0.053025  -0.000000
    22  H   -0.017782  -0.000000
    23  H   -0.049066   0.000000
    24  H    0.040391   0.000000
    25  H    0.047286   0.000000
    26  H    0.046899   0.000000
 Sum of Mulliken charges =  -0.00000  -0.00000
 Mulliken charges and spin densities with hydrogens summed into heavy atoms:
               1          2
     1  C    0.046272  -0.000000
     2  C   -0.038528  -0.000000
     3  C    0.095321   0.000000
     4  F   -0.117408  -0.000000
     5  C   -0.054282  -0.000000
     6  C    0.031816  -0.000000
     7  C    0.027861   0.000000
     8  C   -0.050092  -0.000000
     9  C    0.036504   0.000000
    10  C    0.014548   0.000000
    11  C   -0.038471  -0.000000
    12  C   -0.030141  -0.000000
    13  C    0.092131  -0.000000
    14  O   -0.241485   0.000000
    15  C    0.225955  -0.000000
 Electronic spatial extent (au):  <R**2>=           3155.5754
 Charge=             -0.0000 electrons
 Dipole moment (field-independent basis, Debye):
    X=             -0.9876    Y=              1.8334    Z=             -0.2195  Tot=              2.0940
 Quadrupole moment (field-independent basis, Debye-Ang):
   XX=            -74.4389   YY=            -78.5471   ZZ=            -87.6636
   XY=             -2.9378   XZ=             -1.8509   YZ=              1.7705
 Traceless Quadrupole moment (field-independent basis, Debye-Ang):
   XX=              5.7776   YY=              1.6695   ZZ=             -7.4471
   XY=             -2.9378   XZ=             -1.8509   YZ=              1.7705
 Octapole moment (field-independent basis, Debye-Ang**2):
  XXX=              4.5591  YYY=             11.4570  ZZZ=             16.4287  XYY=            -18.9368
  XXY=              8.9011  XXZ=             10.3915  XZZ=              5.0777  YZZ=              7.7647
  YYZ=              2.6800  XYZ=            -11.6233
 Hexadecapole moment (field-independent basis, Debye-Ang**3):
 XXXX=          -2511.3059 YYYY=          -1020.9973 ZZZZ=           -374.6917 XXXY=            -18.6202
 XXXZ=             18.7551 YYYX=            -54.3463 YYYZ=             14.1363 ZZZX=              0.1739
 ZZZY=            -22.6656 XXYY=           -596.2037 XXZZ=           -534.2215 YYZZ=           -242.4882
[...]
    11  C   -0.000000  -0.000000   0.000000  -0.000000  -0.000000   0.000000
    12  C   -0.000000  -0.000000  -0.000000  -0.000000   0.000000  -0.000000
    13  C   -0.000000   0.000000  -0.000000   0.000000  -0.000000  -0.000000
    14  O   -0.000000   0.000000  -0.000000   0.000000  -0.000000   0.000000
    15  C    0.000000   0.000000   0.000000   0.000000   0.000000   0.000000
    16  H   -0.000000  -0.000000   0.000000  -0.000000  -0.000000  -0.000000
    17  H   -0.000000  -0.000000   0.000000  -0.000000   0.000000  -0.000000
    18  H   -0.000000  -0.000000   0.000000  -0.000000   0.000000  -0.000000
    19  H   -0.000000   0.000000   0.000000  -0.000000   0.000000   0.000000
    20  H    0.000000   0.000000   0.000000   0.000000  -0.000000   0.000000
    21  H    0.000000   0.000000  -0.000000   0.000000  -0.000000  -0.000000
    22  H   -0.000000   0.000000   0.000000   0.000000  -0.000000   0.000000
    23  H    0.000000  -0.000000  -0.000000  -0.000000  -0.000000  -0.000000
    24  H    0.000000   0.000000  -0.000000   0.000000  -0.000000   0.000000
    25  H   -0.000000  -0.000000   0.000000  -0.000000   0.000000   0.000000
    26  H   -0.000000  -0.000000   0.000000  -0.000000   0.000000   0.000000
              25         26
     1  C    0.000000   0.000000
     2  C   -0.000000   0.000000
     3  C    0.000000  -0.000000
     4  F   -0.000000   0.000000
     5  C    0.000000   0.000000
     6  C   -0.000000   0.000000
     7  C   -0.000000  -0.000000
     8  C    0.000000   0.000000
     9  C   -0.000000  -0.000000
    10  C    0.000000   0.000000
    11  C   -0.000000  -0.000000
    12  C    0.000000  -0.000000
    13  C   -0.000000   0.000000
    14  O    0.000000  -0.000000
    15  C   -0.000000  -0.000000
    16  H    0.000000   0.000000
    17  H   -0.000000   0.000000
    18  H    0.000000  -0.000000
    19  H   -0.000000  -0.000000
    20  H   -0.000000  -0.000000
    21  H    0.000000   0.000000
    22  H   -0.000000  -0.000000
    23  H    0.000000   0.000000
    24  H    0.000000   0.000000
    25  H    0.000000  -0.000000
    26  H   -0.000000  -0.000000
 Mulliken charges and spin densities:
               1          2
     1  C    0.032887   0.000000
     2  C    0.019679  -0.000000
     3  C    0.082890   0.000000
     4  F   -0.129655   0.000000
     5  C   -0.015527  -0.000000
     6  C    0.042679   0.000000
     7  C    0.029607  -0.000000
     8  C   -0.003963  -0.000000
     9  C    0.035088   0.000000
    10  C    0.029859  -0.000000
    11  C    0.028602  -0.000000
    12  C   -0.021786  -0.000000
    13  C    0.089948   0.000000
    14  O   -0.235440  -0.000000
    15  C    0.063873  -0.000000
    16  H   -0.017833   0.000000
    17  H   -0.011026  -0.000000
    18  H   -0.029857   0.000000
    19  H   -0.023044  -0.000000
    20  H   -0.030127   0.000000
    21  H   -0.026053  -0.000000
    22  H   -0.023355  -0.000000
    23  H   -0.024007  -0.000000
    24  H    0.048807   0.000000
    25  H    0.044713   0.000000
    26  H    0.043043   0.000000
 Sum of Mulliken charges =  -0.00000   0.00000
 Mulliken charges and spin densities with hydrogens summed into heavy atoms:
               1          2
     1  C    0.015054   0.000000
     2  C    0.008653  -0.000000
     3  C    0.082890   0.000000
     4  F   -0.129655   0.000000
     5  C   -0.015527  -0.000000
     6  C    0.012822   0.000000
     7  C    0.006563  -0.000000
     8  C   -0.003963  -0.000000
     9  C    0.004961   0.000000
    10  C    0.003806  -0.000000
    11  C    0.005247  -0.000000
    12  C   -0.045793  -0.000000
    13  C    0.089948   0.000000
    14  O   -0.235440  -0.000000
    15  C    0.200436  -0.000000
 Electronic spatial extent (au):  <R**2>=           3197.8950
 Charge=             -0.0000 electrons
 Dipole moment (field-independent basis, Debye):
    X=             -0.9266    Y=              1.8942    Z=             -0.1683  Tot=              2.1154
 Quadrupole moment (field-independent basis, Debye-Ang):
   XX=            -73.9883   YY=            -78.4904   ZZ=            -88.9641
   XY=             -2.7364   XZ=             -1.1979   YZ=              1.3202
 Traceless Quadrupole moment (field-independent basis, Debye-Ang):
   XX=              6.4926   YY=              1.9906   ZZ=             -8.4832
   XY=             -2.7364   XZ=             -1.1979   YZ=              1.3202
 Octapole moment (field-independent basis, Debye-Ang**2):
  XXX=              8.7908  YYY=             11.0049  ZZZ=             15.6582  XYY=            -14.6893
  XXY=              8.5164  XXZ=             10.3759  XZZ=              2.4942  YZZ=              4.4896
  YYZ=             -0.6511  XYZ=            -11.1119
 Hexadecapole moment (field-independent basis, Debye-Ang**3):
 XXXX=          -2556.1944 YYYY=          -1121.1322 ZZZZ=           -280.7159 XXXY=            -33.4512
 XXXZ=             19.6992 YYYX=            -50.4022 YYYZ=             11.5677 ZZZX=              5.8448
 ZZZY=            -17.2506 XXYY=           -615.6428 XXZZ=           -538.7283 YYZZ=           -242.7384
 XXYZ=            -10.6419 YYXZ=             -9.3008 ZZXY=            -19.0702
 N-N= 9.314031641846D+02 E-N=-3.441425645432D+03  KE= 6.719756830467D+02
                          Isotropic Fermi Contact Couplings
        Atom                 a.u.       MegaHertz       Gauss      10(-4) cm-1
     1  C(13)              0.00000       0.00000       0.00000       0.00000
     2  C(13)             -0.00000      -0.00000      -0.00000      -0.00000
     3  C(13)              0.00000       0.00000       0.00000       0.00000
     4  F(19)              0.00000       0.00000       0.00000       0.00000
     5  C(13)             -0.00000      -0.00000      -0.00000      -0.00000
     6  C(13)              0.00000       0.00000       0.00000       0.00000
     7  C(13)             -0.00000      -0.00000      -0.00000      -0.00000
     8  C(13)             -0.00000      -0.00000      -0.00000      -0.00000
     9  C(13)              0.00000       0.00000       0.00000       0.00000
    10  C(13)             -0.00000      -0.00000      -0.00000      -0.00000
    11  C(13)             -0.00000      -0.00000      -0.00000      -0.00000
    12  C(13)              0.00000       0.00000       0.00000       0.00000
    13  C(13)              0.00000       0.00000       0.00000       0.00000
    14  O(17)              0.00000      -0.00000      -0.00000      -0.00000
    15  C(13)              0.00000       0.00000       0.00000       0.00000
    16  H(1)               0.00000       0.00000       0.00000       0.00000
    17  H(1)               0.00000       0.00000       0.00000       0.00000
    18  H(1)               0.00000       0.00000       0.00000       0.00000
    19  H(1)               0.00000       0.00000       0.00000       0.00000
    20  H(1)               0.00000       0.00000       0.00000       0.00000
    21  H(1)               0.00000       0.00000       0.00000       0.00000
    22  H(1)               0.00000       0.00000       0.00000       0.00000
    23  H(1)              -0.00000      -0.00000      -0.00000      -0.00000
    24  H(1)               0.00000       0.00000       0.00000       0.00000
    25  H(1)               0.00000       0.00000       0.00000       0.00000
    26  H(1)               0.00000       0.00000       0.00000       0.00000
 --------------------------------------------------------
       Center         ----  Spin Dipole Couplings  ----
                      3XX-RR        3YY-RR        3ZZ-RR
 --------------------------------------------------------
     1   Atom        0.000000     -0.000000     -0.000000
     2   Atom        0.000000     -0.000000     -0.000000
     3   Atom       -0.000000      0.000000      0.000000
     4   Atom        0.000000     -0.000000      0.000000
     5   Atom       -0.000000      0.000000      0.000000
     6   Atom        0.000000     -0.000000     -0.000000
     7   Atom       -0.000000      0.000000     -0.000000
     8   Atom       -0.000000     -0.000000      0.000000
     9   Atom       -0.000000      0.000000     -0.000000
    10   Atom        0.000000     -0.000000      0.000000
    11   Atom       -0.000000     -0.000000      0.000000
    12   Atom        0.000000     -0.000000     -0.000000
    13   Atom       -0.000000      0.000000     -0.000000
    14   Atom       -0.000000     -0.000000      0.000000
    15   Atom       -0.000000      0.000000      0.000000
    16   Atom        0.000000     -0.000000     -0.000000
    17   Atom       -0.000000      0.000000      0.000000
    18   Atom        0.000000      0.000000     -0.000000
    19   Atom        0.000000     -0.000000     -0.000000
    20   Atom        0.000000     -0.000000     -0.000000
    21   Atom        0.000000     -0.000000      0.000000
    22   Atom       -0.000000      0.000000     -0.000000
    23   Atom       -0.000000      0.000000      0.000000
    24   Atom        0.000000     -0.000000      0.000000
    25   Atom       -0.000000      0.000000      0.000000
    26   Atom       -0.000000     -0.000000      0.000000
 --------------------------------------------------------
                        XY            XZ            YZ
 --------------------------------------------------------
     1   Atom        0.000000      0.000000     -0.000000
     2   Atom        0.000000     -0.000000      0.000000
     3   Atom        0.000000     -0.000000     -0.000000
     4   Atom       -0.000000      0.000000     -0.000000
     5   Atom       -0.000000     -0.000000      0.000000
     6   Atom       -0.000000      0.000000     -0.000000
     7   Atom       -0.000000     -0.000000     -0.000000
     8   Atom       -0.000000     -0.000000     -0.000000
     9   Atom       -0.000000      0.000000      0.000000
    10   Atom        0.000000      0.000000     -0.000000
    11   Atom        0.000000      0.000000     -0.000000
    12   Atom        0.000000      0.000000     -0.000000
    13   Atom        0.000000      0.000000      0.000000
    14   Atom       -0.000000     -0.000000      0.000000
    15   Atom        0.000000      0.000000      0.000000
    16   Atom        0.000000     -0.000000     -0.000000
    17   Atom        0.000000     -0.000000      0.000000
    18   Atom       -0.000000      0.000000     -0.000000
    19   Atom       -0.000000      0.000000      0.000000
    20   Atom        0.000000     -0.000000     -0.000000
    21   Atom       -0.000000     -0.000000     -0.000000
    22   Atom        0.000000      0.000000      0.000000
    23   Atom       -0.000000     -0.000000      0.000000
    24   Atom       -0.000000      0.000000     -0.000000
    25   Atom       -0.000000      0.000000     -0.000000
    26   Atom       -0.000000     -0.000000      0.000000
 --------------------------------------------------------


 ---------------------------------------------------------------------------------
              Anisotropic Spin Dipole Couplings in Principal Axis System
 ---------------------------------------------------------------------------------

       Atom             a.u.   MegaHertz   Gauss  10(-4) cm-1        Axes

              Baa    -0.0000    -0.000    -0.000    -0.000 -0.2283  0.3031  0.9252
     1 C(13)  Bbb    -0.0000    -0.000    -0.000    -0.000  0.0927  0.9528 -0.2892
              Bcc     0.0000     0.000     0.000     0.000  0.9692 -0.0197  0.2456
 
              Baa    -0.0000    -0.000    -0.000    -0.000 -0.2381  0.8178 -0.5240
     2 C(13)  Bbb     0.0000     0.000     0.000     0.000 -0.0063  0.5382  0.8428
              Bcc     0.0000     0.000     0.000     0.000  0.9712  0.2040 -0.1229
 
              Baa    -0.0000    -0.000    -0.000    -0.000  0.9772 -0.0714  0.2000
     3 C(13)  Bbb     0.0000     0.000     0.000     0.000 -0.0501  0.8375  0.5441
              Bcc     0.0000     0.000     0.000     0.000 -0.2064 -0.5417  0.8149
 
              Baa    -0.0000    -0.000    -0.000    -0.000  0.5434  0.8384  0.0427
     4 F(19)  Bbb     0.0000     0.000     0.000     0.000 -0.1882  0.0721  0.9795
              Bcc     0.0000     0.000     0.000     0.000  0.8181 -0.5402  0.1970
 
              Baa    -0.0000    -0.000    -0.000    -0.000  0.9168  0.3929  0.0716
     5 C(13)  Bbb     0.0000     0.000     0.000     0.000 -0.3330  0.8511 -0.4060
              Bcc     0.0000     0.000     0.000     0.000 -0.2204  0.3484  0.9111
 
              Baa    -0.0000    -0.000    -0.000    -0.000 -0.1269  0.5759  0.8076
     6 C(13)  Bbb    -0.0000    -0.000    -0.000    -0.000  0.7271  0.6078 -0.3192
              Bcc     0.0000     0.000     0.000     0.000  0.6747 -0.5467  0.4958
 
              Baa    -0.0000    -0.000    -0.000    -0.000  0.9836  0.0380  0.1762
     7 C(13)  Bbb    -0.0000    -0.000    -0.000    -0.000 -0.1801  0.1702  0.9688
              Bcc     0.0000     0.000     0.000     0.000 -0.0068  0.9847 -0.1742
 
              Baa    -0.0000    -0.000    -0.000    -0.000  0.4331  0.8777  0.2051
     8 C(13)  Bbb     0.0000     0.000     0.000     0.000  0.9006 -0.4123 -0.1376
              Bcc     0.0000     0.000     0.000     0.000  0.0362 -0.2443  0.9690
 
              Baa    -0.0000    -0.000    -0.000    -0.000  0.9462  0.1641 -0.2789
     9 C(13)  Bbb    -0.0000    -0.000    -0.000    -0.000  0.2994 -0.1168  0.9470
              Bcc     0.0000     0.000     0.000     0.000 -0.1228  0.9795  0.1596
 
              Baa    -0.0000    -0.000    -0.000    -0.000 -0.0460  0.9745  0.2196
    10 C(13)  Bbb     0.0000     0.000     0.000     0.000  0.9986  0.0503 -0.0141
              Bcc     0.0000     0.000     0.000     0.000  0.0248 -0.2187  0.9755
 
              Baa    -0.0000    -0.000    -0.000    -0.000 -0.3537  0.9010  0.2513
    11 C(13)  Bbb    -0.0000    -0.000    -0.000    -0.000  0.9346  0.3514  0.0553
              Bcc     0.0000     0.000     0.000     0.000  0.0385 -0.2544  0.9663
 
              Baa    -0.0000    -0.000    -0.000    -0.000 -0.1436  0.8674  0.4765
    12 C(13)  Bbb    -0.0000    -0.000    -0.000    -0.000  0.0355 -0.4766  0.8784
              Bcc     0.0000     0.000     0.000     0.000  0.9890  0.1431  0.0377
 
              Baa    -0.0000    -0.000    -0.000    -0.000  0.8525 -0.3429  0.3945
    13 C(13)  Bbb    -0.0000    -0.000    -0.000    -0.000 -0.4497 -0.0967  0.8879
              Bcc     0.0000     0.000     0.000     0.000  0.2664  0.9344  0.2366
 
              Baa    -0.0000     0.000     0.000     0.000  0.9883 -0.0075  0.1524
    14 O(17)  Bbb    -0.0000     0.000     0.000     0.000  0.0288  0.9899 -0.1385
              Bcc     0.0000    -0.000    -0.000    -0.000 -0.1498  0.1412  0.9786
 
              Baa    -0.0000    -0.000    -0.000    -0.000  0.8997 -0.3284 -0.2876
    15 C(13)  Bbb     0.0000     0.000     0.000     0.000  0.2281  0.9154 -0.3318
              Bcc     0.0000     0.000     0.000     0.000  0.3723  0.2329  0.8984
 
              Baa    -0.0000    -0.000    -0.000    -0.000 -0.1861  0.7025  0.6869
    16 H(1)   Bbb    -0.0000    -0.000    -0.000    -0.000  0.5029 -0.5325  0.6808
              Bcc     0.0000     0.000     0.000     0.000  0.8441  0.4721 -0.2542
 
              Baa    -0.0000    -0.000    -0.000    -0.000  0.8217 -0.4983  0.2766
    17 H(1)   Bbb     0.0000     0.000     0.000     0.000  0.0586  0.5567  0.8287
              Bcc     0.0000     0.000     0.000     0.000  0.5669  0.6647 -0.4866
 
              Baa    -0.0000    -0.000    -0.000    -0.000  0.1199  0.6013  0.7900
    18 H(1)   Bbb    -0.0000    -0.000    -0.000    -0.000  0.7972  0.4159 -0.4376
              Bcc     0.0000     0.000     0.000     0.000 -0.5917  0.6822 -0.4295
 
              Baa    -0.0000    -0.000    -0.000    -0.000  0.1654  0.8488 -0.5022
    19 H(1)   Bbb     0.0000     0.000     0.000     0.000 -0.0366  0.5142  0.8569
              Bcc     0.0000     0.000     0.000     0.000  0.9856 -0.1233  0.1161
 
              Baa    -0.0000    -0.000    -0.000    -0.000 -0.2920  0.9521  0.0913
    20 H(1)   Bbb    -0.0000    -0.000    -0.000    -0.000  0.1103 -0.0613  0.9920
              Bcc     0.0000     0.000     0.000     0.000  0.9500  0.2997 -0.0872
 
              Baa    -0.0000    -0.000    -0.000    -0.000  0.1274  0.9573  0.2596
    21 H(1)   Bbb     0.0000     0.000     0.000     0.000  0.9414 -0.0343 -0.3356
              Bcc     0.0000     0.000     0.000     0.000  0.3124 -0.2871  0.9055
 
              Baa    -0.0000    -0.000    -0.000    -0.000  0.9813 -0.0921 -0.1690
    22 H(1)   Bbb    -0.0000    -0.000    -0.000    -0.000  0.1348 -0.2976  0.9451
              Bcc     0.0000     0.000     0.000     0.000  0.1374  0.9502  0.2796
 
              Baa    -0.0000    -0.000    -0.000    -0.000  0.9825  0.1439  0.1180
    23 H(1)   Bbb     0.0000     0.000     0.000     0.000  0.0093 -0.6715  0.7409
              Bcc     0.0000     0.000     0.000     0.000 -0.1859  0.7269  0.6611
 
              Baa    -0.0000    -0.000    -0.000    -0.000 -0.0214  0.9890  0.1464
    24 H(1)   Bbb     0.0000     0.000     0.000     0.000  0.9074  0.0807 -0.4124
              Bcc     0.0000     0.000     0.000     0.000  0.4197 -0.1241  0.8991
 
              Baa    -0.0000    -0.000    -0.000    -0.000  0.7566 -0.1579 -0.6345
    25 H(1)   Bbb     0.0000     0.000     0.000     0.000  0.3578  0.9122  0.1997
              Bcc     0.0000     0.000     0.000     0.000  0.5472 -0.3781  0.7467
 
              Baa    -0.0000    -0.000    -0.000    -0.000 -0.0091  0.9298 -0.3679
    26 H(1)   Bbb    -0.0000    -0.000    -0.000    -0.000  0.9304  0.1426  0.3375
              Bcc     0.0000     0.000     0.000     0.000 -0.3663  0.3392  0.8664
 

 ---------------------------------------------------------------------------------

 No NMR shielding tensors so no spin-rotation constants.
 Leave Link  601 at Fri Jul 24 16:05:25 2020, MaxMem=  4026531840 cpu:               2.6 elap:               0.4
 (Enter /opt/ohpc/pub/libs/gaussian/g16-A.03/sandybridge/g16/l9999.exe)

 Test job not archived.
 1\1\GINC-SKYLAKE052\FOpt\ULC-wPBE\CC-pVDZ\C13H11F1O1\RDU230\24-Jul-202
 0\0\\#P uLC-wPBE/cc-pVDZ iop(3/107=0085300000, 3/108=0085300000) opt\\
 H11 C13 O1 F1\\0,1\C,3.6922528301,0.4457930404,-0.2326107768\C,3.20867
 3911,-0.6634508009,0.4732673777\C,1.8363928868,-0.926733833,0.47001214
 64\F,1.3996623401,-2.0106258293,1.1693041693\C,0.9004518096,-0.1232911
 299,-0.2131513678\C,1.4233235746,0.9896734868,-0.9101552388\C,2.794797
 0043,1.2717527102,-0.9267706299\C,-0.5509128833,-0.4547967536,-0.21445
 37425\C,-0.9849957359,-1.7695342406,-0.4716786685\C,-2.3445909594,-2.1
 105414091,-0.4948791977\C,-3.303956526,-1.1223267754,-0.2478986522\C,-
 2.9078242513,0.1967142399,0.0203225164\C,-1.5420442248,0.5364903132,0.
 0385334712\O,-1.0805095449,1.8004928774,0.3026574879\C,-2.0388983762,2
 .8050768569,0.6178007158\H,4.7702091638,0.6612996963,-0.2388542164\H,3
 .8733800058,-1.3342436493,1.0341890097\H,0.7240804901,1.6396008922,-1.
 4516551911\H,3.1648191097,2.1421652981,-1.4867266433\H,-0.2272337334,-
 2.5407982542,-0.6643286588\H,-2.6485502036,-3.1451201684,-0.7058711122
 \H,-4.3753901867,-1.3696442651,-0.2610604038\H,-3.671083195,0.95986956
 81,0.2173026049\H,-1.4565828631,3.7226676355,0.8173628347\H,-2.6295916
 617,2.541742574,1.5227568396\H,-2.7378237807,2.9920359196,-0.227490673
 8\\Version=EM64L-G16RevA.03\State=1-A\HF=-676.4030778\S2=0.\S2-1=0.\S2
 A=0.\RMSD=5.091e-09\RMSF=9.592e-06\Dipole=-0.3485568,0.7504788,-0.0892
 698\Quadrupole=4.7328007,1.6255718,-6.3583725,-2.1297202,-0.8321637,0.
 7530449\PG=C01 [X(C13H11F1O1)]\\@


 YOU CANNOT THROW TO THE GROUND THE LETTERS OF
 THE GREEK ALPHABET AND PICK UP THE ILIAD.
        - RUFUS CHOATE, 1799-1859
 Job cpu time:       0 days  3 hours 37 minutes  3.3 seconds.
 Elapsed time:       0 days  0 hours 27 minutes 15.8 seconds.
 File lengths (MBytes):  RWF=    140 Int=      0 D2E=      0 Chk=     12 Scr=      8
 Normal termination of Gaussian 16 at Fri Jul 24 16:05:25 2020.
