 Entering Gaussian System, Link 0=g16
 Input=mols_65_7_13_c-cOC-N_opt_0.gjf
 Output=mols_65_7_13_c-cOC-N_opt_0.log
 Initial command:
 /opt/ohpc/pub/libs/gaussian/g16-A.03/sandybridge/g16/l1.exe "/mnt/gpfs2_4m/scratch/rdu230/ondemand/projects/dihedral_energies/7trial/wtuning/mols_65_7_13_c-cOC-N/Gau-133906.inp" -scrdir="/mnt/gpfs2_4m/scratch/rdu230/ondemand/projects/dihedral_energies/7trial/wtuning/mols_65_7_13_c-cOC-N/"
 Entering Link 1 = /opt/ohpc/pub/libs/gaussian/g16-A.03/sandybridge/g16/l1.exe PID=    133908.
  
 Copyright (c) 1988,1990,1992,1993,1995,1998,2003,2009,2016,
            Gaussian, Inc.  All Rights Reserved.
  
 This is part of the Gaussian(R) 16 program.  It is based on
 the Gaussian(R) 09 system (copyright 2009, Gaussian, Inc.),
 the Gaussian(R) 03 system (copyright 2003, Gaussian, Inc.),
 the Gaussian(R) 98 system (copyright 1998, Gaussian, Inc.),
 the Gaussian(R) 94 system (copyright 1995, Gaussian, Inc.),
 the Gaussian 92(TM) system (copyright 1992, Gaussian, Inc.),
 the Gaussian 90(TM) system (copyright 1990, Gaussian, Inc.),
 the Gaussian 88(TM) system (copyright 1988, Gaussian, Inc.),
 the Gaussian 86(TM) system (copyright 1986, Carnegie Mellon
 University), and the Gaussian 82(TM) system (copyright 1983,
 Carnegie Mellon University). Gaussian is a federally registered
 trademark of Gaussian, Inc.
  
 This software contains proprietary and confidential information,
 including trade secrets, belonging to Gaussian, Inc.
  
 This software is provided under written license and may be
 used, copied, transmitted, or stored only in accord with that
 written license.
  
 The following legend is applicable only to US Government
 contracts under FAR:
  
                    RESTRICTED RIGHTS LEGEND
  
 Use, reproduction and disclosure by the US Government is
 subject to restrictions as set forth in subparagraphs (a)
 and (c) of the Commercial Computer Software - Restricted
 Rights clause in FAR 52.227-19.
  
 Gaussian, Inc.
 340 Quinnipiac St., Bldg. 40, Wallingford CT 06492
  
  
 ---------------------------------------------------------------
 Warning -- This program may not be used in any manner that
 competes with the business of Gaussian, Inc. or will provide
 assistance to any competitor of Gaussian, Inc.  The licensee
 of this program is prohibited from giving any competitor of
 Gaussian, Inc. access to this program.  By using this program,
 the user acknowledges that Gaussian, Inc. is engaged in the
 business of creating and licensing software in the field of
 computational chemistry and represents and warrants to the
 licensee that it is not a competitor of Gaussian, Inc. and that
 it will not use this program in any manner prohibited above.
 ---------------------------------------------------------------
  

 Cite this work as:
 Gaussian 16, Revision A.03,
 M. J. Frisch, G. W. Trucks, H. B. Schlegel, G. E. Scuseria, 
 M. A. Robb, J. R. Cheeseman, G. Scalmani, V. Barone, 
 G. A. Petersson, H. Nakatsuji, X. Li, M. Caricato, A. V. Marenich, 
 J. Bloino, B. G. Janesko, R. Gomperts, B. Mennucci, H. P. Hratchian, 
 J. V. Ortiz, A. F. Izmaylov, J. L. Sonnenberg, D. Williams-Young, 
 F. Ding, F. Lipparini, F. Egidi, J. Goings, B. Peng, A. Petrone, 
 T. Henderson, D. Ranasinghe, V. G. Zakrzewski, J. Gao, N. Rega, 
 G. Zheng, W. Liang, M. Hada, M. Ehara, K. Toyota, R. Fukuda, 
 J. Hasegawa, M. Ishida, T. Nakajima, Y. Honda, O. Kitao, H. Nakai, 
 T. Vreven, K. Throssell, J. A. Montgomery, Jr., J. E. Peralta, 
 F. Ogliaro, M. J. Bearpark, J. J. Heyd, E. N. Brothers, K. N. Kudin, 
 V. N. Staroverov, T. A. Keith, R. Kobayashi, J. Normand, 
 K. Raghavachari, A. P. Rendell, J. C. Burant, S. S. Iyengar, 
 J. Tomasi, M. Cossi, J. M. Millam, M. Klene, C. Adamo, R. Cammi, 
 J. W. Ochterski, R. L. Martin, K. Morokuma, O. Farkas, 
 J. B. Foresman, and D. J. Fox, Gaussian, Inc., Wallingford CT, 2016.
 
 ******************************************
 Gaussian 16:  EM64L-G16RevA.03 25-Dec-2016
                24-Jul-2020 
 ******************************************
 %mem=30GB
 %nproc=8
 Will use up to    8 processors via shared memory.
 ---------------------------------------------------------------
 #P uLC-wPBE/cc-pVDZ iop(3/107=0439700000, 3/108=0439700000) opt
 ---------------------------------------------------------------
 1/18=20,19=15,26=3,38=1/1,3;
 2/9=110,12=2,17=6,18=5,40=1/2;
 3/5=16,11=2,25=1,30=1,71=1,74=-41,107=439700000,108=439700000,116=2/1,2,3;
 4//1;
 5/5=2,38=5/2;
 6/7=2,8=2,9=2,10=2,28=1/1;
 7//1,2,3,16;
 1/18=20,19=15,26=3/3(2);
 2/9=110/2;
 99//99;
 2/9=110/2;
 3/5=16,11=2,25=1,30=1,71=1,74=-41,107=439700000,108=439700000,116=2/1,2,3;
 4/5=5,16=3,69=1/1;
 5/5=2,38=5/2;
 7//1,2,3,16;
 1/18=20,19=15,26=3/3(-5);
 2/9=110/2;
 6/7=2,8=2,9=2,10=2,19=2,28=1/1;
 99/9=1/99;
 Leave Link    1 at Fri Jul 24 04:34:51 2020, MaxMem=  4026531840 cpu:               2.1 elap:               0.3
 (Enter /opt/ohpc/pub/libs/gaussian/g16-A.03/sandybridge/g16/l101.exe)
 ----------------
 H51 C70 S7 N7 O7
 ----------------
 Symbolic Z-matrix:
 Charge =  0 Multiplicity = 1
 C                     25.45303   5.61155  -0.65221 
 C                     24.37756   6.0916    0.00237 
 C                     23.32473   5.36461   0.41241 
 C                     23.28547   4.01146   0.095 
 C                     24.45331   3.41775  -0.52338 
 O                     24.40307   2.05389  -0.82214 
 C                     25.19468   1.36874   0.11967 
 C                     25.44905   4.1835   -0.90501 
 C                     22.11847   3.11375   0.53215 
 N                     22.17379   2.23314   1.51075 
 C                     20.86693   1.6658    1.59724 
 C                     19.95137   2.14233   0.66465 
 S                     20.62382   3.29491  -0.35889 
 C                     18.57463   1.7252    0.58612 
 C                     17.57404   2.6851    0.27008 
 C                     16.22396   2.24496   0.22192 
 C                     15.80703   0.9165    0.43095 
 C                     16.8306  -0.048     0.64583 
 O                     16.47808  -1.29401   0.86243 
 C                     17.42606  -2.26854   0.88644 
 C                     18.16692   0.39974   0.79174 
 C                     14.38215   0.66499   0.29232 
 N                     13.46146   1.62189   0.30705 
 C                     12.17975   1.12544   0.17637 
 C                     12.08417  -0.16747   0.063 
 S                     13.64444  -0.86271   0.08626 
 C                     10.86713  -1.02753  -0.08811 
 C                     10.0074  -0.80172  -1.16949 
 C                     8.81389  -1.55225  -1.27985 
 C                     8.43852  -2.49484  -0.22004 
 C                     9.31457  -2.67185   0.79064 
 O                     9.00082  -3.54352   1.88767 
 C                     9.73978  -4.75938   1.75392 
 C                     10.52264  -1.93482   0.99463 
 C                     7.17525  -3.06272  -0.30049 
 N                     6.85229  -4.29447  -0.66311 
 C                     5.56598  -4.54956  -0.63692 
 C                     4.68322  -3.49714  -0.23716 
 S                     5.79667  -2.15737   0.13085 
 C                     3.27143  -3.41653  -0.09157 
 C                     2.53527  -4.45754   0.46304 
 C                     1.16803  -4.32549   0.62183 
 C                     0.45233  -3.19074   0.20603 
 C                     1.20294  -2.10355  -0.40214 
 O                     0.55233  -0.92123  -0.6984 
 C                     1.13031   0.03398  -1.52546 
 C                     2.62399  -2.17083  -0.52388 
 C                    -1.00467  -3.04856   0.40642 
 N                    -1.58355  -3.52833   1.43484 
 C                    -2.96073  -3.33338   1.32535 
 C                    -3.40066  -2.78069   0.17427 
 S                    -2.0881   -2.54922  -0.82716 
 C                    -4.72712  -2.37393  -0.23876 
 C                    -4.95005  -1.21386  -0.99047 
 C                    -6.25898  -0.82355  -1.45133 
 C                    -7.38174  -1.60773  -1.12313 
 C                    -7.14838  -2.77868  -0.37145 
 O                    -8.28658  -3.46035  -0.07844 
 C                    -8.1964   -4.63051   0.83706 
 C                    -5.90938  -3.08112   0.08692 
 C                    -8.68147  -1.14769  -1.64547 
 N                    -8.8124   -0.78842  -2.84352 
 C                    -10.17768  -0.34333  -3.01854 
 C                    -10.91055  -0.3081   -1.92461 
 S                    -9.99362  -0.90396  -0.61082 
 C                    -12.35164   0.11958  -1.7104 
 C                    -12.77312   1.28894  -2.46211 
 C                    -14.12663   1.6902   -2.35465 
 C                    -15.01027   1.02163  -1.4575 
 C                    -14.57455  -0.09364  -0.7544 
 O                    -15.53078  -0.85241  -0.07605 
 C                    -15.07721  -1.74879   0.87309 
 C                    -13.21886  -0.55489  -0.86385 
 C                    -16.40561   1.51379  -1.53774 
 N                    -17.07902   1.9045   -2.5853 
 C                    -18.33255   2.1844   -2.26478 
 C                    -18.71049   2.20225  -0.96479 
 S                    -17.32225   1.70839  -0.07659 
 C                    -20.00394   2.51429  -0.23722 
 C                    -20.86661   3.32415  -0.93557 
 C                    -22.13607   3.54506  -0.32784 
 C                    -22.50682   3.03113   0.9418 
 C                    -21.56302   2.19644   1.52039 
 O                    -21.91643   1.68675   2.82642 
 C                    -21.19653   0.56428   3.32087 
 C                    -20.34944   1.89114   1.00058 
 C                    -23.84839   3.33852   1.37943 
 N                    -24.44196   4.45735   1.33182 
 C                    -25.7506   4.42154   1.81775 
 C                    -26.15618   3.20141   2.20175 
 S                    -24.90721   1.99674   1.91899 
 H                     26.28093   6.21479  -0.94749 
 H                     24.40635   7.20043   0.22912 
 H                     22.44159   5.77322   0.92433 
 H                     24.64528   1.39621   1.11231 
 H                     25.18226   0.25506  -0.12758 
 H                     26.20332   1.68365   0.1429 
 H                     26.32399   3.76548  -1.5216 
 H                     20.71835   0.96095   2.33542 
 H                     17.72469   3.74589   0.16674 
 H                     15.45798   3.01753  -0.01603 
 H                     18.04382  -2.16196   1.83356 
 H                     18.09246  -2.33476   0.01823 
 H                     16.96308  -3.31385   0.92453 
 H                     18.93558  -0.30107   1.00636 
 H                     11.33033   1.85525   0.23445 
 H                     10.25769  -0.09572  -1.88551 
 H                     8.13122  -1.39232  -2.10453 
 H                     9.24677  -5.53344   2.39123 
 H                     9.69581  -5.11904   0.69328 
 H                     10.73702  -4.56514   2.04821 
 H                     11.10904  -2.10714   1.79214 
 H                     5.11828  -5.51236  -0.9939 
 H                     3.06044  -5.36399   0.76481 
 H                     0.55668  -5.09878   1.03566 
 H                     1.54458  -0.41579  -2.43869 
 H                     0.48704   0.82089  -1.7331 
 H                     2.03646   0.50125  -1.01202 
 H                     3.18602  -1.43321  -0.90314 
 H                    -3.564    -3.55973   2.20297 
 H                    -4.11687  -0.52724  -1.21193 
 H                    -6.39473   0.09775  -2.04224 
 H                    -7.79463  -4.26832   1.75021 
 H                    -7.54518  -5.40283   0.42569 
 H                    -9.10436  -5.05013   0.96729 
 H                    -5.74605  -3.99524   0.65175 
 H                    -10.43042  -0.01716  -4.02504 
 H                    -12.12388   1.82668  -3.07764 
 H                    -14.46112   2.53047  -2.86426 
 H                    -14.32949  -1.31348   1.53943 
 H                    -15.83541  -2.06296   1.52122 
 H                    -14.63707  -2.65897   0.43847 
 H                    -12.92116  -1.46587  -0.43268 
 H                    -19.06091   2.50778  -3.05573 
 H                    -20.6451   3.8165   -1.8026 
 H                    -22.79522   4.26802  -0.83228 
 H                    -20.24321   0.89537   3.56388 
 H                    -21.22042  -0.25897   2.65631 
 H                    -21.71809   0.27929   4.18352 
 H                    -19.59074   1.26541   1.50085 
 H                    -26.32438   5.29101   1.88947 
 H                    -27.11513   2.89438   2.69814 
 
 ITRead=  0  0  0  0  0  0  0  0  0  0  0  0  0  0  0  0  0  0  0  0
 ITRead=  0  0  0  0  0  0  0  0  0  0  0  0  0  0  0  0  0  0  0  0
 ITRead=  0  0  0  0  0  0  0  0  0  0  0  0  0  0  0  0  0  0  0  0
 ITRead=  0  0  0  0  0  0  0  0  0  0  0  0  0  0  0  0  0  0  0  0
 ITRead=  0  0  0  0  0  0  0  0  0  0  0  0  0  0  0  0  0  0  0  0
 ITRead=  0  0  0  0  0  0  0  0  0  0  0  0  0  0  0  0  0  0  0  0
 ITRead=  0  0  0  0  0  0  0  0  0  0  0  0  0  0  0  0  0  0  0  0
 ITRead=  0  0
 MicOpt= -1 -1 -1 -1 -1 -1 -1 -1 -1 -1 -1 -1 -1 -1 -1 -1 -1 -1 -1 -1
 MicOpt= -1 -1 -1 -1 -1 -1 -1 -1 -1 -1 -1 -1 -1 -1 -1 -1 -1 -1 -1 -1
 MicOpt= -1 -1 -1 -1 -1 -1 -1 -1 -1 -1 -1 -1 -1 -1 -1 -1 -1 -1 -1 -1
 MicOpt= -1 -1 -1 -1 -1 -1 -1 -1 -1 -1 -1 -1 -1 -1 -1 -1 -1 -1 -1 -1
 MicOpt= -1 -1 -1 -1 -1 -1 -1 -1 -1 -1 -1 -1 -1 -1 -1 -1 -1 -1 -1 -1
 MicOpt= -1 -1 -1 -1 -1 -1 -1 -1 -1 -1 -1 -1 -1 -1 -1 -1 -1 -1 -1 -1
 MicOpt= -1 -1 -1 -1 -1 -1 -1 -1 -1 -1 -1 -1 -1 -1 -1 -1 -1 -1 -1 -1
 MicOpt= -1 -1
 NAtoms=    142 NQM=      142 NQMF=       0 NMMI=      0 NMMIF=      0
                NMic=       0 NMicF=      0.
                    Isotopes and Nuclear Properties:
 (Nuclear quadrupole moments (NQMom) in fm**2, nuclear magnetic moments (NMagM)
  in nuclear magnetons)

  Atom         1           2           3           4           5           6           7           8           9          10
 IAtWgt=          12          12          12          12          12          16          12          12          12          14
 AtmWgt=  12.0000000  12.0000000  12.0000000  12.0000000  12.0000000  15.9949146  12.0000000  12.0000000  12.0000000  14.0030740
 NucSpn=           0           0           0           0           0           0           0           0           0           2
 AtZEff=  -0.0000000  -0.0000000  -0.0000000  -0.0000000  -0.0000000  -0.0000000  -0.0000000  -0.0000000  -0.0000000  -0.0000000
 NQMom=    0.0000000   0.0000000   0.0000000   0.0000000   0.0000000   0.0000000   0.0000000   0.0000000   0.0000000   2.0440000
 NMagM=    0.0000000   0.0000000   0.0000000   0.0000000   0.0000000   0.0000000   0.0000000   0.0000000   0.0000000   0.4037610
 AtZNuc=   6.0000000   6.0000000   6.0000000   6.0000000   6.0000000   8.0000000   6.0000000   6.0000000   6.0000000   7.0000000

  Atom        11          12          13          14          15          16          17          18          19          20
 IAtWgt=          12          12          32          12          12          12          12          12          16          12
 AtmWgt=  12.0000000  12.0000000  31.9720718  12.0000000  12.0000000  12.0000000  12.0000000  12.0000000  15.9949146  12.0000000
 NucSpn=           0           0           0           0           0           0           0           0           0           0
 AtZEff=  -0.0000000  -0.0000000  -0.0000000  -0.0000000  -0.0000000  -0.0000000  -0.0000000  -0.0000000  -0.0000000  -0.0000000
 NQMom=    0.0000000   0.0000000   0.0000000   0.0000000   0.0000000   0.0000000   0.0000000   0.0000000   0.0000000   0.0000000
 NMagM=    0.0000000   0.0000000   0.0000000   0.0000000   0.0000000   0.0000000   0.0000000   0.0000000   0.0000000   0.0000000
 AtZNuc=   6.0000000   6.0000000  16.0000000   6.0000000   6.0000000   6.0000000   6.0000000   6.0000000   8.0000000   6.0000000

  Atom        21          22          23          24          25          26          27          28          29          30
 IAtWgt=          12          12          14          12          12          32          12          12          12          12
 AtmWgt=  12.0000000  12.0000000  14.0030740  12.0000000  12.0000000  31.9720718  12.0000000  12.0000000  12.0000000  12.0000000
 NucSpn=           0           0           2           0           0           0           0           0           0           0
 AtZEff=  -0.0000000  -0.0000000  -0.0000000  -0.0000000  -0.0000000  -0.0000000  -0.0000000  -0.0000000  -0.0000000  -0.0000000
 NQMom=    0.0000000   0.0000000   2.0440000   0.0000000   0.0000000   0.0000000   0.0000000   0.0000000   0.0000000   0.0000000
 NMagM=    0.0000000   0.0000000   0.4037610   0.0000000   0.0000000   0.0000000   0.0000000   0.0000000   0.0000000   0.0000000
 AtZNuc=   6.0000000   6.0000000   7.0000000   6.0000000   6.0000000  16.0000000   6.0000000   6.0000000   6.0000000   6.0000000

  Atom        31          32          33          34          35          36          37          38          39          40
 IAtWgt=          12          16          12          12          12          14          12          12          32          12
 AtmWgt=  12.0000000  15.9949146  12.0000000  12.0000000  12.0000000  14.0030740  12.0000000  12.0000000  31.9720718  12.0000000
 NucSpn=           0           0           0           0           0           2           0           0           0           0
 AtZEff=  -0.0000000  -0.0000000  -0.0000000  -0.0000000  -0.0000000  -0.0000000  -0.0000000  -0.0000000  -0.0000000  -0.0000000
 NQMom=    0.0000000   0.0000000   0.0000000   0.0000000   0.0000000   2.0440000   0.0000000   0.0000000   0.0000000   0.0000000
 NMagM=    0.0000000   0.0000000   0.0000000   0.0000000   0.0000000   0.4037610   0.0000000   0.0000000   0.0000000   0.0000000
 AtZNuc=   6.0000000   8.0000000   6.0000000   6.0000000   6.0000000   7.0000000   6.0000000   6.0000000  16.0000000   6.0000000

  Atom        41          42          43          44          45          46          47          48          49          50
 IAtWgt=          12          12          12          12          16          12          12          12          14          12
 AtmWgt=  12.0000000  12.0000000  12.0000000  12.0000000  15.9949146  12.0000000  12.0000000  12.0000000  14.0030740  12.0000000
 NucSpn=           0           0           0           0           0           0           0           0           2           0
 AtZEff=  -0.0000000  -0.0000000  -0.0000000  -0.0000000  -0.0000000  -0.0000000  -0.0000000  -0.0000000  -0.0000000  -0.0000000
 NQMom=    0.0000000   0.0000000   0.0000000   0.0000000   0.0000000   0.0000000   0.0000000   0.0000000   2.0440000   0.0000000
 NMagM=    0.0000000   0.0000000   0.0000000   0.0000000   0.0000000   0.0000000   0.0000000   0.0000000   0.4037610   0.0000000
 AtZNuc=   6.0000000   6.0000000   6.0000000   6.0000000   8.0000000   6.0000000   6.0000000   6.0000000   7.0000000   6.0000000

  Atom        51          52          53          54          55          56          57          58          59          60
 IAtWgt=          12          32          12          12          12          12          12          16          12          12
 AtmWgt=  12.0000000  31.9720718  12.0000000  12.0000000  12.0000000  12.0000000  12.0000000  15.9949146  12.0000000  12.0000000
 NucSpn=           0           0           0           0           0           0           0           0           0           0
 AtZEff=  -0.0000000  -0.0000000  -0.0000000  -0.0000000  -0.0000000  -0.0000000  -0.0000000  -0.0000000  -0.0000000  -0.0000000
 NQMom=    0.0000000   0.0000000   0.0000000   0.0000000   0.0000000   0.0000000   0.0000000   0.0000000   0.0000000   0.0000000
 NMagM=    0.0000000   0.0000000   0.0000000   0.0000000   0.0000000   0.0000000   0.0000000   0.0000000   0.0000000   0.0000000
 AtZNuc=   6.0000000  16.0000000   6.0000000   6.0000000   6.0000000   6.0000000   6.0000000   8.0000000   6.0000000   6.0000000

  Atom        61          62          63          64          65          66          67          68          69          70
 IAtWgt=          12          14          12          12          32          12          12          12          12          12
 AtmWgt=  12.0000000  14.0030740  12.0000000  12.0000000  31.9720718  12.0000000  12.0000000  12.0000000  12.0000000  12.0000000
 NucSpn=           0           2           0           0           0           0           0           0           0           0
 AtZEff=  -0.0000000  -0.0000000  -0.0000000  -0.0000000  -0.0000000  -0.0000000  -0.0000000  -0.0000000  -0.0000000  -0.0000000
 NQMom=    0.0000000   2.0440000   0.0000000   0.0000000   0.0000000   0.0000000   0.0000000   0.0000000   0.0000000   0.0000000
 NMagM=    0.0000000   0.4037610   0.0000000   0.0000000   0.0000000   0.0000000   0.0000000   0.0000000   0.0000000   0.0000000
 AtZNuc=   6.0000000   7.0000000   6.0000000   6.0000000  16.0000000   6.0000000   6.0000000   6.0000000   6.0000000   6.0000000

  Atom        71          72          73          74          75          76          77          78          79          80
 IAtWgt=          16          12          12          12          14          12          12          32          12          12
 AtmWgt=  15.9949146  12.0000000  12.0000000  12.0000000  14.0030740  12.0000000  12.0000000  31.9720718  12.0000000  12.0000000
 NucSpn=           0           0           0           0           2           0           0           0           0           0
 AtZEff=  -0.0000000  -0.0000000  -0.0000000  -0.0000000  -0.0000000  -0.0000000  -0.0000000  -0.0000000  -0.0000000  -0.0000000
 NQMom=    0.0000000   0.0000000   0.0000000   0.0000000   2.0440000   0.0000000   0.0000000   0.0000000   0.0000000   0.0000000
 NMagM=    0.0000000   0.0000000   0.0000000   0.0000000   0.4037610   0.0000000   0.0000000   0.0000000   0.0000000   0.0000000
 AtZNuc=   8.0000000   6.0000000   6.0000000   6.0000000   7.0000000   6.0000000   6.0000000  16.0000000   6.0000000   6.0000000

  Atom        81          82          83          84          85          86          87          88          89          90
 IAtWgt=          12          12          12          16          12          12          12          14          12          12
 AtmWgt=  12.0000000  12.0000000  12.0000000  15.9949146  12.0000000  12.0000000  12.0000000  14.0030740  12.0000000  12.0000000
 NucSpn=           0           0           0           0           0           0           0           2           0           0
 AtZEff=  -0.0000000  -0.0000000  -0.0000000  -0.0000000  -0.0000000  -0.0000000  -0.0000000  -0.0000000  -0.0000000  -0.0000000
 NQMom=    0.0000000   0.0000000   0.0000000   0.0000000   0.0000000   0.0000000   0.0000000   2.0440000   0.0000000   0.0000000
 NMagM=    0.0000000   0.0000000   0.0000000   0.0000000   0.0000000   0.0000000   0.0000000   0.4037610   0.0000000   0.0000000
 AtZNuc=   6.0000000   6.0000000   6.0000000   8.0000000   6.0000000   6.0000000   6.0000000   7.0000000   6.0000000   6.0000000

  Atom        91          92          93          94          95          96          97          98          99         100
 IAtWgt=          32           1           1           1           1           1           1           1           1           1
 AtmWgt=  31.9720718   1.0078250   1.0078250   1.0078250   1.0078250   1.0078250   1.0078250   1.0078250   1.0078250   1.0078250
 NucSpn=           0           1           1           1           1           1           1           1           1           1
 AtZEff=  -0.0000000  -0.0000000  -0.0000000  -0.0000000  -0.0000000  -0.0000000  -0.0000000  -0.0000000  -0.0000000  -0.0000000
 NQMom=    0.0000000   0.0000000   0.0000000   0.0000000   0.0000000   0.0000000   0.0000000   0.0000000   0.0000000   0.0000000
 NMagM=    0.0000000   2.7928460   2.7928460   2.7928460   2.7928460   2.7928460   2.7928460   2.7928460   2.7928460   2.7928460
 AtZNuc=  16.0000000   1.0000000   1.0000000   1.0000000   1.0000000   1.0000000   1.0000000   1.0000000   1.0000000   1.0000000

  Atom       101         102         103         104         105         106         107         108         109         110
 IAtWgt=           1           1           1           1           1           1           1           1           1           1
 AtmWgt=   1.0078250   1.0078250   1.0078250   1.0078250   1.0078250   1.0078250   1.0078250   1.0078250   1.0078250   1.0078250
 NucSpn=           1           1           1           1           1           1           1           1           1           1
 AtZEff=  -0.0000000  -0.0000000  -0.0000000  -0.0000000  -0.0000000  -0.0000000  -0.0000000  -0.0000000  -0.0000000  -0.0000000
 NQMom=    0.0000000   0.0000000   0.0000000   0.0000000   0.0000000   0.0000000   0.0000000   0.0000000   0.0000000   0.0000000
 NMagM=    2.7928460   2.7928460   2.7928460   2.7928460   2.7928460   2.7928460   2.7928460   2.7928460   2.7928460   2.7928460
 AtZNuc=   1.0000000   1.0000000   1.0000000   1.0000000   1.0000000   1.0000000   1.0000000   1.0000000   1.0000000   1.0000000

  Atom       111         112         113         114         115         116         117         118         119         120
 IAtWgt=           1           1           1           1           1           1           1           1           1           1
 AtmWgt=   1.0078250   1.0078250   1.0078250   1.0078250   1.0078250   1.0078250   1.0078250   1.0078250   1.0078250   1.0078250
 NucSpn=           1           1           1           1           1           1           1           1           1           1
 AtZEff=  -0.0000000  -0.0000000  -0.0000000  -0.0000000  -0.0000000  -0.0000000  -0.0000000  -0.0000000  -0.0000000  -0.0000000
 NQMom=    0.0000000   0.0000000   0.0000000   0.0000000   0.0000000   0.0000000   0.0000000   0.0000000   0.0000000   0.0000000
 NMagM=    2.7928460   2.7928460   2.7928460   2.7928460   2.7928460   2.7928460   2.7928460   2.7928460   2.7928460   2.7928460
 AtZNuc=   1.0000000   1.0000000   1.0000000   1.0000000   1.0000000   1.0000000   1.0000000   1.0000000   1.0000000   1.0000000

  Atom       121         122         123         124         125         126         127         128         129         130
 IAtWgt=           1           1           1           1           1           1           1           1           1           1
 AtmWgt=   1.0078250   1.0078250   1.0078250   1.0078250   1.0078250   1.0078250   1.0078250   1.0078250   1.0078250   1.0078250
 NucSpn=           1           1           1           1           1           1           1           1           1           1
 AtZEff=  -0.0000000  -0.0000000  -0.0000000  -0.0000000  -0.0000000  -0.0000000  -0.0000000  -0.0000000  -0.0000000  -0.0000000
 NQMom=    0.0000000   0.0000000   0.0000000   0.0000000   0.0000000   0.0000000   0.0000000   0.0000000   0.0000000   0.0000000
 NMagM=    2.7928460   2.7928460   2.7928460   2.7928460   2.7928460   2.7928460   2.7928460   2.7928460   2.7928460   2.7928460
 AtZNuc=   1.0000000   1.0000000   1.0000000   1.0000000   1.0000000   1.0000000   1.0000000   1.0000000   1.0000000   1.0000000

  Atom       131         132         133         134         135         136         137         138         139         140
 IAtWgt=           1           1           1           1           1           1           1           1           1           1
 AtmWgt=   1.0078250   1.0078250   1.0078250   1.0078250   1.0078250   1.0078250   1.0078250   1.0078250   1.0078250   1.0078250
 NucSpn=           1           1           1           1           1           1           1           1           1           1
 AtZEff=  -0.0000000  -0.0000000  -0.0000000  -0.0000000  -0.0000000  -0.0000000  -0.0000000  -0.0000000  -0.0000000  -0.0000000
 NQMom=    0.0000000   0.0000000   0.0000000   0.0000000   0.0000000   0.0000000   0.0000000   0.0000000   0.0000000   0.0000000
 NMagM=    2.7928460   2.7928460   2.7928460   2.7928460   2.7928460   2.7928460   2.7928460   2.7928460   2.7928460   2.7928460
 AtZNuc=   1.0000000   1.0000000   1.0000000   1.0000000   1.0000000   1.0000000   1.0000000   1.0000000   1.0000000   1.0000000

  Atom       141         142
 IAtWgt=           1           1
 AtmWgt=   1.0078250   1.0078250
 NucSpn=           1           1
 AtZEff=  -0.0000000  -0.0000000
 NQMom=    0.0000000   0.0000000
 NMagM=    2.7928460   2.7928460
 AtZNuc=   1.0000000   1.0000000
 Leave Link  101 at Fri Jul 24 04:34:52 2020, MaxMem=  4026531840 cpu:               2.0 elap:               0.5
 (Enter /opt/ohpc/pub/libs/gaussian/g16-A.03/sandybridge/g16/l103.exe)

 GradGradGradGradGradGradGradGradGradGradGradGradGradGradGradGradGradGrad
 Berny optimization.
 Initialization pass.
                           ----------------------------
                           !    Initial Parameters    !
                           ! (Angstroms and Degrees)  !
 --------------------------                            --------------------------
 ! Name  Definition              Value          Derivative Info.                !
 --------------------------------------------------------------------------------
 ! R1    R(1,2)                  1.3474         estimate D2E/DX2                !
 ! R2    R(1,8)                  1.4503         estimate D2E/DX2                !
 ! R3    R(1,92)                 1.0661         estimate D2E/DX2                !
 ! R4    R(2,3)                  1.3435         estimate D2E/DX2                !
 ! R5    R(2,93)                 1.1321         estimate D2E/DX2                !
 ! R6    R(3,4)                  1.3904         estimate D2E/DX2                !
 ! R7    R(3,94)                 1.0995         estimate D2E/DX2                !
 ! R8    R(4,5)                  1.4487         estimate D2E/DX2                !
 ! R9    R(4,9)                  1.5359         estimate D2E/DX2                !
 ! R10   R(5,6)                  1.3971         estimate D2E/DX2                !
 ! R11   R(5,8)                  1.3128         estimate D2E/DX2                !
 ! R12   R(6,7)                  1.4082         estimate D2E/DX2                !
 ! R13   R(7,95)                 1.1349         estimate D2E/DX2                !
 ! R14   R(7,96)                 1.1409         estimate D2E/DX2                !
 ! R15   R(7,97)                 1.0569         estimate D2E/DX2                !
 ! R16   R(8,98)                 1.1491         estimate D2E/DX2                !
 ! R17   R(9,10)                 1.3176         estimate D2E/DX2                !
 ! R18   R(9,13)                 1.7495         estimate D2E/DX2                !
 ! R19   R(10,11)                1.4273         estimate D2E/DX2                !
 ! R20   R(11,12)                1.3911         estimate D2E/DX2                !
 ! R21   R(11,99)                1.0314         estimate D2E/DX2                !
 ! R22   R(12,13)                1.6817         estimate D2E/DX2                !
 ! R23   R(12,14)                1.4407         estimate D2E/DX2                !
 ! R24   R(14,15)                1.4221         estimate D2E/DX2                !
 ! R25   R(14,21)                1.4019         estimate D2E/DX2                !
 ! R26   R(15,16)                1.4208         estimate D2E/DX2                !
 ! R27   R(15,100)               1.0764         estimate D2E/DX2                !
 ! R28   R(16,17)                1.408          estimate D2E/DX2                !
 ! R29   R(16,101)               1.1136         estimate D2E/DX2                !
 ! R30   R(17,18)                1.4227         estimate D2E/DX2                !
 ! R31   R(17,22)                1.4535         estimate D2E/DX2                !
 ! R32   R(18,19)                1.3129         estimate D2E/DX2                !
 ! R33   R(18,21)                1.4169         estimate D2E/DX2                !
 ! R34   R(19,20)                1.3598         estimate D2E/DX2                !
 ! R35   R(20,102)               1.1358         estimate D2E/DX2                !
 ! R36   R(20,103)               1.0965         estimate D2E/DX2                !
 ! R37   R(20,104)               1.1439         estimate D2E/DX2                !
 ! R38   R(21,105)               1.0621         estimate D2E/DX2                !
 ! R39   R(22,23)                1.328          estimate D2E/DX2                !
 ! R40   R(22,26)                1.709          estimate D2E/DX2                !
 ! R41   R(23,24)                1.3807         estimate D2E/DX2                !
 ! R42   R(24,25)                1.3014         estimate D2E/DX2                !
 ! R43   R(24,106)               1.1214         estimate D2E/DX2                !
 ! R44   R(25,26)                1.7083         estimate D2E/DX2                !
 ! R45   R(25,27)                1.4979         estimate D2E/DX2                !
 ! R46   R(27,28)                1.3998         estimate D2E/DX2                !
 ! R47   R(27,34)                1.454          estimate D2E/DX2                !
 ! R48   R(28,29)                1.4142         estimate D2E/DX2                !
 ! R49   R(28,107)               1.0362         estimate D2E/DX2                !
 ! R50   R(29,30)                1.4672         estimate D2E/DX2                !
 ! R51   R(29,108)               1.0825         estimate D2E/DX2                !
 ! R52   R(30,31)                1.3492         estimate D2E/DX2                !
 ! R53   R(30,35)                1.3874         estimate D2E/DX2                !
 ! R54   R(31,32)                1.4359         estimate D2E/DX2                !
 ! R55   R(31,34)                1.4298         estimate D2E/DX2                !
 ! R56   R(32,33)                1.4291         estimate D2E/DX2                !
 ! R57   R(33,109)               1.1173         estimate D2E/DX2                !
 ! R58   R(33,110)               1.1208         estimate D2E/DX2                !
 ! R59   R(33,111)               1.0577         estimate D2E/DX2                !
 ! R60   R(34,112)               1.0048         estimate D2E/DX2                !
 ! R61   R(35,36)                1.324          estimate D2E/DX2                !
 ! R62   R(35,39)                1.7048         estimate D2E/DX2                !
 ! R63   R(36,37)                1.3116         estimate D2E/DX2                !
 ! R64   R(37,38)                1.4306         estimate D2E/DX2                !
 ! R65   R(37,113)               1.1202         estimate D2E/DX2                !
 ! R66   R(38,39)                1.7805         estimate D2E/DX2                !
 ! R67   R(38,40)                1.4216         estimate D2E/DX2                !
 ! R68   R(40,41)                1.3904         estimate D2E/DX2                !
 ! R69   R(40,47)                1.469          estimate D2E/DX2                !
 ! R70   R(41,42)                1.3828         estimate D2E/DX2                !
 ! R71   R(41,114)               1.0902         estimate D2E/DX2                !
 ! R72   R(42,43)                1.4046         estimate D2E/DX2                !
 ! R73   R(42,115)               1.0691         estimate D2E/DX2                !
 ! R74   R(43,44)                1.4544         estimate D2E/DX2                !
 ! R75   R(43,48)                1.4776         estimate D2E/DX2                !
 ! R76   R(44,45)                1.3816         estimate D2E/DX2                !
 ! R77   R(44,47)                1.4278         estimate D2E/DX2                !
 ! R78   R(45,46)                1.3894         estimate D2E/DX2                !
 ! R79   R(46,116)               1.099          estimate D2E/DX2                !
 ! R80   R(46,117)               1.0374         estimate D2E/DX2                !
 ! R81   R(46,118)               1.1415         estimate D2E/DX2                !
 ! R82   R(47,119)               1.0019         estimate D2E/DX2                !
 ! R83   R(48,49)                1.2739         estimate D2E/DX2                !
 ! R84   R(48,52)                1.7161         estimate D2E/DX2                !
 ! R85   R(49,50)                1.3952         estimate D2E/DX2                !
 ! R86   R(50,51)                1.3506         estimate D2E/DX2                !
 ! R87   R(50,120)               1.0888         estimate D2E/DX2                !
 ! R88   R(51,52)                1.6671         estimate D2E/DX2                !
 ! R89   R(51,53)                1.4476         estimate D2E/DX2                !
 ! R90   R(53,54)                1.4002         estimate D2E/DX2                !
 ! R91   R(53,60)                1.4156         estimate D2E/DX2                !
 ! R92   R(54,55)                1.4415         estimate D2E/DX2                !
 ! R93   R(54,121)               1.1021         estimate D2E/DX2                !
 ! R94   R(55,56)                1.4083         estimate D2E/DX2                !
 ! R95   R(55,122)               1.1029         estimate D2E/DX2                !
 ! R96   R(56,57)                1.4109         estimate D2E/DX2                !
 ! R97   R(56,61)                1.4744         estimate D2E/DX2                !
 ! R98   R(57,58)                1.3587         estimate D2E/DX2                !
 ! R99   R(57,60)                1.3552         estimate D2E/DX2                !
 ! R100  R(58,59)                1.4885         estimate D2E/DX2                !
 ! R101  R(59,123)               1.0613         estimate D2E/DX2                !
 ! R102  R(59,124)               1.0908         estimate D2E/DX2                !
 ! R103  R(59,125)               1.0087         estimate D2E/DX2                !
 ! R104  R(60,126)               1.0869         estimate D2E/DX2                !
 ! R105  R(61,62)                1.2576         estimate D2E/DX2                !
 ! R106  R(61,65)                1.6887         estimate D2E/DX2                !
 ! R107  R(62,63)                1.4466         estimate D2E/DX2                !
 ! R108  R(63,64)                1.3172         estimate D2E/DX2                !
 ! R109  R(63,127)               1.0878         estimate D2E/DX2                !
 ! R110  R(64,65)                1.7093         estimate D2E/DX2                !
 ! R111  R(64,66)                1.5184         estimate D2E/DX2                !
 ! R112  R(66,67)                1.4526         estimate D2E/DX2                !
 ! R113  R(66,73)                1.3869         estimate D2E/DX2                !
 ! R114  R(67,68)                1.4158         estimate D2E/DX2                !
 ! R115  R(67,128)               1.0438         estimate D2E/DX2                !
 ! R116  R(68,69)                1.4257         estimate D2E/DX2                !
 ! R117  R(68,129)               1.0381         estimate D2E/DX2                !
 ! R118  R(69,70)                1.3885         estimate D2E/DX2                !
 ! R119  R(69,74)                1.4818         estimate D2E/DX2                !
 ! R120  R(70,71)                1.3965         estimate D2E/DX2                !
 ! R121  R(70,73)                1.4362         estimate D2E/DX2                !
 ! R122  R(71,72)                1.3821         estimate D2E/DX2                !
 ! R123  R(72,130)               1.0921         estimate D2E/DX2                !
 ! R124  R(72,131)               1.0458         estimate D2E/DX2                !
 ! R125  R(72,132)               1.1005         estimate D2E/DX2                !
 ! R126  R(73,133)               1.0509         estimate D2E/DX2                !
 ! R127  R(74,75)                1.3052         estimate D2E/DX2                !
 ! R128  R(74,78)                1.7358         estimate D2E/DX2                !
 ! R129  R(75,76)                1.3238         estimate D2E/DX2                !
 ! R130  R(76,77)                1.3539         estimate D2E/DX2                !
 ! R131  R(76,134)               1.1228         estimate D2E/DX2                !
 ! R132  R(77,78)                1.7205         estimate D2E/DX2                !
 ! R133  R(77,79)                1.5165         estimate D2E/DX2                !
 ! R134  R(79,80)                1.374          estimate D2E/DX2                !
 ! R135  R(79,86)                1.4282         estimate D2E/DX2                !
 ! R136  R(80,81)                1.4247         estimate D2E/DX2                !
 ! R137  R(80,135)               1.0214         estimate D2E/DX2                !
 ! R138  R(81,82)                1.419          estimate D2E/DX2                !
 ! R139  R(81,136)               1.1007         estimate D2E/DX2                !
 ! R140  R(82,83)                1.3864         estimate D2E/DX2                !
 ! R141  R(82,87)                1.4442         estimate D2E/DX2                !
 ! R142  R(83,84)                1.4458         estimate D2E/DX2                !
 ! R143  R(83,86)                1.3551         estimate D2E/DX2                !
 ! R144  R(84,85)                1.4222         estimate D2E/DX2                !
 ! R145  R(85,137)               1.038          estimate D2E/DX2                !
 ! R146  R(85,138)               1.0583         estimate D2E/DX2                !
 ! R147  R(85,139)               1.0476         estimate D2E/DX2                !
 ! R148  R(86,140)               1.1034         estimate D2E/DX2                !
 ! R149  R(87,88)                1.2674         estimate D2E/DX2                !
 ! R150  R(87,91)                1.7924         estimate D2E/DX2                !
 ! R151  R(88,89)                1.3964         estimate D2E/DX2                !
 ! R152  R(89,90)                1.3419         estimate D2E/DX2                !
 ! R153  R(89,141)               1.0442         estimate D2E/DX2                !
 ! R154  R(90,91)                1.7581         estimate D2E/DX2                !
 ! R155  R(90,142)               1.1226         estimate D2E/DX2                !
 ! A1    A(2,1,8)              115.6779         estimate D2E/DX2                !
 ! A2    A(2,1,92)             123.5595         estimate D2E/DX2                !
 ! A3    A(8,1,92)             120.7329         estimate D2E/DX2                !
 ! A4    A(1,2,3)              125.517          estimate D2E/DX2                !
 ! A5    A(1,2,93)             115.2101         estimate D2E/DX2                !
 ! A6    A(3,2,93)             119.2591         estimate D2E/DX2                !
 ! A7    A(2,3,4)              118.6233         estimate D2E/DX2                !
 ! A8    A(2,3,94)             124.7789         estimate D2E/DX2                !
 ! A9    A(4,3,94)             116.4402         estimate D2E/DX2                !
 ! A10   A(3,4,5)              118.2625         estimate D2E/DX2                !
 ! A11   A(3,4,9)              121.6889         estimate D2E/DX2                !
 ! A12   A(5,4,9)              119.6353         estimate D2E/DX2                !
 ! A13   A(4,5,6)              117.5395         estimate D2E/DX2                !
 ! A14   A(4,5,8)              119.7667         estimate D2E/DX2                !
 ! A15   A(6,5,8)              122.311          estimate D2E/DX2                !
 ! A16   A(5,6,7)              108.1636         estimate D2E/DX2                !
 ! A17   A(6,7,95)             107.5214         estimate D2E/DX2                !
 ! A18   A(6,7,96)             108.8978         estimate D2E/DX2                !
 ! A19   A(6,7,97)             113.9665         estimate D2E/DX2                !
 ! A20   A(95,7,96)            102.0004         estimate D2E/DX2                !
 ! A21   A(95,7,97)            115.8211         estimate D2E/DX2                !
 ! A22   A(96,7,97)            107.8184         estimate D2E/DX2                !
 ! A23   A(1,8,5)              121.719          estimate D2E/DX2                !
 ! A24   A(1,8,98)             116.7215         estimate D2E/DX2                !
 ! A25   A(5,8,98)             121.4198         estimate D2E/DX2                !
 ! A26   A(4,9,10)             124.7585         estimate D2E/DX2                !
 ! A27   A(4,9,13)             116.3375         estimate D2E/DX2                !
 ! A28   A(10,9,13)            118.9035         estimate D2E/DX2                !
 ! A29   A(9,10,11)            105.7959         estimate D2E/DX2                !
 ! A30   A(10,11,12)           115.2035         estimate D2E/DX2                !
 ! A31   A(10,11,99)           116.5452         estimate D2E/DX2                !
 ! A32   A(12,11,99)           128.2513         estimate D2E/DX2                !
 ! A33   A(11,12,13)           112.3108         estimate D2E/DX2                !
 ! A34   A(11,12,14)           124.494          estimate D2E/DX2                !
 ! A35   A(13,12,14)           123.1861         estimate D2E/DX2                !
 ! A36   A(9,13,12)             87.7454         estimate D2E/DX2                !
 ! A37   A(12,14,15)           119.2775         estimate D2E/DX2                !
 ! A38   A(12,14,21)           122.9332         estimate D2E/DX2                !
 ! A39   A(15,14,21)           117.7843         estimate D2E/DX2                !
 ! A40   A(14,15,16)           117.8389         estimate D2E/DX2                !
 ! A41   A(14,15,100)          126.0184         estimate D2E/DX2                !
 ! A42   A(16,15,100)          115.7863         estimate D2E/DX2                !
 ! A43   A(15,16,17)           124.6551         estimate D2E/DX2                !
 ! A44   A(15,16,101)          116.4811         estimate D2E/DX2                !
 ! A45   A(17,16,101)          118.8558         estimate D2E/DX2                !
 ! A46   A(16,17,18)           116.6814         estimate D2E/DX2                !
 ! A47   A(16,17,22)           116.0652         estimate D2E/DX2                !
 ! A48   A(18,17,22)           127.0394         estimate D2E/DX2                !
 ! A49   A(17,18,19)           118.3678         estimate D2E/DX2                !
 ! A50   A(17,18,21)           118.6775         estimate D2E/DX2                !
 ! A51   A(19,18,21)           122.4217         estimate D2E/DX2                !
 ! A52   A(18,19,20)           119.7294         estimate D2E/DX2                !
 ! A53   A(19,20,102)          109.0663         estimate D2E/DX2                !
 ! A54   A(19,20,103)          116.9371         estimate D2E/DX2                !
 ! A55   A(19,20,104)          111.9222         estimate D2E/DX2                !
 ! A56   A(102,20,103)         109.5963         estimate D2E/DX2                !
 ! A57   A(102,20,104)         106.1482         estimate D2E/DX2                !
 ! A58   A(103,20,104)         102.5427         estimate D2E/DX2                !
 ! A59   A(14,21,18)           123.9142         estimate D2E/DX2                !
 ! A60   A(14,21,105)          116.2967         estimate D2E/DX2                !
 ! A61   A(18,21,105)          119.6623         estimate D2E/DX2                !
 ! A62   A(17,22,23)           123.6341         estimate D2E/DX2                !
 ! A63   A(17,22,26)           126.1108         estimate D2E/DX2                !
 ! A64   A(23,22,26)           110.2549         estimate D2E/DX2                !
 ! A65   A(22,23,24)           112.5478         estimate D2E/DX2                !
 ! A66   A(23,24,25)           115.699          estimate D2E/DX2                !
 ! A67   A(23,24,106)          117.6619         estimate D2E/DX2                !
 ! A68   A(25,24,106)          126.5454         estimate D2E/DX2                !
 ! A69   A(24,25,26)           109.6371         estimate D2E/DX2                !
 ! A70   A(24,25,27)           129.7096         estimate D2E/DX2                !
 ! A71   A(26,25,27)           120.649          estimate D2E/DX2                !
 ! A72   A(22,26,25)            91.8395         estimate D2E/DX2                !
 ! A73   A(25,27,28)           118.9675         estimate D2E/DX2                !
 ! A74   A(25,27,34)           118.4024         estimate D2E/DX2                !
 ! A75   A(28,27,34)           122.0324         estimate D2E/DX2                !
 ! A76   A(27,28,29)           119.5381         estimate D2E/DX2                !
 ! A77   A(27,28,107)          119.6932         estimate D2E/DX2                !
 ! A78   A(29,28,107)          120.7645         estimate D2E/DX2                !
 ! A79   A(28,29,30)           120.0336         estimate D2E/DX2                !
 ! A80   A(28,29,108)          120.8837         estimate D2E/DX2                !
 ! A81   A(30,29,108)          118.9404         estimate D2E/DX2                !
 ! A82   A(29,30,31)           117.3411         estimate D2E/DX2                !
 ! A83   A(29,30,35)           117.0028         estimate D2E/DX2                !
 ! A84   A(31,30,35)           125.5195         estimate D2E/DX2                !
 ! A85   A(30,31,32)           120.6704         estimate D2E/DX2                !
 ! A86   A(30,31,34)           126.0069         estimate D2E/DX2                !
 ! A87   A(32,31,34)           112.8647         estimate D2E/DX2                !
 ! A88   A(31,32,33)           109.39           estimate D2E/DX2                !
 ! A89   A(32,33,109)          107.9311         estimate D2E/DX2                !
 ! A90   A(32,33,110)          109.9555         estimate D2E/DX2                !
 ! A91   A(32,33,111)          107.7725         estimate D2E/DX2                !
 ! A92   A(109,33,110)         107.4657         estimate D2E/DX2                !
 ! A93   A(109,33,111)         112.6146         estimate D2E/DX2                !
 ! A94   A(110,33,111)         111.0515         estimate D2E/DX2                !
 ! A95   A(27,34,31)           114.5573         estimate D2E/DX2                !
 ! A96   A(27,34,112)          124.0415         estimate D2E/DX2                !
 ! A97   A(31,34,112)          121.1943         estimate D2E/DX2                !
 ! A98   A(30,35,36)           128.227          estimate D2E/DX2                !
 ! A99   A(30,35,39)           120.2837         estimate D2E/DX2                !
 ! A100  A(36,35,39)           111.476          estimate D2E/DX2                !
 ! A101  A(35,36,37)           114.4992         estimate D2E/DX2                !
 ! A102  A(36,37,38)           117.882          estimate D2E/DX2                !
 ! A103  A(36,37,113)          123.5552         estimate D2E/DX2                !
 ! A104  A(38,37,113)          118.3406         estimate D2E/DX2                !
 ! A105  A(37,38,39)           103.0278         estimate D2E/DX2                !
 ! A106  A(37,38,40)           133.0895         estimate D2E/DX2                !
 ! A107  A(39,38,40)           123.8638         estimate D2E/DX2                !
 ! A108  A(35,39,38)            93.0835         estimate D2E/DX2                !
 ! A109  A(38,40,41)           121.6156         estimate D2E/DX2                !
 ! A110  A(38,40,47)           117.1072         estimate D2E/DX2                !
 ! A111  A(41,40,47)           121.262          estimate D2E/DX2                !
 ! A112  A(40,41,42)           119.8563         estimate D2E/DX2                !
 ! A113  A(40,41,114)          118.5471         estimate D2E/DX2                !
 ! A114  A(42,41,114)          121.5965         estimate D2E/DX2                !
 ! A115  A(41,42,43)           123.1614         estimate D2E/DX2                !
 ! A116  A(41,42,115)          122.7378         estimate D2E/DX2                !
 ! A117  A(43,42,115)          114.0526         estimate D2E/DX2                !
 ! A118  A(42,43,44)           117.6934         estimate D2E/DX2                !
 ! A119  A(42,43,48)           122.6874         estimate D2E/DX2                !
 ! A120  A(44,43,48)           119.5833         estimate D2E/DX2                !
 ! A121  A(43,44,45)           119.0988         estimate D2E/DX2                !
 ! A122  A(43,44,47)           120.9352         estimate D2E/DX2                !
 ! A123  A(45,44,47)           119.3864         estimate D2E/DX2                !
 ! A124  A(44,45,46)           121.3357         estimate D2E/DX2                !
 ! A125  A(45,46,116)          111.7202         estimate D2E/DX2                !
 ! A126  A(45,46,117)          112.5001         estimate D2E/DX2                !
 ! A127  A(45,46,118)          110.114          estimate D2E/DX2                !
 ! A128  A(116,46,117)         112.2004         estimate D2E/DX2                !
 ! A129  A(116,46,118)         104.0073         estimate D2E/DX2                !
 ! A130  A(117,46,118)         105.7691         estimate D2E/DX2                !
 ! A131  A(40,47,44)           116.9695         estimate D2E/DX2                !
 ! A132  A(40,47,119)          119.2418         estimate D2E/DX2                !
 ! A133  A(44,47,119)          123.7711         estimate D2E/DX2                !
 ! A134  A(43,48,49)           121.4207         estimate D2E/DX2                !
 ! A135  A(43,48,52)           123.5776         estimate D2E/DX2                !
 ! A136  A(49,48,52)           113.7659         estimate D2E/DX2                !
 ! A137  A(48,49,50)           109.4239         estimate D2E/DX2                !
 ! A138  A(49,50,51)           116.4615         estimate D2E/DX2                !
 ! A139  A(49,50,120)          117.0404         estimate D2E/DX2                !
 ! A140  A(51,50,120)          126.2718         estimate D2E/DX2                !
 ! A141  A(50,51,52)           108.1998         estimate D2E/DX2                !
 ! A142  A(50,51,53)           131.0446         estimate D2E/DX2                !
 ! A143  A(52,51,53)           120.7333         estimate D2E/DX2                !
 ! A144  A(48,52,51)            91.4252         estimate D2E/DX2                !
 ! A145  A(51,53,54)           122.1318         estimate D2E/DX2                !
 ! A146  A(51,53,60)           124.0053         estimate D2E/DX2                !
 ! A147  A(54,53,60)           113.8557         estimate D2E/DX2                !
 ! A148  A(53,54,55)           122.7196         estimate D2E/DX2                !
 ! A149  A(53,54,121)          120.2434         estimate D2E/DX2                !
 ! A150  A(55,54,121)          116.9692         estimate D2E/DX2                !
 ! A151  A(54,55,56)           119.9104         estimate D2E/DX2                !
 ! A152  A(54,55,122)          120.612          estimate D2E/DX2                !
 ! A153  A(56,55,122)          119.4645         estimate D2E/DX2                !
 ! A154  A(55,56,57)           117.0288         estimate D2E/DX2                !
 ! A155  A(55,56,61)           116.52           estimate D2E/DX2                !
 ! A156  A(57,56,61)           126.407          estimate D2E/DX2                !
 ! A157  A(56,57,58)           113.1243         estimate D2E/DX2                !
 ! A158  A(56,57,60)           121.1053         estimate D2E/DX2                !
 ! A159  A(58,57,60)           125.5186         estimate D2E/DX2                !
 ! A160  A(57,58,59)           118.4445         estimate D2E/DX2                !
 ! A161  A(58,59,123)          106.4894         estimate D2E/DX2                !
 ! A162  A(58,59,124)          111.1522         estimate D2E/DX2                !
 ! A163  A(58,59,125)          110.6047         estimate D2E/DX2                !
 ! A164  A(123,59,124)         109.8827         estimate D2E/DX2                !
 ! A165  A(123,59,125)         111.8162         estimate D2E/DX2                !
 ! A166  A(124,59,125)         106.9509         estimate D2E/DX2                !
 ! A167  A(53,60,57)           125.0464         estimate D2E/DX2                !
 ! A168  A(53,60,126)          114.4698         estimate D2E/DX2                !
 ! A169  A(57,60,126)          120.055          estimate D2E/DX2                !
 ! A170  A(56,61,62)           121.2262         estimate D2E/DX2                !
 ! A171  A(56,61,65)           120.8612         estimate D2E/DX2                !
 ! A172  A(62,61,65)           117.4878         estimate D2E/DX2                !
 ! A173  A(61,62,63)           107.5423         estimate D2E/DX2                !
 ! A174  A(62,63,64)           115.6484         estimate D2E/DX2                !
 ! A175  A(62,63,127)          115.0542         estimate D2E/DX2                !
 ! A176  A(64,63,127)          129.1339         estimate D2E/DX2                !
 ! A177  A(63,64,65)           109.3009         estimate D2E/DX2                !
 ! A178  A(63,64,66)           130.7494         estimate D2E/DX2                !
 ! A179  A(65,64,66)           119.9253         estimate D2E/DX2                !
 ! A180  A(61,65,64)            89.7832         estimate D2E/DX2                !
 ! A181  A(64,66,67)           115.4112         estimate D2E/DX2                !
 ! A182  A(64,66,73)           122.8589         estimate D2E/DX2                !
 ! A183  A(67,66,73)           121.729          estimate D2E/DX2                !
 ! A184  A(66,67,68)           117.791          estimate D2E/DX2                !
 ! A185  A(66,67,128)          122.6427         estimate D2E/DX2                !
 ! A186  A(68,67,128)          119.562          estimate D2E/DX2                !
 ! A187  A(67,68,69)           120.4885         estimate D2E/DX2                !
 ! A188  A(67,68,129)          120.0121         estimate D2E/DX2                !
 ! A189  A(69,68,129)          119.26           estimate D2E/DX2                !
 ! A190  A(68,69,70)           120.0526         estimate D2E/DX2                !
 ! A191  A(68,69,74)           113.1913         estimate D2E/DX2                !
 ! A192  A(70,69,74)           126.1353         estimate D2E/DX2                !
 ! A193  A(69,70,71)           117.8719         estimate D2E/DX2                !
 ! A194  A(69,70,73)           121.0362         estimate D2E/DX2                !
 ! A195  A(71,70,73)           120.5884         estimate D2E/DX2                !
 ! A196  A(70,71,72)           117.4688         estimate D2E/DX2                !
 ! A197  A(71,72,130)          112.6568         estimate D2E/DX2                !
 ! A198  A(71,72,131)          112.4906         estimate D2E/DX2                !
 ! A199  A(71,72,132)          113.3573         estimate D2E/DX2                !
 ! A200  A(130,72,131)         103.7686         estimate D2E/DX2                !
 ! A201  A(130,72,132)         107.2667         estimate D2E/DX2                !
 ! A202  A(131,72,132)         106.6346         estimate D2E/DX2                !
 ! A203  A(66,73,70)           118.7221         estimate D2E/DX2                !
 ! A204  A(66,73,133)          119.6592         estimate D2E/DX2                !
 ! A205  A(70,73,133)          120.9665         estimate D2E/DX2                !
 ! A206  A(69,74,75)           128.9575         estimate D2E/DX2                !
 ! A207  A(69,74,78)           119.2703         estimate D2E/DX2                !
 ! A208  A(75,74,78)           111.6904         estimate D2E/DX2                !
 ! A209  A(74,75,76)           110.9482         estimate D2E/DX2                !
 ! A210  A(75,76,77)           119.9734         estimate D2E/DX2                !
 ! A211  A(75,76,134)          120.3048         estimate D2E/DX2                !
 ! A212  A(77,76,134)          119.4393         estimate D2E/DX2                !
 ! A213  A(76,77,78)           105.4658         estimate D2E/DX2                !
 ! A214  A(76,77,79)           134.5439         estimate D2E/DX2                !
 ! A215  A(78,77,79)           119.9739         estimate D2E/DX2                !
 ! A216  A(74,78,77)            91.3592         estimate D2E/DX2                !
 ! A217  A(77,79,80)           114.3912         estimate D2E/DX2                !
 ! A218  A(77,79,86)           122.1647         estimate D2E/DX2                !
 ! A219  A(80,79,86)           123.0786         estimate D2E/DX2                !
 ! A220  A(79,80,81)           115.725          estimate D2E/DX2                !
 ! A221  A(79,80,135)          125.41           estimate D2E/DX2                !
 ! A222  A(81,80,135)          118.726          estimate D2E/DX2                !
 ! A223  A(80,81,82)           123.9409         estimate D2E/DX2                !
 ! A224  A(80,81,136)          116.1003         estimate D2E/DX2                !
 ! A225  A(82,81,136)          119.436          estimate D2E/DX2                !
 ! A226  A(81,82,83)           114.429          estimate D2E/DX2                !
 ! A227  A(81,82,87)           115.8966         estimate D2E/DX2                !
 ! A228  A(83,82,87)           129.3477         estimate D2E/DX2                !
 ! A229  A(82,83,84)           115.0119         estimate D2E/DX2                !
 ! A230  A(82,83,86)           125.8185         estimate D2E/DX2                !
 ! A231  A(84,83,86)           119.0781         estimate D2E/DX2                !
 ! A232  A(83,84,85)           117.9404         estimate D2E/DX2                !
 ! A233  A(84,85,137)          107.1293         estimate D2E/DX2                !
 ! A234  A(84,85,138)          112.5949         estimate D2E/DX2                !
 ! A235  A(84,85,139)          104.4175         estimate D2E/DX2                !
 ! A236  A(137,85,138)         114.5745         estimate D2E/DX2                !
 ! A237  A(137,85,139)         110.5636         estimate D2E/DX2                !
 ! A238  A(138,85,139)         107.1117         estimate D2E/DX2                !
 ! A239  A(79,86,83)           116.7956         estimate D2E/DX2                !
 ! A240  A(79,86,140)          118.2969         estimate D2E/DX2                !
 ! A241  A(83,86,140)          124.7272         estimate D2E/DX2                !
 ! A242  A(82,87,88)           127.7003         estimate D2E/DX2                !
 ! A243  A(82,87,91)           118.7267         estimate D2E/DX2                !
 ! A244  A(88,87,91)           113.2965         estimate D2E/DX2                !
 ! A245  A(87,88,89)           113.7769         estimate D2E/DX2                !
 ! A246  A(88,89,90)           113.963          estimate D2E/DX2                !
 ! A247  A(88,89,141)          121.1648         estimate D2E/DX2                !
 ! A248  A(90,89,141)          124.8467         estimate D2E/DX2                !
 ! A249  A(89,90,91)           111.2405         estimate D2E/DX2                !
 ! A250  A(89,90,142)          129.3008         estimate D2E/DX2                !
 ! A251  A(91,90,142)          119.3764         estimate D2E/DX2                !
 ! A252  A(87,91,90)            87.4284         estimate D2E/DX2                !
 ! D1    D(8,1,2,3)             -0.7833         estimate D2E/DX2                !
 ! D2    D(8,1,2,93)           177.8479         estimate D2E/DX2                !
 ! D3    D(92,1,2,3)          -178.8123         estimate D2E/DX2                !
 ! D4    D(92,1,2,93)           -0.1811         estimate D2E/DX2                !
 ! D5    D(2,1,8,5)              0.3771         estimate D2E/DX2                !
 ! D6    D(2,1,8,98)           176.1391         estimate D2E/DX2                !
 ! D7    D(92,1,8,5)           178.4663         estimate D2E/DX2                !
 ! D8    D(92,1,8,98)           -5.7717         estimate D2E/DX2                !
 ! D9    D(1,2,3,4)             -3.1614         estimate D2E/DX2                !
 ! D10   D(1,2,3,94)          -178.4263         estimate D2E/DX2                !
 ! D11   D(93,2,3,4)           178.2582         estimate D2E/DX2                !
 ! D12   D(93,2,3,94)            2.9933         estimate D2E/DX2                !
 ! D13   D(2,3,4,5)              7.1964         estimate D2E/DX2                !
 ! D14   D(2,3,4,9)            179.7872         estimate D2E/DX2                !
 ! D15   D(94,3,4,5)          -177.1464         estimate D2E/DX2                !
 ! D16   D(94,3,4,9)            -4.5556         estimate D2E/DX2                !
 ! D17   D(3,4,5,6)            179.295          estimate D2E/DX2                !
 ! D18   D(3,4,5,8)             -7.6419         estimate D2E/DX2                !
 ! D19   D(9,4,5,6)              6.5475         estimate D2E/DX2                !
 ! D20   D(9,4,5,8)            179.6107         estimate D2E/DX2                !
 ! D21   D(3,4,9,10)          -104.9357         estimate D2E/DX2                !
 ! D22   D(3,4,9,13)            75.3059         estimate D2E/DX2                !
 ! D23   D(5,4,9,10)            67.5557         estimate D2E/DX2                !
 ! D24   D(5,4,9,13)          -112.2027         estimate D2E/DX2                !
 ! D25   D(4,5,6,7)           -105.3441         estimate D2E/DX2                !
 ! D26   D(8,5,6,7)             81.7816         estimate D2E/DX2                !
 ! D27   D(4,5,8,1)              3.813          estimate D2E/DX2                !
 ! D28   D(4,5,8,98)          -171.7508         estimate D2E/DX2                !
 ! D29   D(6,5,8,1)            176.5335         estimate D2E/DX2                !
 ! D30   D(6,5,8,98)             0.9696         estimate D2E/DX2                !
 ! D31   D(5,6,7,95)            71.5263         estimate D2E/DX2                !
 ! D32   D(5,6,7,96)          -178.6861         estimate D2E/DX2                !
 ! D33   D(5,6,7,97)           -58.2797         estimate D2E/DX2                !
 ! D34   D(4,9,10,11)          178.0794         estimate D2E/DX2                !
 ! D35   D(13,9,10,11)          -2.1679         estimate D2E/DX2                !
 ! D36   D(4,9,13,12)         -178.2612         estimate D2E/DX2                !
 ! D37   D(10,9,13,12)           1.9655         estimate D2E/DX2                !
 ! D38   D(9,10,11,12)           1.3138         estimate D2E/DX2                !
 ! D39   D(9,10,11,99)        -178.6597         estimate D2E/DX2                !
 ! D40   D(10,11,12,13)          0.0237         estimate D2E/DX2                !
 ! D41   D(10,11,12,14)       -178.9098         estimate D2E/DX2                !
 ! D42   D(99,11,12,13)        179.9935         estimate D2E/DX2                !
 ! D43   D(99,11,12,14)          1.06           estimate D2E/DX2                !
 ! D44   D(11,12,13,9)          -0.982          estimate D2E/DX2                !
 ! D45   D(14,12,13,9)         177.9677         estimate D2E/DX2                !
 ! D46   D(11,12,14,15)        141.9776         estimate D2E/DX2                !
 ! D47   D(11,12,14,21)        -38.8542         estimate D2E/DX2                !
 ! D48   D(13,12,14,15)        -36.8434         estimate D2E/DX2                !
 ! D49   D(13,12,14,21)        142.3247         estimate D2E/DX2                !
 ! D50   D(12,14,15,16)       -179.0029         estimate D2E/DX2                !
 ! D51   D(12,14,15,100)        -6.172          estimate D2E/DX2                !
 ! D52   D(21,14,15,16)          1.7862         estimate D2E/DX2                !
 ! D53   D(21,14,15,100)       174.6171         estimate D2E/DX2                !
 ! D54   D(12,14,21,18)       -176.2945         estimate D2E/DX2                !
 ! D55   D(12,14,21,105)        -0.4129         estimate D2E/DX2                !
 ! D56   D(15,14,21,18)          2.8854         estimate D2E/DX2                !
 ! D57   D(15,14,21,105)       178.767          estimate D2E/DX2                !
 ! D58   D(14,15,16,17)         -1.7331         estimate D2E/DX2                !
 ! D59   D(14,15,16,101)       179.3178         estimate D2E/DX2                !
 ! D60   D(100,15,16,17)      -175.2965         estimate D2E/DX2                !
 ! D61   D(100,15,16,101)        5.7544         estimate D2E/DX2                !
 ! D62   D(15,16,17,18)         -2.8839         estimate D2E/DX2                !
 ! D63   D(15,16,17,22)       -177.9471         estimate D2E/DX2                !
 ! D64   D(101,16,17,18)       176.0421         estimate D2E/DX2                !
 ! D65   D(101,16,17,22)         0.9789         estimate D2E/DX2                !
 ! D66   D(16,17,18,19)        179.0868         estimate D2E/DX2                !
 ! D67   D(16,17,18,21)          7.2539         estimate D2E/DX2                !
 ! D68   D(22,17,18,19)         -6.4708         estimate D2E/DX2                !
 ! D69   D(22,17,18,21)       -178.3037         estimate D2E/DX2                !
 ! D70   D(16,17,22,23)        -16.7156         estimate D2E/DX2                !
 ! D71   D(16,17,22,26)        163.1172         estimate D2E/DX2                !
 ! D72   D(18,17,22,23)        168.8124         estimate D2E/DX2                !
 ! D73   D(18,17,22,26)        -11.3548         estimate D2E/DX2                !
 ! D74   D(17,18,19,20)        170.9022         estimate D2E/DX2                !
 ! D75   D(21,18,19,20)        -17.5884         estimate D2E/DX2                !
 ! D76   D(17,18,21,14)         -7.6303         estimate D2E/DX2                !
 ! D77   D(17,18,21,105)       176.6189         estimate D2E/DX2                !
 ! D78   D(19,18,21,14)       -179.1145         estimate D2E/DX2                !
 ! D79   D(19,18,21,105)         5.1347         estimate D2E/DX2                !
 ! D80   D(18,19,20,102)        71.5668         estimate D2E/DX2                !
 ! D81   D(18,19,20,103)       -53.4396         estimate D2E/DX2                !
 ! D82   D(18,19,20,104)      -171.2847         estimate D2E/DX2                !
 ! D83   D(17,22,23,24)       -179.1436         estimate D2E/DX2                !
 ! D84   D(26,22,23,24)          1.0004         estimate D2E/DX2                !
 ! D85   D(17,22,26,25)        178.8255         estimate D2E/DX2                !
 ! D86   D(23,22,26,25)         -1.3229         estimate D2E/DX2                !
 ! D87   D(22,23,24,25)          0.0101         estimate D2E/DX2                !
 ! D88   D(22,23,24,106)       176.7214         estimate D2E/DX2                !
 ! D89   D(23,24,25,26)         -1.0118         estimate D2E/DX2                !
 ! D90   D(23,24,25,27)        179.7504         estimate D2E/DX2                !
 ! D91   D(106,24,25,26)      -177.3857         estimate D2E/DX2                !
 ! D92   D(106,24,25,27)         3.3765         estimate D2E/DX2                !
 ! D93   D(24,25,26,22)          1.3166         estimate D2E/DX2                !
 ! D94   D(27,25,26,22)       -179.3649         estimate D2E/DX2                !
 ! D95   D(24,25,27,28)         57.9376         estimate D2E/DX2                !
 ! D96   D(24,25,27,34)       -113.382          estimate D2E/DX2                !
 ! D97   D(26,25,27,28)       -121.228          estimate D2E/DX2                !
 ! D98   D(26,25,27,34)         67.4524         estimate D2E/DX2                !
 ! D99   D(25,27,28,29)       -176.2257         estimate D2E/DX2                !
 ! D100  D(25,27,28,107)         4.5187         estimate D2E/DX2                !
 ! D101  D(34,27,28,29)         -5.2352         estimate D2E/DX2                !
 ! D102  D(34,27,28,107)       175.5092         estimate D2E/DX2                !
 ! D103  D(25,27,34,31)        177.3261         estimate D2E/DX2                !
 ! D104  D(25,27,34,112)        -7.8614         estimate D2E/DX2                !
 ! D105  D(28,27,34,31)          6.2868         estimate D2E/DX2                !
 ! D106  D(28,27,34,112)      -178.9008         estimate D2E/DX2                !
 ! D107  D(27,28,29,30)          4.0985         estimate D2E/DX2                !
 ! D108  D(27,28,29,108)       179.7162         estimate D2E/DX2                !
 ! D109  D(107,28,29,30)      -176.654          estimate D2E/DX2                !
 ! D110  D(107,28,29,108)       -1.0363         estimate D2E/DX2                !
 ! D111  D(28,29,30,31)         -4.4468         estimate D2E/DX2                !
 ! D112  D(28,29,30,35)        171.5425         estimate D2E/DX2                !
 ! D113  D(108,29,30,31)       179.8506         estimate D2E/DX2                !
 ! D114  D(108,29,30,35)        -4.1601         estimate D2E/DX2                !
 ! D115  D(29,30,31,32)        177.9198         estimate D2E/DX2                !
 ! D116  D(29,30,31,34)          6.2573         estimate D2E/DX2                !
 ! D117  D(35,30,31,32)          2.311          estimate D2E/DX2                !
 ! D118  D(35,30,31,34)       -169.3515         estimate D2E/DX2                !
 ! D119  D(29,30,35,36)        105.0134         estimate D2E/DX2                !
 ! D120  D(29,30,35,39)        -76.4328         estimate D2E/DX2                !
 ! D121  D(31,30,35,36)        -79.3645         estimate D2E/DX2                !
 ! D122  D(31,30,35,39)         99.1894         estimate D2E/DX2                !
 ! D123  D(30,31,32,33)        104.8491         estimate D2E/DX2                !
 ! D124  D(34,31,32,33)        -82.4646         estimate D2E/DX2                !
 ! D125  D(30,31,34,27)         -7.0712         estimate D2E/DX2                !
 ! D126  D(30,31,34,112)       177.9535         estimate D2E/DX2                !
 ! D127  D(32,31,34,27)       -179.292          estimate D2E/DX2                !
 ! D128  D(32,31,34,112)         5.7327         estimate D2E/DX2                !
 ! D129  D(31,32,33,109)      -161.3943         estimate D2E/DX2                !
 ! D130  D(31,32,33,110)       -44.4515         estimate D2E/DX2                !
 ! D131  D(31,32,33,111)        76.7258         estimate D2E/DX2                !
 ! D132  D(30,35,36,37)        179.7085         estimate D2E/DX2                !
 ! D133  D(39,35,36,37)          1.0504         estimate D2E/DX2                !
 ! D134  D(30,35,39,38)        179.653          estimate D2E/DX2                !
 ! D135  D(36,35,39,38)         -1.5678         estimate D2E/DX2                !
 ! D136  D(35,36,37,38)          0.2713         estimate D2E/DX2                !
 ! D137  D(35,36,37,113)       174.7562         estimate D2E/DX2                !
 ! D138  D(36,37,38,39)         -1.3409         estimate D2E/DX2                !
 ! D139  D(36,37,38,40)       -179.7531         estimate D2E/DX2                !
 ! D140  D(113,37,38,39)      -176.1198         estimate D2E/DX2                !
 ! D141  D(113,37,38,40)         5.4681         estimate D2E/DX2                !
 ! D142  D(37,38,39,35)          1.5474         estimate D2E/DX2                !
 ! D143  D(40,38,39,35)       -179.8491         estimate D2E/DX2                !
 ! D144  D(37,38,40,41)         40.8063         estimate D2E/DX2                !
 ! D145  D(37,38,40,47)       -140.5932         estimate D2E/DX2                !
 ! D146  D(39,38,40,41)       -137.3306         estimate D2E/DX2                !
 ! D147  D(39,38,40,47)         41.2699         estimate D2E/DX2                !
 ! D148  D(38,40,41,42)        178.1917         estimate D2E/DX2                !
 ! D149  D(38,40,41,114)        -1.7096         estimate D2E/DX2                !
 ! D150  D(47,40,41,42)         -0.3509         estimate D2E/DX2                !
 ! D151  D(47,40,41,114)       179.7478         estimate D2E/DX2                !
 ! D152  D(38,40,47,44)        178.738          estimate D2E/DX2                !
 ! D153  D(38,40,47,119)         0.2097         estimate D2E/DX2                !
 ! D154  D(41,40,47,44)         -2.6563         estimate D2E/DX2                !
 ! D155  D(41,40,47,119)       178.8154         estimate D2E/DX2                !
 ! D156  D(40,41,42,43)          2.1971         estimate D2E/DX2                !
 ! D157  D(40,41,42,115)       179.5197         estimate D2E/DX2                !
 ! D158  D(114,41,42,43)      -177.9046         estimate D2E/DX2                !
 ! D159  D(114,41,42,115)       -0.5821         estimate D2E/DX2                !
 ! D160  D(41,42,43,44)         -0.8762         estimate D2E/DX2                !
 ! D161  D(41,42,43,48)       -178.6847         estimate D2E/DX2                !
 ! D162  D(115,42,43,44)      -178.4101         estimate D2E/DX2                !
 ! D163  D(115,42,43,48)         3.7815         estimate D2E/DX2                !
 ! D164  D(42,43,44,45)       -173.5347         estimate D2E/DX2                !
 ! D165  D(42,43,44,47)         -2.318          estimate D2E/DX2                !
 ! D166  D(48,43,44,45)          4.3444         estimate D2E/DX2                !
 ! D167  D(48,43,44,47)        175.5611         estimate D2E/DX2                !
 ! D168  D(42,43,48,49)         34.3104         estimate D2E/DX2                !
 ! D169  D(42,43,48,52)       -132.1896         estimate D2E/DX2                !
 ! D170  D(44,43,48,49)       -143.4583         estimate D2E/DX2                !
 ! D171  D(44,43,48,52)         50.0418         estimate D2E/DX2                !
 ! D172  D(43,44,45,46)       -166.1395         estimate D2E/DX2                !
 ! D173  D(47,44,45,46)         22.5059         estimate D2E/DX2                !
 ! D174  D(43,44,47,40)          3.9547         estimate D2E/DX2                !
 ! D175  D(43,44,47,119)      -177.5902         estimate D2E/DX2                !
 ! D176  D(45,44,47,40)        175.1465         estimate D2E/DX2                !
 ! D177  D(45,44,47,119)        -6.3984         estimate D2E/DX2                !
 ! D178  D(44,45,46,116)        46.9196         estimate D2E/DX2                !
 ! D179  D(44,45,46,117)       174.1657         estimate D2E/DX2                !
 ! D180  D(44,45,46,118)       -68.127          estimate D2E/DX2                !
 ! D181  D(43,48,49,50)       -175.935          estimate D2E/DX2                !
 ! D182  D(52,48,49,50)         -8.2047         estimate D2E/DX2                !
 ! D183  D(43,48,52,51)        175.8706         estimate D2E/DX2                !
 ! D184  D(49,48,52,51)          8.443          estimate D2E/DX2                !
 ! D185  D(48,49,50,51)          3.8967         estimate D2E/DX2                !
 ! D186  D(48,49,50,120)      -170.9842         estimate D2E/DX2                !
 ! D187  D(49,50,51,52)          2.2623         estimate D2E/DX2                !
 ! D188  D(49,50,51,53)       -175.9876         estimate D2E/DX2                !
 ! D189  D(120,50,51,52)       176.6051         estimate D2E/DX2                !
 ! D190  D(120,50,51,53)        -1.6448         estimate D2E/DX2                !
 ! D191  D(50,51,52,48)         -5.5844         estimate D2E/DX2                !
 ! D192  D(53,51,52,48)        172.88           estimate D2E/DX2                !
 ! D193  D(50,51,53,54)        141.4148         estimate D2E/DX2                !
 ! D194  D(50,51,53,60)        -37.5456         estimate D2E/DX2                !
 ! D195  D(52,51,53,54)        -36.6509         estimate D2E/DX2                !
 ! D196  D(52,51,53,60)        144.3887         estimate D2E/DX2                !
 ! D197  D(51,53,54,55)        177.5994         estimate D2E/DX2                !
 ! D198  D(51,53,54,121)        -5.4873         estimate D2E/DX2                !
 ! D199  D(60,53,54,55)         -3.3429         estimate D2E/DX2                !
 ! D200  D(60,53,54,121)       173.5704         estimate D2E/DX2                !
 ! D201  D(51,53,60,57)       -174.694          estimate D2E/DX2                !
 ! D202  D(51,53,60,126)        -2.2462         estimate D2E/DX2                !
 ! D203  D(54,53,60,57)          6.2686         estimate D2E/DX2                !
 ! D204  D(54,53,60,126)       178.7164         estimate D2E/DX2                !
 ! D205  D(53,54,55,56)          1.3716         estimate D2E/DX2                !
 ! D206  D(53,54,55,122)      -179.9556         estimate D2E/DX2                !
 ! D207  D(121,54,55,56)      -175.6366         estimate D2E/DX2                !
 ! D208  D(121,54,55,122)        3.0362         estimate D2E/DX2                !
 ! D209  D(54,55,56,57)         -1.6169         estimate D2E/DX2                !
 ! D210  D(54,55,56,61)       -179.3546         estimate D2E/DX2                !
 ! D211  D(122,55,56,57)       179.695          estimate D2E/DX2                !
 ! D212  D(122,55,56,61)         1.9573         estimate D2E/DX2                !
[...]
  Beta virt. eigenvalues --    2.35148   2.35569   2.35582   2.36220   2.36402
  Beta virt. eigenvalues --    2.36532   2.36839   2.37013   2.37457   2.37471
  Beta virt. eigenvalues --    2.37725   2.38728   2.39103   2.39556   2.39718
  Beta virt. eigenvalues --    2.40073   2.40416   2.41231   2.42036   2.42414
  Beta virt. eigenvalues --    2.42695   2.42830   2.42893   2.43497   2.43558
  Beta virt. eigenvalues --    2.43875   2.44095   2.44233   2.44544   2.44838
  Beta virt. eigenvalues --    2.45538   2.46439   2.46483   2.46685   2.47072
  Beta virt. eigenvalues --    2.47183   2.48039   2.49505   2.49657   2.51100
  Beta virt. eigenvalues --    2.51370   2.51556   2.51666   2.51740   2.51762
  Beta virt. eigenvalues --    2.51788   2.51826   2.52027   2.52119   2.52160
  Beta virt. eigenvalues --    2.52290   2.52638   2.52824   2.52898   2.53481
  Beta virt. eigenvalues --    2.54141   2.54350   2.56620   2.57098   2.57477
  Beta virt. eigenvalues --    2.57595   2.57661   2.57872   2.58018   2.58022
  Beta virt. eigenvalues --    2.58338   2.58453   2.58747   2.58826   2.58950
  Beta virt. eigenvalues --    2.59165   2.59458   2.59619   2.59746   2.60039
  Beta virt. eigenvalues --    2.60315   2.60516   2.60559   2.60614   2.60744
  Beta virt. eigenvalues --    2.61132   2.62027   2.62583   2.63156   2.63256
  Beta virt. eigenvalues --    2.63389   2.63410   2.63550   2.64595   2.65003
  Beta virt. eigenvalues --    2.65460   2.65961   2.66171   2.66575   2.68022
  Beta virt. eigenvalues --    2.73046   2.74265   2.74624   2.74638   2.74718
  Beta virt. eigenvalues --    2.74979   2.75362   2.78782   2.79927   2.80355
  Beta virt. eigenvalues --    2.80675   2.81236   2.81565   2.82016   2.82943
  Beta virt. eigenvalues --    2.83028   2.83156   2.83591   2.83906   2.84303
  Beta virt. eigenvalues --    2.85867   2.86247   2.86332   2.87102   2.87385
  Beta virt. eigenvalues --    2.88330   2.88659   2.90693   2.91972   2.92305
  Beta virt. eigenvalues --    2.92923   2.94103   2.94205   2.94607   2.95097
  Beta virt. eigenvalues --    2.95803   2.97323   2.98243   2.98787   2.99208
  Beta virt. eigenvalues --    2.99254   2.99457   2.99486   2.99771   3.00106
  Beta virt. eigenvalues --    3.00530   3.01173   3.03356   3.03741   3.04818
  Beta virt. eigenvalues --    3.05184   3.05908   3.06227   3.06362   3.10686
  Beta virt. eigenvalues --    3.11416   3.11453   3.11695   3.14636   3.14703
  Beta virt. eigenvalues --    3.14792   3.14882   3.15244   3.16178   3.16743
  Beta virt. eigenvalues --    3.17126   3.17793   3.18043   3.18079   3.18897
  Beta virt. eigenvalues --    3.19254   3.20283   3.20582   3.21675   3.24836
  Beta virt. eigenvalues --    3.34614   3.34660   3.40882   3.41375   3.41866
  Beta virt. eigenvalues --    3.42365   3.43283   3.43294   3.43366   3.45436
  Beta virt. eigenvalues --    3.47522   3.54212   3.54225   3.54278   3.54391
  Beta virt. eigenvalues --    3.54723   3.71045   3.71326   3.71493   3.71806
  Beta virt. eigenvalues --    3.72024   3.72240   3.76907
          Condensed to atoms (all electrons):
          Atomic-Atomic Spin Densities.
 Mulliken charges and spin densities:
               1          2
     1  C    0.013459  -0.000000
     2  C    0.001650   0.000000
     3  C    0.000716  -0.000000
     4  C   -0.013924   0.000000
     5  C    0.025419  -0.000000
     6  O   -0.265421   0.000000
     7  C    0.061658   0.000000
     8  C    0.027490  -0.000000
     9  C    0.005478  -0.000000
    10  N   -0.183096   0.000000
    11  C    0.119692  -0.000000
    12  C   -0.228207   0.000000
    13  S    0.172005  -0.000000
    14  C    0.033044  -0.000000
    15  C   -0.001368  -0.000000
    16  C    0.056778   0.000000
    17  C   -0.067811   0.000000
    18  C    0.121229  -0.000000
    19  O   -0.276672   0.000000
    20  C    0.042393   0.000000
    21  C   -0.050441   0.000000
    22  C    0.036823  -0.000000
    23  N   -0.201784   0.000000
    24  C    0.124801   0.000000
    25  C   -0.231632   0.000000
    26  S    0.177751   0.000000
    27  C    0.047683  -0.000000
    28  C   -0.012500   0.000000
    29  C    0.015839  -0.000000
    30  C   -0.009276   0.000000
    31  C    0.031397  -0.000000
    32  O   -0.264124   0.000000
    33  C    0.061577  -0.000000
    34  C    0.033502   0.000000
    35  C    0.004549  -0.000000
    36  N   -0.183580  -0.000000
    37  C    0.123604   0.000000
    38  C   -0.227849  -0.000000
    39  S    0.160219  -0.000000
    40  C    0.038749   0.000000
    41  C   -0.007439   0.000000
    42  C    0.058946  -0.000000
    43  C   -0.067544   0.000000
    44  C    0.117225  -0.000000
    45  O   -0.276164  -0.000000
    46  C    0.041230   0.000000
    47  C   -0.047085  -0.000000
    48  C    0.035084   0.000000
    49  N   -0.202067  -0.000000
    50  C    0.121496   0.000000
    51  C   -0.234361  -0.000000
    52  S    0.182742   0.000000
    53  C    0.036054   0.000000
    54  C   -0.004069  -0.000000
    55  C    0.057202  -0.000000
    56  C   -0.067858   0.000000
    57  C    0.119592  -0.000000
    58  O   -0.277244  -0.000000
    59  C    0.042993  -0.000000
    60  C   -0.051798   0.000000
    61  C    0.037217  -0.000000
    62  N   -0.201484  -0.000000
    63  C    0.125845   0.000000
    64  C   -0.235173   0.000000
    65  S    0.169308  -0.000000
    66  C    0.039565  -0.000000
    67  C   -0.007456  -0.000000
    68  C    0.058684   0.000000
    69  C   -0.067617  -0.000000
    70  C    0.116191  -0.000000
    71  O   -0.277010   0.000000
    72  C    0.042575   0.000000
    73  C   -0.049196   0.000000
    74  C    0.036507   0.000000
    75  N   -0.201441  -0.000000
    76  C    0.125538  -0.000000
    77  C   -0.234381  -0.000000
    78  S    0.168457   0.000000
    79  C    0.038442  -0.000000
    80  C   -0.008722   0.000000
    81  C    0.057687  -0.000000
    82  C   -0.062465  -0.000000
    83  C    0.119029   0.000000
    84  O   -0.276588  -0.000000
    85  C    0.042339  -0.000000
    86  C   -0.050319   0.000000
    87  C    0.018747   0.000000
    88  N   -0.207038   0.000000
    89  C    0.111776  -0.000000
    90  C   -0.206541   0.000000
    91  S    0.172283  -0.000000
    92  H    0.017367   0.000000
    93  H    0.013411   0.000000
    94  H    0.013353  -0.000000
    95  H    0.052423   0.000000
    96  H    0.053479   0.000000
    97  H    0.030780  -0.000000
    98  H    0.014315  -0.000000
    99  H    0.022902   0.000000
   100  H    0.009256   0.000000
   101  H    0.017636   0.000000
   102  H    0.057705  -0.000000
   103  H    0.061622   0.000000
   104  H    0.070775   0.000000
   105  H    0.011360  -0.000000
   106  H    0.023982   0.000000
   107  H    0.006465  -0.000000
   108  H    0.012685  -0.000000
   109  H    0.055659  -0.000000
   110  H    0.053328   0.000000
   111  H    0.030636   0.000000
   112  H    0.014131   0.000000
   113  H    0.027732   0.000000
   114  H    0.006149  -0.000000
   115  H    0.017139  -0.000000
   116  H    0.060145  -0.000000
   117  H    0.072045  -0.000000
   118  H    0.059792  -0.000000
   119  H    0.014085  -0.000000
   120  H    0.021021   0.000000
   121  H    0.009949   0.000000
   122  H    0.016935   0.000000
   123  H    0.058605  -0.000000
   124  H    0.059994   0.000000
   125  H    0.068601   0.000000
   126  H    0.009639  -0.000000
   127  H    0.025456  -0.000000
   128  H    0.004948   0.000000
   129  H    0.017192   0.000000
   130  H    0.058435   0.000000
   131  H    0.068203  -0.000000
   132  H    0.059796  -0.000000
   133  H    0.014384   0.000000
   134  H    0.025232  -0.000000
   135  H    0.004173   0.000000
   136  H    0.016760   0.000000
   137  H    0.056894   0.000000
   138  H    0.059876   0.000000
   139  H    0.069471   0.000000
   140  H    0.013879   0.000000
   141  H    0.021928  -0.000000
   142  H    0.046760   0.000000
 Sum of Mulliken charges =  -0.00000   0.00000
 Mulliken charges and spin densities with hydrogens summed into heavy atoms:
               1          2
     1  C    0.030827  -0.000000
     2  C    0.015061   0.000000
     3  C    0.014069  -0.000000
     4  C   -0.013924   0.000000
     5  C    0.025419  -0.000000
     6  O   -0.265421   0.000000
     7  C    0.198340   0.000000
     8  C    0.041806  -0.000000
     9  C    0.005478  -0.000000
    10  N   -0.183096   0.000000
    11  C    0.142594  -0.000000
    12  C   -0.228207   0.000000
    13  S    0.172005  -0.000000
    14  C    0.033044  -0.000000
    15  C    0.007889  -0.000000
    16  C    0.074413   0.000000
    17  C   -0.067811   0.000000
    18  C    0.121229  -0.000000
    19  O   -0.276672   0.000000
    20  C    0.232495   0.000000
    21  C   -0.039082   0.000000
    22  C    0.036823  -0.000000
    23  N   -0.201784   0.000000
    24  C    0.148783   0.000000
    25  C   -0.231632   0.000000
    26  S    0.177751   0.000000
    27  C    0.047683  -0.000000
    28  C   -0.006035   0.000000
    29  C    0.028524  -0.000000
    30  C   -0.009276   0.000000
    31  C    0.031397  -0.000000
    32  O   -0.264124   0.000000
    33  C    0.201199   0.000000
    34  C    0.047633   0.000000
    35  C    0.004549  -0.000000
    36  N   -0.183580  -0.000000
    37  C    0.151336   0.000000
    38  C   -0.227849  -0.000000
    39  S    0.160219  -0.000000
    40  C    0.038749   0.000000
    41  C   -0.001290   0.000000
    42  C    0.076085  -0.000000
    43  C   -0.067544   0.000000
    44  C    0.117225  -0.000000
    45  O   -0.276164  -0.000000
    46  C    0.233213   0.000000
    47  C   -0.033000  -0.000000
    48  C    0.035084   0.000000
    49  N   -0.202067  -0.000000
    50  C    0.142517   0.000000
    51  C   -0.234361  -0.000000
    52  S    0.182742   0.000000
    53  C    0.036054   0.000000
    54  C    0.005879  -0.000000
    55  C    0.074136  -0.000000
    56  C   -0.067858   0.000000
    57  C    0.119592  -0.000000
    58  O   -0.277244  -0.000000
    59  C    0.230193  -0.000000
    60  C   -0.042159   0.000000
    61  C    0.037217  -0.000000
    62  N   -0.201484  -0.000000
    63  C    0.151302   0.000000
    64  C   -0.235173   0.000000
    65  S    0.169308  -0.000000
    66  C    0.039565  -0.000000
    67  C   -0.002508  -0.000000
    68  C    0.075876   0.000000
    69  C   -0.067617  -0.000000
    70  C    0.116191  -0.000000
    71  O   -0.277010   0.000000
    72  C    0.229009   0.000000
    73  C   -0.034812   0.000000
    74  C    0.036507   0.000000
    75  N   -0.201441  -0.000000
    76  C    0.150770  -0.000000
    77  C   -0.234381  -0.000000
    78  S    0.168457   0.000000
    79  C    0.038442  -0.000000
    80  C   -0.004549   0.000000
    81  C    0.074447  -0.000000
    82  C   -0.062465  -0.000000
    83  C    0.119029   0.000000
    84  O   -0.276588  -0.000000
    85  C    0.228579  -0.000000
    86  C   -0.036440   0.000000
    87  C    0.018747   0.000000
    88  N   -0.207038   0.000000
    89  C    0.133704  -0.000000
    90  C   -0.159780   0.000000
    91  S    0.172283  -0.000000
 Electronic spatial extent (au):  <R**2>=         642686.9350
 Charge=              0.0000 electrons
 Dipole moment (field-independent basis, Debye):
    X=              4.6761    Y=             -2.7759    Z=             -6.0526  Tot=              8.1367
 Quadrupole moment (field-independent basis, Debye-Ang):
   XX=           -545.5123   YY=           -530.6039   ZZ=           -563.7059
   XY=             24.0740   XZ=             80.7070   YZ=             11.5109
 Traceless Quadrupole moment (field-independent basis, Debye-Ang):
   XX=              1.0950   YY=             16.0035   ZZ=            -17.0985
   XY=             24.0740   XZ=             80.7070   YZ=             11.5109
 Octapole moment (field-independent basis, Debye-Ang**2):
  XXX=           4328.9696  YYY=           -106.9184  ZZZ=           -100.2974  XYY=            467.1449
  XXY=           -747.1917  XXZ=          -1529.7484  XZZ=           -510.6544  YZZ=              7.0061
  YYZ=            -18.1195  XYZ=             36.7517
 Hexadecapole moment (field-independent basis, Debye-Ang**3):
 XXXX=        -799444.5668 YYYY=         -10990.0359 ZZZZ=          -4512.3876 XXXY=          10675.9366
 XXXZ=          34046.3754 YYYX=            997.5115 YYYZ=            151.7168 ZZZX=           1860.8293
 ZZZY=             28.2144 XXYY=        -138485.8207 XXZZ=        -141613.5677 YYZZ=          -2790.1343
 XXYZ=           2136.4524 YYXZ=            -19.0272 ZZXY=           -635.8887
 N-N= 1.337939201424D+04 E-N=-4.177156736837D+04  KE= 6.362780063333D+03
 Leave Link  601 at Fri Jul 24 13:42:02 2020, MaxMem=  4026531840 cpu:              12.0 elap:               1.6
 (Enter /opt/ohpc/pub/libs/gaussian/g16-A.03/sandybridge/g16/l9999.exe)

 Test job not archived.
 1\1\GINC-SKYLAKE036\FOpt\ULC-wPBE\CC-pVDZ\C70H51N7O7S7\RDU230\24-Jul-2
 020\0\\#P uLC-wPBE/cc-pVDZ iop(3/107=0439700000, 3/108=0439700000) opt
 \\H51 C70 S7 N7 O7\\0,1\C,26.5361338121,1.8375981162,-3.4478465247\C,2
 5.4630008073,2.7076457389,-3.5789654844\C,24.2756902664,2.4309824152,-
 2.9234779743\C,24.1396413868,1.2973202437,-2.1229121161\C,25.224312914
 6,0.4224532546,-2.0039544195\O,25.1096522584,-0.7361840343,-1.29971328
 86\C,25.6418042655,-0.6855210135,0.010356254\C,26.4133215564,0.7011778
 972,-2.6662582755\C,22.8639387958,1.0237993442,-1.4363754281\N,22.7436
 291787,0.6154078693,-0.2121993126\C,21.4292821509,0.4754042309,0.12637
 44886\C,20.5153215249,0.7744195339,-0.837413758\S,21.3613088371,1.2513
 566743,-2.2583628111\C,19.0487314401,0.7255676782,-0.7583199942\C,18.2
 549131826,1.6274439791,-1.4615806224\C,16.8786567893,1.5645598124,-1.3
 538164859\C,16.2505313818,0.6179365736,-0.5511383727\C,17.0542584507,-
 0.2893913038,0.1537494101\O,16.4044456933,-1.1966997844,0.912616771\C,
 17.1485863231,-2.1432310133,1.6409392467\C,18.4371437672,-0.2363795742
 ,0.0438581023\C,14.7792826505,0.6240286493,-0.4933492527\N,14.08202354
 24,1.4896329073,-1.1708088809\C,12.7482980674,1.3153458063,-0.97260989
 05\C,12.3903300919,0.304931796,-0.1329230489\S,13.8171116301,-0.469650
 6801,0.4365109625\C,11.0402254224,-0.1115351908,0.2693711705\C,9.96216
 29428,0.0561326649,-0.6003863115\C,8.6896651518,-0.3126267807,-0.20941
 91387\C,8.4453617554,-0.8783092967,1.0414858325\C,9.5252022568,-1.0473
 277649,1.9136370019\O,9.3357639435,-1.516068245,3.1756420609\C,9.61822
 9412,-2.8927713958,3.3445900114\C,10.8003629321,-0.6639444277,1.523739
 0797\C,7.079314362,-1.2683284745,1.4297238183\N,6.7599662578,-2.354637
 4292,2.0599524578\C,5.4111945321,-2.4281123761,2.2529120812\C,4.668721
 7058,-1.3934162337,1.7716605932\S,5.7341916248,-0.2533894634,1.0438024
 793\C,3.2119199102,-1.2105926897,1.8287958273\C,2.4826896731,-1.721005
 0934,2.8998270038\C,1.1103742124,-1.5647193037,2.9351692464\C,0.423085
 5451,-0.8950524962,1.9276399361\C,1.162710493,-0.3740820921,0.85685541
 3\O,0.4585930992,0.2675571314,-0.0985704389\C,1.1382908154,0.822574593
 5,-1.1988285159\C,2.5410478386,-0.5356468171,0.8107224704\C,-1.0389442
 948,-0.7701095303,2.0492529543\N,-1.6758638901,-1.2751944611,3.0661407
 796\C,-3.0129851287,-1.0463499972,2.9753445769\C,-3.4346171246,-0.3570
 10153,1.8791451486\S,-2.0662661463,0.0230559314,0.9082955115\C,-4.8020
 45714,0.0395850922,1.5170665265\C,-5.0541901079,1.2154290453,0.8148897
 057\C,-6.3529117076,1.5666289154,0.4996079459\C,-7.4353748861,0.774609
 7119,0.8688741872\C,-7.1769906712,-0.4082668967,1.5758734873\O,-8.2540
 221024,-1.1517970125,1.9087014775\C,-8.0681640405,-2.3415331053,2.6359
 933443\C,-5.8740890188,-0.7707046454,1.888598078\C,-8.7852461048,1.226
 53204,0.4931320731\N,-8.9673498602,2.3393054558,-0.1565890752\C,-10.28
 6972615,2.5638573548,-0.3969062038\C,-11.1532412181,1.6206556916,0.065
 2237929\S,-10.2515073844,0.3834485341,0.8516542014\C,-12.6171746588,1.
 5932376547,-0.0532094679\C,-13.3444150643,2.7812134514,-0.0689660201\C
 ,-14.7191276911,2.7467273602,-0.2011252943\C,-15.4150416984,1.54656873
 55,-0.3112476214\C,-14.6801001272,0.3534773948,-0.2863236714\O,-15.391
 4706793,-0.7891358792,-0.3974132554\C,-14.7169006977,-2.0228851522,-0.
 3627448386\C,-13.2976073991,0.3814946331,-0.1614727097\C,-16.880350609
 2,1.6040842354,-0.4420860615\N,-17.513021972,2.7412201204,-0.446147082
 9\C,-18.8551467615,2.5624468878,-0.5754561079\C,-19.2852834484,1.27466
 41226,-0.6755776971\S,-17.9192279278,0.2306392616,-0.5969123723\C,-20.
 6612065782,0.7832876247,-0.8296777557\C,-21.7248012193,1.4782448771,-0
 .2590618995\C,-23.0174001733,1.0193130537,-0.4260152648\C,-23.29746874
 38,-0.1369501668,-1.1474029934\C,-22.2234155929,-0.8374985376,-1.71287
 88108\O,-22.5363746126,-1.952859887,-2.4066966017\C,-21.506272674,-2.7
 014336282,-3.0037236704\C,-20.9227665517,-0.3774648126,-1.5557543533\C
 ,-24.7050229742,-0.5555139022,-1.2698886848\N,-25.6623324993,0.1340636
 281,-0.7215731393\C,-26.8802794726,-0.4310431804,-0.9592827257\C,-26.8
 64143561,-1.5670684788,-1.697777459\S,-25.2552814324,-1.9576206498,-2.
 1211435134\H,27.4739568864,2.0411156301,-3.9642383867\H,25.5498183764,
 3.603143323,-4.1926162501\H,23.4334210576,3.1172363048,-3.0155724835\H
 ,25.0544999199,0.0004773104,0.6343626935\H,25.5693583285,-1.6993946325
 ,0.4169587285\H,26.6985297981,-0.3777206473,-0.0011022966\H,27.2334182
 288,-0.0096038734,-2.5714913949\H,21.1740404676,0.1671316639,1.1383864
 565\H,18.7151780125,2.3935505029,-2.0841431693\H,16.2423515284,2.26340
 88859,-1.8931681163\H,17.8118034468,-1.6562424311,2.3700409988\H,17.74
 26355566,-2.784765652,0.974619993\H,16.4185957421,-2.7582957509,2.1744
 174044\H,19.0570707094,-0.9613168144,0.564345506\H,12.0484338691,1.989
 2874912,-1.4628538722\H,10.1259090938,0.4599459865,-1.5980079718\H,7.8
 595289986,-0.1871983099,-0.9048353586\H,9.5160575057,-3.1032639852,4.4
 138971218\H,8.8980741264,-3.5013116766,2.782790146\H,10.6454018376,-3.
 1290453972,3.0274776402\H,11.6065101586,-0.7738894003,2.2487678608\H,4
 .9937914955,-3.3029899534,2.7470912607\H,2.9938439701,-2.2235685138,3.
 7187747714\H,0.5240701872,-1.9549729182,3.7647565697\H,1.6549180048,0.
 0476792238,-1.7829530124\H,0.3730178237,1.2918617261,-1.8232108906\H,1
 .8618389546,1.5858806046,-0.8789071286\H,3.1069868221,-0.1502571058,-0
 .0340429709\H,-3.6639193551,-1.3928783559,3.77583993\H,-4.2315804676,1
 .8690862374,0.5280031737\H,-6.5683433334,2.4838990392,-0.0448554855\H,
 -7.5894210498,-2.1472269291,3.6063758108\H,-7.4685698183,-3.0688398084
 ,2.0701197064\H,-9.0668671616,-2.7537454453,2.8052376515\H,-5.67429615
 86,-1.7044199693,2.4072608533\H,-10.5806321261,3.4515791751,-0.9536062
 721\H,-12.8330387706,3.7353548959,0.0438219613\H,-15.303414954,3.66477
 39358,-0.2125698384\H,-14.1786181731,-2.1588583492,0.5861684538\H,-15.
 4877346654,-2.7935823905,-0.4514747679\H,-14.0120028953,-2.1190405369,
 -1.2010018858\H,-12.729972013,-0.5459212156,-0.1669144935\H,-19.504524
 3458,3.4347246979,-0.6157856686\H,-21.5371668745,2.370519195,0.3353593
 17\H,-23.8604215803,1.5482953686,0.0142776352\H,-20.7984392923,-3.0803
 238717,-2.2525238786\H,-20.9624354033,-2.1093170573,-3.753682838\H,-21
 .9924394395,-3.5472546268,-3.4979549039\H,-20.0953949365,-0.9113955902
 ,-2.0170178593\H,-27.7732818695,0.0431597682,-0.5574429332\H,-27.70397
 40397,-2.181331431,-2.007778329\\Version=EM64L-G16RevA.03\State=1-A\HF
 =-6392.198005\S2=0.\S2-1=0.\S2A=0.\RMSD=5.183e-09\RMSF=1.788e-06\Dipol
 e=1.8586512,-2.5396229,-0.5860883\Quadrupole=-0.0584681,5.5754855,-5.5
 170174,58.4389628,22.505565,-13.9131364\PG=C01 [X(C70H51N7O7S7)]\\@


 DON'T WORRY CHARLIE BROWN...WE LEARN MORE FROM LOSING 
 THAN WE DO FROM WINNING.
 THEN THAT MAKES ME THE SMARTEST PERSON IN THE WORLD...
 CHARLES SCHULZ 'PEANUTS'
 Job cpu time:       2 days 23 hours 49 minutes 40.8 seconds.
 Elapsed time:       0 days  9 hours  7 minutes  8.2 seconds.
 File lengths (MBytes):  RWF=   2692 Int=      0 D2E=      0 Chk=    244 Scr=      8
 Normal termination of Gaussian 16 at Fri Jul 24 13:42:02 2020.
