 Entering Gaussian System, Link 0=g16
 Input=mols_55_1_08_N-COC_opt_0.gjf
 Output=mols_55_1_08_N-COC_opt_0.log
 Initial command:
 /opt/ohpc/pub/libs/gaussian/g16-A.03/sandybridge/g16/l1.exe "/mnt/gpfs2_4m/scratch/rdu230/ondemand/projects/dihedral_energies/7trial/wtuning/mols_55_1_08_N-COC/Gau-341243.inp" -scrdir="/mnt/gpfs2_4m/scratch/rdu230/ondemand/projects/dihedral_energies/7trial/wtuning/mols_55_1_08_N-COC/"
 Entering Link 1 = /opt/ohpc/pub/libs/gaussian/g16-A.03/sandybridge/g16/l1.exe PID=    341244.
  
 Copyright (c) 1988,1990,1992,1993,1995,1998,2003,2009,2016,
            Gaussian, Inc.  All Rights Reserved.
  
 This is part of the Gaussian(R) 16 program.  It is based on
 the Gaussian(R) 09 system (copyright 2009, Gaussian, Inc.),
 the Gaussian(R) 03 system (copyright 2003, Gaussian, Inc.),
 the Gaussian(R) 98 system (copyright 1998, Gaussian, Inc.),
 the Gaussian(R) 94 system (copyright 1995, Gaussian, Inc.),
 the Gaussian 92(TM) system (copyright 1992, Gaussian, Inc.),
 the Gaussian 90(TM) system (copyright 1990, Gaussian, Inc.),
 the Gaussian 88(TM) system (copyright 1988, Gaussian, Inc.),
 the Gaussian 86(TM) system (copyright 1986, Carnegie Mellon
 University), and the Gaussian 82(TM) system (copyright 1983,
 Carnegie Mellon University). Gaussian is a federally registered
 trademark of Gaussian, Inc.
  
 This software contains proprietary and confidential information,
 including trade secrets, belonging to Gaussian, Inc.
  
 This software is provided under written license and may be
 used, copied, transmitted, or stored only in accord with that
 written license.
  
 The following legend is applicable only to US Government
 contracts under FAR:
  
                    RESTRICTED RIGHTS LEGEND
  
 Use, reproduction and disclosure by the US Government is
 subject to restrictions as set forth in subparagraphs (a)
 and (c) of the Commercial Computer Software - Restricted
 Rights clause in FAR 52.227-19.
  
 Gaussian, Inc.
 340 Quinnipiac St., Bldg. 40, Wallingford CT 06492
  
  
 ---------------------------------------------------------------
 Warning -- This program may not be used in any manner that
 competes with the business of Gaussian, Inc. or will provide
 assistance to any competitor of Gaussian, Inc.  The licensee
 of this program is prohibited from giving any competitor of
 Gaussian, Inc. access to this program.  By using this program,
 the user acknowledges that Gaussian, Inc. is engaged in the
 business of creating and licensing software in the field of
 computational chemistry and represents and warrants to the
 licensee that it is not a competitor of Gaussian, Inc. and that
 it will not use this program in any manner prohibited above.
 ---------------------------------------------------------------
  

 Cite this work as:
 Gaussian 16, Revision A.03,
 M. J. Frisch, G. W. Trucks, H. B. Schlegel, G. E. Scuseria, 
 M. A. Robb, J. R. Cheeseman, G. Scalmani, V. Barone, 
 G. A. Petersson, H. Nakatsuji, X. Li, M. Caricato, A. V. Marenich, 
 J. Bloino, B. G. Janesko, R. Gomperts, B. Mennucci, H. P. Hratchian, 
 J. V. Ortiz, A. F. Izmaylov, J. L. Sonnenberg, D. Williams-Young, 
 F. Ding, F. Lipparini, F. Egidi, J. Goings, B. Peng, A. Petrone, 
 T. Henderson, D. Ranasinghe, V. G. Zakrzewski, J. Gao, N. Rega, 
 G. Zheng, W. Liang, M. Hada, M. Ehara, K. Toyota, R. Fukuda, 
 J. Hasegawa, M. Ishida, T. Nakajima, Y. Honda, O. Kitao, H. Nakai, 
 T. Vreven, K. Throssell, J. A. Montgomery, Jr., J. E. Peralta, 
 F. Ogliaro, M. J. Bearpark, J. J. Heyd, E. N. Brothers, K. N. Kudin, 
 V. N. Staroverov, T. A. Keith, R. Kobayashi, J. Normand, 
 K. Raghavachari, A. P. Rendell, J. C. Burant, S. S. Iyengar, 
 J. Tomasi, M. Cossi, J. M. Millam, M. Klene, C. Adamo, R. Cammi, 
 J. W. Ochterski, R. L. Martin, K. Morokuma, O. Farkas, 
 J. B. Foresman, and D. J. Fox, Gaussian, Inc., Wallingford CT, 2016.
 
 ******************************************
 Gaussian 16:  EM64L-G16RevA.03 25-Dec-2016
                23-Jul-2020 
 ******************************************
 %mem=30GB
 %nproc=8
 Will use up to    8 processors via shared memory.
 ---------------------------------------------------------------
 #P uLC-wPBE/cc-pVDZ iop(3/107=0272400000, 3/108=0272400000) opt
 ---------------------------------------------------------------
 1/18=20,19=15,26=3,38=1/1,3;
 2/9=110,12=2,17=6,18=5,40=1/2;
 3/5=16,11=2,25=1,30=1,71=1,74=-41,107=272400000,108=272400000,116=2/1,2,3;
 4//1;
 5/5=2,38=5/2;
 6/7=2,8=2,9=2,10=2,28=1/1;
 7//1,2,3,16;
 1/18=20,19=15,26=3/3(2);
 2/9=110/2;
 99//99;
 2/9=110/2;
 3/5=16,11=2,25=1,30=1,71=1,74=-41,107=272400000,108=272400000,116=2/1,2,3;
 4/5=5,16=3,69=1/1;
 5/5=2,38=5/2;
 7//1,2,3,16;
 1/18=20,19=15,26=3/3(-5);
 2/9=110/2;
 6/7=2,8=2,9=2,10=2,19=2,28=1/1;
 99/9=1/99;
 Leave Link    1 at Thu Jul 23 18:13:05 2020, MaxMem=  4026531840 cpu:               3.8 elap:               0.6
 (Enter /opt/ohpc/pub/libs/gaussian/g16-A.03/sandybridge/g16/l101.exe)
 --------------
 H7 C8 S2 N1 O1
 --------------
 Symbolic Z-matrix:
 Charge =  0 Multiplicity = 1
 C                    -3.32595   0.461    -0.11477 
 C                    -3.19609  -0.74812   0.44136 
 N                    -1.85148  -1.15532   0.59561 
 C                    -1.00029  -0.27073   0.0722 
 S                    -1.81742   1.09521  -0.55434 
 C                     0.41746  -0.44347  -0.01181 
 C                     1.36873   0.47423   0.04587 
 O                     1.11204   1.75817   0.19906 
 C                     2.30591   2.64339   0.28247 
 C                     2.72076  -0.14375   0.00278 
 C                     2.63116  -1.54163  -0.13351 
 S                     0.98906  -2.08305  -0.11489 
 H                    -4.2459    0.98033  -0.25169 
 H                    -3.91746  -1.38854   0.86487 
 H                     2.84315   2.59825  -0.68288 
 H                     2.85434   2.39029   1.18127 
 H                     1.8672    3.7013    0.45453 
 H                     3.61832   0.41395  -0.01288 
 H                     3.38945  -2.21647  -0.27488 
 
 ITRead=  0  0  0  0  0  0  0  0  0  0  0  0  0  0  0  0  0  0  0
 MicOpt= -1 -1 -1 -1 -1 -1 -1 -1 -1 -1 -1 -1 -1 -1 -1 -1 -1 -1 -1
 NAtoms=     19 NQM=       19 NQMF=       0 NMMI=      0 NMMIF=      0
                NMic=       0 NMicF=      0.
                    Isotopes and Nuclear Properties:
 (Nuclear quadrupole moments (NQMom) in fm**2, nuclear magnetic moments (NMagM)
  in nuclear magnetons)

  Atom         1           2           3           4           5           6           7           8           9          10
 IAtWgt=          12          12          14          12          32          12          12          16          12          12
 AtmWgt=  12.0000000  12.0000000  14.0030740  12.0000000  31.9720718  12.0000000  12.0000000  15.9949146  12.0000000  12.0000000
 NucSpn=           0           0           2           0           0           0           0           0           0           0
 AtZEff=  -0.0000000  -0.0000000  -0.0000000  -0.0000000  -0.0000000  -0.0000000  -0.0000000  -0.0000000  -0.0000000  -0.0000000
 NQMom=    0.0000000   0.0000000   2.0440000   0.0000000   0.0000000   0.0000000   0.0000000   0.0000000   0.0000000   0.0000000
 NMagM=    0.0000000   0.0000000   0.4037610   0.0000000   0.0000000   0.0000000   0.0000000   0.0000000   0.0000000   0.0000000
 AtZNuc=   6.0000000   6.0000000   7.0000000   6.0000000  16.0000000   6.0000000   6.0000000   8.0000000   6.0000000   6.0000000

  Atom        11          12          13          14          15          16          17          18          19
 IAtWgt=          12          32           1           1           1           1           1           1           1
 AtmWgt=  12.0000000  31.9720718   1.0078250   1.0078250   1.0078250   1.0078250   1.0078250   1.0078250   1.0078250
 NucSpn=           0           0           1           1           1           1           1           1           1
 AtZEff=  -0.0000000  -0.0000000  -0.0000000  -0.0000000  -0.0000000  -0.0000000  -0.0000000  -0.0000000  -0.0000000
 NQMom=    0.0000000   0.0000000   0.0000000   0.0000000   0.0000000   0.0000000   0.0000000   0.0000000   0.0000000
 NMagM=    0.0000000   0.0000000   2.7928460   2.7928460   2.7928460   2.7928460   2.7928460   2.7928460   2.7928460
 AtZNuc=   6.0000000  16.0000000   1.0000000   1.0000000   1.0000000   1.0000000   1.0000000   1.0000000   1.0000000
 Leave Link  101 at Thu Jul 23 18:13:06 2020, MaxMem=  4026531840 cpu:               2.7 elap:               0.5
 (Enter /opt/ohpc/pub/libs/gaussian/g16-A.03/sandybridge/g16/l103.exe)

 GradGradGradGradGradGradGradGradGradGradGradGradGradGradGradGradGradGrad
 Berny optimization.
 Initialization pass.
                           ----------------------------
                           !    Initial Parameters    !
                           ! (Angstroms and Degrees)  !
 --------------------------                            --------------------------
 ! Name  Definition              Value          Derivative Info.                !
 --------------------------------------------------------------------------------
 ! R1    R(1,2)                  1.3372         estimate D2E/DX2                !
 ! R2    R(1,5)                  1.6944         estimate D2E/DX2                !
 ! R3    R(1,13)                 1.0652         estimate D2E/DX2                !
 ! R4    R(2,3)                  1.4133         estimate D2E/DX2                !
 ! R5    R(2,14)                 1.0535         estimate D2E/DX2                !
 ! R6    R(3,4)                  1.3345         estimate D2E/DX2                !
 ! R7    R(4,5)                  1.7106         estimate D2E/DX2                !
 ! R8    R(4,6)                  1.4307         estimate D2E/DX2                !
 ! R9    R(6,7)                  1.323          estimate D2E/DX2                !
 ! R10   R(6,12)                 1.7394         estimate D2E/DX2                !
 ! R11   R(7,8)                  1.3183         estimate D2E/DX2                !
 ! R12   R(7,10)                 1.4872         estimate D2E/DX2                !
 ! R13   R(8,9)                  1.4886         estimate D2E/DX2                !
 ! R14   R(9,15)                 1.1057         estimate D2E/DX2                !
 ! R15   R(9,16)                 1.0829         estimate D2E/DX2                !
 ! R16   R(9,17)                 1.1581         estimate D2E/DX2                !
 ! R17   R(10,11)                1.4074         estimate D2E/DX2                !
 ! R18   R(10,18)                1.0568         estimate D2E/DX2                !
 ! R19   R(11,12)                1.7292         estimate D2E/DX2                !
 ! R20   R(11,19)                1.0249         estimate D2E/DX2                !
 ! A1    A(2,1,5)              111.092          estimate D2E/DX2                !
 ! A2    A(2,1,13)             125.3202         estimate D2E/DX2                !
 ! A3    A(5,1,13)             123.5755         estimate D2E/DX2                !
 ! A4    A(1,2,3)              113.4715         estimate D2E/DX2                !
 ! A5    A(1,2,14)             130.5683         estimate D2E/DX2                !
 ! A6    A(3,2,14)             115.6211         estimate D2E/DX2                !
 ! A7    A(2,3,4)              111.9022         estimate D2E/DX2                !
 ! A8    A(3,4,5)              111.6093         estimate D2E/DX2                !
 ! A9    A(3,4,6)              125.1027         estimate D2E/DX2                !
 ! A10   A(5,4,6)              123.2486         estimate D2E/DX2                !
 ! A11   A(1,5,4)               91.7982         estimate D2E/DX2                !
 ! A12   A(4,6,7)              128.7696         estimate D2E/DX2                !
 ! A13   A(4,6,12)             116.291          estimate D2E/DX2                !
 ! A14   A(7,6,12)             114.8425         estimate D2E/DX2                !
 ! A15   A(6,7,8)              122.7264         estimate D2E/DX2                !
 ! A16   A(6,7,10)             111.3561         estimate D2E/DX2                !
 ! A17   A(8,7,10)             125.8103         estimate D2E/DX2                !
 ! A18   A(7,8,9)              115.4375         estimate D2E/DX2                !
 ! A19   A(8,9,15)             108.4505         estimate D2E/DX2                !
 ! A20   A(8,9,16)             108.282          estimate D2E/DX2                !
 ! A21   A(8,9,17)             104.343          estimate D2E/DX2                !
 ! A22   A(15,9,16)            117.9712         estimate D2E/DX2                !
 ! A23   A(15,9,17)            110.5526         estimate D2E/DX2                !
 ! A24   A(16,9,17)            106.3815         estimate D2E/DX2                !
 ! A25   A(7,10,11)            110.9572         estimate D2E/DX2                !
 ! A26   A(7,10,18)            123.5902         estimate D2E/DX2                !
 ! A27   A(11,10,18)           125.225          estimate D2E/DX2                !
 ! A28   A(10,11,12)           111.7412         estimate D2E/DX2                !
 ! A29   A(10,11,19)           128.3356         estimate D2E/DX2                !
 ! A30   A(12,11,19)           119.8644         estimate D2E/DX2                !
 ! A31   A(6,12,11)             91.0069         estimate D2E/DX2                !
 ! D1    D(5,1,2,3)              3.5477         estimate D2E/DX2                !
 ! D2    D(5,1,2,14)           176.4568         estimate D2E/DX2                !
 ! D3    D(13,1,2,3)          -175.2097         estimate D2E/DX2                !
 ! D4    D(13,1,2,14)           -2.3006         estimate D2E/DX2                !
 ! D5    D(2,1,5,4)             -1.8484         estimate D2E/DX2                !
 ! D6    D(13,1,5,4)           176.9347         estimate D2E/DX2                !
 ! D7    D(1,2,3,4)             -3.887          estimate D2E/DX2                !
 ! D8    D(14,2,3,4)          -177.9176         estimate D2E/DX2                !
 ! D9    D(2,3,4,5)              2.3808         estimate D2E/DX2                !
 ! D10   D(2,3,4,6)           -175.392          estimate D2E/DX2                !
 ! D11   D(3,4,5,1)             -0.3684         estimate D2E/DX2                !
 ! D12   D(6,4,5,1)            177.4528         estimate D2E/DX2                !
 ! D13   D(3,4,6,7)           -148.0413         estimate D2E/DX2                !
 ! D14   D(3,4,6,12)            28.1621         estimate D2E/DX2                !
 ! D15   D(5,4,6,7)             34.4348         estimate D2E/DX2                !
 ! D16   D(5,4,6,12)          -149.3618         estimate D2E/DX2                !
 ! D17   D(4,6,7,8)             -0.0118         estimate D2E/DX2                !
 ! D18   D(4,6,7,10)           176.423          estimate D2E/DX2                !
 ! D19   D(12,6,7,8)          -176.261          estimate D2E/DX2                !
 ! D20   D(12,6,7,10)            0.1739         estimate D2E/DX2                !
 ! D21   D(4,6,12,11)         -178.4796         estimate D2E/DX2                !
 ! D22   D(7,6,12,11)           -1.7408         estimate D2E/DX2                !
 ! D23   D(6,7,8,9)            178.2902         estimate D2E/DX2                !
 ! D24   D(10,7,8,9)             2.3854         estimate D2E/DX2                !
 ! D25   D(6,7,10,11)            1.9815         estimate D2E/DX2                !
 ! D26   D(6,7,10,18)          176.7496         estimate D2E/DX2                !
 ! D27   D(8,7,10,11)          178.283          estimate D2E/DX2                !
 ! D28   D(8,7,10,18)           -6.9489         estimate D2E/DX2                !
 ! D29   D(7,8,9,15)            64.2794         estimate D2E/DX2                !
 ! D30   D(7,8,9,16)           -64.8408         estimate D2E/DX2                !
 ! D31   D(7,8,9,17)          -177.8609         estimate D2E/DX2                !
 ! D32   D(7,10,11,12)          -3.2408         estimate D2E/DX2                !
 ! D33   D(7,10,11,19)         173.9268         estimate D2E/DX2                !
 ! D34   D(18,10,11,12)       -177.9054         estimate D2E/DX2                !
 ! D35   D(18,10,11,19)         -0.7378         estimate D2E/DX2                !
 ! D36   D(10,11,12,6)           2.8447         estimate D2E/DX2                !
 ! D37   D(19,11,12,6)        -174.5936         estimate D2E/DX2                !
 --------------------------------------------------------------------------------
 Trust Radius=3.00D-01 FncErr=1.00D-07 GrdErr=1.00D-06 EigMax=2.50D+02 EigMin=1.00D-04
 Number of steps in this run=     98 maximum allowed number of steps=    114.
 GradGradGradGradGradGradGradGradGradGradGradGradGradGradGradGradGradGrad

 Leave Link  103 at Thu Jul 23 18:13:06 2020, MaxMem=  4026531840 cpu:               0.1 elap:               0.1
 (Enter /opt/ohpc/pub/libs/gaussian/g16-A.03/sandybridge/g16/l202.exe)
                          Input orientation:                          
 ---------------------------------------------------------------------
 Center     Atomic      Atomic             Coordinates (Angstroms)
 Number     Number       Type             X           Y           Z
 ---------------------------------------------------------------------
      1          6           0       -3.325951    0.460999   -0.114772
      2          6           0       -3.196085   -0.748119    0.441360
      3          7           0       -1.851483   -1.155315    0.595607
      4          6           0       -1.000292   -0.270730    0.072200
      5         16           0       -1.817415    1.095212   -0.554342
      6          6           0        0.417458   -0.443470   -0.011805
      7          6           0        1.368733    0.474234    0.045869
      8          8           0        1.112041    1.758172    0.199056
      9          6           0        2.305908    2.643391    0.282466
     10          6           0        2.720755   -0.143752    0.002778
     11          6           0        2.631159   -1.541632   -0.133514
     12         16           0        0.989061   -2.083048   -0.114893
     13          1           0       -4.245900    0.980325   -0.251688
     14          1           0       -3.917464   -1.388544    0.864873
     15          1           0        2.843145    2.598249   -0.682882
     16          1           0        2.854341    2.390290    1.181273
     17          1           0        1.867197    3.701301    0.454532
     18          1           0        3.618317    0.413951   -0.012876
     19          1           0        3.389453   -2.216468   -0.274882
 ---------------------------------------------------------------------
                    Distance matrix (angstroms):
                    1          2          3          4          5
     1  C    0.000000
     2  C    1.337204   0.000000
     3  N    2.300253   1.413349   0.000000
     4  C    2.445215   2.277210   1.334530   0.000000
     5  S    1.694441   2.507992   2.527531   1.710568   0.000000
     6  C    3.852503   3.654567   2.454336   1.430703   2.767046
     7  C    4.697450   4.742164   3.650676   2.483535   3.301122
     8  O    4.634320   4.990006   4.174702   2.931635   3.096585
     9  C    6.052972   6.465254   5.640224   4.412173   4.483179
    10  C    6.078009   5.963775   4.720177   3.723860   4.737130
    11  C    6.284747   5.909054   4.557953   3.852914   5.188435
    12  S    5.009142   4.427968   3.071512   2.697596   4.262717
    13  H    1.065247   2.137743   3.318448   3.493424   2.449967
    14  H    2.174949   1.053516   2.096468   3.223000   3.548721
    15  H    6.553498   6.995313   6.145186   4.855224   4.898618
    16  H    6.602871   6.856000   5.921072   4.813446   5.149261
    17  H    6.147556   6.740500   6.118431   4.913828   4.624488
    18  H    6.945175   6.927684   5.722898   4.669858   5.504951
    19  H    7.231260   6.785157   5.417675   4.814169   6.177119
                    6          7          8          9         10
     6  C    0.000000
     7  C    1.323039   0.000000
     8  O    2.318218   1.318277   0.000000
     9  C    3.630640   2.374767   1.488586   0.000000
    10  C    2.322761   1.487188   2.498760   2.831694   0.000000
    11  C    2.474115   2.385291   3.647880   4.218204   1.407363
    12  S    1.739417   2.590306   3.855990   4.922520   2.602591
    13  H    4.881766   5.645243   5.432840   6.780656   7.061344
    14  H    4.522530   5.664326   5.970013   7.438149   6.808720
    15  H    3.947956   2.686337   2.116664   1.105694   2.829077
    16  H    3.923268   2.677208   2.097602   1.082909   2.797868
    17  H    4.415692   3.290810   2.100304   1.158122   3.964477
    18  H    3.313709   2.251158   2.851888   2.603852   1.056833
    19  H    3.470661   3.380247   4.605321   5.010283   2.195542
                   11         12         13         14         15
    11  C    0.000000
    12  S    1.729151   0.000000
    13  H    7.325856   6.066942   0.000000
    14  H    6.626060   5.051363   2.639341   0.000000
    15  H    4.181550   5.067029   7.284104   7.999744   0.000000
    16  H    4.151926   5.016978   7.379350   7.761252   1.875752
    17  H    5.330833   5.878270   6.728478   7.716036   1.860889
    18  H    2.193932   3.627451   7.888201   7.797912   2.412666
    19  H    1.024889   2.409415   8.277599   7.441474   4.862758
                   16         17         18         19
    16  H    0.000000
    17  H    1.794814   0.000000
    18  H    2.432194   3.753873   0.000000
    19  H    4.860962   6.153804   2.653324   0.000000
 Stoichiometry    C8H7NOS2
 Framework group  C1[X(C8H7NOS2)]
 Deg. of freedom    51
 Full point group                 C1      NOp   1
 Largest Abelian subgroup         C1      NOp   1
 Largest concise Abelian subgroup C1      NOp   1
                         Standard orientation:                         
 ---------------------------------------------------------------------
 Center     Atomic      Atomic             Coordinates (Angstroms)
 Number     Number       Type             X           Y           Z
 ---------------------------------------------------------------------
      1          6           0       -3.329248    0.493700   -0.084680
      2          6           0       -3.204407   -0.723115    0.455589
      3          7           0       -1.861784   -1.141813    0.595624
      4          6           0       -1.007747   -0.256931    0.077379
      5         16           0       -1.819148    1.122488   -0.526669
      6          6           0        0.408116   -0.438769   -0.018420
      7          6           0        1.366384    0.471311    0.044085
      8          8           0        1.120041    1.755059    0.214853
      9          6           0        2.320827    2.630601    0.301036
     10          6           0        2.713571   -0.155763   -0.015850
     11          6           0        2.612930   -1.551170   -0.168769
     12         16           0        0.967114   -2.080997   -0.145631
     13          1           0       -4.246309    1.021260   -0.208898
     14          1           0       -3.927542   -1.363554    0.876077
     15          1           0        2.851212    2.593575   -0.668438
     16          1           0        2.873450    2.362461    1.192889
     17          1           0        1.890964    3.689414    0.489133
     18          1           0        3.615026    0.395647   -0.030743
     19          1           0        3.365344   -2.229617   -0.323624
 ---------------------------------------------------------------------
 Rotational constants (GHZ):           1.1774786           0.6064796           0.4150179
 Leave Link  202 at Thu Jul 23 18:13:06 2020, MaxMem=  4026531840 cpu:               0.2 elap:               0.0
 (Enter /opt/ohpc/pub/libs/gaussian/g16-A.03/sandybridge/g16/l301.exe)
 Standard basis: CC-pVDZ (5D, 7F)
 Ernie: Thresh=  0.10000D-02 Tol=  0.10000D-05 Strict=F.
 Ernie:  40 primitive shells out of 355 were deleted.
 There are   223 symmetry adapted cartesian basis functions of A   symmetry.
 There are   211 symmetry adapted basis functions of A   symmetry.
   211 basis functions,   521 primitive gaussians,   223 cartesian basis functions
    51 alpha electrons       51 beta electrons
       nuclear repulsion energy       866.2287550122 Hartrees.
 IExCor=32609 DFT=T Ex+Corr=LC-wPBE ExCW=0 ScaHFX=  1.000000
 ScaDFX=  1.000000  0.000000  1.000000  1.000000 ScalE2=  1.000000  1.000000
 IRadAn=      5 IRanWt=     -1 IRanGd=            0 ICorTp=0 IEmpDi=  4
 HFx  wShort=  0.000000 wLong=  0.272400 cFull=  0.000000 cShort=  0.000000 cLong=  1.000000
 DFx  wShort=  0.000000 wLong=  0.272400 cFull=  0.000000 cShort=  0.000000 cLong=  1.000000
 NAtoms=   19 NActive=   19 NUniq=   19 SFac= 1.00D+00 NAtFMM=   60 NAOKFM=F Big=F
 Integral buffers will be    131072 words long.
 Raffenetti 2 integral format.
 Two-electron integral symmetry is turned on.
 Leave Link  301 at Thu Jul 23 18:13:07 2020, MaxMem=  4026531840 cpu:               0.8 elap:               0.2
 (Enter /opt/ohpc/pub/libs/gaussian/g16-A.03/sandybridge/g16/l302.exe)
 NPDir=0 NMtPBC=     1 NCelOv=     1 NCel=       1 NClECP=     1 NCelD=      1
         NCelK=      1 NCelE2=     1 NClLst=     1 CellRange=     0.0.
 One-electron integrals computed using PRISM.
 One-electron integral symmetry used in STVInt
 NBasis=   211 RedAO= T EigKep=  5.92D-04  NBF=   211
 NBsUse=   211 1.00D-06 EigRej= -1.00D+00 NBFU=   211
 Precomputing XC quadrature grid using
 IXCGrd= 4 IRadAn=           5 IRanWt=          -1 IRanGd=           0 AccXCQ= 0.00D+00.
 Generated NRdTot=       0 NPtTot=           0 NUsed=           0 NTot=          32
 NSgBfM=   223   223   223   223   223 MxSgAt=    19 MxSgA2=    19.
 Leave Link  302 at Thu Jul 23 18:13:08 2020, MaxMem=  4026531840 cpu:               8.2 elap:               1.5
 (Enter /opt/ohpc/pub/libs/gaussian/g16-A.03/sandybridge/g16/l303.exe)
 DipDrv:  MaxL=1.
 Leave Link  303 at Thu Jul 23 18:13:09 2020, MaxMem=  4026531840 cpu:               0.3 elap:               0.0
 (Enter /opt/ohpc/pub/libs/gaussian/g16-A.03/sandybridge/g16/l401.exe)
 ExpMin= 1.22D-01 ExpMax= 1.11D+05 ExpMxC= 1.07D+03 IAcc=3 IRadAn=         5 AccDes= 0.00D+00
 Harris functional with IExCor=32609 and IRadAn=       5 diagonalized for initial guess.
 HarFok:  IExCor=32609 AccDes= 0.00D+00 IRadAn=         5 IDoV= 1 UseB2=F ITyADJ=14
 ICtDFT=  3500011 ScaDFX=  1.000000  1.000000  1.000000  1.000000
 FoFCou: FMM=F IPFlag=           0 FMFlag=      100000 FMFlg1=           0
         NFxFlg=           0 DoJE=T BraDBF=F KetDBF=T FulRan=T
         wScrn=  0.000000 ICntrl=       500 IOpCl=  0 I1Cent=   200000004 NGrid=           0
         NMat0=    1 NMatS0=      1 NMatT0=    0 NMatD0=    1 NMtDS0=    0 NMtDT0=    0
 Petite list used in FoFCou.
 Harris En= -1234.68407685401    
 JPrj=0 DoOrth=F DoCkMO=F.
 Initial guess <Sx>= 0.0000 <Sy>= 0.0000 <Sz>= 0.0000 <S**2>=-0.0000 S=-0.0000
 Leave Link  401 at Thu Jul 23 18:13:10 2020, MaxMem=  4026531840 cpu:               8.2 elap:               1.1
 (Enter /opt/ohpc/pub/libs/gaussian/g16-A.03/sandybridge/g16/l502.exe)
 Integral symmetry usage will be decided dynamically.
 UHF open shell SCF:
 Using DIIS extrapolation, IDIIS=  1040.
 NGot=  4026531840 LenX=  4026428191 LenY=  4026378021
 Requested convergence on RMS density matrix=1.00D-08 within 128 cycles.
 Requested convergence on MAX density matrix=1.00D-06.
 Requested convergence on             energy=1.00D-06.
 No special actions if energy rises.
 Fock matrices will be formed incrementally for  20 cycles.
 Integral accuracy reduced to 1.0D-05 until final iterations.

 Cycle   1  Pass 0  IDiag  1:
 FoFJK:  IHMeth= 1 ICntrl=       0 DoSepK=T KAlg= 0 I1Cent=           0 FoldK=F
 IRaf=         1 NMat=       1 IRICut=       1 DoRegI=T DoRafI=F ISym2E= 0 IDoP0=0 IntGTp=1.
 FoFCou: FMM=F IPFlag=           0 FMFlag=      100000 FMFlg1=           0
         NFxFlg=           0 DoJE=T BraDBF=F KetDBF=F FulRan=T
         wScrn=  0.000000 ICntrl=       500 IOpCl=  0 I1Cent=           0 NGrid=           0
         NMat0=    1 NMatS0=      1 NMatT0=    0 NMatD0=    1 NMtDS0=    0 NMtDT0=    0
 Symmetry not used in FoFCou.
 E= -1234.49132840831    
 DIIS: error= 1.87D-02 at cycle   1 NSaved=   1.
 NSaved= 1 IEnMin= 1 EnMin= -1234.49132840831     IErMin= 1 ErrMin= 1.87D-02
 ErrMax= 1.87D-02  0.00D+00 EMaxC= 1.00D-01 BMatC= 1.03D+00 BMatP= 1.03D+00
 IDIUse=3 WtCom= 8.13D-01 WtEn= 1.87D-01
 Coeff-Com:  0.100D+01
 Coeff-En:   0.100D+01
 Coeff:      0.100D+01
 Gap=     0.324 Goal=   None    Shift=    0.000
 Gap=     0.324 Goal=   None    Shift=    0.000
 GapD=    0.324 DampG=1.000 DampE=0.500 DampFc=0.5000 IDamp=-1.
 Damping current iteration by 5.00D-01
 RMSDP=4.98D-03 MaxDP=1.34D-01              OVMax= 1.94D-01

 Cycle   2  Pass 0  IDiag  1:
 RMSU=  2.48D-03    CP:  9.92D-01
 E= -1234.63589683102     Delta-E=       -0.144568422701 Rises=F Damp=T
 DIIS: error= 3.51D-03 at cycle   2 NSaved=   2.
 NSaved= 2 IEnMin= 2 EnMin= -1234.63589683102     IErMin= 2 ErrMin= 3.51D-03
 ErrMax= 3.51D-03  0.00D+00 EMaxC= 1.00D-01 BMatC= 3.74D-02 BMatP= 1.03D+00
 IDIUse=3 WtCom= 9.65D-01 WtEn= 3.51D-02
 Coeff-Com:  0.681D-02 0.993D+00
 Coeff-En:   0.000D+00 0.100D+01
 Coeff:      0.657D-02 0.993D+00
 Gap=     0.319 Goal=   None    Shift=    0.000
 Gap=     0.319 Goal=   None    Shift=    0.000
 RMSDP=1.04D-03 MaxDP=2.19D-02 DE=-1.45D-01 OVMax= 1.08D-01

 Cycle   3  Pass 0  IDiag  1:
 RMSU=  1.03D-03    CP:  9.88D-01  1.00D+00
 E= -1234.78318344752     Delta-E=       -0.147286616504 Rises=F Damp=F
 DIIS: error= 2.85D-03 at cycle   3 NSaved=   3.
 NSaved= 3 IEnMin= 3 EnMin= -1234.78318344752     IErMin= 3 ErrMin= 2.85D-03
 ErrMax= 2.85D-03  0.00D+00 EMaxC= 1.00D-01 BMatC= 1.73D-02 BMatP= 3.74D-02
 IDIUse=3 WtCom= 9.72D-01 WtEn= 2.85D-02
 Coeff-Com: -0.821D-02 0.379D+00 0.629D+00
 Coeff-En:   0.000D+00 0.000D+00 0.100D+01
 Coeff:     -0.797D-02 0.369D+00 0.639D+00
 Gap=     0.312 Goal=   None    Shift=    0.000
 Gap=     0.312 Goal=   None    Shift=    0.000
 RMSDP=3.61D-04 MaxDP=1.73D-02 DE=-1.47D-01 OVMax= 2.52D-02

 Cycle   4  Pass 0  IDiag  1:
 RMSU=  3.31D-04    CP:  9.88D-01  1.04D+00  8.86D-01
 E= -1234.78646529940     Delta-E=       -0.003281851878 Rises=F Damp=F
 DIIS: error= 1.68D-03 at cycle   4 NSaved=   4.
 NSaved= 4 IEnMin= 4 EnMin= -1234.78646529940     IErMin= 4 ErrMin= 1.68D-03
 ErrMax= 1.68D-03  0.00D+00 EMaxC= 1.00D-01 BMatC= 4.52D-03 BMatP= 1.73D-02
 IDIUse=3 WtCom= 9.83D-01 WtEn= 1.68D-02
 Coeff-Com:  0.345D-02 0.141D-01 0.325D+00 0.657D+00
 Coeff-En:   0.000D+00 0.000D+00 0.138D+00 0.862D+00
 Coeff:      0.339D-02 0.139D-01 0.322D+00 0.660D+00
 Gap=     0.312 Goal=   None    Shift=    0.000
 Gap=     0.312 Goal=   None    Shift=    0.000
 RMSDP=1.81D-04 MaxDP=6.46D-03 DE=-3.28D-03 OVMax= 8.54D-03

 Cycle   5  Pass 0  IDiag  1:
 RMSU=  1.35D-04    CP:  9.87D-01  1.03D+00  9.80D-01  8.04D-01
 E= -1234.78759633117     Delta-E=       -0.001131031774 Rises=F Damp=F
 DIIS: error= 2.99D-04 at cycle   5 NSaved=   5.
 NSaved= 5 IEnMin= 5 EnMin= -1234.78759633117     IErMin= 5 ErrMin= 2.99D-04
 ErrMax= 2.99D-04  0.00D+00 EMaxC= 1.00D-01 BMatC= 2.47D-04 BMatP= 4.52D-03
 IDIUse=3 WtCom= 9.97D-01 WtEn= 2.99D-03
 Coeff-Com:  0.560D-02-0.386D-01 0.313D-01 0.196D+00 0.806D+00
 Coeff-En:   0.000D+00 0.000D+00 0.000D+00 0.000D+00 0.100D+01
 Coeff:      0.559D-02-0.385D-01 0.312D-01 0.195D+00 0.807D+00
 Gap=     0.313 Goal=   None    Shift=    0.000
 Gap=     0.313 Goal=   None    Shift=    0.000
 RMSDP=6.83D-05 MaxDP=1.66D-03 DE=-1.13D-03 OVMax= 4.67D-03

 Cycle   6  Pass 0  IDiag  1:
 RMSU=  4.59D-05    CP:  9.87D-01  1.02D+00  1.01D+00  9.15D-01  1.08D+00
 E= -1234.78770466938     Delta-E=       -0.000108338211 Rises=F Damp=F
 DIIS: error= 1.47D-04 at cycle   6 NSaved=   6.
 NSaved= 6 IEnMin= 6 EnMin= -1234.78770466938     IErMin= 6 ErrMin= 1.47D-04
 ErrMax= 1.47D-04  0.00D+00 EMaxC= 1.00D-01 BMatC= 5.13D-05 BMatP= 2.47D-04
 IDIUse=3 WtCom= 9.99D-01 WtEn= 1.47D-03
 Coeff-Com:  0.283D-02-0.211D-01-0.310D-01-0.122D-01 0.316D+00 0.745D+00
 Coeff-En:   0.000D+00 0.000D+00 0.000D+00 0.000D+00 0.000D+00 0.100D+01
 Coeff:      0.283D-02-0.211D-01-0.309D-01-0.122D-01 0.316D+00 0.746D+00
 Gap=     0.314 Goal=   None    Shift=    0.000
 Gap=     0.314 Goal=   None    Shift=    0.000
 RMSDP=3.32D-05 MaxDP=1.17D-03 DE=-1.08D-04 OVMax= 3.08D-03

 Cycle   7  Pass 0  IDiag  1:
 RMSU=  2.19D-05    CP:  9.87D-01  1.02D+00  1.02D+00  9.37D-01  1.22D+00
                    CP:  1.10D+00
 E= -1234.78773198900     Delta-E=       -0.000027319618 Rises=F Damp=F
 DIIS: error= 8.47D-05 at cycle   7 NSaved=   7.
 NSaved= 7 IEnMin= 7 EnMin= -1234.78773198900     IErMin= 7 ErrMin= 8.47D-05
 ErrMax= 8.47D-05  0.00D+00 EMaxC= 1.00D-01 BMatC= 8.25D-06 BMatP= 5.13D-05
 IDIUse=1 WtCom= 1.00D+00 WtEn= 0.00D+00
 Coeff-Com: -0.106D-03 0.133D-02-0.109D-01-0.419D-01-0.107D+00 0.218D+00
 Coeff-Com:  0.941D+00
 Coeff:     -0.106D-03 0.133D-02-0.109D-01-0.419D-01-0.107D+00 0.218D+00
 Coeff:      0.941D+00
 Gap=     0.314 Goal=   None    Shift=    0.000
 Gap=     0.314 Goal=   None    Shift=    0.000
 RMSDP=1.96D-05 MaxDP=6.29D-04 DE=-2.73D-05 OVMax= 1.44D-03

 Cycle   8  Pass 0  IDiag  1:
 RMSU=  7.66D-06    CP:  9.87D-01  1.02D+00  1.03D+00  9.57D-01  1.28D+00
                    CP:  1.37D+00  1.21D+00
 E= -1234.78773849040     Delta-E=       -0.000006501402 Rises=F Damp=F
 DIIS: error= 3.19D-05 at cycle   8 NSaved=   8.
 NSaved= 8 IEnMin= 8 EnMin= -1234.78773849040     IErMin= 8 ErrMin= 3.19D-05
 ErrMax= 3.19D-05  0.00D+00 EMaxC= 1.00D-01 BMatC= 1.05D-06 BMatP= 8.25D-06
 IDIUse=1 WtCom= 1.00D+00 WtEn= 0.00D+00
 Coeff-Com: -0.305D-03 0.272D-02 0.585D-03-0.129D-01-0.775D-01-0.875D-02
 Coeff-Com:  0.318D+00 0.779D+00
 Coeff:     -0.305D-03 0.272D-02 0.585D-03-0.129D-01-0.775D-01-0.875D-02
 Coeff:      0.318D+00 0.779D+00
 Gap=     0.314 Goal=   None    Shift=    0.000
 Gap=     0.314 Goal=   None    Shift=    0.000
 RMSDP=5.89D-06 MaxDP=1.91D-04 DE=-6.50D-06 OVMax= 5.43D-04

 Initial convergence to 1.0D-05 achieved.  Increase integral accuracy.
 Cycle   9  Pass 1  IDiag  1:
 E= -1234.78762603185     Delta-E=        0.000112458551 Rises=F Damp=F
 DIIS: error= 2.77D-05 at cycle   1 NSaved=   1.
 NSaved= 1 IEnMin= 1 EnMin= -1234.78762603185     IErMin= 1 ErrMin= 2.77D-05
 ErrMax= 2.77D-05  0.00D+00 EMaxC= 1.00D-01 BMatC= 6.26D-07 BMatP= 6.26D-07
 IDIUse=1 WtCom= 1.00D+00 WtEn= 0.00D+00
 Coeff-Com:  0.100D+01
 Coeff:      0.100D+01
 Gap=     0.314 Goal=   None    Shift=    0.000
 Gap=     0.314 Goal=   None    Shift=    0.000
 RMSDP=5.89D-06 MaxDP=1.91D-04 DE= 1.12D-04 OVMax= 1.92D-04

 Cycle  10  Pass 1  IDiag  1:
 RMSU=  1.34D-05    CP:  1.00D+00
 E= -1234.78762618853     Delta-E=       -0.000000156678 Rises=F Damp=F
 DIIS: error= 6.58D-06 at cycle   2 NSaved=   2.
 NSaved= 2 IEnMin= 2 EnMin= -1234.78762618853     IErMin= 2 ErrMin= 6.58D-06
 ErrMax= 6.58D-06  0.00D+00 EMaxC= 1.00D-01 BMatC= 1.12D-07 BMatP= 6.26D-07
 IDIUse=1 WtCom= 1.00D+00 WtEn= 0.00D+00
 Coeff-Com:  0.192D+00 0.808D+00
 Coeff:      0.192D+00 0.808D+00
 Gap=     0.314 Goal=   None    Shift=    0.000
 Gap=     0.314 Goal=   None    Shift=    0.000
 RMSDP=1.48D-06 MaxDP=5.26D-05 DE=-1.57D-07 OVMax= 1.16D-04

 Cycle  11  Pass 1  IDiag  1:
 RMSU=  1.36D-06    CP:  1.00D+00  1.04D+00
 E= -1234.78762622039     Delta-E=       -0.000000031866 Rises=F Damp=F
 DIIS: error= 7.28D-06 at cycle   3 NSaved=   3.
 NSaved= 3 IEnMin= 3 EnMin= -1234.78762622039     IErMin= 2 ErrMin= 6.58D-06
 ErrMax= 7.28D-06  0.00D+00 EMaxC= 1.00D-01 BMatC= 7.06D-08 BMatP= 1.12D-07
 IDIUse=1 WtCom= 1.00D+00 WtEn= 0.00D+00
 Coeff-Com: -0.372D-01 0.439D+00 0.598D+00
 Coeff:     -0.372D-01 0.439D+00 0.598D+00
 Gap=     0.314 Goal=   None    Shift=    0.000
 Gap=     0.314 Goal=   None    Shift=    0.000
 RMSDP=7.69D-07 MaxDP=3.02D-05 DE=-3.19D-08 OVMax= 6.20D-05

 Cycle  12  Pass 1  IDiag  1:
 RMSU=  5.92D-07    CP:  1.00D+00  1.07D+00  7.57D-01
 E= -1234.78762624222     Delta-E=       -0.000000021822 Rises=F Damp=F
 DIIS: error= 1.82D-06 at cycle   4 NSaved=   4.
 NSaved= 4 IEnMin= 4 EnMin= -1234.78762624222     IErMin= 4 ErrMin= 1.82D-06
 ErrMax= 1.82D-06  0.00D+00 EMaxC= 1.00D-01 BMatC= 2.91D-09 BMatP= 7.06D-08
 IDIUse=1 WtCom= 1.00D+00 WtEn= 0.00D+00
 Coeff-Com: -0.222D-01 0.717D-01 0.151D+00 0.799D+00
 Coeff:     -0.222D-01 0.717D-01 0.151D+00 0.799D+00
 Gap=     0.314 Goal=   None    Shift=    0.000
 Gap=     0.314 Goal=   None    Shift=    0.000
 RMSDP=2.84D-07 MaxDP=9.22D-06 DE=-2.18D-08 OVMax= 2.32D-05

 Cycle  13  Pass 1  IDiag  1:
 RMSU=  1.79D-07    CP:  1.00D+00  1.07D+00  8.46D-01  1.29D+00
 E= -1234.78762624029     Delta-E=        0.000000001925 Rises=F Damp=F
 DIIS: error= 8.51D-07 at cycle   5 NSaved=   5.
 NSaved= 5 IEnMin= 4 EnMin= -1234.78762624222     IErMin= 5 ErrMin= 8.51D-07
 ErrMax= 8.51D-07  0.00D+00 EMaxC= 1.00D-01 BMatC= 9.62D-10 BMatP= 2.91D-09
 IDIUse=1 WtCom= 1.00D+00 WtEn= 0.00D+00
 Coeff-Com:  0.691D-02-0.159D+00-0.202D+00 0.298D+00 0.106D+01
 Coeff:      0.691D-02-0.159D+00-0.202D+00 0.298D+00 0.106D+01
 Gap=     0.314 Goal=   None    Shift=    0.000
 Gap=     0.314 Goal=   None    Shift=    0.000
 RMSDP=2.92D-07 MaxDP=9.48D-06 DE= 1.93D-09 OVMax= 2.62D-05

 Cycle  14  Pass 1  IDiag  1:
 RMSU=  8.62D-08    CP:  1.00D+00  1.08D+00  9.16D-01  1.72D+00  1.23D+00
 E= -1234.78762624133     Delta-E=       -0.000000001035 Rises=F Damp=F
 DIIS: error= 3.42D-07 at cycle   6 NSaved=   6.
 NSaved= 6 IEnMin= 4 EnMin= -1234.78762624222     IErMin= 6 ErrMin= 3.42D-07
 ErrMax= 3.42D-07  0.00D+00 EMaxC= 1.00D-01 BMatC= 1.87D-10 BMatP= 9.62D-10
 IDIUse=1 WtCom= 1.00D+00 WtEn= 0.00D+00
 Coeff-Com:  0.546D-02-0.874D-01-0.116D+00 0.708D-01 0.543D+00 0.585D+00
 Coeff:      0.546D-02-0.874D-01-0.116D+00 0.708D-01 0.543D+00 0.585D+00
 Gap=     0.314 Goal=   None    Shift=    0.000
 Gap=     0.314 Goal=   None    Shift=    0.000
 RMSDP=5.12D-08 MaxDP=1.44D-06 DE=-1.03D-09 OVMax= 4.20D-06

 Cycle  15  Pass 1  IDiag  1:
 RMSU=  2.94D-08    CP:  1.00D+00  1.08D+00  9.28D-01  1.77D+00  1.36D+00
                    CP:  9.84D-01
 E= -1234.78762624138     Delta-E=       -0.000000000054 Rises=F Damp=F
 DIIS: error= 6.70D-08 at cycle   7 NSaved=   7.
 NSaved= 7 IEnMin= 4 EnMin= -1234.78762624222     IErMin= 7 ErrMin= 6.70D-08
 ErrMax= 6.70D-08  0.00D+00 EMaxC= 1.00D-01 BMatC= 8.50D-12 BMatP= 1.87D-10
 IDIUse=1 WtCom= 1.00D+00 WtEn= 0.00D+00
 Coeff-Com:  0.478D-03-0.169D-02-0.308D-02-0.218D-01 0.116D-01 0.164D+00
 Coeff-Com:  0.851D+00
 Coeff:      0.478D-03-0.169D-02-0.308D-02-0.218D-01 0.116D-01 0.164D+00
 Coeff:      0.851D+00
 Gap=     0.314 Goal=   None    Shift=    0.000
 Gap=     0.314 Goal=   None    Shift=    0.000
 RMSDP=1.44D-08 MaxDP=4.12D-07 DE=-5.37D-11 OVMax= 1.08D-06

 Cycle  16  Pass 1  IDiag  1:
 RMSU=  7.77D-09    CP:  1.00D+00  1.08D+00  9.29D-01  1.78D+00  1.38D+00
                    CP:  1.09D+00  1.07D+00
 E= -1234.78762624139     Delta-E=       -0.000000000010 Rises=F Damp=F
 DIIS: error= 2.34D-08 at cycle   8 NSaved=   8.
 NSaved= 8 IEnMin= 4 EnMin= -1234.78762624222     IErMin= 8 ErrMin= 2.34D-08
 ErrMax= 2.34D-08  0.00D+00 EMaxC= 1.00D-01 BMatC= 1.62D-12 BMatP= 8.50D-12
 IDIUse=1 WtCom= 1.00D+00 WtEn= 0.00D+00
 Coeff-Com: -0.389D-03 0.884D-02 0.115D-01-0.184D-01-0.548D-01 0.640D-02
 Coeff-Com:  0.356D+00 0.690D+00
 Coeff:     -0.389D-03 0.884D-02 0.115D-01-0.184D-01-0.548D-01 0.640D-02
 Coeff:      0.356D+00 0.690D+00
 Gap=     0.314 Goal=   None    Shift=    0.000
 Gap=     0.314 Goal=   None    Shift=    0.000
 RMSDP=5.23D-09 MaxDP=1.49D-07 DE=-1.00D-11 OVMax= 2.96D-07

 SCF Done:  E(ULC-wPBE) =  -1234.78762624     A.U. after   16 cycles
            NFock= 16  Conv=0.52D-08     -V/T= 2.0035
 <Sx>= 0.0000 <Sy>= 0.0000 <Sz>= 0.0000 <S**2>=-0.0000 S=-0.0000
 <L.S>= 0.000000000000E+00
 KE= 1.230423503185D+03 PE=-4.647236473121D+03 EE= 1.315796588683D+03
 Annihilation of the first spin contaminant:
 S**2 before annihilation    -0.0000,   after     0.0000
 Leave Link  502 at Thu Jul 23 18:13:54 2020, MaxMem=  4026531840 cpu:             341.5 elap:              43.3
 (Enter /opt/ohpc/pub/libs/gaussian/g16-A.03/sandybridge/g16/l601.exe)
 Copying SCF densities to generalized density rwf, IOpCl= 1 IROHF=0.

 **********************************************************************

            Population analysis using the SCF density.

 **********************************************************************

 Orbital symmetries:
 Alpha Orbitals:
       Occupied  (A) (A) (A) (A) (A) (A) (A) (A) (A) (A) (A) (A)
                 (A) (A) (A) (A) (A) (A) (A) (A) (A) (A) (A) (A)
                 (A) (A) (A) (A) (A) (A) (A) (A) (A) (A) (A) (A)
                 (A) (A) (A) (A) (A) (A) (A) (A) (A) (A) (A) (A)
                 (A) (A) (A)
       Virtual   (A) (A) (A) (A) (A) (A) (A) (A) (A) (A) (A) (A)
                 (A) (A) (A) (A) (A) (A) (A) (A) (A) (A) (A) (A)
                 (A) (A) (A) (A) (A) (A) (A) (A) (A) (A) (A) (A)
                 (A) (A) (A) (A) (A) (A) (A) (A) (A) (A) (A) (A)
                 (A) (A) (A) (A) (A) (A) (A) (A) (A) (A) (A) (A)
                 (A) (A) (A) (A) (A) (A) (A) (A) (A) (A) (A) (A)
                 (A) (A) (A) (A) (A) (A) (A) (A) (A) (A) (A) (A)
                 (A) (A) (A) (A) (A) (A) (A) (A) (A) (A) (A) (A)
                 (A) (A) (A) (A) (A) (A) (A) (A) (A) (A) (A) (A)
                 (A) (A) (A) (A) (A) (A) (A) (A) (A) (A) (A) (A)
                 (A) (A) (A) (A) (A) (A) (A) (A) (A) (A) (A) (A)
                 (A) (A) (A) (A) (A) (A) (A) (A) (A) (A) (A) (A)
                 (A) (A) (A) (A) (A) (A) (A) (A) (A) (A) (A) (A)
                 (A) (A) (A) (A)
 Beta  Orbitals:
       Occupied  (A) (A) (A) (A) (A) (A) (A) (A) (A) (A) (A) (A)
                 (A) (A) (A) (A) (A) (A) (A) (A) (A) (A) (A) (A)
                 (A) (A) (A) (A) (A) (A) (A) (A) (A) (A) (A) (A)
                 (A) (A) (A) (A) (A) (A) (A) (A) (A) (A) (A) (A)
                 (A) (A) (A)
       Virtual   (A) (A) (A) (A) (A) (A) (A) (A) (A) (A) (A) (A)
                 (A) (A) (A) (A) (A) (A) (A) (A) (A) (A) (A) (A)
                 (A) (A) (A) (A) (A) (A) (A) (A) (A) (A) (A) (A)
                 (A) (A) (A) (A) (A) (A) (A) (A) (A) (A) (A) (A)
                 (A) (A) (A) (A) (A) (A) (A) (A) (A) (A) (A) (A)
                 (A) (A) (A) (A) (A) (A) (A) (A) (A) (A) (A) (A)
                 (A) (A) (A) (A) (A) (A) (A) (A) (A) (A) (A) (A)
                 (A) (A) (A) (A) (A) (A) (A) (A) (A) (A) (A) (A)
                 (A) (A) (A) (A) (A) (A) (A) (A) (A) (A) (A) (A)
                 (A) (A) (A) (A) (A) (A) (A) (A) (A) (A) (A) (A)
                 (A) (A) (A) (A) (A) (A) (A) (A) (A) (A) (A) (A)
                 (A) (A) (A) (A) (A) (A) (A) (A) (A) (A) (A) (A)
                 (A) (A) (A) (A) (A) (A) (A) (A) (A) (A) (A) (A)
                 (A) (A) (A) (A)
 The electronic state is 1-A.
 Alpha  occ. eigenvalues --  -88.24804 -88.24633 -18.95997 -14.13577 -10.12639
 Alpha  occ. eigenvalues --  -10.11422 -10.11042 -10.08333 -10.06964 -10.06778
 Alpha  occ. eigenvalues --  -10.06677 -10.06351  -7.85317  -7.85251  -5.87184
 Alpha  occ. eigenvalues --   -5.87171  -5.86674  -5.86666  -5.86354  -5.86225
 Alpha  occ. eigenvalues --   -1.14836  -1.02802  -0.96356  -0.87519  -0.86357
 Alpha  occ. eigenvalues --   -0.83286  -0.80222  -0.77965  -0.69395  -0.67864
 Alpha  occ. eigenvalues --   -0.64908  -0.63218  -0.59563  -0.57413  -0.56517
 Alpha  occ. eigenvalues --   -0.55002  -0.52894  -0.51497  -0.50349  -0.48750
 Alpha  occ. eigenvalues --   -0.48086  -0.46599  -0.44665  -0.43216  -0.42574
 Alpha  occ. eigenvalues --   -0.41799  -0.36501  -0.34759  -0.33720  -0.31482
 Alpha  occ. eigenvalues --   -0.28522
 Alpha virt. eigenvalues --    0.02848   0.07837   0.10205   0.12554   0.12873
 Alpha virt. eigenvalues --    0.13506   0.15557   0.16803   0.17580   0.17805
 Alpha virt. eigenvalues --    0.18493   0.19740   0.20851   0.21887   0.22494
 Alpha virt. eigenvalues --    0.23831   0.30244   0.32309   0.34445   0.35367
 Alpha virt. eigenvalues --    0.37923   0.43396   0.45821   0.47297   0.49603
 Alpha virt. eigenvalues --    0.51020   0.51933   0.52412   0.53399   0.53500
 Alpha virt. eigenvalues --    0.54124   0.54594   0.55183   0.55431   0.56292
 Alpha virt. eigenvalues --    0.56424   0.56537   0.57271   0.57898   0.59221
 Alpha virt. eigenvalues --    0.60090   0.61781   0.64333   0.64667   0.65327
 Alpha virt. eigenvalues --    0.65813   0.66393   0.66831   0.69535   0.70116
 Alpha virt. eigenvalues --    0.70761   0.71605   0.73859   0.74411   0.75598
 Alpha virt. eigenvalues --    0.76036   0.76879   0.77943   0.81962   0.82691
 Alpha virt. eigenvalues --    0.83376   0.84564   0.85890   0.89512   0.92421
 Alpha virt. eigenvalues --    0.93385   0.95739   0.96694   0.97096   0.99274
 Alpha virt. eigenvalues --    0.99977   1.01358   1.02058   1.04599   1.06150
 Alpha virt. eigenvalues --    1.07097   1.08347   1.09108   1.11012   1.11918
 Alpha virt. eigenvalues --    1.14554   1.15513   1.18292   1.21425   1.22970
 Alpha virt. eigenvalues --    1.23626   1.27086   1.28650   1.30761   1.33252
 Alpha virt. eigenvalues --    1.35675   1.36396   1.38342   1.39821   1.42183
 Alpha virt. eigenvalues --    1.42747   1.43676   1.46297   1.49322   1.52562
 Alpha virt. eigenvalues --    1.55479   1.55935   1.56752   1.59329   1.60850
 Alpha virt. eigenvalues --    1.63165   1.63981   1.67504   1.68815   1.70970
 Alpha virt. eigenvalues --    1.71436   1.73340   1.73892   1.75696   1.75984
 Alpha virt. eigenvalues --    1.79391   1.79624   1.80816   1.82599   1.85365
 Alpha virt. eigenvalues --    1.86999   1.88044   1.91510   1.92913   1.96840
 Alpha virt. eigenvalues --    2.00791   2.01836   2.03517   2.06676   2.09142
 Alpha virt. eigenvalues --    2.11131   2.12115   2.14149   2.15348   2.16135
 Alpha virt. eigenvalues --    2.17846   2.18862   2.27819   2.32595   2.37045
 Alpha virt. eigenvalues --    2.39887   2.41131   2.43453   2.44984   2.46413
 Alpha virt. eigenvalues --    2.52423   2.54395   2.57602   2.58051   2.61018
 Alpha virt. eigenvalues --    2.68978   2.82150   2.88790   2.92306   3.04211
 Alpha virt. eigenvalues --    3.05351   3.13082   3.17052   3.40494   3.49455
  Beta  occ. eigenvalues --  -88.24804 -88.24633 -18.95997 -14.13577 -10.12639
  Beta  occ. eigenvalues --  -10.11422 -10.11042 -10.08333 -10.06964 -10.06778
  Beta  occ. eigenvalues --  -10.06677 -10.06351  -7.85317  -7.85251  -5.87184
  Beta  occ. eigenvalues --   -5.87171  -5.86674  -5.86666  -5.86354  -5.86225
  Beta  occ. eigenvalues --   -1.14836  -1.02802  -0.96356  -0.87519  -0.86357
  Beta  occ. eigenvalues --   -0.83286  -0.80222  -0.77965  -0.69395  -0.67864
  Beta  occ. eigenvalues --   -0.64908  -0.63218  -0.59563  -0.57413  -0.56517
  Beta  occ. eigenvalues --   -0.55002  -0.52894  -0.51497  -0.50349  -0.48750
  Beta  occ. eigenvalues --   -0.48086  -0.46599  -0.44665  -0.43216  -0.42574
  Beta  occ. eigenvalues --   -0.41799  -0.36501  -0.34759  -0.33720  -0.31482
  Beta  occ. eigenvalues --   -0.28522
  Beta virt. eigenvalues --    0.02848   0.07837   0.10205   0.12554   0.12873
  Beta virt. eigenvalues --    0.13506   0.15557   0.16803   0.17580   0.17805
  Beta virt. eigenvalues --    0.18493   0.19740   0.20851   0.21887   0.22494
  Beta virt. eigenvalues --    0.23831   0.30244   0.32309   0.34445   0.35367
  Beta virt. eigenvalues --    0.37923   0.43396   0.45821   0.47297   0.49603
  Beta virt. eigenvalues --    0.51020   0.51933   0.52412   0.53399   0.53500
  Beta virt. eigenvalues --    0.54124   0.54594   0.55183   0.55431   0.56292
  Beta virt. eigenvalues --    0.56424   0.56537   0.57271   0.57898   0.59221
  Beta virt. eigenvalues --    0.60090   0.61781   0.64333   0.64667   0.65327
  Beta virt. eigenvalues --    0.65813   0.66393   0.66831   0.69535   0.70116
  Beta virt. eigenvalues --    0.70761   0.71605   0.73859   0.74411   0.75598
  Beta virt. eigenvalues --    0.76036   0.76879   0.77943   0.81962   0.82691
  Beta virt. eigenvalues --    0.83376   0.84564   0.85890   0.89512   0.92421
  Beta virt. eigenvalues --    0.93385   0.95739   0.96694   0.97096   0.99274
  Beta virt. eigenvalues --    0.99977   1.01358   1.02058   1.04599   1.06150
  Beta virt. eigenvalues --    1.07097   1.08347   1.09108   1.11012   1.11918
  Beta virt. eigenvalues --    1.14554   1.15513   1.18292   1.21425   1.22970
  Beta virt. eigenvalues --    1.23626   1.27086   1.28650   1.30761   1.33252
  Beta virt. eigenvalues --    1.35675   1.36396   1.38342   1.39821   1.42183
  Beta virt. eigenvalues --    1.42747   1.43676   1.46297   1.49322   1.52562
  Beta virt. eigenvalues --    1.55479   1.55935   1.56752   1.59329   1.60850
  Beta virt. eigenvalues --    1.63165   1.63981   1.67504   1.68815   1.70970
  Beta virt. eigenvalues --    1.71436   1.73340   1.73892   1.75696   1.75984
  Beta virt. eigenvalues --    1.79391   1.79624   1.80816   1.82599   1.85365
  Beta virt. eigenvalues --    1.86999   1.88044   1.91510   1.92913   1.96840
  Beta virt. eigenvalues --    2.00791   2.01836   2.03517   2.06676   2.09142
  Beta virt. eigenvalues --    2.11131   2.12115   2.14149   2.15348   2.16135
  Beta virt. eigenvalues --    2.17846   2.18862   2.27819   2.32595   2.37045
  Beta virt. eigenvalues --    2.39887   2.41131   2.43453   2.44984   2.46413
  Beta virt. eigenvalues --    2.52423   2.54395   2.57602   2.58051   2.61018
  Beta virt. eigenvalues --    2.68978   2.82150   2.88790   2.92306   3.04211
  Beta virt. eigenvalues --    3.05351   3.13082   3.17052   3.40494   3.49455
          Condensed to atoms (all electrons):
               1          2          3          4          5          6
     1  C    4.999079   0.556678  -0.054443  -0.064614   0.366524   0.003918
     2  C    0.556678   4.612379   0.508181  -0.118664  -0.098024   0.004617
     3  N   -0.054443   0.508181   6.316777   0.628019  -0.116688  -0.050338
     4  C   -0.064614  -0.118664   0.628019   5.075651   0.339601   0.216956
     5  S    0.366524  -0.098024  -0.116688   0.339601  15.446068  -0.072778
     6  C    0.003918   0.004617  -0.050338   0.216956  -0.072778   5.390423
     7  C    0.000334  -0.000008   0.001759  -0.046172  -0.013851   0.511165
     8  O    0.000191   0.000004  -0.000006   0.003440   0.006858  -0.076870
     9  C   -0.000005  -0.000000   0.000002  -0.000394  -0.000078   0.008315
    10  C    0.000009   0.000004  -0.000126   0.012216   0.000324  -0.062463
    11  C    0.000001   0.000003   0.000348   0.004247  -0.000031  -0.075716
    12  S   -0.000080   0.000252   0.009759  -0.057630   0.005401   0.359714
    13  H    0.391384  -0.016343   0.006009   0.003222  -0.038614  -0.000205
    14  H   -0.051408   0.411413  -0.020778   0.001566   0.007502  -0.000905
    15  H   -0.000000   0.000000   0.000000   0.000159  -0.000022   0.000631
    16  H    0.000001  -0.000000  -0.000001  -0.000004   0.000037   0.000792
    17  H   -0.000002  -0.000000   0.000000  -0.000037   0.000062  -0.000527
    18  H   -0.000000  -0.000000   0.000001  -0.000423   0.000014   0.007987
    19  H   -0.000000  -0.000000  -0.000001  -0.000388   0.000004   0.000121
               7          8          9         10         11         12
     1  C    0.000334   0.000191  -0.000005   0.000009   0.000001  -0.000080
     2  C   -0.000008   0.000004  -0.000000   0.000004   0.000003   0.000252
     3  N    0.001759  -0.000006   0.000002  -0.000126   0.000348   0.009759
     4  C   -0.046172   0.003440  -0.000394   0.012216   0.004247  -0.057630
     5  S   -0.013851   0.006858  -0.000078   0.000324  -0.000031   0.005401
     6  C    0.511165  -0.076870   0.008315  -0.062463  -0.075716   0.359714
     7  C    4.774774   0.467234  -0.072949   0.395480  -0.030466  -0.089879
     8  O    0.467234   7.648774   0.323497  -0.061551   0.003438   0.002738
     9  C   -0.072949   0.323497   4.531982  -0.008823   0.000551  -0.000154
    10  C    0.395480  -0.061551  -0.008823   4.887489   0.542795  -0.092587
    11  C   -0.030466   0.003438   0.000551   0.542795   4.908301   0.362719
    12  S   -0.089879   0.002738  -0.000154  -0.092587   0.362719  15.335818
    13  H    0.000001   0.000001  -0.000000   0.000000  -0.000000  -0.000002
    14  H    0.000012   0.000000  -0.000000  -0.000000  -0.000000  -0.000007
    15  H   -0.003124  -0.027526   0.391132   0.005791   0.000085  -0.000086
    16  H   -0.004837  -0.026367   0.393492   0.007415   0.000053  -0.000117
    17  H    0.002236  -0.016123   0.390192   0.000187  -0.000021   0.000014
    18  H   -0.037202  -0.004012   0.006180   0.401571  -0.045863   0.007017
    19  H    0.008198  -0.000048  -0.000007  -0.021611   0.404183  -0.038520
              13         14         15         16         17         18
     1  C    0.391384  -0.051408  -0.000000   0.000001  -0.000002  -0.000000
     2  C   -0.016343   0.411413   0.000000  -0.000000  -0.000000  -0.000000
     3  N    0.006009  -0.020778   0.000000  -0.000001   0.000000   0.000001
     4  C    0.003222   0.001566   0.000159  -0.000004  -0.000037  -0.000423
     5  S   -0.038614   0.007502  -0.000022   0.000037   0.000062   0.000014
     6  C   -0.000205  -0.000905   0.000631   0.000792  -0.000527   0.007987
     7  C    0.000001   0.000012  -0.003124  -0.004837   0.002236  -0.037202
     8  O    0.000001   0.000000  -0.027526  -0.026367  -0.016123  -0.004012
     9  C   -0.000000  -0.000000   0.391132   0.393492   0.390192   0.006180
    10  C    0.000000  -0.000000   0.005791   0.007415   0.000187   0.401571
    11  C   -0.000000  -0.000000   0.000085   0.000053  -0.000021  -0.045863
    12  S   -0.000002  -0.000007  -0.000086  -0.000117   0.000014   0.007017
    13  H    0.648118  -0.005916  -0.000000   0.000000  -0.000000  -0.000000
    14  H   -0.005916   0.672848   0.000000  -0.000000  -0.000000   0.000000
    15  H   -0.000000   0.000000   0.619130  -0.034506  -0.022316   0.000352
    16  H    0.000000  -0.000000  -0.034506   0.623630  -0.025182   0.000650
    17  H   -0.000000  -0.000000  -0.022316  -0.025182   0.596203  -0.000117
    18  H   -0.000000   0.000000   0.000352   0.000650  -0.000117   0.689319
    19  H    0.000000  -0.000000   0.000005   0.000012   0.000000  -0.007520
              19
     1  C   -0.000000
     2  C   -0.000000
     3  N   -0.000001
     4  C   -0.000388
     5  S    0.000004
     6  C    0.000121
     7  C    0.008198
     8  O   -0.000048
     9  C   -0.000007
    10  C   -0.021611
    11  C    0.404183
    12  S   -0.038520
    13  H    0.000000
    14  H   -0.000000
    15  H    0.000005
    16  H    0.000012
    17  H    0.000000
    18  H   -0.007520
    19  H    0.661443
          Atomic-Atomic Spin Densities.
               1          2          3          4          5          6
     1  C    0.000000  -0.000000   0.000000  -0.000000  -0.000000   0.000000
     2  C   -0.000000  -0.000000  -0.000000   0.000000   0.000000  -0.000000
     3  N    0.000000  -0.000000   0.000000   0.000000  -0.000000  -0.000000
     4  C   -0.000000   0.000000   0.000000  -0.000000   0.000000   0.000000
     5  S   -0.000000   0.000000  -0.000000   0.000000   0.000000  -0.000000
     6  C    0.000000  -0.000000  -0.000000   0.000000  -0.000000   0.000000
     7  C   -0.000000   0.000000  -0.000000   0.000000   0.000000   0.000000
     8  O   -0.000000   0.000000   0.000000   0.000000  -0.000000  -0.000000
     9  C    0.000000  -0.000000  -0.000000  -0.000000   0.000000   0.000000
    10  C   -0.000000   0.000000   0.000000   0.000000   0.000000  -0.000000
    11  C    0.000000  -0.000000  -0.000000  -0.000000  -0.000000  -0.000000
    12  S    0.000000  -0.000000   0.000000   0.000000  -0.000000  -0.000000
    13  H    0.000000  -0.000000  -0.000000   0.000000  -0.000000   0.000000
    14  H   -0.000000   0.000000  -0.000000   0.000000   0.000000  -0.000000
    15  H   -0.000000   0.000000   0.000000  -0.000000   0.000000  -0.000000
    16  H   -0.000000   0.000000   0.000000  -0.000000  -0.000000  -0.000000
    17  H    0.000000   0.000000   0.000000   0.000000  -0.000000  -0.000000
    18  H    0.000000  -0.000000  -0.000000   0.000000  -0.000000   0.000000
    19  H    0.000000  -0.000000  -0.000000  -0.000000  -0.000000  -0.000000
               7          8          9         10         11         12
     1  C   -0.000000  -0.000000   0.000000  -0.000000   0.000000   0.000000
     2  C    0.000000   0.000000  -0.000000   0.000000  -0.000000  -0.000000
     3  N   -0.000000   0.000000  -0.000000   0.000000  -0.000000   0.000000
     4  C    0.000000   0.000000  -0.000000   0.000000  -0.000000   0.000000
     5  S    0.000000  -0.000000   0.000000   0.000000  -0.000000  -0.000000
     6  C    0.000000  -0.000000   0.000000  -0.000000  -0.000000  -0.000000
     7  C   -0.000000   0.000000   0.000000  -0.000000   0.000000   0.000000
     8  O    0.000000  -0.000000  -0.000000  -0.000000   0.000000  -0.000000
     9  C    0.000000  -0.000000  -0.000000  -0.000000  -0.000000   0.000000
    10  C   -0.000000  -0.000000  -0.000000   0.000000  -0.000000  -0.000000
    11  C    0.000000   0.000000  -0.000000  -0.000000   0.000000   0.000000
    12  S    0.000000  -0.000000   0.000000  -0.000000   0.000000  -0.000000
    13  H    0.000000  -0.000000   0.000000  -0.000000   0.000000   0.000000
    14  H   -0.000000   0.000000  -0.000000   0.000000  -0.000000   0.000000
    15  H    0.000000   0.000000   0.000000  -0.000000  -0.000000   0.000000
    16  H   -0.000000   0.000000   0.000000  -0.000000   0.000000   0.000000
    17  H    0.000000   0.000000  -0.000000   0.000000   0.000000  -0.000000
    18  H   -0.000000  -0.000000  -0.000000   0.000000  -0.000000  -0.000000
    19  H    0.000000   0.000000   0.000000  -0.000000   0.000000   0.000000
              13         14         15         16         17         18
     1  C    0.000000  -0.000000  -0.000000  -0.000000   0.000000   0.000000
     2  C   -0.000000   0.000000   0.000000   0.000000   0.000000  -0.000000
     3  N   -0.000000  -0.000000   0.000000   0.000000   0.000000  -0.000000
     4  C    0.000000   0.000000  -0.000000  -0.000000   0.000000   0.000000
     5  S   -0.000000   0.000000   0.000000  -0.000000  -0.000000  -0.000000
     6  C    0.000000  -0.000000  -0.000000  -0.000000  -0.000000   0.000000
     7  C    0.000000  -0.000000   0.000000  -0.000000   0.000000  -0.000000
     8  O   -0.000000   0.000000   0.000000   0.000000   0.000000  -0.000000
     9  C    0.000000  -0.000000   0.000000   0.000000  -0.000000  -0.000000
    10  C   -0.000000   0.000000  -0.000000  -0.000000   0.000000   0.000000
    11  C    0.000000  -0.000000  -0.000000   0.000000   0.000000  -0.000000
    12  S    0.000000   0.000000   0.000000   0.000000  -0.000000  -0.000000
    13  H    0.000000  -0.000000  -0.000000  -0.000000   0.000000   0.000000
    14  H   -0.000000   0.000000  -0.000000  -0.000000   0.000000   0.000000
    15  H   -0.000000  -0.000000   0.000000  -0.000000   0.000000   0.000000
    16  H   -0.000000  -0.000000  -0.000000   0.000000   0.000000  -0.000000
    17  H    0.000000   0.000000   0.000000   0.000000  -0.000000   0.000000
    18  H    0.000000   0.000000   0.000000  -0.000000   0.000000  -0.000000
    19  H    0.000000  -0.000000   0.000000   0.000000  -0.000000  -0.000000
              19
     1  C    0.000000
     2  C   -0.000000
     3  N   -0.000000
     4  C   -0.000000
     5  S   -0.000000
     6  C   -0.000000
     7  C    0.000000
     8  O    0.000000
     9  C    0.000000
    10  C   -0.000000
    11  C    0.000000
    12  S    0.000000
    13  H    0.000000
    14  H   -0.000000
    15  H    0.000000
    16  H    0.000000
    17  H   -0.000000
    18  H   -0.000000
    19  H    0.000000
 Mulliken charges and spin densities:
               1          2
     1  C   -0.147566   0.000000
     2  C    0.139509  -0.000000
     3  N   -0.228474   0.000000
     4  C    0.003250  -0.000000
     5  S    0.167694   0.000000
     6  C   -0.164838   0.000000
     7  C    0.137294  -0.000000
     8  O   -0.243672  -0.000000
     9  C    0.037068  -0.000000
    10  C   -0.006118  -0.000000
    11  C   -0.074625   0.000000
    12  S    0.195630  -0.000000
    13  H    0.012345   0.000000
    14  H   -0.014328   0.000000
    15  H    0.070296   0.000000
    16  H    0.064932   0.000000
    17  H    0.075430  -0.000000
    18  H   -0.017953   0.000000
    19  H   -0.005872   0.000000
 Sum of Mulliken charges =  -0.00000  -0.00000
 Mulliken charges and spin densities with hydrogens summed into heavy atoms:
               1          2
     1  C   -0.135222   0.000000
     2  C    0.125180  -0.000000
     3  N   -0.228474   0.000000
     4  C    0.003250  -0.000000
     5  S    0.167694   0.000000
     6  C   -0.164838   0.000000
     7  C    0.137294  -0.000000
     8  O   -0.243672  -0.000000
     9  C    0.247726  -0.000000
    10  C   -0.024072  -0.000000
    11  C   -0.080497   0.000000
    12  S    0.195630  -0.000000
 Electronic spatial extent (au):  <R**2>=           2587.8988
 Charge=              0.0000 electrons
 Dipole moment (field-independent basis, Debye):
    X=              2.2336    Y=              2.5942    Z=             -0.4101  Tot=              3.4477
 Quadrupole moment (field-independent basis, Debye-Ang):
   XX=            -64.7295   YY=            -76.7249   ZZ=            -85.8660
   XY=              1.9733   XZ=              0.2294   YZ=              1.5929
 Traceless Quadrupole moment (field-independent basis, Debye-Ang):
   XX=             11.0440   YY=             -0.9514   ZZ=            -10.0926
   XY=              1.9733   XZ=              0.2294   YZ=              1.5929
 Octapole moment (field-independent basis, Debye-Ang**2):
  XXX=             -5.9512  YYY=             25.4201  ZZZ=              1.4047  XYY=             26.1635
  XXY=             14.6064  XXZ=              2.1871  XZZ=              1.8536  YZZ=              6.9094
  YYZ=             -0.3624  XYZ=              5.8468
 Hexadecapole moment (field-independent basis, Debye-Ang**3):
 XXXX=          -1943.0246 YYYY=          -1030.1443 ZZZZ=           -153.9975 XXXY=              6.8466
 XXXZ=            -18.5237 YYYX=             25.8262 YYYZ=             17.4046 ZZZX=              4.1590
 ZZZY=              2.5078 XXYY=           -471.1055 XXZZ=           -413.5744 YYZZ=           -213.5531
 XXYZ=             -3.3373 YYXZ=              3.4902 ZZXY=             12.9038
 N-N= 8.662287550122D+02 E-N=-4.647236471848D+03  KE= 1.230423503185D+03
                          Isotropic Fermi Contact Couplings
        Atom                 a.u.       MegaHertz       Gauss      10(-4) cm-1
     1  C(13)             -0.00000      -0.00000      -0.00000      -0.00000
     2  C(13)             -0.00000      -0.00000      -0.00000      -0.00000
     3  N(14)              0.00000       0.00000       0.00000       0.00000
     4  C(13)              0.00000       0.00000       0.00000       0.00000
     5  S(33)             -0.00000      -0.00000      -0.00000      -0.00000
     6  C(13)             -0.00000      -0.00000      -0.00000      -0.00000
     7  C(13)             -0.00000      -0.00000      -0.00000      -0.00000
     8  O(17)             -0.00000       0.00000       0.00000       0.00000
     9  C(13)             -0.00000      -0.00000      -0.00000      -0.00000
    10  C(13)              0.00000       0.00000       0.00000       0.00000
    11  C(13)              0.00000       0.00000       0.00000       0.00000
    12  S(33)              0.00000       0.00000       0.00000       0.00000
    13  H(1)              -0.00000      -0.00000      -0.00000      -0.00000
    14  H(1)              -0.00000      -0.00000      -0.00000      -0.00000
    15  H(1)               0.00000       0.00000       0.00000       0.00000
    16  H(1)               0.00000       0.00000       0.00000       0.00000
    17  H(1)               0.00000       0.00000       0.00000       0.00000
    18  H(1)              -0.00000      -0.00000      -0.00000      -0.00000
    19  H(1)              -0.00000      -0.00000      -0.00000      -0.00000
 --------------------------------------------------------
       Center         ----  Spin Dipole Couplings  ----
                      3XX-RR        3YY-RR        3ZZ-RR
 --------------------------------------------------------
     1   Atom       -0.000000     -0.000000      0.000000
     2   Atom        0.000000      0.000000     -0.000000
     3   Atom       -0.000000      0.000000     -0.000000
     4   Atom       -0.000000     -0.000000      0.000000
     5   Atom        0.000000     -0.000000     -0.000000
     6   Atom       -0.000000     -0.000000      0.000000
     7   Atom        0.000000     -0.000000     -0.000000
     8   Atom       -0.000000      0.000000     -0.000000
     9   Atom        0.000000     -0.000000     -0.000000
    10   Atom        0.000000     -0.000000     -0.000000
    11   Atom        0.000000     -0.000000      0.000000
    12   Atom        0.000000     -0.000000      0.000000
    13   Atom       -0.000000      0.000000     -0.000000
    14   Atom        0.000000      0.000000     -0.000000
    15   Atom       -0.000000      0.000000     -0.000000
    16   Atom        0.000000      0.000000     -0.000000
    17   Atom       -0.000000     -0.000000      0.000000
    18   Atom        0.000000      0.000000     -0.000000
    19   Atom       -0.000000      0.000000      0.000000
 --------------------------------------------------------
                        XY            XZ            YZ
 --------------------------------------------------------
     1   Atom       -0.000000      0.000000      0.000000
     2   Atom        0.000000     -0.000000     -0.000000
     3   Atom       -0.000000      0.000000     -0.000000
     4   Atom       -0.000000     -0.000000     -0.000000
     5   Atom       -0.000000     -0.000000      0.000000
     6   Atom       -0.000000     -0.000000     -0.000000
     7   Atom        0.000000      0.000000      0.000000
     8   Atom        0.000000      0.000000      0.000000
     9   Atom       -0.000000      0.000000     -0.000000
    10   Atom        0.000000     -0.000000     -0.000000
    11   Atom        0.000000     -0.000000     -0.000000
    12   Atom        0.000000     -0.000000     -0.000000
    13   Atom       -0.000000      0.000000     -0.000000
    14   Atom        0.000000     -0.000000     -0.000000
    15   Atom       -0.000000      0.000000     -0.000000
    16   Atom        0.000000     -0.000000      0.000000
    17   Atom        0.000000      0.000000     -0.000000
    18   Atom        0.000000      0.000000      0.000000
    19   Atom       -0.000000      0.000000      0.000000
 --------------------------------------------------------


 ---------------------------------------------------------------------------------
              Anisotropic Spin Dipole Couplings in Principal Axis System
 ---------------------------------------------------------------------------------

       Atom             a.u.   MegaHertz   Gauss  10(-4) cm-1        Axes

              Baa    -0.0000    -0.000    -0.000    -0.000  0.5015  0.7719 -0.3907
     1 C(13)  Bbb     0.0000     0.000     0.000     0.000  0.8622 -0.4083  0.3000
              Bcc     0.0000     0.000     0.000     0.000 -0.0720  0.4873  0.8702
 
              Baa    -0.0000    -0.000    -0.000    -0.000  0.7392 -0.6733 -0.0143
     2 C(13)  Bbb    -0.0000    -0.000    -0.000    -0.000  0.1172  0.1077  0.9873
              Bcc     0.0000     0.000     0.000     0.000  0.6632  0.7315 -0.1585
 
              Baa    -0.0000    -0.000    -0.000    -0.000  0.9957  0.0827 -0.0407
     3 N(14)  Bbb    -0.0000    -0.000    -0.000    -0.000  0.0209  0.2281  0.9734
              Bcc     0.0000     0.000     0.000     0.000 -0.0898  0.9701 -0.2255
 
              Baa    -0.0000    -0.000    -0.000    -0.000  0.2210  0.8805  0.4193
     4 C(13)  Bbb    -0.0000    -0.000    -0.000    -0.000  0.9752 -0.2050 -0.0834
              Bcc     0.0000     0.000     0.000     0.000 -0.0125 -0.4274  0.9040
 
              Baa    -0.0000    -0.000    -0.000    -0.000  0.0017 -0.6340  0.7733
     5 S(33)  Bbb     0.0000     0.000     0.000     0.000  0.8036  0.4611  0.3763
              Bcc     0.0000     0.000     0.000     0.000 -0.5951  0.6208  0.5103
 
              Baa    -0.0000    -0.000    -0.000    -0.000  0.6860  0.7267  0.0368
     6 C(13)  Bbb     0.0000     0.000     0.000     0.000 -0.2772  0.2142  0.9366
              Bcc     0.0000     0.000     0.000     0.000  0.6728 -0.6527  0.3484
 
              Baa    -0.0000    -0.000    -0.000    -0.000 -0.4911  0.8711 -0.0015
     7 C(13)  Bbb    -0.0000    -0.000    -0.000    -0.000 -0.0277 -0.0139  0.9995
              Bcc     0.0000     0.000     0.000     0.000  0.8707  0.4909  0.0310
 
              Baa    -0.0000     0.000     0.000     0.000 -0.6693  0.2374  0.7041
     8 O(17)  Bbb    -0.0000     0.000     0.000     0.000  0.6148 -0.3552  0.7042
              Bcc     0.0000    -0.000    -0.000    -0.000  0.4172  0.9042  0.0918
 
              Baa    -0.0000    -0.000    -0.000    -0.000 -0.1231 -0.0378  0.9917
     9 C(13)  Bbb    -0.0000    -0.000    -0.000    -0.000  0.4862  0.8688  0.0935
              Bcc     0.0000     0.000     0.000     0.000  0.8651 -0.4937  0.0886
 
              Baa    -0.0000    -0.000    -0.000    -0.000 -0.3134  0.9495  0.0138
    10 C(13)  Bbb    -0.0000    -0.000    -0.000    -0.000  0.0341 -0.0033  0.9994
              Bcc     0.0000     0.000     0.000     0.000  0.9490  0.3136 -0.0314
 
              Baa    -0.0000    -0.000    -0.000    -0.000 -0.0814  0.9967 -0.0002
    11 C(13)  Bbb     0.0000     0.000     0.000     0.000  0.2993  0.0246  0.9538
              Bcc     0.0000     0.000     0.000     0.000  0.9507  0.0776 -0.3003
 
              Baa    -0.0000    -0.000    -0.000    -0.000 -0.3707  0.9283  0.0273
    12 S(33)  Bbb     0.0000     0.000     0.000     0.000  0.2867  0.0864  0.9541
              Bcc     0.0000     0.000     0.000     0.000  0.8834  0.3616 -0.2982
 
              Baa    -0.0000    -0.000    -0.000    -0.000  0.8387  0.0787 -0.5389
    13 H(1)   Bbb    -0.0000    -0.000    -0.000    -0.000  0.3849  0.6145  0.6887
              Bcc     0.0000     0.000     0.000     0.000 -0.3853  0.7850 -0.4851
 
              Baa    -0.0000    -0.000    -0.000    -0.000  0.4161  0.1203  0.9013
    14 H(1)   Bbb    -0.0000    -0.000    -0.000    -0.000  0.6905 -0.6868 -0.2271
              Bcc     0.0000     0.000     0.000     0.000  0.5917  0.7169 -0.3688
 
              Baa    -0.0000    -0.000    -0.000    -0.000 -0.6405  0.2031  0.7406
    15 H(1)   Bbb     0.0000     0.000     0.000     0.000  0.6411  0.6723  0.3701
              Bcc     0.0000     0.000     0.000     0.000 -0.4227  0.7119 -0.5609
 
              Baa    -0.0000    -0.000    -0.000    -0.000  0.3871 -0.4769  0.7891
    16 H(1)   Bbb     0.0000     0.000     0.000     0.000  0.7228  0.6883  0.0613
              Bcc     0.0000     0.000     0.000     0.000 -0.5724  0.5466  0.6112
 
              Baa    -0.0000    -0.000    -0.000    -0.000  0.6393 -0.6357 -0.4327
    17 H(1)   Bbb     0.0000     0.000     0.000     0.000  0.6885  0.2225  0.6903
              Bcc     0.0000     0.000     0.000     0.000  0.3425  0.7392 -0.5799
 
              Baa    -0.0000    -0.000    -0.000    -0.000  0.4004 -0.5443  0.7372
    18 H(1)   Bbb    -0.0000    -0.000    -0.000    -0.000 -0.4610  0.5756  0.6754
              Bcc     0.0000     0.000     0.000     0.000  0.7920  0.6102  0.0204
 
              Baa    -0.0000    -0.000    -0.000    -0.000  0.8995  0.4343 -0.0473
    19 H(1)   Bbb     0.0000     0.000     0.000     0.000  0.0349  0.0364  0.9987
              Bcc     0.0000     0.000     0.000     0.000 -0.4355  0.9000 -0.0176
 

 ---------------------------------------------------------------------------------

 No NMR shielding tensors so no spin-rotation constants.
 Leave Link  601 at Thu Jul 23 18:13:54 2020, MaxMem=  4026531840 cpu:               2.7 elap:               0.4
 (Enter /opt/ohpc/pub/libs/gaussian/g16-A.03/sandybridge/g16/l701.exe)
 ... and contract with generalized density number  0.
 Compute integral first derivatives.
 Leave Link  701 at Thu Jul 23 18:13:55 2020, MaxMem=  4026531840 cpu:               2.2 elap:               0.5
 (Enter /opt/ohpc/pub/libs/gaussian/g16-A.03/sandybridge/g16/l702.exe)
 L702 exits ... SP integral derivatives will be done elsewhere.
 Leave Link  702 at Thu Jul 23 18:13:55 2020, MaxMem=  4026531840 cpu:               0.2 elap:               0.1
 (Enter /opt/ohpc/pub/libs/gaussian/g16-A.03/sandybridge/g16/l703.exe)
 Integral derivatives from FoFJK, PRISM(SPDF).
 Compute integral first derivatives, UseDBF=F ICtDFT=           0.
 Calling FoFJK, ICntrl=      2127 FMM=F ISym2X=0 I1Cent= 0 IOpClX= 1 NMat=1 NMatS=1 NMatT=0.
 FoFJK:  IHMeth= 1 ICntrl=    2127 DoSepK=T KAlg= 0 I1Cent=           0 FoldK=F
 IRaf=         1 NMat=       1 IRICut=       1 DoRegI=T DoRafI=F ISym2E= 0 IDoP0=0 IntGTp=1.
 FoFCou: FMM=F IPFlag=           0 FMFlag=      100000 FMFlg1=         800
         NFxFlg=           0 DoJE=F BraDBF=F KetDBF=F FulRan=T
         wScrn=  0.000000 ICntrl=      2527 IOpCl=  0 I1Cent=           0 NGrid=           0
         NMat0=    1 NMatS0=      1 NMatT0=    0 NMatD0=    1 NMtDS0=    0 NMtDT0=    0
 Symmetry not used in FoFCou.
 Leave Link  703 at Thu Jul 23 18:14:06 2020, MaxMem=  4026531840 cpu:              80.9 elap:              10.4
 (Enter /opt/ohpc/pub/libs/gaussian/g16-A.03/sandybridge/g16/l716.exe)
 Dipole        = 8.78754780D-01 1.02061857D+00-1.61361140D-01
 ***** Axes restored to original set *****
 -------------------------------------------------------------------
 Center     Atomic                   Forces (Hartrees/Bohr)
 Number     Number              X              Y              Z
 -------------------------------------------------------------------
      1        6          -0.007321964    0.006233646   -0.005977160
      2        6           0.069473332   -0.011108965    0.010755158
      3        7          -0.002425174    0.001813651   -0.011744579
      4        6          -0.047947609   -0.017120475    0.017097434
      5       16           0.006804057    0.029616450   -0.013187692
      6        6          -0.037739595   -0.047699409   -0.000305644
      7        6           0.084768177   -0.008365578    0.003759814
      8        8           0.016818992    0.050185383    0.002485928
      9        6          -0.055685645    0.017435341   -0.005233982
     10        6          -0.049148280   -0.037000691   -0.009364203
     11        6          -0.047161351    0.073132378    0.011541442
     12       16           0.011062980    0.004173281   -0.001797219
     13        1          -0.015259316    0.013657854   -0.005945875
     14        1          -0.025041683   -0.015551221    0.008668034
     15        1           0.004873926    0.000445970    0.006197582
     16        1           0.014380259   -0.005994696    0.005765286
     17        1           0.011362865   -0.028826785   -0.008533606
     18        1           0.024548643    0.011293457    0.000712007
     19        1           0.043637387   -0.036319588   -0.004892727
 -------------------------------------------------------------------
 Cartesian Forces:  Max     0.084768177 RMS     0.028097897
 Leave Link  716 at Thu Jul 23 18:14:06 2020, MaxMem=  4026531840 cpu:               0.2 elap:               0.1
 (Enter /opt/ohpc/pub/libs/gaussian/g16-A.03/sandybridge/g16/l103.exe)

 GradGradGradGradGradGradGradGradGradGradGradGradGradGradGradGradGradGrad
 Berny optimization.
 FormGI is forming the generalized inverse of G from B-inverse, IUseBI=4.
 Internal  Forces:  Max     0.059259698 RMS     0.014931630
 Search for a local minimum.
 Step number   1 out of a maximum of   98
 All quantities printed in internal units (Hartrees-Bohrs-Radians)
 RMS Force = .14932D-01 SwitMx=.10000D-02 MixMth= 1
 Mixed Optimization -- RFO/linear search
 Second derivative matrix not updated -- first step.
 ITU=  0
     Eigenvalues ---    0.00520   0.01370   0.01458   0.01683   0.01806
     Eigenvalues ---    0.01816   0.01978   0.02029   0.02122   0.02276
     Eigenvalues ---    0.02465   0.02467   0.02677   0.02773   0.10003
     Eigenvalues ---    0.10842   0.15902   0.15912   0.15984   0.15997
     Eigenvalues ---    0.16000   0.16000   0.16000   0.22450   0.22541
     Eigenvalues ---    0.24713   0.24774   0.24922   0.24963   0.24985
     Eigenvalues ---    0.25000   0.27993   0.30759   0.31807   0.33060
     Eigenvalues ---    0.33321   0.33592   0.33605   0.35586   0.35645
     Eigenvalues ---    0.37837   0.38945   0.39394   0.40888   0.42326
     Eigenvalues ---    0.42711   0.43567   0.53656   0.57604   0.58556
     Eigenvalues ---    0.62363
 RFO step:  Lambda=-4.49270806D-02 EMin= 5.19957259D-03
 Linear search not attempted -- first point.
 Maximum step size (   0.300) exceeded in Quadratic search.
    -- Step size scaled by   0.928
 Iteration  1 RMS(Cart)=  0.03709394 RMS(Int)=  0.00103627
 Iteration  2 RMS(Cart)=  0.00125889 RMS(Int)=  0.00034782
 Iteration  3 RMS(Cart)=  0.00000170 RMS(Int)=  0.00034781
 Iteration  4 RMS(Cart)=  0.00000000 RMS(Int)=  0.00034781
 ITry= 1 IFail=0 DXMaxC= 1.22D-01 DCOld= 1.00D+10 DXMaxT= 3.00D-01 DXLimC= 3.00D+00 Rises=F
 Variable       Old X    -DE/DX   Delta X   Delta X   Delta X     New X
                                 (Linear)    (Quad)   (Total)
    R1        2.52695   0.03170   0.00000   0.04913   0.04909   2.57604
    R2        3.20203   0.00805   0.00000   0.02254   0.02272   3.22475
    R3        2.01303   0.02060   0.00000   0.04516   0.04516   2.05818
    R4        2.67084  -0.02652   0.00000  -0.05309  -0.05331   2.61753
    R5        1.99086   0.03008   0.00000   0.06361   0.06361   2.05446
    R6        2.52190  -0.01972   0.00000  -0.03204  -0.03216   2.48974
    R7        3.23250   0.02156   0.00000   0.04971   0.04983   3.28233
    R8        2.70364   0.02241   0.00000   0.04582   0.04582   2.74946
    R9        2.50018   0.05926   0.00000   0.08874   0.08875   2.58893
   R10        3.28702  -0.00493   0.00000  -0.00574  -0.00559   3.28143
   R11        2.49118   0.03406   0.00000   0.04728   0.04728   2.53846
   R12        2.81038  -0.02574   0.00000  -0.06231  -0.06244   2.74793
   R13        2.81302  -0.03028   0.00000  -0.07375  -0.07375   2.73927
   R14        2.08946  -0.00306   0.00000  -0.00756  -0.00756   2.08190
   R15        2.04640   0.01347   0.00000   0.03114   0.03114   2.07754
   R16        2.18853  -0.03190   0.00000  -0.09112  -0.09112   2.09741
   R17        2.65953  -0.03316   0.00000  -0.06958  -0.06970   2.58983
   R18        1.99712   0.02680   0.00000   0.05724   0.05724   2.05437
   R19        3.26762  -0.00165   0.00000  -0.01067  -0.01063   3.25699
   R20        1.93676   0.05688   0.00000   0.10980   0.10980   2.04657
    A1        1.93892  -0.00618   0.00000  -0.01071  -0.01064   1.92828
    A2        2.18725   0.00848   0.00000   0.02979   0.02976   2.21701
    A3        2.15680  -0.00231   0.00000  -0.01914  -0.01920   2.13760
    A4        1.98045   0.01003   0.00000   0.03777   0.03710   2.01755
    A5        2.27885  -0.01047   0.00000  -0.04200  -0.04232   2.23653
    A6        2.01797   0.00083   0.00000   0.00957   0.00938   2.02735
    A7        1.95306  -0.00729   0.00000  -0.03604  -0.03666   1.91640
    A8        1.94795   0.02005   0.00000   0.05527   0.05517   2.00312
    A9        2.18345  -0.01409   0.00000  -0.04050  -0.04046   2.14299
   A10        2.15109  -0.00597   0.00000  -0.01498  -0.01494   2.13616
   A11        1.60218  -0.01641   0.00000  -0.04356  -0.04309   1.55909
   A12        2.24745   0.00690   0.00000   0.01286   0.01281   2.26026
   A13        2.02966   0.01285   0.00000   0.03163   0.03159   2.06125
   A14        2.00438  -0.01972   0.00000  -0.04411  -0.04405   1.96033
   A15        2.14198  -0.00512   0.00000  -0.02112  -0.02116   2.12082
[...]
    15  H    0.000000   0.000000   0.655877  -0.043332  -0.025212   0.001156
    16  H    0.000000   0.000000  -0.043332   0.655831  -0.025174   0.001164
    17  H   -0.000000  -0.000000  -0.025212  -0.025174   0.608594  -0.000160
    18  H   -0.000000   0.000000   0.001156   0.001164  -0.000160   0.674733
    19  H    0.000000  -0.000000   0.000010   0.000010  -0.000000  -0.007940
              19
     1  C    0.000000
     2  C   -0.000000
     3  N    0.000000
     4  C   -0.000263
     5  S    0.000003
     6  C    0.001304
     7  C    0.007582
     8  O   -0.000052
     9  C   -0.000004
    10  C   -0.019090
    11  C    0.395859
    12  S   -0.038490
    13  H    0.000000
    14  H   -0.000000
    15  H    0.000010
    16  H    0.000010
    17  H   -0.000000
    18  H   -0.007940
    19  H    0.631665
          Atomic-Atomic Spin Densities.
               1          2          3          4          5          6
     1  C   -0.000000   0.000000  -0.000000  -0.000000   0.000000  -0.000000
     2  C    0.000000  -0.000000  -0.000000   0.000000   0.000000  -0.000000
     3  N   -0.000000  -0.000000  -0.000000   0.000000  -0.000000   0.000000
     4  C   -0.000000   0.000000   0.000000  -0.000000  -0.000000  -0.000000
     5  S    0.000000   0.000000  -0.000000  -0.000000   0.000000   0.000000
     6  C   -0.000000  -0.000000   0.000000  -0.000000   0.000000   0.000000
     7  C    0.000000   0.000000  -0.000000  -0.000000  -0.000000  -0.000000
     8  O   -0.000000   0.000000   0.000000   0.000000  -0.000000  -0.000000
     9  C    0.000000  -0.000000   0.000000  -0.000000  -0.000000   0.000000
    10  C    0.000000   0.000000  -0.000000   0.000000   0.000000  -0.000000
    11  C   -0.000000  -0.000000  -0.000000  -0.000000   0.000000   0.000000
    12  S    0.000000  -0.000000   0.000000  -0.000000  -0.000000   0.000000
    13  H   -0.000000   0.000000   0.000000  -0.000000   0.000000   0.000000
    14  H    0.000000  -0.000000   0.000000  -0.000000   0.000000  -0.000000
    15  H   -0.000000   0.000000  -0.000000   0.000000  -0.000000   0.000000
    16  H   -0.000000   0.000000  -0.000000  -0.000000   0.000000   0.000000
    17  H    0.000000  -0.000000   0.000000   0.000000  -0.000000  -0.000000
    18  H    0.000000  -0.000000  -0.000000   0.000000   0.000000   0.000000
    19  H   -0.000000  -0.000000   0.000000  -0.000000  -0.000000  -0.000000
               7          8          9         10         11         12
     1  C    0.000000  -0.000000   0.000000   0.000000  -0.000000   0.000000
     2  C    0.000000   0.000000  -0.000000   0.000000  -0.000000  -0.000000
     3  N   -0.000000   0.000000   0.000000  -0.000000  -0.000000   0.000000
     4  C   -0.000000   0.000000  -0.000000   0.000000  -0.000000  -0.000000
     5  S   -0.000000  -0.000000  -0.000000   0.000000   0.000000  -0.000000
     6  C   -0.000000  -0.000000   0.000000  -0.000000   0.000000   0.000000
     7  C    0.000000   0.000000   0.000000  -0.000000   0.000000  -0.000000
     8  O    0.000000  -0.000000  -0.000000  -0.000000   0.000000  -0.000000
     9  C    0.000000  -0.000000   0.000000  -0.000000  -0.000000  -0.000000
    10  C   -0.000000  -0.000000  -0.000000   0.000000   0.000000   0.000000
    11  C    0.000000   0.000000  -0.000000   0.000000  -0.000000   0.000000
    12  S   -0.000000  -0.000000  -0.000000   0.000000   0.000000  -0.000000
    13  H    0.000000   0.000000   0.000000   0.000000   0.000000  -0.000000
    14  H    0.000000   0.000000  -0.000000   0.000000   0.000000  -0.000000
    15  H   -0.000000  -0.000000  -0.000000   0.000000  -0.000000   0.000000
    16  H   -0.000000   0.000000  -0.000000   0.000000  -0.000000   0.000000
    17  H    0.000000   0.000000  -0.000000  -0.000000   0.000000  -0.000000
    18  H   -0.000000  -0.000000   0.000000   0.000000   0.000000   0.000000
    19  H    0.000000   0.000000   0.000000  -0.000000  -0.000000   0.000000
              13         14         15         16         17         18
     1  C   -0.000000   0.000000  -0.000000  -0.000000   0.000000   0.000000
     2  C    0.000000  -0.000000   0.000000   0.000000  -0.000000  -0.000000
     3  N    0.000000   0.000000  -0.000000  -0.000000   0.000000  -0.000000
     4  C   -0.000000  -0.000000   0.000000  -0.000000   0.000000   0.000000
     5  S    0.000000   0.000000  -0.000000   0.000000  -0.000000   0.000000
     6  C    0.000000  -0.000000   0.000000   0.000000  -0.000000   0.000000
     7  C    0.000000   0.000000  -0.000000  -0.000000   0.000000  -0.000000
     8  O    0.000000   0.000000  -0.000000   0.000000   0.000000  -0.000000
     9  C    0.000000  -0.000000  -0.000000  -0.000000  -0.000000   0.000000
    10  C    0.000000   0.000000   0.000000   0.000000  -0.000000   0.000000
    11  C    0.000000   0.000000  -0.000000  -0.000000   0.000000   0.000000
    12  S   -0.000000  -0.000000   0.000000   0.000000  -0.000000   0.000000
    13  H    0.000000   0.000000  -0.000000  -0.000000   0.000000  -0.000000
    14  H    0.000000   0.000000   0.000000   0.000000   0.000000  -0.000000
    15  H   -0.000000   0.000000   0.000000  -0.000000   0.000000   0.000000
    16  H   -0.000000   0.000000  -0.000000  -0.000000  -0.000000   0.000000
    17  H    0.000000   0.000000   0.000000  -0.000000   0.000000  -0.000000
    18  H   -0.000000  -0.000000   0.000000   0.000000  -0.000000   0.000000
    19  H   -0.000000  -0.000000  -0.000000  -0.000000   0.000000  -0.000000
              19
     1  C   -0.000000
     2  C   -0.000000
     3  N    0.000000
     4  C   -0.000000
     5  S   -0.000000
     6  C   -0.000000
     7  C    0.000000
     8  O    0.000000
     9  C    0.000000
    10  C   -0.000000
    11  C   -0.000000
    12  S    0.000000
    13  H   -0.000000
    14  H   -0.000000
    15  H   -0.000000
    16  H   -0.000000
    17  H    0.000000
    18  H   -0.000000
    19  H    0.000000
 Mulliken charges and spin densities:
               1          2
     1  C   -0.181276  -0.000000
     2  C    0.119875   0.000000
     3  N   -0.203899   0.000000
     4  C    0.030871  -0.000000
     5  S    0.162112   0.000000
     6  C   -0.182930   0.000000
     7  C    0.129718   0.000000
     8  O   -0.249865  -0.000000
     9  C    0.057008  -0.000000
    10  C    0.020360  -0.000000
    11  C   -0.127287   0.000000
    12  S    0.210787  -0.000000
    13  H    0.027599  -0.000000
    14  H    0.003714   0.000000
    15  H    0.048139   0.000000
    16  H    0.048144  -0.000000
    17  H    0.057967   0.000000
    18  H   -0.000440   0.000000
    19  H    0.029405   0.000000
 Sum of Mulliken charges =  -0.00000   0.00000
 Mulliken charges and spin densities with hydrogens summed into heavy atoms:
               1          2
     1  C   -0.153677  -0.000000
     2  C    0.123589   0.000000
     3  N   -0.203899   0.000000
     4  C    0.030871  -0.000000
     5  S    0.162112   0.000000
     6  C   -0.182930   0.000000
     7  C    0.129718   0.000000
     8  O   -0.249865  -0.000000
     9  C    0.211257  -0.000000
    10  C    0.019920  -0.000000
    11  C   -0.097882   0.000000
    12  S    0.210787  -0.000000
 Electronic spatial extent (au):  <R**2>=           2601.7549
 Charge=              0.0000 electrons
 Dipole moment (field-independent basis, Debye):
    X=              2.1462    Y=              2.3902    Z=              0.0037  Tot=              3.2124
 Quadrupole moment (field-independent basis, Debye-Ang):
   XX=            -65.5196   YY=            -77.1511   ZZ=            -86.4536
   XY=              0.7665   XZ=              0.0043   YZ=              0.0091
 Traceless Quadrupole moment (field-independent basis, Debye-Ang):
   XX=             10.8552   YY=             -0.7763   ZZ=            -10.0788
   XY=              0.7665   XZ=              0.0043   YZ=              0.0091
 Octapole moment (field-independent basis, Debye-Ang**2):
  XXX=             -2.8674  YYY=             28.1007  ZZZ=              0.0011  XYY=             22.0639
  XXY=              9.5438  XXZ=              0.0232  XZZ=              2.1355  YZZ=              4.9152
  YYZ=              0.0227  XYZ=              0.0150
 Hexadecapole moment (field-independent basis, Debye-Ang**3):
 XXXX=          -1941.4710 YYYY=          -1102.4167 ZZZZ=           -101.9890 XXXY=             -5.5705
 XXXZ=             -0.0718 YYYX=             17.7114 YYYZ=              0.0482 ZZZX=              0.0212
 ZZZY=             -0.0005 XXYY=           -483.2246 XXZZ=           -420.6874 YYZZ=           -219.9551
 XXYZ=             -0.0227 YYXZ=              0.0363 ZZXY=              9.7018
 N-N= 8.645648283713D+02 E-N=-4.643557842734D+03  KE= 1.230159443983D+03
                          Isotropic Fermi Contact Couplings
        Atom                 a.u.       MegaHertz       Gauss      10(-4) cm-1
     1  C(13)              0.00000       0.00000       0.00000       0.00000
     2  C(13)              0.00000       0.00000       0.00000       0.00000
     3  N(14)             -0.00000      -0.00000      -0.00000      -0.00000
     4  C(13)             -0.00000      -0.00000      -0.00000      -0.00000
     5  S(33)              0.00000       0.00000       0.00000       0.00000
     6  C(13)              0.00000       0.00000       0.00000       0.00000
     7  C(13)              0.00000       0.00000       0.00000       0.00000
     8  O(17)             -0.00000       0.00000       0.00000       0.00000
     9  C(13)              0.00000       0.00000       0.00000       0.00000
    10  C(13)             -0.00000      -0.00000      -0.00000      -0.00000
    11  C(13)              0.00000       0.00000       0.00000       0.00000
    12  S(33)              0.00000       0.00000       0.00000       0.00000
    13  H(1)               0.00000       0.00000       0.00000       0.00000
    14  H(1)               0.00000       0.00000       0.00000       0.00000
    15  H(1)               0.00000       0.00000       0.00000       0.00000
    16  H(1)               0.00000       0.00000       0.00000       0.00000
    17  H(1)               0.00000       0.00000       0.00000       0.00000
    18  H(1)               0.00000       0.00000       0.00000       0.00000
    19  H(1)               0.00000       0.00000       0.00000       0.00000
 --------------------------------------------------------
       Center         ----  Spin Dipole Couplings  ----
                      3XX-RR        3YY-RR        3ZZ-RR
 --------------------------------------------------------
     1   Atom        0.000000      0.000000     -0.000000
     2   Atom        0.000000     -0.000000     -0.000000
     3   Atom        0.000000     -0.000000      0.000000
     4   Atom       -0.000000      0.000000      0.000000
     5   Atom       -0.000000     -0.000000      0.000000
     6   Atom        0.000000     -0.000000     -0.000000
     7   Atom        0.000000      0.000000     -0.000000
     8   Atom       -0.000000      0.000000      0.000000
     9   Atom       -0.000000      0.000000      0.000000
    10   Atom        0.000000     -0.000000      0.000000
    11   Atom       -0.000000      0.000000      0.000000
    12   Atom       -0.000000      0.000000      0.000000
    13   Atom       -0.000000      0.000000     -0.000000
    14   Atom       -0.000000      0.000000     -0.000000
    15   Atom        0.000000      0.000000     -0.000000
    16   Atom        0.000000      0.000000     -0.000000
    17   Atom       -0.000000      0.000000      0.000000
    18   Atom        0.000000     -0.000000     -0.000000
    19   Atom       -0.000000      0.000000     -0.000000
 --------------------------------------------------------
                        XY            XZ            YZ
 --------------------------------------------------------
     1   Atom        0.000000     -0.000000     -0.000000
     2   Atom       -0.000000     -0.000000      0.000000
     3   Atom       -0.000000      0.000000      0.000000
     4   Atom       -0.000000      0.000000     -0.000000
     5   Atom        0.000000      0.000000      0.000000
     6   Atom       -0.000000     -0.000000      0.000000
     7   Atom       -0.000000      0.000000      0.000000
     8   Atom       -0.000000      0.000000      0.000000
     9   Atom       -0.000000      0.000000      0.000000
    10   Atom        0.000000      0.000000      0.000000
    11   Atom        0.000000      0.000000     -0.000000
    12   Atom       -0.000000      0.000000     -0.000000
    13   Atom       -0.000000     -0.000000      0.000000
    14   Atom        0.000000      0.000000      0.000000
    15   Atom        0.000000      0.000000     -0.000000
    16   Atom        0.000000      0.000000      0.000000
    17   Atom        0.000000      0.000000     -0.000000
    18   Atom        0.000000     -0.000000      0.000000
    19   Atom       -0.000000     -0.000000      0.000000
 --------------------------------------------------------


 ---------------------------------------------------------------------------------
              Anisotropic Spin Dipole Couplings in Principal Axis System
 ---------------------------------------------------------------------------------

       Atom             a.u.   MegaHertz   Gauss  10(-4) cm-1        Axes

              Baa    -0.0000    -0.000    -0.000    -0.000  0.7085 -0.7048 -0.0371
     1 C(13)  Bbb    -0.0000    -0.000    -0.000    -0.000  0.0376 -0.0148  0.9992
              Bcc     0.0000     0.000     0.000     0.000  0.7047  0.7093 -0.0160
 
              Baa    -0.0000    -0.000    -0.000    -0.000  0.4939  0.8695 -0.0021
     2 C(13)  Bbb    -0.0000    -0.000    -0.000    -0.000  0.0081 -0.0022  1.0000
              Bcc     0.0000     0.000     0.000     0.000  0.8695 -0.4939 -0.0081
 
              Baa    -0.0000    -0.000    -0.000    -0.000  0.5724  0.8199 -0.0123
     3 N(14)  Bbb     0.0000     0.000     0.000     0.000  0.0164  0.0036  0.9999
              Bcc     0.0000     0.000     0.000     0.000  0.8198 -0.5725 -0.0114
 
              Baa    -0.0000    -0.000    -0.000    -0.000  0.9991  0.0420 -0.0004
     4 C(13)  Bbb     0.0000     0.000     0.000     0.000 -0.0420  0.9991  0.0044
              Bcc     0.0000     0.000     0.000     0.000  0.0006 -0.0044  1.0000
 
              Baa    -0.0000    -0.000    -0.000    -0.000  0.7543 -0.6565 -0.0036
     5 S(33)  Bbb     0.0000     0.000     0.000     0.000 -0.0813 -0.0988  0.9918
              Bcc     0.0000     0.000     0.000     0.000  0.6515  0.7478  0.1279
 
              Baa    -0.0000    -0.000    -0.000    -0.000  0.2750  0.9614 -0.0128
     6 C(13)  Bbb    -0.0000    -0.000    -0.000    -0.000  0.0115  0.0100  0.9999
              Bcc     0.0000     0.000     0.000     0.000  0.9614 -0.2751 -0.0083
 
              Baa    -0.0000    -0.000    -0.000    -0.000 -0.0154 -0.0110  0.9998
     7 C(13)  Bbb    -0.0000    -0.000    -0.000    -0.000  0.6912  0.7224  0.0186
              Bcc     0.0000     0.000     0.000     0.000  0.7225 -0.6914  0.0035
 
              Baa    -0.0000     0.000     0.000     0.000  0.9966  0.0821 -0.0114
     8 O(17)  Bbb     0.0000    -0.000    -0.000    -0.000  0.0392 -0.3459  0.9374
              Bcc     0.0000    -0.000    -0.000    -0.000 -0.0730  0.9347  0.3479
 
              Baa    -0.0000    -0.000    -0.000    -0.000  0.7520  0.5480 -0.3663
     9 C(13)  Bbb     0.0000     0.000     0.000     0.000  0.0619  0.4945  0.8670
              Bcc     0.0000     0.000     0.000     0.000 -0.6562  0.6746 -0.3380
 
              Baa    -0.0000    -0.000    -0.000    -0.000 -0.4860  0.8724 -0.0512
    10 C(13)  Bbb     0.0000     0.000     0.000     0.000 -0.1184 -0.0076  0.9929
              Bcc     0.0000     0.000     0.000     0.000  0.8659  0.4886  0.1070
 
              Baa    -0.0000    -0.000    -0.000    -0.000  0.9867 -0.1620 -0.0110
    11 C(13)  Bbb     0.0000     0.000     0.000     0.000  0.0163  0.0314  0.9994
              Bcc     0.0000     0.000     0.000     0.000  0.1615  0.9863 -0.0336
 
              Baa    -0.0000    -0.000    -0.000    -0.000  0.9971  0.0758 -0.0036
    12 S(33)  Bbb     0.0000     0.000     0.000     0.000  0.0017  0.0251  0.9997
              Bcc     0.0000     0.000     0.000     0.000 -0.0758  0.9968 -0.0249
 
              Baa    -0.0000    -0.000    -0.000    -0.000  0.8142  0.5804  0.0155
    13 H(1)   Bbb    -0.0000    -0.000    -0.000    -0.000 -0.0101 -0.0125  0.9999
              Bcc     0.0000     0.000     0.000     0.000 -0.5805  0.8143  0.0043
 
              Baa    -0.0000    -0.000    -0.000    -0.000  0.9968 -0.0795  0.0021
    14 H(1)   Bbb    -0.0000    -0.000    -0.000    -0.000 -0.0031 -0.0133  0.9999
              Bcc     0.0000     0.000     0.000     0.000  0.0795  0.9967  0.0135
 
              Baa    -0.0000    -0.000    -0.000    -0.000  0.5835 -0.5826 -0.5657
    15 H(1)   Bbb     0.0000     0.000     0.000     0.000  0.5294 -0.2553  0.8090
              Bcc     0.0000     0.000     0.000     0.000  0.6158  0.7716 -0.1595
 
              Baa    -0.0000    -0.000    -0.000    -0.000 -0.3531 -0.1654  0.9209
    16 H(1)   Bbb     0.0000     0.000     0.000     0.000 -0.3881  0.9215  0.0167
              Bcc     0.0000     0.000     0.000     0.000  0.8513  0.3515  0.3895
 
              Baa    -0.0000    -0.000    -0.000    -0.000  0.6717 -0.5377 -0.5097
    17 H(1)   Bbb     0.0000     0.000     0.000     0.000  0.7267  0.3441  0.5946
              Bcc     0.0000     0.000     0.000     0.000  0.1444  0.7697 -0.6218
 
              Baa    -0.0000    -0.000    -0.000    -0.000 -0.2712  0.9380 -0.2159
    18 H(1)   Bbb    -0.0000    -0.000    -0.000    -0.000 -0.0493  0.2105  0.9764
              Bcc     0.0000     0.000     0.000     0.000  0.9612  0.2755 -0.0108
 
              Baa    -0.0000    -0.000    -0.000    -0.000  0.9948  0.0081  0.1014
    19 H(1)   Bbb    -0.0000    -0.000    -0.000    -0.000 -0.1013 -0.0092  0.9948
              Bcc     0.0000     0.000     0.000     0.000 -0.0090  0.9999  0.0083
 

 ---------------------------------------------------------------------------------

 No NMR shielding tensors so no spin-rotation constants.
 Leave Link  601 at Thu Jul 23 18:21:19 2020, MaxMem=  4026531840 cpu:               1.8 elap:               0.3
 (Enter /opt/ohpc/pub/libs/gaussian/g16-A.03/sandybridge/g16/l9999.exe)

 Test job not archived.
 1\1\GINC-SKYLAKE025\FOpt\ULC-wPBE\CC-pVDZ\C8H7N1O1S2\RDU230\23-Jul-202
 0\0\\#P uLC-wPBE/cc-pVDZ iop(3/107=0272400000, 3/108=0272400000) opt\\
 H7 C8 S2 N1 O1\\0,1\C,-3.3169232469,0.5525933975,0.1986315967\C,-3.181
 0231416,-0.8068405346,0.1649736718\N,-1.8952906418,-1.282197975,0.1226
 34845\C,-1.036713119,-0.2900929833,0.1234000202\S,-1.7620663528,1.2987
 26611,0.1765572754\C,0.4011467445,-0.5009256566,0.0831519923\C,1.42424
 59144,0.4311293993,0.0794057841\O,1.1275277134,1.7551511335,0.11619573
 36\C,2.2200718139,2.6602508658,0.1137832193\C,2.7231962962,-0.16401748
 08,0.0342981038\C,2.6473311435,-1.5329007293,0.0051222468\S,1.03334465
 88,-2.1149394059,0.0312430772\H,-4.2330278377,1.144924954,0.2346959402
 \H,-4.0120514025,-1.5187977494,0.1698215384\H,2.8273232688,2.559283965
 4,-0.8062790855\H,2.8677704174,2.5152436663,0.9997483374\H,1.781477802
 4,3.6689810248,0.1481120816\H,3.6658281177,0.3873045414,0.0239305097\H
 ,3.4808098514,-2.237831044,-0.031066888\\Version=EM64L-G16RevA.03\Stat
 e=1-A\HF=-1234.8187384\S2=0.\S2-1=0.\S2A=0.\RMSD=7.621e-09\RMSF=1.622e
 -05\Dipole=0.8710715,0.9157066,0.0012107\Quadrupole=8.0872276,-0.60651
 18,-7.4807158,0.3267908,-0.368866,0.1565361\PG=C01 [X(C8H7N1O1S2)]\\@


 KINETICS       FACT
 ---------  =  -------
 MECHANISM     FICTION
 Job cpu time:       0 days  1 hours  4 minutes 33.4 seconds.
 Elapsed time:       0 days  0 hours  8 minutes 12.2 seconds.
 File lengths (MBytes):  RWF=    104 Int=      0 D2E=      0 Chk=     12 Scr=      8
 Normal termination of Gaussian 16 at Thu Jul 23 18:21:20 2020.
