 Entering Gaussian System, Link 0=g16
 Input=mols_65_1_30_cF-cF-CF_opt_0.gjf
 Output=mols_65_1_30_cF-cF-CF_opt_0.log
 Initial command:
 /opt/ohpc/pub/libs/gaussian/g16-A.03/sandybridge/g16/l1.exe "/mnt/gpfs2_4m/scratch/rdu230/ondemand/projects/dihedral_energies/7trial/wtuning/mols_65_1_30_cF-cF-CF/Gau-270887.inp" -scrdir="/mnt/gpfs2_4m/scratch/rdu230/ondemand/projects/dihedral_energies/7trial/wtuning/mols_65_1_30_cF-cF-CF/"
 Entering Link 1 = /opt/ohpc/pub/libs/gaussian/g16-A.03/sandybridge/g16/l1.exe PID=    270888.
  
 Copyright (c) 1988,1990,1992,1993,1995,1998,2003,2009,2016,
            Gaussian, Inc.  All Rights Reserved.
  
 This is part of the Gaussian(R) 16 program.  It is based on
 the Gaussian(R) 09 system (copyright 2009, Gaussian, Inc.),
 the Gaussian(R) 03 system (copyright 2003, Gaussian, Inc.),
 the Gaussian(R) 98 system (copyright 1998, Gaussian, Inc.),
 the Gaussian(R) 94 system (copyright 1995, Gaussian, Inc.),
 the Gaussian 92(TM) system (copyright 1992, Gaussian, Inc.),
 the Gaussian 90(TM) system (copyright 1990, Gaussian, Inc.),
 the Gaussian 88(TM) system (copyright 1988, Gaussian, Inc.),
 the Gaussian 86(TM) system (copyright 1986, Carnegie Mellon
 University), and the Gaussian 82(TM) system (copyright 1983,
 Carnegie Mellon University). Gaussian is a federally registered
 trademark of Gaussian, Inc.
  
 This software contains proprietary and confidential information,
 including trade secrets, belonging to Gaussian, Inc.
  
 This software is provided under written license and may be
 used, copied, transmitted, or stored only in accord with that
 written license.
  
 The following legend is applicable only to US Government
 contracts under FAR:
  
                    RESTRICTED RIGHTS LEGEND
  
 Use, reproduction and disclosure by the US Government is
 subject to restrictions as set forth in subparagraphs (a)
 and (c) of the Commercial Computer Software - Restricted
 Rights clause in FAR 52.227-19.
  
 Gaussian, Inc.
 340 Quinnipiac St., Bldg. 40, Wallingford CT 06492
  
  
 ---------------------------------------------------------------
 Warning -- This program may not be used in any manner that
 competes with the business of Gaussian, Inc. or will provide
 assistance to any competitor of Gaussian, Inc.  The licensee
 of this program is prohibited from giving any competitor of
 Gaussian, Inc. access to this program.  By using this program,
 the user acknowledges that Gaussian, Inc. is engaged in the
 business of creating and licensing software in the field of
 computational chemistry and represents and warrants to the
 licensee that it is not a competitor of Gaussian, Inc. and that
 it will not use this program in any manner prohibited above.
 ---------------------------------------------------------------
  

 Cite this work as:
 Gaussian 16, Revision A.03,
 M. J. Frisch, G. W. Trucks, H. B. Schlegel, G. E. Scuseria, 
 M. A. Robb, J. R. Cheeseman, G. Scalmani, V. Barone, 
 G. A. Petersson, H. Nakatsuji, X. Li, M. Caricato, A. V. Marenich, 
 J. Bloino, B. G. Janesko, R. Gomperts, B. Mennucci, H. P. Hratchian, 
 J. V. Ortiz, A. F. Izmaylov, J. L. Sonnenberg, D. Williams-Young, 
 F. Ding, F. Lipparini, F. Egidi, J. Goings, B. Peng, A. Petrone, 
 T. Henderson, D. Ranasinghe, V. G. Zakrzewski, J. Gao, N. Rega, 
 G. Zheng, W. Liang, M. Hada, M. Ehara, K. Toyota, R. Fukuda, 
 J. Hasegawa, M. Ishida, T. Nakajima, Y. Honda, O. Kitao, H. Nakai, 
 T. Vreven, K. Throssell, J. A. Montgomery, Jr., J. E. Peralta, 
 F. Ogliaro, M. J. Bearpark, J. J. Heyd, E. N. Brothers, K. N. Kudin, 
 V. N. Staroverov, T. A. Keith, R. Kobayashi, J. Normand, 
 K. Raghavachari, A. P. Rendell, J. C. Burant, S. S. Iyengar, 
 J. Tomasi, M. Cossi, J. M. Millam, M. Klene, C. Adamo, R. Cammi, 
 J. W. Ochterski, R. L. Martin, K. Morokuma, O. Farkas, 
 J. B. Foresman, and D. J. Fox, Gaussian, Inc., Wallingford CT, 2016.
 
 ******************************************
 Gaussian 16:  EM64L-G16RevA.03 25-Dec-2016
                24-Jul-2020 
 ******************************************
 %mem=30GB
 %nproc=8
 Will use up to    8 processors via shared memory.
 ---------------------------------------------------------------
 #P uLC-wPBE/cc-pVDZ iop(3/107=0320400000, 3/108=0320400000) opt
 ---------------------------------------------------------------
 1/18=20,19=15,26=3,38=1/1,3;
 2/9=110,12=2,17=6,18=5,40=1/2;
 3/5=16,11=2,25=1,30=1,71=1,74=-41,107=320400000,108=320400000,116=2/1,2,3;
 4//1;
 5/5=2,38=5/2;
 6/7=2,8=2,9=2,10=2,28=1/1;
 7//1,2,3,16;
 1/18=20,19=15,26=3/3(2);
 2/9=110/2;
 99//99;
 2/9=110/2;
 3/5=16,11=2,25=1,30=1,71=1,74=-41,107=320400000,108=320400000,116=2/1,2,3;
 4/5=5,16=3,69=1/1;
 5/5=2,38=5/2;
 7//1,2,3,16;
 1/18=20,19=15,26=3/3(-5);
 2/9=110/2;
 6/7=2,8=2,9=2,10=2,19=2,28=1/1;
 99/9=1/99;
 Leave Link    1 at Fri Jul 24 15:06:39 2020, MaxMem=  4026531840 cpu:               1.0 elap:               0.1
 (Enter /opt/ohpc/pub/libs/gaussian/g16-A.03/sandybridge/g16/l101.exe)
 ------------
 H5 C10 S1 F3
 ------------
 Symbolic Z-matrix:
 Charge =  0 Multiplicity = 1
 C                     3.50224  -0.02466  -0.01165 
 C                     2.78289   1.08138  -0.50438 
 C                     1.32782   1.11636  -0.46967 
 F                     0.74177   2.18707  -0.84094 
 C                     0.62935  -0.02215  -0.06779 
 C                     1.372    -1.1094    0.39614 
 F                     0.81522  -2.25998   0.85909 
 C                     2.77163  -1.12603   0.42597 
 C                    -0.78801  -0.07757   0.01418 
 C                    -1.67444   0.83641   0.68435 
 F                    -1.23271   1.80137   1.47432 
 C                    -3.01751   0.56556   0.38695 
 C                    -3.19287  -0.53992  -0.37672 
 S                    -1.70181  -1.14227  -0.92765 
 H                     4.60144  -0.03021  -0.06626 
 H                     3.30193   1.95728  -0.80781 
 H                     3.32053  -1.97965   0.72416 
 H                    -3.89552   1.12989   0.85397 
 H                    -4.10876  -1.01986  -0.79735 
 
 ITRead=  0  0  0  0  0  0  0  0  0  0  0  0  0  0  0  0  0  0  0
 MicOpt= -1 -1 -1 -1 -1 -1 -1 -1 -1 -1 -1 -1 -1 -1 -1 -1 -1 -1 -1
 NAtoms=     19 NQM=       19 NQMF=       0 NMMI=      0 NMMIF=      0
                NMic=       0 NMicF=      0.
                    Isotopes and Nuclear Properties:
 (Nuclear quadrupole moments (NQMom) in fm**2, nuclear magnetic moments (NMagM)
  in nuclear magnetons)

  Atom         1           2           3           4           5           6           7           8           9          10
 IAtWgt=          12          12          12          19          12          12          19          12          12          12
 AtmWgt=  12.0000000  12.0000000  12.0000000  18.9984033  12.0000000  12.0000000  18.9984033  12.0000000  12.0000000  12.0000000
 NucSpn=           0           0           0           1           0           0           1           0           0           0
 AtZEff=  -0.0000000  -0.0000000  -0.0000000  -0.0000000  -0.0000000  -0.0000000  -0.0000000  -0.0000000  -0.0000000  -0.0000000
 NQMom=    0.0000000   0.0000000   0.0000000   0.0000000   0.0000000   0.0000000   0.0000000   0.0000000   0.0000000   0.0000000
 NMagM=    0.0000000   0.0000000   0.0000000   2.6288670   0.0000000   0.0000000   2.6288670   0.0000000   0.0000000   0.0000000
 AtZNuc=   6.0000000   6.0000000   6.0000000   9.0000000   6.0000000   6.0000000   9.0000000   6.0000000   6.0000000   6.0000000

  Atom        11          12          13          14          15          16          17          18          19
 IAtWgt=          19          12          12          32           1           1           1           1           1
 AtmWgt=  18.9984033  12.0000000  12.0000000  31.9720718   1.0078250   1.0078250   1.0078250   1.0078250   1.0078250
 NucSpn=           1           0           0           0           1           1           1           1           1
 AtZEff=  -0.0000000  -0.0000000  -0.0000000  -0.0000000  -0.0000000  -0.0000000  -0.0000000  -0.0000000  -0.0000000
 NQMom=    0.0000000   0.0000000   0.0000000   0.0000000   0.0000000   0.0000000   0.0000000   0.0000000   0.0000000
 NMagM=    2.6288670   0.0000000   0.0000000   0.0000000   2.7928460   2.7928460   2.7928460   2.7928460   2.7928460
 AtZNuc=   9.0000000   6.0000000   6.0000000  16.0000000   1.0000000   1.0000000   1.0000000   1.0000000   1.0000000
 Leave Link  101 at Fri Jul 24 15:06:40 2020, MaxMem=  4026531840 cpu:               2.8 elap:               0.4
 (Enter /opt/ohpc/pub/libs/gaussian/g16-A.03/sandybridge/g16/l103.exe)

 GradGradGradGradGradGradGradGradGradGradGradGradGradGradGradGradGradGrad
 Berny optimization.
 Initialization pass.
                           ----------------------------
                           !    Initial Parameters    !
                           ! (Angstroms and Degrees)  !
 --------------------------                            --------------------------
 ! Name  Definition              Value          Derivative Info.                !
 --------------------------------------------------------------------------------
 ! R1    R(1,2)                  1.4084         estimate D2E/DX2                !
 ! R2    R(1,8)                  1.3922         estimate D2E/DX2                !
 ! R3    R(1,15)                 1.1006         estimate D2E/DX2                !
 ! R4    R(2,3)                  1.4559         estimate D2E/DX2                !
 ! R5    R(2,16)                 1.0624         estimate D2E/DX2                !
 ! R6    R(3,4)                  1.2758         estimate D2E/DX2                !
 ! R7    R(3,5)                  1.3948         estimate D2E/DX2                !
 ! R8    R(5,6)                  1.396          estimate D2E/DX2                !
 ! R9    R(5,9)                  1.4208         estimate D2E/DX2                !
 ! R10   R(6,7)                  1.3595         estimate D2E/DX2                !
 ! R11   R(6,8)                  1.4            estimate D2E/DX2                !
 ! R12   R(8,17)                 1.0578         estimate D2E/DX2                !
 ! R13   R(9,10)                 1.4388         estimate D2E/DX2                !
 ! R14   R(9,14)                 1.6899         estimate D2E/DX2                !
 ! R15   R(10,11)                1.323          estimate D2E/DX2                !
 ! R16   R(10,12)                1.402          estimate D2E/DX2                !
 ! R17   R(12,13)                1.355          estimate D2E/DX2                !
 ! R18   R(12,18)                1.1435         estimate D2E/DX2                !
 ! R19   R(13,14)                1.6999         estimate D2E/DX2                !
 ! R20   R(13,19)                1.1163         estimate D2E/DX2                !
 ! A1    A(2,1,8)              117.593          estimate D2E/DX2                !
 ! A2    A(2,1,15)             119.7831         estimate D2E/DX2                !
 ! A3    A(8,1,15)             122.3937         estimate D2E/DX2                !
 ! A4    A(1,2,3)              121.3985         estimate D2E/DX2                !
 ! A5    A(1,2,16)             119.858          estimate D2E/DX2                !
 ! A6    A(3,2,16)             118.3779         estimate D2E/DX2                !
 ! A7    A(2,3,4)              118.1845         estimate D2E/DX2                !
 ! A8    A(2,3,5)              119.1912         estimate D2E/DX2                !
 ! A9    A(4,3,5)              122.6041         estimate D2E/DX2                !
 ! A10   A(3,5,6)              117.7142         estimate D2E/DX2                !
 ! A11   A(3,5,9)              123.2299         estimate D2E/DX2                !
 ! A12   A(6,5,9)              118.7591         estimate D2E/DX2                !
 ! A13   A(5,6,7)              123.6725         estimate D2E/DX2                !
 ! A14   A(5,6,8)              123.2397         estimate D2E/DX2                !
 ! A15   A(7,6,8)              113.0872         estimate D2E/DX2                !
 ! A16   A(1,8,6)              120.5661         estimate D2E/DX2                !
 ! A17   A(1,8,17)             117.0454         estimate D2E/DX2                !
 ! A18   A(6,8,17)             122.2999         estimate D2E/DX2                !
 ! A19   A(5,9,10)             128.0734         estimate D2E/DX2                !
 ! A20   A(5,9,14)             122.1315         estimate D2E/DX2                !
 ! A21   A(10,9,14)            109.0668         estimate D2E/DX2                !
 ! A22   A(9,10,11)            122.3936         estimate D2E/DX2                !
 ! A23   A(9,10,12)            111.6325         estimate D2E/DX2                !
 ! A24   A(11,10,12)           125.9738         estimate D2E/DX2                !
 ! A25   A(10,12,13)           113.6498         estimate D2E/DX2                !
 ! A26   A(10,12,18)           123.6139         estimate D2E/DX2                !
 ! A27   A(13,12,18)           122.2395         estimate D2E/DX2                !
 ! A28   A(12,13,14)           110.9918         estimate D2E/DX2                !
 ! A29   A(12,13,19)           132.0147         estimate D2E/DX2                !
 ! A30   A(14,13,19)           116.4363         estimate D2E/DX2                !
 ! A31   A(9,14,13)             94.0388         estimate D2E/DX2                !
 ! D1    D(8,1,2,3)              4.3692         estimate D2E/DX2                !
 ! D2    D(8,1,2,16)           177.3149         estimate D2E/DX2                !
 ! D3    D(15,1,2,3)           178.99           estimate D2E/DX2                !
 ! D4    D(15,1,2,16)           -8.0644         estimate D2E/DX2                !
 ! D5    D(2,1,8,6)             -1.247          estimate D2E/DX2                !
 ! D6    D(2,1,8,17)           175.41           estimate D2E/DX2                !
 ! D7    D(15,1,8,6)          -175.7174         estimate D2E/DX2                !
 ! D8    D(15,1,8,17)            0.9396         estimate D2E/DX2                !
 ! D9    D(1,2,3,4)            174.9395         estimate D2E/DX2                !
 ! D10   D(1,2,3,5)             -6.6529         estimate D2E/DX2                !
 ! D11   D(16,2,3,4)             1.8925         estimate D2E/DX2                !
 ! D12   D(16,2,3,5)          -179.6998         estimate D2E/DX2                !
 ! D13   D(2,3,5,6)              5.507          estimate D2E/DX2                !
 ! D14   D(2,3,5,9)            179.163          estimate D2E/DX2                !
 ! D15   D(4,3,5,6)           -176.1591         estimate D2E/DX2                !
 ! D16   D(4,3,5,9)             -2.5031         estimate D2E/DX2                !
 ! D17   D(3,5,6,7)            177.7205         estimate D2E/DX2                !
 ! D18   D(3,5,6,8)             -2.5608         estimate D2E/DX2                !
 ! D19   D(9,5,6,7)              3.7727         estimate D2E/DX2                !
 ! D20   D(9,5,6,8)           -176.5087         estimate D2E/DX2                !
 ! D21   D(3,5,9,10)           -51.0758         estimate D2E/DX2                !
 ! D22   D(3,5,9,14)           118.0418         estimate D2E/DX2                !
 ! D23   D(6,5,9,10)           122.5175         estimate D2E/DX2                !
 ! D24   D(6,5,9,14)           -68.3649         estimate D2E/DX2                !
 ! D25   D(5,6,8,1)              0.3554         estimate D2E/DX2                !
 ! D26   D(5,6,8,17)          -176.1219         estimate D2E/DX2                !
 ! D27   D(7,6,8,1)           -179.8991         estimate D2E/DX2                !
 ! D28   D(7,6,8,17)             3.6236         estimate D2E/DX2                !
 ! D29   D(5,9,10,11)           -8.4825         estimate D2E/DX2                !
 ! D30   D(5,9,10,12)          171.4231         estimate D2E/DX2                !
 ! D31   D(14,9,10,11)        -178.7437         estimate D2E/DX2                !
 ! D32   D(14,9,10,12)           1.162          estimate D2E/DX2                !
 ! D33   D(5,9,14,13)         -175.7802         estimate D2E/DX2                !
 ! D34   D(10,9,14,13)          -4.8275         estimate D2E/DX2                !
 ! D35   D(9,10,12,13)           4.4728         estimate D2E/DX2                !
 ! D36   D(9,10,12,18)         176.5326         estimate D2E/DX2                !
 ! D37   D(11,10,12,13)       -175.6257         estimate D2E/DX2                !
 ! D38   D(11,10,12,18)         -3.5658         estimate D2E/DX2                !
 ! D39   D(10,12,13,14)         -8.0599         estimate D2E/DX2                !
 ! D40   D(10,12,13,19)       -178.9823         estimate D2E/DX2                !
 ! D41   D(18,12,13,14)        179.757          estimate D2E/DX2                !
 ! D42   D(18,12,13,19)          8.8346         estimate D2E/DX2                !
 ! D43   D(12,13,14,9)           7.4962         estimate D2E/DX2                !
 ! D44   D(19,13,14,9)         179.974          estimate D2E/DX2                !
 --------------------------------------------------------------------------------
 Trust Radius=3.00D-01 FncErr=1.00D-07 GrdErr=1.00D-06 EigMax=2.50D+02 EigMin=1.00D-04
 Number of steps in this run=    105 maximum allowed number of steps=    114.
 GradGradGradGradGradGradGradGradGradGradGradGradGradGradGradGradGradGrad

 Leave Link  103 at Fri Jul 24 15:06:40 2020, MaxMem=  4026531840 cpu:               0.1 elap:               0.0
 (Enter /opt/ohpc/pub/libs/gaussian/g16-A.03/sandybridge/g16/l202.exe)
                          Input orientation:                          
 ---------------------------------------------------------------------
 Center     Atomic      Atomic             Coordinates (Angstroms)
 Number     Number       Type             X           Y           Z
 ---------------------------------------------------------------------
      1          6           0        3.502240   -0.024663   -0.011647
      2          6           0        2.782892    1.081384   -0.504384
      3          6           0        1.327817    1.116364   -0.469665
      4          9           0        0.741770    2.187065   -0.840941
      5          6           0        0.629349   -0.022146   -0.067789
      6          6           0        1.371997   -1.109402    0.396140
      7          9           0        0.815216   -2.259979    0.859086
      8          6           0        2.771630   -1.126026    0.425966
      9          6           0       -0.788007   -0.077571    0.014180
     10          6           0       -1.674438    0.836411    0.684351
     11          9           0       -1.232711    1.801370    1.474316
     12          6           0       -3.017507    0.565559    0.386946
     13          6           0       -3.192872   -0.539915   -0.376722
     14         16           0       -1.701810   -1.142271   -0.927652
     15          1           0        4.601435   -0.030209   -0.066255
     16          1           0        3.301933    1.957276   -0.807812
     17          1           0        3.320527   -1.979652    0.724155
     18          1           0       -3.895518    1.129885    0.853971
     19          1           0       -4.108759   -1.019861   -0.797350
 ---------------------------------------------------------------------
                    Distance matrix (angstroms):
                    1          2          3          4          5
     1  C    0.000000
     2  C    1.408400   0.000000
     3  C    2.497967   1.455909   0.000000
     4  F    3.633134   2.345630   1.275813   0.000000
     5  C    2.873441   2.458890   1.394836   2.343292   0.000000
     6  C    2.425053   2.757011   2.388641   3.576905   1.396024
     7  F    3.602070   4.110414   3.664428   4.761479   2.429309
     8  C    1.392227   2.395483   2.813372   4.086803   2.460023
     9  C    4.290651   3.789908   2.477155   2.863569   1.420806
    10  C    5.293756   4.619620   3.228570   3.160513   2.571044
    11  F    5.287934   4.534170   3.287035   3.067206   3.028294
    12  C    6.558532   5.891110   4.463072   4.274243   3.721793
    13  C    6.724826   6.193114   4.815447   4.809712   3.869483
    14  S    5.400949   5.023579   3.806550   4.130748   2.725499
    15  H    1.100565   2.175935   3.491983   4.518125   3.972094
    16  H    2.145247   1.062384   2.172236   2.570668   3.407118
    17  H    2.096761   3.341901   3.870583   5.144030   3.420737
    18  H    7.537181   6.815324   5.388453   5.049237   4.759332
    19  H    7.715896   7.210819   5.850401   5.814973   4.896668
                    6          7          8          9         10
     6  C    0.000000
     7  F    1.359467   0.000000
     8  C    1.400049   2.302390   0.000000
     9  C    2.424085   2.836740   3.733610   0.000000
    10  C    3.626296   3.977001   4.866769   1.438837   0.000000
    11  F    4.052106   4.589888   5.069855   2.420780   1.322994
    12  C    4.698226   4.785013   6.031342   2.350158   1.402015
    13  C    4.664725   4.533278   6.046744   2.479908   2.307768
    14  S    3.346908   3.282853   4.673779   1.689873   2.552349
    15  H    3.436239   4.490388   2.188900   5.390250   6.379735
    16  H    3.818202   5.171803   3.363061   4.641539   5.314805
    17  H    2.159097   2.524554   1.057772   4.582797   5.734237
    18  H    5.742014   5.803638   7.051467   3.437997   2.246796
    19  H    5.609913   5.341086   6.989101   3.545967   3.401044
                   11         12         13         14         15
    11  F    0.000000
    12  C    2.427983   0.000000
    13  C    3.570741   1.354996   0.000000
    14  S    3.828123   2.525056   1.699889   0.000000
    15  H    6.305973   7.655626   7.817123   6.458296   0.000000
    16  H    5.078918   6.580247   6.971678   5.887189   2.487712
    17  H    5.965806   6.838310   6.760853   5.352900   2.462885
    18  H    2.815362   1.143451   2.190102   3.626186   8.625013
    19  H    4.625091   2.259855   1.116300   2.413580   8.796669
                   16         17         18         19
    16  H    0.000000
    17  H    4.224532   0.000000
    18  H    7.432994   7.858586   0.000000
    19  H    7.986351   7.643982   2.719143   0.000000
 Stoichiometry    C10H5F3S
 Framework group  C1[X(C10H5F3S)]
 Deg. of freedom    51
 Full point group                 C1      NOp   1
 Largest Abelian subgroup         C1      NOp   1
 Largest concise Abelian subgroup C1      NOp   1
                         Standard orientation:                         
 ---------------------------------------------------------------------
 Center     Atomic      Atomic             Coordinates (Angstroms)
 Number     Number       Type             X           Y           Z
 ---------------------------------------------------------------------
      1          6           0        3.491341   -0.029278   -0.023563
      2          6           0        2.769080    1.076275   -0.513135
      3          6           0        1.313907    1.107173   -0.478645
      4          9           0        0.725017    2.177380   -0.846832
      5          6           0        0.618466   -0.034446   -0.080355
      6          6           0        1.363982   -1.121059    0.380471
      7          9           0        0.810247   -2.274542    0.839826
      8          6           0        2.763649   -1.133946    0.410567
      9          6           0       -0.798751   -0.093992    0.001122
     10          6           0       -1.687826    0.815542    0.673836
     11          9           0       -1.248914    1.779324    1.466802
     12          6           0       -3.030083    0.541916    0.375310
     13          6           0       -3.202256   -0.561731   -0.391720
     14         16           0       -1.709431   -1.158348   -0.944118
     15          1           0        4.590559   -0.031655   -0.077936
     16          1           0        3.285791    1.954492   -0.813808
     17          1           0        3.314812   -1.986962    0.706313
     18          1           0       -3.909737    1.102431    0.843829
     19          1           0       -4.116734   -1.042911   -0.814000
 ---------------------------------------------------------------------
 Rotational constants (GHZ):           1.0235355           0.5097143           0.4043369
 Leave Link  202 at Fri Jul 24 15:06:40 2020, MaxMem=  4026531840 cpu:               0.2 elap:               0.0
 (Enter /opt/ohpc/pub/libs/gaussian/g16-A.03/sandybridge/g16/l301.exe)
 Standard basis: CC-pVDZ (5D, 7F)
 Ernie: Thresh=  0.10000D-02 Tol=  0.10000D-05 Strict=F.
 Ernie:  36 primitive shells out of 361 were deleted.
 There are   239 symmetry adapted cartesian basis functions of A   symmetry.
 There are   225 symmetry adapted basis functions of A   symmetry.
   225 basis functions,   535 primitive gaussians,   239 cartesian basis functions
    54 alpha electrons       54 beta electrons
       nuclear repulsion energy       976.2300484803 Hartrees.
 IExCor=32609 DFT=T Ex+Corr=LC-wPBE ExCW=0 ScaHFX=  1.000000
 ScaDFX=  1.000000  0.000000  1.000000  1.000000 ScalE2=  1.000000  1.000000
 IRadAn=      5 IRanWt=     -1 IRanGd=            0 ICorTp=0 IEmpDi=  4
 HFx  wShort=  0.000000 wLong=  0.320400 cFull=  0.000000 cShort=  0.000000 cLong=  1.000000
 DFx  wShort=  0.000000 wLong=  0.320400 cFull=  0.000000 cShort=  0.000000 cLong=  1.000000
 NAtoms=   19 NActive=   19 NUniq=   19 SFac= 1.00D+00 NAtFMM=   60 NAOKFM=F Big=F
 Integral buffers will be    131072 words long.
 Raffenetti 2 integral format.
 Two-electron integral symmetry is turned on.
 Leave Link  301 at Fri Jul 24 15:06:40 2020, MaxMem=  4026531840 cpu:               0.4 elap:               0.1
 (Enter /opt/ohpc/pub/libs/gaussian/g16-A.03/sandybridge/g16/l302.exe)
 NPDir=0 NMtPBC=     1 NCelOv=     1 NCel=       1 NClECP=     1 NCelD=      1
         NCelK=      1 NCelE2=     1 NClLst=     1 CellRange=     0.0.
 One-electron integrals computed using PRISM.
 One-electron integral symmetry used in STVInt
 NBasis=   225 RedAO= T EigKep=  4.62D-04  NBF=   225
 NBsUse=   225 1.00D-06 EigRej= -1.00D+00 NBFU=   225
 Precomputing XC quadrature grid using
 IXCGrd= 4 IRadAn=           5 IRanWt=          -1 IRanGd=           0 AccXCQ= 0.00D+00.
 Generated NRdTot=       0 NPtTot=           0 NUsed=           0 NTot=          32
 NSgBfM=   239   239   239   239   239 MxSgAt=    19 MxSgA2=    19.
 Leave Link  302 at Fri Jul 24 15:06:40 2020, MaxMem=  4026531840 cpu:               2.2 elap:               0.3
 (Enter /opt/ohpc/pub/libs/gaussian/g16-A.03/sandybridge/g16/l303.exe)
 DipDrv:  MaxL=1.
 Leave Link  303 at Fri Jul 24 15:06:40 2020, MaxMem=  4026531840 cpu:               0.3 elap:               0.1
 (Enter /opt/ohpc/pub/libs/gaussian/g16-A.03/sandybridge/g16/l401.exe)
 ExpMin= 1.22D-01 ExpMax= 1.11D+05 ExpMxC= 1.07D+03 IAcc=3 IRadAn=         5 AccDes= 0.00D+00
 Harris functional with IExCor=32609 and IRadAn=       5 diagonalized for initial guess.
 HarFok:  IExCor=32609 AccDes= 0.00D+00 IRadAn=         5 IDoV= 1 UseB2=F ITyADJ=14
 ICtDFT=  3500011 ScaDFX=  1.000000  1.000000  1.000000  1.000000
 FoFCou: FMM=F IPFlag=           0 FMFlag=      100000 FMFlg1=           0
         NFxFlg=           0 DoJE=T BraDBF=F KetDBF=T FulRan=T
         wScrn=  0.000000 ICntrl=       500 IOpCl=  0 I1Cent=   200000004 NGrid=           0
         NMat0=    1 NMatS0=      1 NMatT0=    0 NMatD0=    1 NMtDS0=    0 NMtDT0=    0
 Petite list used in FoFCou.
 Harris En= -1081.04209697386    
 JPrj=0 DoOrth=F DoCkMO=F.
 Initial guess <Sx>= 0.0000 <Sy>= 0.0000 <Sz>= 0.0000 <S**2>=-0.0000 S=-0.0000
 Leave Link  401 at Fri Jul 24 15:06:41 2020, MaxMem=  4026531840 cpu:               9.5 elap:               1.2
 (Enter /opt/ohpc/pub/libs/gaussian/g16-A.03/sandybridge/g16/l502.exe)
 Integral symmetry usage will be decided dynamically.
 UHF open shell SCF:
 Using DIIS extrapolation, IDIIS=  1040.
 NGot=  4026531840 LenX=  4026413203 LenY=  4026355641
 Requested convergence on RMS density matrix=1.00D-08 within 128 cycles.
 Requested convergence on MAX density matrix=1.00D-06.
 Requested convergence on             energy=1.00D-06.
 No special actions if energy rises.
 Fock matrices will be formed incrementally for  20 cycles.
 Integral accuracy reduced to 1.0D-05 until final iterations.

 Cycle   1  Pass 0  IDiag  1:
 FoFJK:  IHMeth= 1 ICntrl=       0 DoSepK=T KAlg= 0 I1Cent=           0 FoldK=F
 IRaf=         1 NMat=       1 IRICut=       1 DoRegI=T DoRafI=F ISym2E= 0 IDoP0=0 IntGTp=1.
 FoFCou: FMM=F IPFlag=           0 FMFlag=      100000 FMFlg1=           0
         NFxFlg=           0 DoJE=T BraDBF=F KetDBF=F FulRan=T
         wScrn=  0.000000 ICntrl=       500 IOpCl=  0 I1Cent=           0 NGrid=           0
         NMat0=    1 NMatS0=      1 NMatT0=    0 NMatD0=    1 NMtDS0=    0 NMtDT0=    0
 Symmetry not used in FoFCou.
 E= -1080.90548867611    
 DIIS: error= 1.81D-02 at cycle   1 NSaved=   1.
 NSaved= 1 IEnMin= 1 EnMin= -1080.90548867611     IErMin= 1 ErrMin= 1.81D-02
 ErrMax= 1.81D-02  0.00D+00 EMaxC= 1.00D-01 BMatC= 9.53D-01 BMatP= 9.53D-01
 IDIUse=3 WtCom= 8.19D-01 WtEn= 1.81D-01
 Coeff-Com:  0.100D+01
 Coeff-En:   0.100D+01
 Coeff:      0.100D+01
 Gap=     0.408 Goal=   None    Shift=    0.000
 Gap=     0.408 Goal=   None    Shift=    0.000
 GapD=    0.408 DampG=2.000 DampE=0.500 DampFc=1.0000 IDamp=-1.
 RMSDP=4.01D-03 MaxDP=1.11D-01              OVMax= 2.09D-01

 Cycle   2  Pass 0  IDiag  1:
 RMSU=  4.00D-03    CP:  9.88D-01
 E= -1080.97415141478     Delta-E=       -0.068662738664 Rises=F Damp=F
 DIIS: error= 1.56D-02 at cycle   2 NSaved=   2.
 NSaved= 2 IEnMin= 2 EnMin= -1080.97415141478     IErMin= 2 ErrMin= 1.56D-02
 ErrMax= 1.56D-02  0.00D+00 EMaxC= 1.00D-01 BMatC= 7.54D-01 BMatP= 9.53D-01
 IDIUse=3 WtCom= 8.44D-01 WtEn= 1.56D-01
 Coeff-Com:  0.469D+00 0.531D+00
 Coeff-En:   0.414D+00 0.586D+00
 Coeff:      0.460D+00 0.540D+00
 Gap=     0.369 Goal=   None    Shift=    0.000
 Gap=     0.369 Goal=   None    Shift=    0.000
 RMSDP=1.96D-03 MaxDP=7.07D-02 DE=-6.87D-02 OVMax= 9.99D-02

 Cycle   3  Pass 0  IDiag  1:
 RMSU=  1.14D-03    CP:  9.93D-01  6.04D-01
 E= -1081.16436049732     Delta-E=       -0.190209082542 Rises=F Damp=F
 DIIS: error= 2.21D-03 at cycle   3 NSaved=   3.
 NSaved= 3 IEnMin= 3 EnMin= -1081.16436049732     IErMin= 3 ErrMin= 2.21D-03
 ErrMax= 2.21D-03  0.00D+00 EMaxC= 1.00D-01 BMatC= 1.15D-02 BMatP= 7.54D-01
 IDIUse=3 WtCom= 9.78D-01 WtEn= 2.21D-02
 Coeff-Com:  0.116D+00 0.161D+00 0.724D+00
 Coeff-En:   0.000D+00 0.000D+00 0.100D+01
 Coeff:      0.113D+00 0.157D+00 0.730D+00
 Gap=     0.348 Goal=   None    Shift=    0.000
 Gap=     0.348 Goal=   None    Shift=    0.000
 RMSDP=3.50D-04 MaxDP=7.86D-03 DE=-1.90D-01 OVMax= 2.36D-02

 Cycle   4  Pass 0  IDiag  1:
 RMSU=  2.98D-04    CP:  9.92D-01  6.29D-01  8.64D-01
 E= -1081.16686967401     Delta-E=       -0.002509176684 Rises=F Damp=F
 DIIS: error= 1.40D-03 at cycle   4 NSaved=   4.
 NSaved= 4 IEnMin= 4 EnMin= -1081.16686967401     IErMin= 4 ErrMin= 1.40D-03
 ErrMax= 1.40D-03  0.00D+00 EMaxC= 1.00D-01 BMatC= 3.05D-03 BMatP= 1.15D-02
 IDIUse=3 WtCom= 9.86D-01 WtEn= 1.40D-02
 Coeff-Com:  0.165D-02 0.624D-02 0.333D+00 0.659D+00
 Coeff-En:   0.000D+00 0.000D+00 0.926D-01 0.907D+00
 Coeff:      0.163D-02 0.615D-02 0.330D+00 0.662D+00
 Gap=     0.347 Goal=   None    Shift=    0.000
 Gap=     0.347 Goal=   None    Shift=    0.000
 RMSDP=1.46D-04 MaxDP=4.93D-03 DE=-2.51D-03 OVMax= 9.91D-03

 Cycle   5  Pass 0  IDiag  1:
 RMSU=  1.07D-04    CP:  9.92D-01  6.28D-01  9.34D-01  8.03D-01
 E= -1081.16767056195     Delta-E=       -0.000800887947 Rises=F Damp=F
 DIIS: error= 3.62D-04 at cycle   5 NSaved=   5.
 NSaved= 5 IEnMin= 5 EnMin= -1081.16767056195     IErMin= 5 ErrMin= 3.62D-04
 ErrMax= 3.62D-04  0.00D+00 EMaxC= 1.00D-01 BMatC= 3.02D-04 BMatP= 3.05D-03
 IDIUse=3 WtCom= 9.96D-01 WtEn= 3.62D-03
 Coeff-Com: -0.116D-01-0.181D-01 0.667D-01 0.277D+00 0.686D+00
 Coeff-En:   0.000D+00 0.000D+00 0.000D+00 0.000D+00 0.100D+01
 Coeff:     -0.116D-01-0.181D-01 0.665D-01 0.276D+00 0.688D+00
 Gap=     0.348 Goal=   None    Shift=    0.000
 Gap=     0.348 Goal=   None    Shift=    0.000
 RMSDP=5.55D-05 MaxDP=1.56D-03 DE=-8.01D-04 OVMax= 3.97D-03

 Cycle   6  Pass 0  IDiag  1:
 RMSU=  3.91D-05    CP:  9.92D-01  6.29D-01  9.55D-01  9.04D-01  9.71D-01
 E= -1081.16777093514     Delta-E=       -0.000100373188 Rises=F Damp=F
 DIIS: error= 1.38D-04 at cycle   6 NSaved=   6.
 NSaved= 6 IEnMin= 6 EnMin= -1081.16777093514     IErMin= 6 ErrMin= 1.38D-04
 ErrMax= 1.38D-04  0.00D+00 EMaxC= 1.00D-01 BMatC= 3.65D-05 BMatP= 3.02D-04
 IDIUse=3 WtCom= 9.99D-01 WtEn= 1.38D-03
 Coeff-Com: -0.438D-02-0.946D-02-0.302D-01-0.142D-01 0.189D+00 0.869D+00
 Coeff-En:   0.000D+00 0.000D+00 0.000D+00 0.000D+00 0.000D+00 0.100D+01
 Coeff:     -0.437D-02-0.945D-02-0.301D-01-0.142D-01 0.189D+00 0.869D+00
 Gap=     0.348 Goal=   None    Shift=    0.000
 Gap=     0.348 Goal=   None    Shift=    0.000
 RMSDP=2.99D-05 MaxDP=6.88D-04 DE=-1.00D-04 OVMax= 2.65D-03

 Cycle   7  Pass 0  IDiag  1:
 RMSU=  1.67D-05    CP:  9.92D-01  6.29D-01  9.63D-01  9.34D-01  1.15D+00
                    CP:  1.22D+00
 E= -1081.16779620752     Delta-E=       -0.000025272384 Rises=F Damp=F
 DIIS: error= 7.02D-05 at cycle   7 NSaved=   7.
 NSaved= 7 IEnMin= 7 EnMin= -1081.16779620752     IErMin= 7 ErrMin= 7.02D-05
 ErrMax= 7.02D-05  0.00D+00 EMaxC= 1.00D-01 BMatC= 8.51D-06 BMatP= 3.65D-05
 IDIUse=1 WtCom= 1.00D+00 WtEn= 0.00D+00
 Coeff-Com:  0.202D-04-0.106D-02-0.185D-01-0.516D-01-0.851D-01 0.286D+00
 Coeff-Com:  0.871D+00
 Coeff:      0.202D-04-0.106D-02-0.185D-01-0.516D-01-0.851D-01 0.286D+00
 Coeff:      0.871D+00
 Gap=     0.348 Goal=   None    Shift=    0.000
 Gap=     0.348 Goal=   None    Shift=    0.000
 RMSDP=1.77D-05 MaxDP=3.73D-04 DE=-2.53D-05 OVMax= 1.43D-03

 Cycle   8  Pass 0  IDiag  1:
 RMSU=  8.02D-06    CP:  9.92D-01  6.29D-01  9.69D-01  9.57D-01  1.21D+00
                    CP:  1.50D+00  1.17D+00
 E= -1081.16780172765     Delta-E=       -0.000005520129 Rises=F Damp=F
 DIIS: error= 2.69D-05 at cycle   8 NSaved=   8.
 NSaved= 8 IEnMin= 8 EnMin= -1081.16780172765     IErMin= 8 ErrMin= 2.69D-05
 ErrMax= 2.69D-05  0.00D+00 EMaxC= 1.00D-01 BMatC= 1.50D-06 BMatP= 8.51D-06
 IDIUse=1 WtCom= 1.00D+00 WtEn= 0.00D+00
 Coeff-Com:  0.980D-03 0.148D-02-0.468D-03-0.165D-01-0.785D-01-0.814D-01
 Coeff-Com:  0.343D+00 0.831D+00
 Coeff:      0.980D-03 0.148D-02-0.468D-03-0.165D-01-0.785D-01-0.814D-01
 Coeff:      0.343D+00 0.831D+00
 Gap=     0.348 Goal=   None    Shift=    0.000
 Gap=     0.348 Goal=   None    Shift=    0.000
 RMSDP=7.45D-06 MaxDP=1.77D-04 DE=-5.52D-06 OVMax= 7.22D-04

 Initial convergence to 1.0D-05 achieved.  Increase integral accuracy.
 Cycle   9  Pass 1  IDiag  1:
 E= -1081.16763896035     Delta-E=        0.000162767305 Rises=F Damp=F
 DIIS: error= 6.60D-05 at cycle   1 NSaved=   1.
 NSaved= 1 IEnMin= 1 EnMin= -1081.16763896035     IErMin= 1 ErrMin= 6.60D-05
 ErrMax= 6.60D-05  0.00D+00 EMaxC= 1.00D-01 BMatC= 1.39D-06 BMatP= 1.39D-06
 IDIUse=1 WtCom= 1.00D+00 WtEn= 0.00D+00
 Coeff-Com:  0.100D+01
 Coeff:      0.100D+01
 Gap=     0.348 Goal=   None    Shift=    0.000
 Gap=     0.348 Goal=   None    Shift=    0.000
 RMSDP=7.45D-06 MaxDP=1.77D-04 DE= 1.63D-04 OVMax= 1.09D-04

 Cycle  10  Pass 1  IDiag  1:
 RMSU=  3.52D-05    CP:  1.00D+00
 E= -1081.16763925782     Delta-E=       -0.000000297469 Rises=F Damp=F
 DIIS: error= 4.33D-06 at cycle   2 NSaved=   2.
 NSaved= 2 IEnMin= 2 EnMin= -1081.16763925782     IErMin= 2 ErrMin= 4.33D-06
 ErrMax= 4.33D-06  0.00D+00 EMaxC= 1.00D-01 BMatC= 4.07D-08 BMatP= 1.39D-06
 IDIUse=1 WtCom= 1.00D+00 WtEn= 0.00D+00
 Coeff-Com:  0.686D-02 0.993D+00
 Coeff:      0.686D-02 0.993D+00
 Gap=     0.348 Goal=   None    Shift=    0.000
 Gap=     0.348 Goal=   None    Shift=    0.000
 RMSDP=2.10D-06 MaxDP=5.46D-05 DE=-2.97D-07 OVMax= 6.48D-05

 Cycle  11  Pass 1  IDiag  1:
 RMSU=  1.05D-06    CP:  1.00D+00  1.05D+00
 E= -1081.16763926890     Delta-E=       -0.000000011085 Rises=F Damp=F
 DIIS: error= 5.01D-06 at cycle   3 NSaved=   3.
 NSaved= 3 IEnMin= 3 EnMin= -1081.16763926890     IErMin= 2 ErrMin= 4.33D-06
 ErrMax= 5.01D-06  0.00D+00 EMaxC= 1.00D-01 BMatC= 3.61D-08 BMatP= 4.07D-08
 IDIUse=1 WtCom= 1.00D+00 WtEn= 0.00D+00
 Coeff-Com: -0.245D-01 0.493D+00 0.532D+00
 Coeff:     -0.245D-01 0.493D+00 0.532D+00
 Gap=     0.348 Goal=   None    Shift=    0.000
 Gap=     0.348 Goal=   None    Shift=    0.000
 RMSDP=4.30D-07 MaxDP=1.37D-05 DE=-1.11D-08 OVMax= 1.93D-05

 Cycle  12  Pass 1  IDiag  1:
 RMSU=  3.92D-07    CP:  1.00D+00  1.06D+00  8.90D-01
 E= -1081.16763927765     Delta-E=       -0.000000008751 Rises=F Damp=F
 DIIS: error= 9.95D-07 at cycle   4 NSaved=   4.
 NSaved= 4 IEnMin= 4 EnMin= -1081.16763927765     IErMin= 4 ErrMin= 9.95D-07
 ErrMax= 9.95D-07  0.00D+00 EMaxC= 1.00D-01 BMatC= 1.27D-09 BMatP= 3.61D-08
 IDIUse=1 WtCom= 1.00D+00 WtEn= 0.00D+00
 Coeff-Com: -0.314D-04-0.938D-01-0.283D-01 0.112D+01
 Coeff:     -0.314D-04-0.938D-01-0.283D-01 0.112D+01
 Gap=     0.348 Goal=   None    Shift=    0.000
 Gap=     0.348 Goal=   None    Shift=    0.000
 RMSDP=2.77D-07 MaxDP=7.39D-06 DE=-8.75D-09 OVMax= 2.58D-05

 Cycle  13  Pass 1  IDiag  1:
 RMSU=  1.73D-07    CP:  1.00D+00  1.06D+00  1.05D+00  1.33D+00
 E= -1081.16763927916     Delta-E=       -0.000000001508 Rises=F Damp=F
 DIIS: error= 6.16D-07 at cycle   5 NSaved=   5.
 NSaved= 5 IEnMin= 5 EnMin= -1081.16763927916     IErMin= 5 ErrMin= 6.16D-07
 ErrMax= 6.16D-07  0.00D+00 EMaxC= 1.00D-01 BMatC= 6.25D-10 BMatP= 1.27D-09
 IDIUse=1 WtCom= 1.00D+00 WtEn= 0.00D+00
 Coeff-Com:  0.709D-02-0.190D+00-0.177D+00 0.562D+00 0.797D+00
 Coeff:      0.709D-02-0.190D+00-0.177D+00 0.562D+00 0.797D+00
 Gap=     0.348 Goal=   None    Shift=    0.000
 Gap=     0.348 Goal=   None    Shift=    0.000
 RMSDP=1.61D-07 MaxDP=3.79D-06 DE=-1.51D-09 OVMax= 1.50D-05

 Cycle  14  Pass 1  IDiag  1:
 RMSU=  8.11D-08    CP:  1.00D+00  1.06D+00  1.12D+00  1.60D+00  1.23D+00
 E= -1081.16763927957     Delta-E=       -0.000000000405 Rises=F Damp=F
 DIIS: error= 1.76D-07 at cycle   6 NSaved=   6.
 NSaved= 6 IEnMin= 6 EnMin= -1081.16763927957     IErMin= 6 ErrMin= 1.76D-07
 ErrMax= 1.76D-07  0.00D+00 EMaxC= 1.00D-01 BMatC= 5.98D-11 BMatP= 6.25D-10
 IDIUse=1 WtCom= 1.00D+00 WtEn= 0.00D+00
 Coeff-Com:  0.260D-02-0.586D-01-0.629D-01 0.756D-01 0.295D+00 0.749D+00
 Coeff:      0.260D-02-0.586D-01-0.629D-01 0.756D-01 0.295D+00 0.749D+00
 Gap=     0.348 Goal=   None    Shift=    0.000
 Gap=     0.348 Goal=   None    Shift=    0.000
 RMSDP=4.07D-08 MaxDP=7.45D-07 DE=-4.05D-10 OVMax= 3.92D-06

 Cycle  15  Pass 1  IDiag  1:
 RMSU=  2.14D-08    CP:  1.00D+00  1.06D+00  1.13D+00  1.64D+00  1.38D+00
                    CP:  1.10D+00
 E= -1081.16763927964     Delta-E=       -0.000000000075 Rises=F Damp=F
 DIIS: error= 6.28D-08 at cycle   7 NSaved=   7.
 NSaved= 7 IEnMin= 7 EnMin= -1081.16763927964     IErMin= 7 ErrMin= 6.28D-08
 ErrMax= 6.28D-08  0.00D+00 EMaxC= 1.00D-01 BMatC= 8.73D-12 BMatP= 5.98D-11
 IDIUse=1 WtCom= 1.00D+00 WtEn= 0.00D+00
 Coeff-Com: -0.471D-03 0.162D-01 0.122D-01-0.824D-01-0.453D-01 0.268D+00
 Coeff-Com:  0.832D+00
 Coeff:     -0.471D-03 0.162D-01 0.122D-01-0.824D-01-0.453D-01 0.268D+00
 Coeff:      0.832D+00
 Gap=     0.348 Goal=   None    Shift=    0.000
 Gap=     0.348 Goal=   None    Shift=    0.000
 RMSDP=1.68D-08 MaxDP=3.71D-07 DE=-7.55D-11 OVMax= 1.44D-06

 Cycle  16  Pass 1  IDiag  1:
 RMSU=  7.95D-09    CP:  1.00D+00  1.06D+00  1.14D+00  1.65D+00  1.44D+00
                    CP:  1.22D+00  9.85D-01
 E= -1081.16763927963     Delta-E=        0.000000000011 Rises=F Damp=F
 DIIS: error= 2.06D-08 at cycle   8 NSaved=   8.
 NSaved= 8 IEnMin= 7 EnMin= -1081.16763927964     IErMin= 8 ErrMin= 2.06D-08
 ErrMax= 2.06D-08  0.00D+00 EMaxC= 1.00D-01 BMatC= 1.13D-12 BMatP= 8.73D-12
 IDIUse=1 WtCom= 1.00D+00 WtEn= 0.00D+00
 Coeff-Com: -0.445D-03 0.124D-01 0.112D-01-0.428D-01-0.453D-01 0.365D-01
 Coeff-Com:  0.334D+00 0.695D+00
 Coeff:     -0.445D-03 0.124D-01 0.112D-01-0.428D-01-0.453D-01 0.365D-01
 Coeff:      0.334D+00 0.695D+00
 Gap=     0.348 Goal=   None    Shift=    0.000
 Gap=     0.348 Goal=   None    Shift=    0.000
 RMSDP=4.26D-09 MaxDP=1.12D-07 DE= 1.09D-11 OVMax= 2.13D-07

 SCF Done:  E(ULC-wPBE) =  -1081.16763928     A.U. after   16 cycles
            NFock= 16  Conv=0.43D-08     -V/T= 2.0045
 <Sx>= 0.0000 <Sy>= 0.0000 <Sz>= 0.0000 <S**2>=-0.0000 S=-0.0000
 <L.S>= 0.000000000000E+00
 KE= 1.076370574625D+03 PE=-4.503169953850D+03 EE= 1.369401691465D+03
 Annihilation of the first spin contaminant:
 S**2 before annihilation    -0.0000,   after    -0.0000
 Leave Link  502 at Fri Jul 24 15:07:39 2020, MaxMem=  4026531840 cpu:             462.4 elap:              58.0
 (Enter /opt/ohpc/pub/libs/gaussian/g16-A.03/sandybridge/g16/l601.exe)
 Copying SCF densities to generalized density rwf, IOpCl= 1 IROHF=0.

 **********************************************************************

            Population analysis using the SCF density.

 **********************************************************************

 Orbital symmetries:
 Alpha Orbitals:
       Occupied  (A) (A) (A) (A) (A) (A) (A) (A) (A) (A) (A) (A)
                 (A) (A) (A) (A) (A) (A) (A) (A) (A) (A) (A) (A)
                 (A) (A) (A) (A) (A) (A) (A) (A) (A) (A) (A) (A)
                 (A) (A) (A) (A) (A) (A) (A) (A) (A) (A) (A) (A)
                 (A) (A) (A) (A) (A) (A)
       Virtual   (A) (A) (A) (A) (A) (A) (A) (A) (A) (A) (A) (A)
                 (A) (A) (A) (A) (A) (A) (A) (A) (A) (A) (A) (A)
                 (A) (A) (A) (A) (A) (A) (A) (A) (A) (A) (A) (A)
                 (A) (A) (A) (A) (A) (A) (A) (A) (A) (A) (A) (A)
                 (A) (A) (A) (A) (A) (A) (A) (A) (A) (A) (A) (A)
                 (A) (A) (A) (A) (A) (A) (A) (A) (A) (A) (A) (A)
                 (A) (A) (A) (A) (A) (A) (A) (A) (A) (A) (A) (A)
                 (A) (A) (A) (A) (A) (A) (A) (A) (A) (A) (A) (A)
                 (A) (A) (A) (A) (A) (A) (A) (A) (A) (A) (A) (A)
                 (A) (A) (A) (A) (A) (A) (A) (A) (A) (A) (A) (A)
                 (A) (A) (A) (A) (A) (A) (A) (A) (A) (A) (A) (A)
                 (A) (A) (A) (A) (A) (A) (A) (A) (A) (A) (A) (A)
                 (A) (A) (A) (A) (A) (A) (A) (A) (A) (A) (A) (A)
                 (A) (A) (A) (A) (A) (A) (A) (A) (A) (A) (A) (A)
                 (A) (A) (A)
 Beta  Orbitals:
       Occupied  (A) (A) (A) (A) (A) (A) (A) (A) (A) (A) (A) (A)
                 (A) (A) (A) (A) (A) (A) (A) (A) (A) (A) (A) (A)
                 (A) (A) (A) (A) (A) (A) (A) (A) (A) (A) (A) (A)
                 (A) (A) (A) (A) (A) (A) (A) (A) (A) (A) (A) (A)
                 (A) (A) (A) (A) (A) (A)
       Virtual   (A) (A) (A) (A) (A) (A) (A) (A) (A) (A) (A) (A)
                 (A) (A) (A) (A) (A) (A) (A) (A) (A) (A) (A) (A)
                 (A) (A) (A) (A) (A) (A) (A) (A) (A) (A) (A) (A)
                 (A) (A) (A) (A) (A) (A) (A) (A) (A) (A) (A) (A)
                 (A) (A) (A) (A) (A) (A) (A) (A) (A) (A) (A) (A)
                 (A) (A) (A) (A) (A) (A) (A) (A) (A) (A) (A) (A)
                 (A) (A) (A) (A) (A) (A) (A) (A) (A) (A) (A) (A)
                 (A) (A) (A) (A) (A) (A) (A) (A) (A) (A) (A) (A)
                 (A) (A) (A) (A) (A) (A) (A) (A) (A) (A) (A) (A)
                 (A) (A) (A) (A) (A) (A) (A) (A) (A) (A) (A) (A)
                 (A) (A) (A) (A) (A) (A) (A) (A) (A) (A) (A) (A)
                 (A) (A) (A) (A) (A) (A) (A) (A) (A) (A) (A) (A)
                 (A) (A) (A) (A) (A) (A) (A) (A) (A) (A) (A) (A)
                 (A) (A) (A) (A) (A) (A) (A) (A) (A) (A) (A) (A)
                 (A) (A) (A)
 The electronic state is 1-A.
 Alpha  occ. eigenvalues --  -88.28487 -24.48895 -24.47313 -24.46542 -10.18479
 Alpha  occ. eigenvalues --  -10.17570 -10.16954 -10.11669 -10.11616 -10.10999
 Alpha  occ. eigenvalues --  -10.10341 -10.09548 -10.09219 -10.08539  -7.89192
 Alpha  occ. eigenvalues --   -5.90939  -5.90431  -5.90101  -1.35615  -1.32028
 Alpha  occ. eigenvalues --   -1.30434  -1.01901  -0.98147  -0.90929  -0.85921
 Alpha  occ. eigenvalues --   -0.85555  -0.82916  -0.75031  -0.74631  -0.69277
 Alpha  occ. eigenvalues --   -0.68969  -0.67326  -0.64716  -0.63747  -0.60312
 Alpha  occ. eigenvalues --   -0.60011  -0.58860  -0.57608  -0.56876  -0.56407
 Alpha  occ. eigenvalues --   -0.54939  -0.54711  -0.52391  -0.49559  -0.48446
 Alpha  occ. eigenvalues --   -0.47877  -0.47040  -0.46064  -0.45351  -0.44448
 Alpha  occ. eigenvalues --   -0.37377  -0.34736  -0.33387  -0.31606
 Alpha virt. eigenvalues --    0.03204   0.06016   0.07112   0.12388   0.14333
 Alpha virt. eigenvalues --    0.14648   0.15520   0.18972   0.20211   0.21126
 Alpha virt. eigenvalues --    0.21364   0.22387   0.24143   0.27607   0.28294
 Alpha virt. eigenvalues --    0.32773   0.34522   0.35292   0.38414   0.41044
 Alpha virt. eigenvalues --    0.44292   0.44689   0.46537   0.50955   0.51776
 Alpha virt. eigenvalues --    0.52110   0.52669   0.53199   0.53945   0.55054
 Alpha virt. eigenvalues --    0.55453   0.56750   0.57105   0.57790   0.58469
 Alpha virt. eigenvalues --    0.58555   0.59540   0.59604   0.60899   0.62248
 Alpha virt. eigenvalues --    0.63179   0.64418   0.65652   0.67629   0.68816
 Alpha virt. eigenvalues --    0.69075   0.69805   0.72209   0.72640   0.74378
 Alpha virt. eigenvalues --    0.75751   0.75938   0.78215   0.79649   0.80678
 Alpha virt. eigenvalues --    0.81293   0.83179   0.84851   0.85608   0.87278
 Alpha virt. eigenvalues --    0.89278   0.89943   0.94343   0.95907   0.98286
 Alpha virt. eigenvalues --    0.98789   1.01649   1.01870   1.04937   1.05300
 Alpha virt. eigenvalues --    1.06975   1.08978   1.09720   1.11019   1.11856
 Alpha virt. eigenvalues --    1.12685   1.14556   1.16954   1.18497   1.19725
 Alpha virt. eigenvalues --    1.20824   1.22556   1.25708   1.26552   1.27829
 Alpha virt. eigenvalues --    1.29538   1.35401   1.38560   1.38774   1.38891
 Alpha virt. eigenvalues --    1.40407   1.41984   1.42660   1.46425   1.47977
 Alpha virt. eigenvalues --    1.50542   1.51411   1.54597   1.56572   1.57253
 Alpha virt. eigenvalues --    1.58953   1.60437   1.62573   1.62796   1.63913
 Alpha virt. eigenvalues --    1.65388   1.67637   1.70215   1.70607   1.73034
 Alpha virt. eigenvalues --    1.73631   1.75627   1.75860   1.76937   1.77932
 Alpha virt. eigenvalues --    1.79677   1.80737   1.82813   1.83223   1.84362
 Alpha virt. eigenvalues --    1.86463   1.89172   1.92030   1.92481   1.94375
 Alpha virt. eigenvalues --    1.95264   1.96334   1.99583   2.02029   2.03154
 Alpha virt. eigenvalues --    2.07787   2.10912   2.11155   2.16437   2.17164
 Alpha virt. eigenvalues --    2.18609   2.23661   2.26345   2.28102   2.32376
 Alpha virt. eigenvalues --    2.38709   2.43225   2.45403   2.48406   2.48840
 Alpha virt. eigenvalues --    2.52397   2.56247   2.59520   2.61193   2.64791
 Alpha virt. eigenvalues --    2.68272   2.72323   2.81628   2.85490   3.04456
 Alpha virt. eigenvalues --    3.37389   3.61915   3.63197   3.63847   3.64387
 Alpha virt. eigenvalues --    3.65484   3.68212   3.81648   3.85052   3.87477
 Alpha virt. eigenvalues --    4.02149   4.04369   4.10218   4.19004   4.24559
 Alpha virt. eigenvalues --    4.33446
  Beta  occ. eigenvalues --  -88.28487 -24.48895 -24.47313 -24.46542 -10.18479
  Beta  occ. eigenvalues --  -10.17570 -10.16954 -10.11669 -10.11616 -10.10999
  Beta  occ. eigenvalues --  -10.10341 -10.09548 -10.09219 -10.08539  -7.89192
  Beta  occ. eigenvalues --   -5.90939  -5.90431  -5.90101  -1.35615  -1.32028
  Beta  occ. eigenvalues --   -1.30434  -1.01901  -0.98147  -0.90929  -0.85921
  Beta  occ. eigenvalues --   -0.85555  -0.82916  -0.75031  -0.74631  -0.69277
  Beta  occ. eigenvalues --   -0.68969  -0.67326  -0.64716  -0.63747  -0.60312
  Beta  occ. eigenvalues --   -0.60011  -0.58860  -0.57608  -0.56876  -0.56407
  Beta  occ. eigenvalues --   -0.54939  -0.54711  -0.52391  -0.49559  -0.48446
  Beta  occ. eigenvalues --   -0.47877  -0.47040  -0.46064  -0.45351  -0.44448
  Beta  occ. eigenvalues --   -0.37377  -0.34736  -0.33387  -0.31606
  Beta virt. eigenvalues --    0.03204   0.06016   0.07112   0.12388   0.14333
  Beta virt. eigenvalues --    0.14648   0.15520   0.18972   0.20211   0.21126
  Beta virt. eigenvalues --    0.21364   0.22387   0.24143   0.27607   0.28294
  Beta virt. eigenvalues --    0.32773   0.34522   0.35292   0.38414   0.41044
  Beta virt. eigenvalues --    0.44292   0.44689   0.46537   0.50955   0.51776
  Beta virt. eigenvalues --    0.52110   0.52669   0.53199   0.53945   0.55054
  Beta virt. eigenvalues --    0.55453   0.56750   0.57105   0.57790   0.58469
  Beta virt. eigenvalues --    0.58555   0.59540   0.59604   0.60899   0.62248
  Beta virt. eigenvalues --    0.63179   0.64418   0.65652   0.67629   0.68816
  Beta virt. eigenvalues --    0.69075   0.69805   0.72209   0.72640   0.74378
  Beta virt. eigenvalues --    0.75751   0.75938   0.78215   0.79649   0.80678
  Beta virt. eigenvalues --    0.81293   0.83179   0.84851   0.85608   0.87278
  Beta virt. eigenvalues --    0.89278   0.89943   0.94343   0.95907   0.98286
  Beta virt. eigenvalues --    0.98789   1.01649   1.01870   1.04937   1.05300
  Beta virt. eigenvalues --    1.06975   1.08978   1.09720   1.11019   1.11856
  Beta virt. eigenvalues --    1.12685   1.14556   1.16954   1.18497   1.19725
  Beta virt. eigenvalues --    1.20824   1.22556   1.25708   1.26552   1.27829
  Beta virt. eigenvalues --    1.29538   1.35401   1.38560   1.38774   1.38891
  Beta virt. eigenvalues --    1.40407   1.41984   1.42660   1.46425   1.47977
  Beta virt. eigenvalues --    1.50542   1.51411   1.54597   1.56572   1.57253
  Beta virt. eigenvalues --    1.58953   1.60437   1.62573   1.62796   1.63913
  Beta virt. eigenvalues --    1.65388   1.67637   1.70215   1.70607   1.73034
  Beta virt. eigenvalues --    1.73631   1.75627   1.75860   1.76937   1.77932
  Beta virt. eigenvalues --    1.79677   1.80737   1.82813   1.83223   1.84362
  Beta virt. eigenvalues --    1.86463   1.89172   1.92030   1.92481   1.94375
  Beta virt. eigenvalues --    1.95264   1.96334   1.99583   2.02029   2.03154
  Beta virt. eigenvalues --    2.07787   2.10912   2.11155   2.16437   2.17164
  Beta virt. eigenvalues --    2.18609   2.23661   2.26345   2.28102   2.32376
  Beta virt. eigenvalues --    2.38709   2.43225   2.45403   2.48406   2.48840
  Beta virt. eigenvalues --    2.52397   2.56247   2.59520   2.61193   2.64791
  Beta virt. eigenvalues --    2.68272   2.72323   2.81628   2.85490   3.04456
  Beta virt. eigenvalues --    3.37389   3.61915   3.63197   3.63847   3.64387
  Beta virt. eigenvalues --    3.65484   3.68212   3.81648   3.85052   3.87477
  Beta virt. eigenvalues --    4.02149   4.04369   4.10218   4.19004   4.24559
  Beta virt. eigenvalues --    4.33446
          Condensed to atoms (all electrons):
               1          2          3          4          5          6
     1  C    4.797947   0.441785   0.025383   0.003730  -0.061416   0.031030
     2  C    0.441785   4.959527   0.436915  -0.056827  -0.030966  -0.086346
     3  C    0.025383   0.436915   4.860439   0.474705   0.258279   0.055007
     4  F    0.003730  -0.056827   0.474705   8.689963  -0.070294   0.003268
     5  C   -0.061416  -0.030966   0.258279  -0.070294   5.780169   0.231836
     6  C    0.031030  -0.086346   0.055007   0.003268   0.231836   4.878486
     7  F    0.004900  -0.000289   0.002798  -0.000000  -0.078836   0.453551
     8  C    0.423087   0.008337  -0.090425  -0.000146  -0.028655   0.418266
     9  C   -0.001467   0.010278  -0.111294  -0.000477   0.174461  -0.100545
    10  C   -0.000068   0.000630  -0.007795   0.003864  -0.064016   0.000048
    11  F   -0.000004   0.000117   0.004155  -0.000383   0.001612  -0.000516
    12  C   -0.000002   0.000018   0.001003   0.000047   0.008909  -0.000395
    13  C   -0.000000   0.000002  -0.000169   0.000011   0.002132   0.000097
    14  S    0.000015  -0.000166   0.001394  -0.000075  -0.058206  -0.007549
    15  H    0.403570  -0.039352   0.007337  -0.000032  -0.001441   0.008459
    16  H   -0.041415   0.382194  -0.030926   0.001694   0.012926  -0.000352
    17  H   -0.044789   0.009503  -0.000407   0.000002   0.012562  -0.039276
    18  H   -0.000000  -0.000000  -0.000007   0.000002  -0.000239   0.000009
    19  H    0.000000  -0.000000   0.000003   0.000000  -0.000273  -0.000008
               7          8          9         10         11         12
     1  C    0.004900   0.423087  -0.001467  -0.000068  -0.000004  -0.000002
     2  C   -0.000289   0.008337   0.010278   0.000630   0.000117   0.000018
     3  C    0.002798  -0.090425  -0.111294  -0.007795   0.004155   0.001003
     4  F   -0.000000  -0.000146  -0.000477   0.003864  -0.000383   0.000047
     5  C   -0.078836  -0.028655   0.174461  -0.064016   0.001612   0.008909
     6  C    0.453551   0.418266  -0.100545   0.000048  -0.000516  -0.000395
     7  F    8.797823  -0.063340   0.007551  -0.000205   0.000000   0.000029
     8  C   -0.063340   4.938097   0.015024   0.000080  -0.000001   0.000009
     9  C    0.007551   0.015024   5.705245   0.394025  -0.074401  -0.076498
    10  C   -0.000205   0.000080   0.394025   4.781216   0.464691   0.404066
    11  F    0.000000  -0.000001  -0.074401   0.464691   8.751086  -0.052948
    12  C    0.000029   0.000009  -0.076498   0.404066  -0.052948   4.930333
    13  C    0.000013   0.000002  -0.094985  -0.008531   0.003576   0.501479
    14  S    0.001496  -0.000180   0.353613  -0.074460   0.002507  -0.089474
    15  H   -0.000027  -0.039931   0.000012   0.000000  -0.000000   0.000000
    16  H    0.000001   0.008706  -0.000410  -0.000002   0.000006  -0.000000
    17  H    0.000184   0.391858  -0.000408   0.000001   0.000000  -0.000000
    18  H    0.000000   0.000000   0.009399  -0.031916   0.000024   0.392874
    19  H   -0.000000  -0.000000   0.001040   0.006575  -0.000016  -0.023575
              13         14         15         16         17         18
     1  C   -0.000000   0.000015   0.403570  -0.041415  -0.044789  -0.000000
     2  C    0.000002  -0.000166  -0.039352   0.382194   0.009503  -0.000000
     3  C   -0.000169   0.001394   0.007337  -0.030926  -0.000407  -0.000007
     4  F    0.000011  -0.000075  -0.000032   0.001694   0.000002   0.000002
     5  C    0.002132  -0.058206  -0.001441   0.012926   0.012562  -0.000239
     6  C    0.000097  -0.007549   0.008459  -0.000352  -0.039276   0.000009
     7  F    0.000013   0.001496  -0.000027   0.000001   0.000184   0.000000
     8  C    0.000002  -0.000180  -0.039931   0.008706   0.391858   0.000000
     9  C   -0.094985   0.353613   0.000012  -0.000410  -0.000408   0.009399
    10  C   -0.008531  -0.074460   0.000000  -0.000002   0.000001  -0.031916
    11  F    0.003576   0.002507  -0.000000   0.000006   0.000000   0.000024
    12  C    0.501479  -0.089474   0.000000  -0.000000  -0.000000   0.392874
    13  C    4.994879   0.390565   0.000000   0.000000  -0.000000  -0.047373
    14  S    0.390565  15.301159   0.000000   0.000004   0.000001   0.006557
    15  H    0.000000   0.000000   0.672118  -0.012546  -0.013683  -0.000000
    16  H    0.000000   0.000004  -0.012546   0.681174  -0.000227  -0.000000
    17  H   -0.000000   0.000001  -0.013683  -0.000227   0.688399   0.000000
    18  H   -0.047373   0.006557  -0.000000  -0.000000   0.000000   0.640677
    19  H    0.403457  -0.038442  -0.000000   0.000000  -0.000000  -0.006743
              19
     1  C    0.000000
     2  C   -0.000000
     3  C    0.000003
     4  F    0.000000
     5  C   -0.000273
     6  C   -0.000008
     7  F   -0.000000
     8  C   -0.000000
     9  C    0.001040
    10  C    0.006575
    11  F   -0.000016
    12  C   -0.023575
    13  C    0.403457
    14  S   -0.038442
    15  H   -0.000000
    16  H    0.000000
    17  H   -0.000000
    18  H   -0.006743
    19  H    0.604896
          Atomic-Atomic Spin Densities.
               1          2          3          4          5          6
     1  C    0.000000  -0.000000  -0.000000   0.000000  -0.000000  -0.000000
     2  C   -0.000000   0.000000  -0.000000  -0.000000   0.000000   0.000000
     3  C   -0.000000  -0.000000  -0.000000  -0.000000   0.000000  -0.000000
     4  F    0.000000  -0.000000  -0.000000   0.000000   0.000000   0.000000
     5  C   -0.000000   0.000000   0.000000   0.000000   0.000000  -0.000000
     6  C   -0.000000   0.000000  -0.000000   0.000000  -0.000000  -0.000000
     7  F   -0.000000   0.000000  -0.000000   0.000000  -0.000000  -0.000000
     8  C    0.000000   0.000000   0.000000  -0.000000   0.000000   0.000000
     9  C    0.000000  -0.000000   0.000000   0.000000  -0.000000   0.000000
    10  C   -0.000000   0.000000  -0.000000   0.000000  -0.000000   0.000000
    11  F   -0.000000   0.000000   0.000000  -0.000000  -0.000000  -0.000000
    12  C    0.000000   0.000000   0.000000   0.000000   0.000000  -0.000000
    13  C   -0.000000   0.000000   0.000000   0.000000  -0.000000   0.000000
    14  S   -0.000000   0.000000  -0.000000  -0.000000   0.000000   0.000000
    15  H   -0.000000   0.000000  -0.000000   0.000000   0.000000  -0.000000
    16  H    0.000000   0.000000  -0.000000  -0.000000  -0.000000   0.000000
    17  H   -0.000000   0.000000  -0.000000  -0.000000   0.000000   0.000000
    18  H    0.000000  -0.000000  -0.000000  -0.000000   0.000000   0.000000
    19  H   -0.000000   0.000000  -0.000000   0.000000  -0.000000   0.000000
               7          8          9         10         11         12
     1  C   -0.000000   0.000000   0.000000  -0.000000  -0.000000   0.000000
     2  C    0.000000   0.000000  -0.000000   0.000000   0.000000   0.000000
     3  C   -0.000000   0.000000   0.000000  -0.000000   0.000000   0.000000
     4  F    0.000000  -0.000000   0.000000   0.000000  -0.000000   0.000000
     5  C   -0.000000   0.000000  -0.000000  -0.000000  -0.000000   0.000000
     6  C   -0.000000   0.000000   0.000000   0.000000  -0.000000  -0.000000
     7  F    0.000000   0.000000   0.000000   0.000000  -0.000000  -0.000000
     8  C    0.000000  -0.000000  -0.000000   0.000000   0.000000  -0.000000
     9  C    0.000000  -0.000000  -0.000000  -0.000000  -0.000000   0.000000
    10  C    0.000000   0.000000  -0.000000   0.000000   0.000000  -0.000000
    11  F   -0.000000   0.000000  -0.000000   0.000000  -0.000000  -0.000000
    12  C   -0.000000  -0.000000   0.000000  -0.000000  -0.000000   0.000000
    13  C    0.000000   0.000000  -0.000000   0.000000   0.000000  -0.000000
    14  S    0.000000   0.000000   0.000000  -0.000000  -0.000000   0.000000
    15  H    0.000000   0.000000   0.000000  -0.000000  -0.000000  -0.000000
    16  H   -0.000000  -0.000000  -0.000000  -0.000000   0.000000  -0.000000
    17  H    0.000000  -0.000000  -0.000000  -0.000000   0.000000   0.000000
    18  H   -0.000000   0.000000   0.000000  -0.000000   0.000000   0.000000
    19  H    0.000000   0.000000  -0.000000   0.000000   0.000000  -0.000000
              13         14         15         16         17         18
     1  C   -0.000000  -0.000000  -0.000000   0.000000  -0.000000   0.000000
     2  C    0.000000   0.000000   0.000000   0.000000   0.000000  -0.000000
     3  C    0.000000  -0.000000  -0.000000  -0.000000  -0.000000  -0.000000
     4  F    0.000000  -0.000000   0.000000  -0.000000  -0.000000  -0.000000
     5  C   -0.000000   0.000000   0.000000  -0.000000   0.000000   0.000000
     6  C    0.000000   0.000000  -0.000000   0.000000   0.000000   0.000000
     7  F    0.000000   0.000000   0.000000  -0.000000   0.000000  -0.000000
     8  C    0.000000   0.000000   0.000000  -0.000000  -0.000000   0.000000
     9  C   -0.000000   0.000000   0.000000  -0.000000  -0.000000   0.000000
    10  C    0.000000  -0.000000  -0.000000  -0.000000  -0.000000  -0.000000
    11  F    0.000000  -0.000000  -0.000000   0.000000   0.000000   0.000000
    12  C   -0.000000   0.000000  -0.000000  -0.000000   0.000000   0.000000
    13  C   -0.000000  -0.000000  -0.000000  -0.000000  -0.000000  -0.000000
    14  S   -0.000000   0.000000  -0.000000   0.000000  -0.000000   0.000000
    15  H   -0.000000  -0.000000  -0.000000   0.000000   0.000000   0.000000
    16  H   -0.000000   0.000000   0.000000   0.000000   0.000000  -0.000000
    17  H   -0.000000  -0.000000   0.000000   0.000000   0.000000  -0.000000
    18  H   -0.000000   0.000000   0.000000  -0.000000  -0.000000   0.000000
    19  H    0.000000  -0.000000   0.000000  -0.000000  -0.000000  -0.000000
              19
     1  C   -0.000000
     2  C    0.000000
     3  C   -0.000000
     4  F    0.000000
     5  C   -0.000000
     6  C    0.000000
     7  F    0.000000
     8  C    0.000000
     9  C   -0.000000
    10  C    0.000000
    11  F    0.000000
    12  C   -0.000000
    13  C    0.000000
    14  S   -0.000000
    15  H    0.000000
    16  H   -0.000000
    17  H   -0.000000
    18  H   -0.000000
    19  H    0.000000
 Mulliken charges and spin densities:
               1          2
     1  C    0.017714  -0.000000
     2  C   -0.035359   0.000000
     3  C    0.113606  -0.000000
     4  F   -0.049051   0.000000
     5  C   -0.088546   0.000000
     6  C    0.154931  -0.000000
     7  F   -0.125648   0.000000
     8  C    0.019212   0.000000
     9  C   -0.210162  -0.000000
    10  C    0.131799   0.000000
    11  F   -0.099507  -0.000000
    12  C    0.004127  -0.000000
    13  C   -0.145152  -0.000000
    14  S    0.211242   0.000000
    15  H    0.015517  -0.000000
    16  H   -0.000826   0.000000
    17  H   -0.003719   0.000000
    18  H    0.036736   0.000000
    19  H    0.053085   0.000000
 Sum of Mulliken charges =  -0.00000   0.00000
 Mulliken charges and spin densities with hydrogens summed into heavy atoms:
               1          2
     1  C    0.033231  -0.000000
     2  C   -0.036185   0.000000
     3  C    0.113606  -0.000000
     4  F   -0.049051   0.000000
     5  C   -0.088546   0.000000
     6  C    0.154931  -0.000000
     7  F   -0.125648   0.000000
     8  C    0.015493   0.000000
     9  C   -0.210162  -0.000000
    10  C    0.131799   0.000000
    11  F   -0.099507  -0.000000
    12  C    0.040863  -0.000000
    13  C   -0.092067  -0.000000
    14  S    0.211242   0.000000
 Electronic spatial extent (au):  <R**2>=           2739.1963
 Charge=             -0.0000 electrons
 Dipole moment (field-independent basis, Debye):
    X=              0.2576    Y=             -0.0485    Z=             -0.7489  Tot=              0.7934
 Quadrupole moment (field-independent basis, Debye-Ang):
   XX=            -65.5569   YY=            -85.3411   ZZ=            -86.0711
   XY=              1.1013   XZ=              0.6901   YZ=              0.7271
 Traceless Quadrupole moment (field-independent basis, Debye-Ang):
   XX=             13.4328   YY=             -6.3514   ZZ=             -7.0814
   XY=              1.1013   XZ=              0.6901   YZ=              0.7271
 Octapole moment (field-independent basis, Debye-Ang**2):
  XXX=             -1.2620  YYY=             12.8746  ZZZ=              8.7897  XYY=              3.3066
  XXY=             -1.0069  XXZ=             -0.5392  XZZ=             -4.1179  YZZ=              2.3778
  YYZ=             -0.8943  XYZ=             -9.7360
 Hexadecapole moment (field-independent basis, Debye-Ang**3):
 XXXX=          -2007.4255 YYYY=           -803.4009 ZZZZ=           -317.9597 XXXY=             -5.2579
 XXXZ=              1.2721 YYYX=             -9.7301 YYYZ=             -5.7556 ZZZX=             -7.3834
 ZZZY=             -7.2238 XXYY=           -489.3357 XXZZ=           -461.5169 YYZZ=           -186.5782
 XXYZ=              6.7460 YYXZ=              0.3486 ZZXY=             -0.3677
 N-N= 9.762300484803D+02 E-N=-4.503169947345D+03  KE= 1.076370574625D+03
                          Isotropic Fermi Contact Couplings
        Atom                 a.u.       MegaHertz       Gauss      10(-4) cm-1
     1  C(13)              0.00000       0.00000       0.00000       0.00000
     2  C(13)              0.00000       0.00000       0.00000       0.00000
     3  C(13)             -0.00000      -0.00000      -0.00000      -0.00000
     4  F(19)              0.00000       0.00000       0.00000       0.00000
     5  C(13)              0.00000       0.00000       0.00000       0.00000
     6  C(13)             -0.00000      -0.00000      -0.00000      -0.00000
     7  F(19)              0.00000       0.00000       0.00000       0.00000
     8  C(13)             -0.00000      -0.00000      -0.00000      -0.00000
     9  C(13)              0.00000       0.00000       0.00000       0.00000
    10  C(13)              0.00000       0.00000       0.00000       0.00000
    11  F(19)              0.00000       0.00000       0.00000       0.00000
    12  C(13)              0.00000       0.00000       0.00000       0.00000
    13  C(13)              0.00000       0.00000       0.00000       0.00000
    14  S(33)             -0.00000      -0.00000      -0.00000      -0.00000
    15  H(1)              -0.00000      -0.00000      -0.00000      -0.00000
    16  H(1)              -0.00000      -0.00000      -0.00000      -0.00000
    17  H(1)               0.00000       0.00000       0.00000       0.00000
    18  H(1)               0.00000       0.00000       0.00000       0.00000
    19  H(1)               0.00000       0.00000       0.00000       0.00000
 --------------------------------------------------------
       Center         ----  Spin Dipole Couplings  ----
                      3XX-RR        3YY-RR        3ZZ-RR
 --------------------------------------------------------
     1   Atom        0.000000     -0.000000      0.000000
     2   Atom       -0.000000      0.000000     -0.000000
     3   Atom       -0.000000      0.000000      0.000000
     4   Atom        0.000000      0.000000     -0.000000
     5   Atom        0.000000      0.000000     -0.000000
     6   Atom       -0.000000      0.000000      0.000000
     7   Atom       -0.000000      0.000000     -0.000000
     8   Atom       -0.000000      0.000000      0.000000
     9   Atom       -0.000000      0.000000     -0.000000
    10   Atom        0.000000     -0.000000      0.000000
    11   Atom       -0.000000      0.000000      0.000000
    12   Atom        0.000000     -0.000000      0.000000
    13   Atom       -0.000000      0.000000      0.000000
    14   Atom        0.000000     -0.000000      0.000000
    15   Atom        0.000000     -0.000000      0.000000
    16   Atom        0.000000     -0.000000      0.000000
    17   Atom       -0.000000      0.000000      0.000000
    18   Atom       -0.000000      0.000000      0.000000
    19   Atom        0.000000      0.000000     -0.000000
 --------------------------------------------------------
                        XY            XZ            YZ
 --------------------------------------------------------
     1   Atom       -0.000000      0.000000      0.000000
     2   Atom       -0.000000      0.000000     -0.000000
     3   Atom       -0.000000      0.000000      0.000000
     4   Atom       -0.000000      0.000000     -0.000000
     5   Atom       -0.000000      0.000000     -0.000000
     6   Atom       -0.000000      0.000000      0.000000
     7   Atom       -0.000000      0.000000     -0.000000
     8   Atom        0.000000     -0.000000     -0.000000
     9   Atom       -0.000000     -0.000000      0.000000
    10   Atom        0.000000     -0.000000      0.000000
    11   Atom        0.000000      0.000000      0.000000
    12   Atom        0.000000      0.000000      0.000000
    13   Atom       -0.000000     -0.000000      0.000000
    14   Atom       -0.000000      0.000000     -0.000000
    15   Atom        0.000000     -0.000000      0.000000
    16   Atom        0.000000     -0.000000      0.000000
    17   Atom        0.000000     -0.000000      0.000000
    18   Atom       -0.000000     -0.000000      0.000000
    19   Atom        0.000000      0.000000      0.000000
 --------------------------------------------------------


 ---------------------------------------------------------------------------------
              Anisotropic Spin Dipole Couplings in Principal Axis System
 ---------------------------------------------------------------------------------

       Atom             a.u.   MegaHertz   Gauss  10(-4) cm-1        Axes

              Baa    -0.0000    -0.000    -0.000    -0.000  0.0815  0.8899 -0.4488
     1 C(13)  Bbb     0.0000     0.000     0.000     0.000  0.9912 -0.1197 -0.0572
              Bcc     0.0000     0.000     0.000     0.000  0.1046  0.4402  0.8918
 
              Baa    -0.0000    -0.000    -0.000    -0.000 -0.0672  0.1879  0.9799
     2 C(13)  Bbb    -0.0000    -0.000    -0.000    -0.000  0.9872  0.1551  0.0380
              Bcc     0.0000     0.000     0.000     0.000 -0.1448  0.9699 -0.1959
 
              Baa    -0.0000    -0.000    -0.000    -0.000  0.9910  0.1330 -0.0167
     3 C(13)  Bbb     0.0000     0.000     0.000     0.000  0.0480 -0.2357  0.9706
              Bcc     0.0000     0.000     0.000     0.000 -0.1252  0.9627  0.2399
 
              Baa    -0.0000    -0.000    -0.000    -0.000 -0.3143  0.2308  0.9208
     4 F(19)  Bbb    -0.0000    -0.000    -0.000    -0.000  0.6679  0.7431  0.0417
              Bcc     0.0000     0.000     0.000     0.000  0.6746 -0.6281  0.3877
 
              Baa    -0.0000    -0.000    -0.000    -0.000  0.0980  0.2705  0.9577
     5 C(13)  Bbb    -0.0000    -0.000    -0.000    -0.000  0.7455  0.6175 -0.2507
              Bcc     0.0000     0.000     0.000     0.000 -0.6592  0.7386 -0.1411
 
              Baa    -0.0000    -0.000    -0.000    -0.000  0.9627  0.2643 -0.0575
     6 C(13)  Bbb     0.0000     0.000     0.000     0.000 -0.2507  0.7919 -0.5568
              Bcc     0.0000     0.000     0.000     0.000 -0.1016  0.5505  0.8286
 
              Baa    -0.0000    -0.000    -0.000    -0.000  0.9700  0.1615  0.1819
     7 F(19)  Bbb    -0.0000    -0.000    -0.000    -0.000 -0.2368  0.4565  0.8576
              Bcc     0.0000     0.000     0.000     0.000 -0.0555  0.8749 -0.4810
 
              Baa    -0.0000    -0.000    -0.000    -0.000  0.8513 -0.5036  0.1475
     8 C(13)  Bbb    -0.0000    -0.000    -0.000    -0.000  0.1385  0.4868  0.8625
              Bcc     0.0000     0.000     0.000     0.000  0.5061  0.7138 -0.4841
 
              Baa    -0.0000    -0.000    -0.000    -0.000  0.0826 -0.4696  0.8790
     9 C(13)  Bbb    -0.0000    -0.000    -0.000    -0.000  0.9529  0.2956  0.0684
              Bcc     0.0000     0.000     0.000     0.000 -0.2920  0.8319  0.4719
 
              Baa    -0.0000    -0.000    -0.000    -0.000 -0.4260  0.7345 -0.5282
    10 C(13)  Bbb     0.0000     0.000     0.000     0.000  0.8658  0.1614 -0.4737
              Bcc     0.0000     0.000     0.000     0.000  0.2627  0.6591  0.7047
 
              Baa    -0.0000    -0.000    -0.000    -0.000  0.9614 -0.1923 -0.1969
    11 F(19)  Bbb    -0.0000    -0.000    -0.000    -0.000  0.0737  0.8692 -0.4889
              Bcc     0.0000     0.000     0.000     0.000  0.2652  0.4555  0.8498
 
              Baa    -0.0000    -0.000    -0.000    -0.000 -0.2230  0.9595 -0.1720
    12 C(13)  Bbb     0.0000     0.000     0.000     0.000  0.9576  0.1825 -0.2231
              Bcc     0.0000     0.000     0.000     0.000  0.1827  0.2145  0.9595
 
              Baa    -0.0000    -0.000    -0.000    -0.000  0.9652 -0.0612  0.2544
    13 C(13)  Bbb    -0.0000    -0.000    -0.000    -0.000  0.2184  0.7236 -0.6548
              Bcc     0.0000     0.000     0.000     0.000 -0.1440  0.6875  0.7117
 
              Baa    -0.0000    -0.000    -0.000    -0.000  0.2505  0.9288  0.2731
    14 S(33)  Bbb     0.0000     0.000     0.000     0.000 -0.5209 -0.1085  0.8467
              Bcc     0.0000     0.000     0.000     0.000  0.8161 -0.3543  0.4566
 
              Baa    -0.0000    -0.000    -0.000    -0.000 -0.3912  0.8295 -0.3986
    15 H(1)   Bbb     0.0000     0.000     0.000     0.000  0.3005  0.5245  0.7966
              Bcc     0.0000     0.000     0.000     0.000  0.8698  0.1919 -0.4545
 
              Baa    -0.0000    -0.000    -0.000    -0.000 -0.4207  0.8887 -0.1822
    16 H(1)   Bbb     0.0000     0.000     0.000     0.000  0.2274  0.2978  0.9272
              Bcc     0.0000     0.000     0.000     0.000  0.8782  0.3486 -0.3274
 
              Baa    -0.0000    -0.000    -0.000    -0.000  0.7845 -0.5621  0.2618
    17 H(1)   Bbb     0.0000     0.000     0.000     0.000 -0.0668  0.3431  0.9369
              Bcc     0.0000     0.000     0.000     0.000  0.6165  0.7525 -0.2317
 
              Baa    -0.0000    -0.000    -0.000    -0.000  0.9554  0.2941  0.0270
    18 H(1)   Bbb    -0.0000    -0.000    -0.000    -0.000 -0.2026  0.7192 -0.6646
              Bcc     0.0000     0.000     0.000     0.000 -0.2149  0.6295  0.7467
 
              Baa    -0.0000    -0.000    -0.000    -0.000 -0.4447  0.6962 -0.5635
    19 H(1)   Bbb    -0.0000    -0.000    -0.000    -0.000 -0.5945  0.2411  0.7671
              Bcc     0.0000     0.000     0.000     0.000  0.6700  0.6761  0.3067
 

 ---------------------------------------------------------------------------------

 No NMR shielding tensors so no spin-rotation constants.
 Leave Link  601 at Fri Jul 24 15:07:40 2020, MaxMem=  4026531840 cpu:               2.1 elap:               0.3
 (Enter /opt/ohpc/pub/libs/gaussian/g16-A.03/sandybridge/g16/l701.exe)
 ... and contract with generalized density number  0.
 Compute integral first derivatives.
 Leave Link  701 at Fri Jul 24 15:07:40 2020, MaxMem=  4026531840 cpu:               1.1 elap:               0.2
 (Enter /opt/ohpc/pub/libs/gaussian/g16-A.03/sandybridge/g16/l702.exe)
 L702 exits ... SP integral derivatives will be done elsewhere.
 Leave Link  702 at Fri Jul 24 15:07:40 2020, MaxMem=  4026531840 cpu:               0.2 elap:               0.0
 (Enter /opt/ohpc/pub/libs/gaussian/g16-A.03/sandybridge/g16/l703.exe)
 Integral derivatives from FoFJK, PRISM(SPDF).
 Compute integral first derivatives, UseDBF=F ICtDFT=           0.
 Calling FoFJK, ICntrl=      2127 FMM=F ISym2X=0 I1Cent= 0 IOpClX= 1 NMat=1 NMatS=1 NMatT=0.
 FoFJK:  IHMeth= 1 ICntrl=    2127 DoSepK=T KAlg= 0 I1Cent=           0 FoldK=F
 IRaf=         1 NMat=       1 IRICut=       1 DoRegI=T DoRafI=F ISym2E= 0 IDoP0=0 IntGTp=1.
 FoFCou: FMM=F IPFlag=           0 FMFlag=      100000 FMFlg1=         800
         NFxFlg=           0 DoJE=F BraDBF=F KetDBF=F FulRan=T
         wScrn=  0.000000 ICntrl=      2527 IOpCl=  0 I1Cent=           0 NGrid=           0
         NMat0=    1 NMatS0=      1 NMatT0=    0 NMatD0=    1 NMtDS0=    0 NMtDT0=    0
 Symmetry not used in FoFCou.
 Leave Link  703 at Fri Jul 24 15:07:54 2020, MaxMem=  4026531840 cpu:             111.4 elap:              14.0
 (Enter /opt/ohpc/pub/libs/gaussian/g16-A.03/sandybridge/g16/l716.exe)
 Dipole        = 1.01328717D-01-1.90903406D-02-2.94624775D-01
 ***** Axes restored to original set *****
 -------------------------------------------------------------------
 Center     Atomic                   Forces (Hartrees/Bohr)
 Number     Number              X              Y              Z
 -------------------------------------------------------------------
      1        6          -0.024609334    0.015562589   -0.017106394
      2        6          -0.038203334   -0.017323843    0.019884340
      3        6           0.089664184   -0.055478863    0.013080002
      4        9          -0.032016606    0.043743947   -0.016000832
      5        6           0.019750980   -0.005056995    0.014988144
      6        6           0.039941379   -0.017263396    0.004937544
      7        9          -0.011001748    0.016604522   -0.007536464
      8        6          -0.008969348    0.021702898   -0.011202564
      9        6          -0.058925328    0.049601639    0.021946010
     10        6           0.036908905   -0.044410209   -0.035862506
     11        9          -0.000020498    0.008219806    0.004866486
     12        6          -0.043718273    0.025720968    0.037601252
     13        6          -0.010554409   -0.013799942   -0.027999027
     14       16          -0.002940647   -0.020867172   -0.005770085
     15        1          -0.005422372   -0.000421087    0.003458996
     16        1           0.008977461    0.020390634   -0.009792508
     17        1           0.005772989   -0.025496909    0.012061450
     18        1           0.024802557   -0.012722232   -0.012491460
     19        1           0.010563443    0.011293645    0.010937615
 -------------------------------------------------------------------
 Cartesian Forces:  Max     0.089664184 RMS     0.026786260
 Leave Link  716 at Fri Jul 24 15:07:54 2020, MaxMem=  4026531840 cpu:               0.3 elap:               0.1
 (Enter /opt/ohpc/pub/libs/gaussian/g16-A.03/sandybridge/g16/l103.exe)

 GradGradGradGradGradGradGradGradGradGradGradGradGradGradGradGradGradGrad
 Berny optimization.
 FormGI is forming the generalized inverse of G from B-inverse, IUseBI=4.
 Internal  Forces:  Max     0.056074556 RMS     0.013087962
 Search for a local minimum.
 Step number   1 out of a maximum of  105
 All quantities printed in internal units (Hartrees-Bohrs-Radians)
 RMS Force = .13088D-01 SwitMx=.10000D-02 MixMth= 1
 Mixed Optimization -- RFO/linear search
 Second derivative matrix not updated -- first step.
 ITU=  0
     Eigenvalues ---    0.01613   0.01712   0.01761   0.01805   0.01814
     Eigenvalues ---    0.01819   0.01863   0.02055   0.02091   0.02112
     Eigenvalues ---    0.02124   0.02139   0.02152   0.02263   0.02340
     Eigenvalues ---    0.02513   0.15787   0.15871   0.15871   0.15936
     Eigenvalues ---    0.15976   0.22066   0.22492   0.23433   0.24615
     Eigenvalues ---    0.24632   0.24839   0.24845   0.24990   0.25000
     Eigenvalues ---    0.25000   0.29300   0.31942   0.33620   0.34601
     Eigenvalues ---    0.35805   0.36304   0.38210   0.38725   0.38819
     Eigenvalues ---    0.41822   0.42339   0.43515   0.43974   0.45189
     Eigenvalues ---    0.46130   0.46738   0.51851   0.53055   0.61191
     Eigenvalues ---    0.74384
 RFO step:  Lambda=-4.12619426D-02 EMin= 1.61339637D-02
 Linear search not attempted -- first point.
 Maximum step size (   0.300) exceeded in Quadratic search.
    -- Step size scaled by   0.945
 Iteration  1 RMS(Cart)=  0.05016152 RMS(Int)=  0.00148820
 Iteration  2 RMS(Cart)=  0.00210794 RMS(Int)=  0.00041769
 Iteration  3 RMS(Cart)=  0.00000201 RMS(Int)=  0.00041769
 Iteration  4 RMS(Cart)=  0.00000000 RMS(Int)=  0.00041769
 ITry= 1 IFail=0 DXMaxC= 1.67D-01 DCOld= 1.00D+10 DXMaxT= 3.00D-01 DXLimC= 3.00D+00 Rises=F
 Variable       Old X    -DE/DX   Delta X   Delta X   Delta X     New X
                                 (Linear)    (Quad)   (Total)
    R1        2.66149  -0.01576   0.00000  -0.03214  -0.03219   2.62930
    R2        2.63093   0.00308   0.00000   0.00571   0.00571   2.63664
    R3        2.07977  -0.00559   0.00000  -0.01398  -0.01398   2.06578
    R4        2.75127  -0.04685   0.00000  -0.10799  -0.10805   2.64322
    R5        2.00761   0.02399   0.00000   0.05356   0.05356   2.06118
    R6        2.41094   0.05607   0.00000   0.06750   0.06750   2.47844
    R7        2.63586   0.00283   0.00000   0.00534   0.00534   2.64120
    R8        2.63810   0.00023   0.00000   0.00175   0.00180   2.63990
    R9        2.68493   0.04327   0.00000   0.08800   0.08800   2.77294
   R10        2.56902  -0.01211   0.00000  -0.02002  -0.02002   2.54900
   R11        2.64571  -0.01596   0.00000  -0.02902  -0.02897   2.61674
   R12        1.99890   0.02697   0.00000   0.05936   0.05936   2.05825
   R13        2.71901  -0.04365   0.00000  -0.09769  -0.09762   2.62139
   R14        3.19340   0.02024   0.00000   0.04421   0.04416   3.23755
   R15        2.50010   0.00889   0.00000   0.01287   0.01287   2.51297
   R16        2.64942   0.00837   0.00000   0.01553   0.01563   2.66506
   R17        2.56057   0.01283   0.00000   0.02328   0.02329   2.58386
   R18        2.16081  -0.03043   0.00000  -0.08602  -0.08602   2.07479
[...]
              19
     1  C   -0.000000
     2  C    0.000000
     3  C    0.000003
     4  F    0.000000
     5  C   -0.000231
     6  C   -0.000005
     7  F    0.000000
     8  C   -0.000000
     9  C    0.000922
    10  C    0.006781
    11  F   -0.000027
    12  C   -0.019900
    13  C    0.402191
    14  S   -0.037362
    15  H   -0.000000
    16  H    0.000000
    17  H   -0.000000
    18  H   -0.007251
    19  H    0.613980
          Atomic-Atomic Spin Densities.
               1          2          3          4          5          6
     1  C   -0.000000   0.000000   0.000000   0.000000   0.000000  -0.000000
     2  C    0.000000   0.000000  -0.000000  -0.000000  -0.000000   0.000000
     3  C    0.000000  -0.000000   0.000000   0.000000   0.000000  -0.000000
     4  F    0.000000  -0.000000   0.000000   0.000000  -0.000000  -0.000000
     5  C    0.000000  -0.000000   0.000000  -0.000000  -0.000000   0.000000
     6  C   -0.000000   0.000000  -0.000000  -0.000000   0.000000  -0.000000
     7  F   -0.000000   0.000000  -0.000000   0.000000   0.000000  -0.000000
     8  C    0.000000   0.000000  -0.000000   0.000000  -0.000000   0.000000
     9  C    0.000000   0.000000   0.000000   0.000000  -0.000000   0.000000
    10  C   -0.000000  -0.000000  -0.000000  -0.000000   0.000000   0.000000
    11  F   -0.000000  -0.000000  -0.000000   0.000000   0.000000   0.000000
    12  C   -0.000000  -0.000000  -0.000000  -0.000000   0.000000   0.000000
    13  C   -0.000000   0.000000  -0.000000  -0.000000  -0.000000   0.000000
    14  S    0.000000  -0.000000   0.000000   0.000000   0.000000   0.000000
    15  H   -0.000000  -0.000000   0.000000   0.000000   0.000000   0.000000
    16  H   -0.000000   0.000000  -0.000000  -0.000000   0.000000   0.000000
    17  H    0.000000  -0.000000   0.000000   0.000000  -0.000000   0.000000
    18  H    0.000000   0.000000   0.000000   0.000000  -0.000000  -0.000000
    19  H    0.000000  -0.000000  -0.000000   0.000000  -0.000000   0.000000
               7          8          9         10         11         12
     1  C   -0.000000   0.000000   0.000000  -0.000000  -0.000000  -0.000000
     2  C    0.000000   0.000000   0.000000  -0.000000  -0.000000  -0.000000
     3  C   -0.000000  -0.000000   0.000000  -0.000000  -0.000000  -0.000000
     4  F    0.000000   0.000000   0.000000  -0.000000   0.000000  -0.000000
     5  C    0.000000  -0.000000  -0.000000   0.000000   0.000000   0.000000
     6  C   -0.000000   0.000000   0.000000   0.000000   0.000000   0.000000
     7  F    0.000000   0.000000   0.000000   0.000000  -0.000000  -0.000000
     8  C    0.000000   0.000000   0.000000   0.000000   0.000000   0.000000
     9  C    0.000000   0.000000   0.000000   0.000000  -0.000000   0.000000
    10  C    0.000000   0.000000   0.000000  -0.000000   0.000000  -0.000000
    11  F   -0.000000   0.000000  -0.000000   0.000000  -0.000000  -0.000000
    12  C   -0.000000   0.000000   0.000000  -0.000000  -0.000000   0.000000
    13  C    0.000000   0.000000   0.000000   0.000000   0.000000  -0.000000
    14  S   -0.000000  -0.000000  -0.000000   0.000000  -0.000000  -0.000000
    15  H   -0.000000  -0.000000  -0.000000   0.000000  -0.000000  -0.000000
    16  H    0.000000   0.000000  -0.000000   0.000000   0.000000   0.000000
    17  H   -0.000000  -0.000000  -0.000000  -0.000000   0.000000   0.000000
    18  H    0.000000  -0.000000   0.000000  -0.000000  -0.000000   0.000000
    19  H    0.000000  -0.000000  -0.000000   0.000000   0.000000  -0.000000
              13         14         15         16         17         18
     1  C   -0.000000   0.000000  -0.000000  -0.000000   0.000000   0.000000
     2  C    0.000000  -0.000000  -0.000000   0.000000  -0.000000   0.000000
     3  C   -0.000000   0.000000   0.000000  -0.000000   0.000000   0.000000
     4  F   -0.000000   0.000000   0.000000  -0.000000   0.000000   0.000000
     5  C   -0.000000   0.000000   0.000000   0.000000  -0.000000  -0.000000
     6  C    0.000000   0.000000   0.000000   0.000000   0.000000  -0.000000
     7  F    0.000000  -0.000000  -0.000000   0.000000  -0.000000   0.000000
     8  C    0.000000  -0.000000  -0.000000   0.000000  -0.000000  -0.000000
     9  C    0.000000  -0.000000  -0.000000  -0.000000  -0.000000   0.000000
    10  C    0.000000   0.000000   0.000000   0.000000  -0.000000  -0.000000
    11  F    0.000000  -0.000000  -0.000000   0.000000   0.000000  -0.000000
    12  C   -0.000000  -0.000000  -0.000000   0.000000   0.000000   0.000000
    13  C    0.000000   0.000000  -0.000000   0.000000  -0.000000   0.000000
    14  S    0.000000  -0.000000   0.000000  -0.000000  -0.000000  -0.000000
    15  H   -0.000000   0.000000   0.000000  -0.000000   0.000000  -0.000000
    16  H    0.000000  -0.000000  -0.000000   0.000000  -0.000000  -0.000000
    17  H   -0.000000  -0.000000   0.000000  -0.000000  -0.000000   0.000000
    18  H    0.000000  -0.000000  -0.000000  -0.000000   0.000000   0.000000
    19  H    0.000000   0.000000   0.000000  -0.000000  -0.000000   0.000000
              19
     1  C    0.000000
     2  C   -0.000000
     3  C   -0.000000
     4  F    0.000000
     5  C   -0.000000
     6  C    0.000000
     7  F    0.000000
     8  C   -0.000000
     9  C   -0.000000
    10  C    0.000000
    11  F    0.000000
    12  C   -0.000000
    13  C    0.000000
    14  S    0.000000
    15  H    0.000000
    16  H   -0.000000
    17  H   -0.000000
    18  H    0.000000
    19  H   -0.000000
 Mulliken charges and spin densities:
               1          2
     1  C    0.034536  -0.000000
     2  C   -0.002286   0.000000
     3  C    0.118556   0.000000
     4  F   -0.112989   0.000000
     5  C   -0.070314   0.000000
     6  C    0.119097  -0.000000
     7  F   -0.117067   0.000000
     8  C   -0.001602   0.000000
     9  C   -0.188474   0.000000
    10  C    0.137203  -0.000000
    11  F   -0.116308  -0.000000
    12  C    0.038739  -0.000000
    13  C   -0.128796   0.000000
    14  S    0.193253  -0.000000
    15  H    0.012256   0.000000
    16  H    0.014518   0.000000
    17  H    0.013959  -0.000000
    18  H    0.014821   0.000000
    19  H    0.040898   0.000000
 Sum of Mulliken charges =  -0.00000   0.00000
 Mulliken charges and spin densities with hydrogens summed into heavy atoms:
               1          2
     1  C    0.046792  -0.000000
     2  C    0.012232   0.000000
     3  C    0.118556   0.000000
     4  F   -0.112989   0.000000
     5  C   -0.070314   0.000000
     6  C    0.119097  -0.000000
     7  F   -0.117067   0.000000
     8  C    0.012357   0.000000
     9  C   -0.188474   0.000000
    10  C    0.137203  -0.000000
    11  F   -0.116308  -0.000000
    12  C    0.053560  -0.000000
    13  C   -0.087898   0.000000
    14  S    0.193253  -0.000000
 Electronic spatial extent (au):  <R**2>=           2746.5026
 Charge=             -0.0000 electrons
 Dipole moment (field-independent basis, Debye):
    X=              0.5199    Y=             -0.5089    Z=             -0.3674  Tot=              0.8150
 Quadrupole moment (field-independent basis, Debye-Ang):
   XX=            -64.2027   YY=            -85.3032   ZZ=            -86.4440
   XY=              0.7348   XZ=              0.4085   YZ=              0.4935
 Traceless Quadrupole moment (field-independent basis, Debye-Ang):
   XX=             14.4473   YY=             -6.6532   ZZ=             -7.7941
   XY=              0.7348   XZ=              0.4085   YZ=              0.4935
 Octapole moment (field-independent basis, Debye-Ang**2):
  XXX=             -3.6834  YYY=             10.1560  ZZZ=              7.7764  XYY=              4.2328
  XXY=              1.3738  XXZ=              0.4652  XZZ=             -2.2501  YZZ=              2.9262
  YYZ=             -0.4400  XYZ=             -9.1409
 Hexadecapole moment (field-independent basis, Debye-Ang**3):
 XXXX=          -2023.9267 YYYY=           -867.4230 ZZZZ=           -248.0383 XXXY=             -2.9742
 XXXZ=              0.4947 YYYX=            -11.6194 YYYZ=             -5.8736 ZZZX=             -8.7539
 ZZZY=             -7.1014 XXYY=           -490.6488 XXZZ=           -460.5962 YYZZ=           -185.9561
 XXYZ=              2.0614 YYXZ=              0.7700 ZZXY=             -3.1367
 N-N= 9.772331476522D+02 E-N=-4.505385528773D+03  KE= 1.076344358743D+03
                          Isotropic Fermi Contact Couplings
        Atom                 a.u.       MegaHertz       Gauss      10(-4) cm-1
     1  C(13)             -0.00000      -0.00000      -0.00000      -0.00000
     2  C(13)              0.00000       0.00000       0.00000       0.00000
     3  C(13)              0.00000       0.00000       0.00000       0.00000
     4  F(19)              0.00000       0.00000       0.00000       0.00000
     5  C(13)              0.00000       0.00000       0.00000       0.00000
     6  C(13)             -0.00000      -0.00000      -0.00000      -0.00000
     7  F(19)              0.00000       0.00000       0.00000       0.00000
     8  C(13)              0.00000       0.00000       0.00000       0.00000
     9  C(13)              0.00000       0.00000       0.00000       0.00000
    10  C(13)              0.00000       0.00000       0.00000       0.00000
    11  F(19)             -0.00000      -0.00000      -0.00000      -0.00000
    12  C(13)              0.00000       0.00000       0.00000       0.00000
    13  C(13)             -0.00000      -0.00000      -0.00000      -0.00000
    14  S(33)              0.00000       0.00000       0.00000       0.00000
    15  H(1)               0.00000       0.00000       0.00000       0.00000
    16  H(1)               0.00000       0.00000       0.00000       0.00000
    17  H(1)              -0.00000      -0.00000      -0.00000      -0.00000
    18  H(1)              -0.00000      -0.00000      -0.00000      -0.00000
    19  H(1)              -0.00000      -0.00000      -0.00000      -0.00000
 --------------------------------------------------------
       Center         ----  Spin Dipole Couplings  ----
                      3XX-RR        3YY-RR        3ZZ-RR
 --------------------------------------------------------
     1   Atom        0.000000     -0.000000      0.000000
     2   Atom        0.000000     -0.000000     -0.000000
     3   Atom        0.000000     -0.000000     -0.000000
     4   Atom        0.000000     -0.000000     -0.000000
     5   Atom        0.000000     -0.000000      0.000000
     6   Atom        0.000000     -0.000000      0.000000
     7   Atom       -0.000000      0.000000      0.000000
     8   Atom       -0.000000     -0.000000      0.000000
     9   Atom       -0.000000      0.000000      0.000000
    10   Atom       -0.000000      0.000000      0.000000
    11   Atom        0.000000     -0.000000      0.000000
    12   Atom        0.000000      0.000000     -0.000000
    13   Atom        0.000000     -0.000000     -0.000000
    14   Atom       -0.000000     -0.000000      0.000000
    15   Atom        0.000000     -0.000000     -0.000000
    16   Atom       -0.000000      0.000000     -0.000000
    17   Atom        0.000000     -0.000000      0.000000
    18   Atom        0.000000     -0.000000      0.000000
    19   Atom       -0.000000     -0.000000      0.000000
 --------------------------------------------------------
                        XY            XZ            YZ
 --------------------------------------------------------
     1   Atom        0.000000     -0.000000     -0.000000
     2   Atom       -0.000000      0.000000     -0.000000
     3   Atom       -0.000000      0.000000      0.000000
     4   Atom        0.000000     -0.000000     -0.000000
     5   Atom        0.000000     -0.000000      0.000000
     6   Atom       -0.000000      0.000000      0.000000
     7   Atom       -0.000000      0.000000     -0.000000
     8   Atom        0.000000      0.000000      0.000000
     9   Atom       -0.000000     -0.000000      0.000000
    10   Atom        0.000000      0.000000     -0.000000
    11   Atom        0.000000      0.000000      0.000000
    12   Atom       -0.000000      0.000000      0.000000
    13   Atom       -0.000000      0.000000     -0.000000
    14   Atom       -0.000000      0.000000      0.000000
    15   Atom       -0.000000      0.000000     -0.000000
    16   Atom       -0.000000      0.000000     -0.000000
    17   Atom        0.000000     -0.000000      0.000000
    18   Atom        0.000000      0.000000     -0.000000
    19   Atom        0.000000      0.000000      0.000000
 --------------------------------------------------------


 ---------------------------------------------------------------------------------
              Anisotropic Spin Dipole Couplings in Principal Axis System
 ---------------------------------------------------------------------------------

       Atom             a.u.   MegaHertz   Gauss  10(-4) cm-1        Axes

              Baa    -0.0000    -0.000    -0.000    -0.000 -0.4697  0.8808 -0.0592
     1 C(13)  Bbb     0.0000     0.000     0.000     0.000  0.5146  0.3277  0.7923
              Bcc     0.0000     0.000     0.000     0.000  0.7173  0.3417 -0.6072
 
              Baa    -0.0000    -0.000    -0.000    -0.000 -0.1315  0.4444  0.8861
     2 C(13)  Bbb    -0.0000    -0.000    -0.000    -0.000  0.2077  0.8864 -0.4137
              Bcc     0.0000     0.000     0.000     0.000  0.9693 -0.1296  0.2088
 
              Baa    -0.0000    -0.000    -0.000    -0.000  0.2022  0.7103 -0.6742
     3 C(13)  Bbb    -0.0000    -0.000    -0.000    -0.000 -0.2293  0.7036  0.6726
              Bcc     0.0000     0.000     0.000     0.000  0.9521  0.0186  0.3052
 
              Baa    -0.0000    -0.000    -0.000    -0.000  0.5303 -0.1245  0.8386
     4 F(19)  Bbb    -0.0000    -0.000    -0.000    -0.000 -0.0931  0.9746  0.2036
              Bcc     0.0000     0.000     0.000     0.000  0.8427  0.1860 -0.5052
 
              Baa    -0.0000    -0.000    -0.000    -0.000 -0.4881  0.8324 -0.2623
     5 C(13)  Bbb     0.0000     0.000     0.000     0.000 -0.0048  0.2980  0.9546
              Bcc     0.0000     0.000     0.000     0.000  0.8728  0.4672 -0.1415
 
              Baa    -0.0000    -0.000    -0.000    -0.000  0.0804  0.9475 -0.3096
     6 C(13)  Bbb     0.0000     0.000     0.000     0.000  0.7840 -0.2519 -0.5673
              Bcc     0.0000     0.000     0.000     0.000  0.6155  0.1971  0.7631
 
              Baa    -0.0000    -0.000    -0.000    -0.000  0.7969  0.6012 -0.0592
     7 F(19)  Bbb     0.0000     0.000     0.000     0.000 -0.0181  0.1217  0.9924
              Bcc     0.0000     0.000     0.000     0.000 -0.6039  0.7897 -0.1079
 
              Baa    -0.0000    -0.000    -0.000    -0.000  0.7461 -0.6481 -0.1528
     8 C(13)  Bbb     0.0000     0.000     0.000     0.000 -0.3270 -0.5565  0.7638
              Bcc     0.0000     0.000     0.000     0.000  0.5800  0.5199  0.6271
 
              Baa    -0.0000    -0.000    -0.000    -0.000  0.9253  0.3707  0.0795
     9 C(13)  Bbb     0.0000     0.000     0.000     0.000 -0.3031  0.8492 -0.4325
              Bcc     0.0000     0.000     0.000     0.000 -0.2278  0.3761  0.8981
 
              Baa    -0.0000    -0.000    -0.000    -0.000  0.6342 -0.5764 -0.5153
    10 C(13)  Bbb     0.0000     0.000     0.000     0.000  0.7714  0.5166  0.3715
              Bcc     0.0000     0.000     0.000     0.000  0.0521 -0.6331  0.7723
 
              Baa    -0.0000    -0.000    -0.000    -0.000 -0.1183  0.9895 -0.0827
    11 F(19)  Bbb     0.0000     0.000     0.000     0.000 -0.0965  0.0714  0.9928
              Bcc     0.0000     0.000     0.000     0.000  0.9883  0.1255  0.0870
 
              Baa    -0.0000    -0.000    -0.000    -0.000 -0.1298 -0.4949  0.8592
    12 C(13)  Bbb     0.0000     0.000     0.000     0.000  0.8483  0.3932  0.3546
              Bcc     0.0000     0.000     0.000     0.000 -0.5133  0.7749  0.3689
 
              Baa    -0.0000    -0.000    -0.000    -0.000 -0.1286  0.6853  0.7169
    13 C(13)  Bbb     0.0000     0.000     0.000     0.000  0.7025  0.5732 -0.4219
              Bcc     0.0000     0.000     0.000     0.000  0.7000 -0.4493  0.5551
 
              Baa    -0.0000    -0.000    -0.000    -0.000  0.8971  0.3980 -0.1917
    14 S(33)  Bbb    -0.0000    -0.000    -0.000    -0.000 -0.4417  0.8176 -0.3694
              Bcc     0.0000     0.000     0.000     0.000  0.0097  0.4161  0.9093
 
              Baa    -0.0000    -0.000    -0.000    -0.000 -0.0325  0.0309  0.9990
    15 H(1)   Bbb    -0.0000    -0.000    -0.000    -0.000  0.0483  0.9984 -0.0293
              Bcc     0.0000     0.000     0.000     0.000  0.9983 -0.0473  0.0339
 
              Baa    -0.0000    -0.000    -0.000    -0.000  0.9394  0.0941 -0.3295
    16 H(1)   Bbb    -0.0000    -0.000    -0.000    -0.000  0.2942  0.2719  0.9163
              Bcc     0.0000     0.000     0.000     0.000 -0.1758  0.9577 -0.2278
 
              Baa    -0.0000    -0.000    -0.000    -0.000 -0.4614  0.8352 -0.2992
    17 H(1)   Bbb     0.0000     0.000     0.000     0.000  0.8853  0.4557 -0.0931
              Bcc     0.0000     0.000     0.000     0.000 -0.0586  0.3078  0.9496
 
              Baa    -0.0000    -0.000    -0.000    -0.000 -0.0961  0.9854  0.1409
    18 H(1)   Bbb     0.0000     0.000     0.000     0.000 -0.0283 -0.1442  0.9891
              Bcc     0.0000     0.000     0.000     0.000  0.9950  0.0911  0.0417
 
              Baa    -0.0000    -0.000    -0.000    -0.000 -0.5372  0.8435 -0.0042
    19 H(1)   Bbb    -0.0000    -0.000    -0.000    -0.000  0.6715  0.4247 -0.6072
              Bcc     0.0000     0.000     0.000     0.000  0.5104  0.3290  0.7945
 

 ---------------------------------------------------------------------------------

 No NMR shielding tensors so no spin-rotation constants.
 Leave Link  601 at Fri Jul 24 15:16:39 2020, MaxMem=  4026531840 cpu:               2.0 elap:               0.3
 (Enter /opt/ohpc/pub/libs/gaussian/g16-A.03/sandybridge/g16/l9999.exe)

 Test job not archived.
 1\1\GINC-SKYLAKE014\FOpt\ULC-wPBE\CC-pVDZ\C10H5F3S1\RDU230\24-Jul-2020
 \0\\#P uLC-wPBE/cc-pVDZ iop(3/107=0320400000, 3/108=0320400000) opt\\H
 5 C10 S1 F3\\0,1\C,3.4831588059,0.0031923701,-0.0127625845\C,2.7670316
 388,1.1368229001,-0.3846653595\C,1.3808777492,1.0822906402,-0.38456046
 45\F,0.6959680362,2.170927,-0.7644667468\C,0.6632714854,-0.0606363548,
 -0.0158061016\C,1.4326659807,-1.1713012629,0.34380352\F,0.7920872801,-
 2.2996623409,0.6956017135\C,2.8189271392,-1.1644552287,0.3519490408\C,
 -0.8074932716,-0.0770371031,-0.0086047297\C,-1.6478034994,0.8524676326
 ,0.5442546156\F,-1.2076324958,1.9239061088,1.2153045107\C,-3.033160502
 5,0.5917021815,0.3699655136\C,-3.2255069271,-0.5628959521,-0.332007509
 4\S,-1.7480227595,-1.3189118608,-0.7668138062\H,4.5764910794,0.0288891
 394,-0.0096430984\H,3.2598424807,2.0649976396,-0.6824775607\H,3.352280
 5672,-2.0705362049,0.6478149549\H,-3.8241981526,1.2357322822,0.7560777
 495\H,-4.1736006342,-1.0218725862,-0.6140696573\\Version=EM64L-G16RevA
 .03\State=1-A\HF=-1081.1958112\S2=0.\S2-1=0.\S2A=0.\RMSD=6.239e-09\RMS
 F=2.258e-05\Dipole=0.2068766,-0.1964996,-0.1462838\Quadrupole=10.72737
 07,-4.9436613,-5.7837094,0.6910403,0.3577626,0.3820521\PG=C01 [X(C10H5
 F3S1)]\\@


 THE SCIENTIFIC THEORIST IS NOT TO BE ENVIED. FOR NATURE, OR MORE
 PRECISELY EXPERIMENT, IS AN INEXORABLE AND NOT VERY FRIENDLY JUDGE OF HIS
 WORK.  IT NEVER SAYS "YES" TO A THEORY. IN THE MOST FAVORABLE CASES
 IT SAYS "MAYBE", AND IN THE GREAT MAJORITY OF CASES SIMPLY "NO"...
 PROBABLY EVERY THEORY WILL SOME DAY EXPERIENCE ITS "NO" - MOST
 THEORIES, SOON AFTER CONCEPTION.  -- A.EINSTEIN, NOV 11, 1922.
 Job cpu time:       0 days  1 hours 18 minutes 52.4 seconds.
 Elapsed time:       0 days  0 hours  9 minutes 59.2 seconds.
 File lengths (MBytes):  RWF=    112 Int=      0 D2E=      0 Chk=     12 Scr=      8
 Normal termination of Gaussian 16 at Fri Jul 24 15:16:39 2020.
