 Entering Gaussian System, Link 0=g16
 Input=mols_65_7_35_cF-cOC-COC_opt_0.gjf
 Output=mols_65_7_35_cF-cOC-COC_opt_0.log
 Initial command:
 /opt/ohpc/pub/libs/gaussian/g16-A.03/sandybridge/g16/l1.exe "/mnt/gpfs2_4m/scratch/rdu230/ondemand/projects/dihedral_energies/7trial/wtuning/mols_65_7_35_cF-cOC-COC/Gau-204790.inp" -scrdir="/mnt/gpfs2_4m/scratch/rdu230/ondemand/projects/dihedral_energies/7trial/wtuning/mols_65_7_35_cF-cOC-COC/"
 Entering Link 1 = /opt/ohpc/pub/libs/gaussian/g16-A.03/sandybridge/g16/l1.exe PID=    204794.
  
 Copyright (c) 1988,1990,1992,1993,1995,1998,2003,2009,2016,
            Gaussian, Inc.  All Rights Reserved.
  
 This is part of the Gaussian(R) 16 program.  It is based on
 the Gaussian(R) 09 system (copyright 2009, Gaussian, Inc.),
 the Gaussian(R) 03 system (copyright 2003, Gaussian, Inc.),
 the Gaussian(R) 98 system (copyright 1998, Gaussian, Inc.),
 the Gaussian(R) 94 system (copyright 1995, Gaussian, Inc.),
 the Gaussian 92(TM) system (copyright 1992, Gaussian, Inc.),
 the Gaussian 90(TM) system (copyright 1990, Gaussian, Inc.),
 the Gaussian 88(TM) system (copyright 1988, Gaussian, Inc.),
 the Gaussian 86(TM) system (copyright 1986, Carnegie Mellon
 University), and the Gaussian 82(TM) system (copyright 1983,
 Carnegie Mellon University). Gaussian is a federally registered
 trademark of Gaussian, Inc.
  
 This software contains proprietary and confidential information,
 including trade secrets, belonging to Gaussian, Inc.
  
 This software is provided under written license and may be
 used, copied, transmitted, or stored only in accord with that
 written license.
  
 The following legend is applicable only to US Government
 contracts under FAR:
  
                    RESTRICTED RIGHTS LEGEND
  
 Use, reproduction and disclosure by the US Government is
 subject to restrictions as set forth in subparagraphs (a)
 and (c) of the Commercial Computer Software - Restricted
 Rights clause in FAR 52.227-19.
  
 Gaussian, Inc.
 340 Quinnipiac St., Bldg. 40, Wallingford CT 06492
  
  
 ---------------------------------------------------------------
 Warning -- This program may not be used in any manner that
 competes with the business of Gaussian, Inc. or will provide
 assistance to any competitor of Gaussian, Inc.  The licensee
 of this program is prohibited from giving any competitor of
 Gaussian, Inc. access to this program.  By using this program,
 the user acknowledges that Gaussian, Inc. is engaged in the
 business of creating and licensing software in the field of
 computational chemistry and represents and warrants to the
 licensee that it is not a competitor of Gaussian, Inc. and that
 it will not use this program in any manner prohibited above.
 ---------------------------------------------------------------
  

 Cite this work as:
 Gaussian 16, Revision A.03,
 M. J. Frisch, G. W. Trucks, H. B. Schlegel, G. E. Scuseria, 
 M. A. Robb, J. R. Cheeseman, G. Scalmani, V. Barone, 
 G. A. Petersson, H. Nakatsuji, X. Li, M. Caricato, A. V. Marenich, 
 J. Bloino, B. G. Janesko, R. Gomperts, B. Mennucci, H. P. Hratchian, 
 J. V. Ortiz, A. F. Izmaylov, J. L. Sonnenberg, D. Williams-Young, 
 F. Ding, F. Lipparini, F. Egidi, J. Goings, B. Peng, A. Petrone, 
 T. Henderson, D. Ranasinghe, V. G. Zakrzewski, J. Gao, N. Rega, 
 G. Zheng, W. Liang, M. Hada, M. Ehara, K. Toyota, R. Fukuda, 
 J. Hasegawa, M. Ishida, T. Nakajima, Y. Honda, O. Kitao, H. Nakai, 
 T. Vreven, K. Throssell, J. A. Montgomery, Jr., J. E. Peralta, 
 F. Ogliaro, M. J. Bearpark, J. J. Heyd, E. N. Brothers, K. N. Kudin, 
 V. N. Staroverov, T. A. Keith, R. Kobayashi, J. Normand, 
 K. Raghavachari, A. P. Rendell, J. C. Burant, S. S. Iyengar, 
 J. Tomasi, M. Cossi, J. M. Millam, M. Klene, C. Adamo, R. Cammi, 
 J. W. Ochterski, R. L. Martin, K. Morokuma, O. Farkas, 
 J. B. Foresman, and D. J. Fox, Gaussian, Inc., Wallingford CT, 2016.
 
 ******************************************
 Gaussian 16:  EM64L-G16RevA.03 25-Dec-2016
                24-Jul-2020 
 ******************************************
 %mem=30GB
 %nproc=8
 Will use up to    8 processors via shared memory.
 ---------------------------------------------------------------
 #P uLC-wPBE/cc-pVDZ iop(3/107=0340300000, 3/108=0340300000) opt
 ---------------------------------------------------------------
 1/18=20,19=15,26=3,38=1/1,3;
 2/9=110,12=2,17=6,18=5,40=1/2;
 3/5=16,11=2,25=1,30=1,71=1,74=-41,107=340300000,108=340300000,116=2/1,2,3;
 4//1;
 5/5=2,38=5/2;
 6/7=2,8=2,9=2,10=2,28=1/1;
 7//1,2,3,16;
 1/18=20,19=15,26=3/3(2);
 2/9=110/2;
 99//99;
 2/9=110/2;
 3/5=16,11=2,25=1,30=1,71=1,74=-41,107=340300000,108=340300000,116=2/1,2,3;
 4/5=5,16=3,69=1/1;
 5/5=2,38=5/2;
 7//1,2,3,16;
 1/18=20,19=15,26=3/3(-5);
 2/9=110/2;
 6/7=2,8=2,9=2,10=2,19=2,28=1/1;
 99/9=1/99;
 Leave Link    1 at Fri Jul 24 12:11:57 2020, MaxMem=  4026531840 cpu:               2.3 elap:               0.3
 (Enter /opt/ohpc/pub/libs/gaussian/g16-A.03/sandybridge/g16/l101.exe)
 -----------------
 H65 C84 S7 O14 F7
 -----------------
 Symbolic Z-matrix:
 Charge =  0 Multiplicity = 1
 C                     25.51944   4.10484  -0.2465 
 C                     25.33104   3.61954   1.05058 
 C                     24.40721   2.69193   1.29956 
 F                     24.21741   2.30589   2.57533 
 C                     23.56836   2.08646   0.29006 
 C                     23.80637   2.50599  -1.01218 
 O                     23.16007   1.94737  -1.99586 
 C                     22.65374   2.78561  -3.07158 
 C                     24.77731   3.48286  -1.29273 
 C                     22.5861   1.05779   0.61259 
 C                     22.80631  -0.20025   1.26505 
 O                     24.12435  -0.57499   1.54746 
 C                     24.12967  -1.68141   2.37791 
 C                     21.64119  -0.86906   1.37002 
 C                     20.50025  -0.26995   0.8929 
 S                     20.95429   1.32293   0.24969 
 C                     19.10927  -0.59044   0.83477 
 C                     18.49661  -1.17765   1.99697 
 C                     17.1593  -1.55124   1.98321 
 F                     16.56239  -1.99607   3.11081 
 C                     16.41523  -1.43135   0.79875 
 C                     17.0436  -0.95474  -0.4409 
 O                     16.2876  -0.88863  -1.54763 
 C                     16.59045   0.21852  -2.39561 
 C                     18.40839  -0.55331  -0.38509 
 C                     15.02091  -1.85044   0.79086 
 C                     14.40732  -3.0978    1.0563 
 O                     15.28308  -4.19396   1.41013 
 C                     14.63006  -5.27198   2.0074 
 C                     12.97523  -3.14732   0.9624 
 C                     12.48816  -1.89426   0.52207 
 S                     13.76759  -0.78334   0.4436 
 C                     11.15414  -1.5233    0.32323 
 C                     10.75019  -0.89354  -0.87339 
 C                     9.51094  -0.48986  -1.17823 
 F                     9.22708   0.06432  -2.32026 
 C                     8.45306  -0.76054  -0.18452 
 C                     8.73379  -1.42421   0.96174 
 O                     7.74783  -1.58423   1.92961 
 C                     7.80085  -2.892     2.57247 
 C                     10.10424  -1.82028   1.26032 
 C                     7.05337  -0.22487  -0.4914 
 C                     6.69561   1.0205   -0.68143 
 O                     7.54736   2.04074  -0.56348 
 C                     7.11223   3.25338  -1.13581 
 C                     5.23959   1.15878  -0.97116 
 C                     4.65388  -0.17227  -1.02501 
 S                     5.81669  -1.31766  -0.76398 
 C                     3.25205  -0.4445   -1.22158 
 C                     2.58284   0.28662  -2.21805 
 C                     1.22312   0.11247  -2.40504 
 F                     0.5097    0.84922  -3.30865 
 C                     0.49208  -0.86396  -1.69566 
 C                     1.19729  -1.58897  -0.7689 
 O                     0.49982  -2.58476   0.00151 
 C                     0.95585  -3.90769  -0.3042 
 C                     2.58946  -1.41133  -0.5911 
 C                    -1.02564  -0.97666  -1.79302 
 C                    -1.78975  -1.93693  -2.35649 
 O                    -1.16289  -2.96309  -2.95893 
 C                    -2.0661   -3.88921  -3.6668 
 C                    -3.1269   -1.60832  -2.23647 
 C                    -3.35606  -0.44543  -1.58569 
 S                    -1.94242   0.24466  -1.10278 
 C                    -4.65122   0.22091  -1.33586 
 C                    -5.73725   0.23463  -2.2949 
 C                    -6.95804   0.80828  -1.98174 
 F                    -7.86692   0.73333  -3.02143 
 C                    -7.18906   1.39697  -0.73845 
 C                    -6.22343   1.41543   0.22907 
 O                    -6.48273   1.9609    1.38926 
 C                    -5.53482   2.99775   1.80035 
 C                    -4.99616   0.78787  -0.08833 
 C                    -8.52266   1.9734   -0.49272 
 C                    -9.02644   3.20757  -0.63227 
 O                    -8.2234    4.13471  -1.18912 
 C                    -8.55386   5.45159  -0.89767 
 C                    -10.37784   3.37592  -0.27754 
 C                    -10.94211   2.09099   0.17272 
 S                    -9.67207   0.88291   0.11633 
 C                    -12.33221   1.85508   0.60808 
 C                    -13.17719   2.83323   1.00735 
 C                    -14.45723   2.61954   1.40705 
 F                    -15.22868   3.69182   1.68691 
 C                    -14.97971   1.32534   1.28925 
 C                    -14.18134   0.28482   0.97036 
 O                    -14.67132  -1.03799   1.04902 
 C                    -14.26993  -1.89956  -0.01718 
 C                    -12.85753   0.55034   0.58231 
 C                    -16.43646   1.09942   1.63992 
 C                    -17.08931   1.2603    2.82479 
 O                    -16.39817   1.77123   3.96915 
 C                    -17.14876   1.94921   5.14597 
 C                    -18.43358   0.96381   2.79779 
 C                    -18.77266   0.50273   1.45318 
 S                    -17.44187   0.55316   0.39447 
 C                    -20.10539  -0.04802   0.99883 
 C                    -20.91581  -0.69136   1.89731 
 C                    -22.13758  -1.26532   1.36739 
 F                    -22.94553  -1.93535   2.29117 
 C                    -22.56126  -1.00146   0.09575 
 C                    -21.77339  -0.33255  -0.82731 
 O                    -22.20222  -0.12161  -2.06882 
 C                    -21.17233   0.21339  -3.07337 
 C                    -20.48128   0.17818  -0.3146 
 C                    -23.82175  -1.61377  -0.30799 
 C                    -25.08415  -1.15948  -0.02455 
 O                    -25.25534  -0.0248    0.6979 
 C                    -26.52324  -0.05632   1.45185 
 C                    -26.10343  -2.03786  -0.66272 
 C                    -25.62508  -3.04011  -1.33272 
 S                    -23.83565  -3.05134  -1.33884 
 H                     26.3001   4.80704  -0.402 
 H                     25.90036   4.03147   1.88716 
 H                     21.87331   2.26256  -3.56839 
 H                     23.48902   2.9884   -3.82018 
 H                     22.31247   3.68935  -2.65948 
 H                     25.0463   3.83089  -2.24737 
 H                     23.81728  -2.6485    1.90214 
 H                     23.6223  -1.50808   3.33386 
 H                     25.25543  -1.85462   2.70602 
 H                     21.57674  -1.91402   1.81893 
 H                     19.02849  -1.19175   2.98037 
 H                     15.74754   0.20952  -3.12407 
 H                     17.45584   0.03538  -2.94329 
 H                     16.5475   1.1206   -1.85298 
 H                     18.82738  -0.255    -1.26397 
 H                     15.39309  -5.93875   2.352 
 H                     13.99821  -5.81618   1.30844 
 H                     14.10803  -4.87113   2.90755 
 H                     12.41566  -3.95382   1.10483 
 H                     11.56683  -0.71422  -1.65963 
 H                     8.47665  -2.85966   3.33301 
 H                     6.76265  -3.04715   2.98614 
 H                     7.94933  -3.66545   1.82174 
 H                     10.37867  -2.21192   2.14116 
 H                     6.85971   3.19571  -2.19179 
 H                     7.98819   4.01888  -1.14029 
 H                     6.25966   3.72799  -0.5367 
 H                     4.66628   2.02429  -1.09804 
 H                     3.01252   1.04734  -2.77569 
 H                     0.71744  -4.09493  -1.37453 
 H                     1.92131  -4.04824  -0.01088 
 H                     0.26417  -4.52016   0.24143 
 H                     3.09521  -1.95589   0.20893 
 H                    -1.48619  -4.63856  -4.22808 
 H                    -2.80039  -4.3201   -2.96864 
 H                    -2.60544  -3.29233  -4.42655 
 H                    -3.93048  -2.25413  -2.69507 
 H                    -5.56034  -0.23834  -3.23092 
 H                    -4.64088   2.54336   2.16914 
 H                    -5.30105   3.62569   0.91854 
 H                    -5.99452   3.58783   2.60121 
 H                    -4.21076   0.79058   0.68469 
 H                    -9.47264   5.78474  -1.32809 
 H                    -8.55715   5.59921   0.2356 
 H                    -7.75706   6.16739  -1.32345 
 H                    -10.97757   4.23085  -0.38888 
 H                    -12.74657   3.90122   1.04491 
 H                    -14.4033  -1.34037  -1.00917 
 H                    -13.25576  -2.2054    0.09417 
 H                    -14.91539  -2.69161  -0.04745 
 H                    -12.16595  -0.32416   0.25795 
 H                    -17.90827   2.78494   4.91256 
 H                    -17.58703   1.06708   5.46582 
 H                    -16.46409   2.30571   5.87478 
 H                    -19.135    1.01578   3.52832 
 H                    -20.68837  -0.94725   2.92069 
 H                    -20.89314   1.27293  -2.97188 
 H                    -20.34348  -0.51495  -3.04773 
 H                    -21.64583   0.02032  -4.09459 
 H                    -19.94824   0.81672  -0.99082 
 H                    -26.53329   0.8262    2.05841 
 H                    -26.63193  -0.89912   2.02153 
 H                    -27.37116   0.02391   0.76464 
 H                    -27.1902  -1.89469  -0.5742 
 H                    -26.14469  -3.80966  -1.89071 
 
 ITRead=  0  0  0  0  0  0  0  0  0  0  0  0  0  0  0  0  0  0  0  0
 ITRead=  0  0  0  0  0  0  0  0  0  0  0  0  0  0  0  0  0  0  0  0
 ITRead=  0  0  0  0  0  0  0  0  0  0  0  0  0  0  0  0  0  0  0  0
 ITRead=  0  0  0  0  0  0  0  0  0  0  0  0  0  0  0  0  0  0  0  0
 ITRead=  0  0  0  0  0  0  0  0  0  0  0  0  0  0  0  0  0  0  0  0
 ITRead=  0  0  0  0  0  0  0  0  0  0  0  0  0  0  0  0  0  0  0  0
 ITRead=  0  0  0  0  0  0  0  0  0  0  0  0  0  0  0  0  0  0  0  0
 ITRead=  0  0  0  0  0  0  0  0  0  0  0  0  0  0  0  0  0  0  0  0
 ITRead=  0  0  0  0  0  0  0  0  0  0  0  0  0  0  0  0  0
 MicOpt= -1 -1 -1 -1 -1 -1 -1 -1 -1 -1 -1 -1 -1 -1 -1 -1 -1 -1 -1 -1
 MicOpt= -1 -1 -1 -1 -1 -1 -1 -1 -1 -1 -1 -1 -1 -1 -1 -1 -1 -1 -1 -1
 MicOpt= -1 -1 -1 -1 -1 -1 -1 -1 -1 -1 -1 -1 -1 -1 -1 -1 -1 -1 -1 -1
 MicOpt= -1 -1 -1 -1 -1 -1 -1 -1 -1 -1 -1 -1 -1 -1 -1 -1 -1 -1 -1 -1
 MicOpt= -1 -1 -1 -1 -1 -1 -1 -1 -1 -1 -1 -1 -1 -1 -1 -1 -1 -1 -1 -1
 MicOpt= -1 -1 -1 -1 -1 -1 -1 -1 -1 -1 -1 -1 -1 -1 -1 -1 -1 -1 -1 -1
 MicOpt= -1 -1 -1 -1 -1 -1 -1 -1 -1 -1 -1 -1 -1 -1 -1 -1 -1 -1 -1 -1
 MicOpt= -1 -1 -1 -1 -1 -1 -1 -1 -1 -1 -1 -1 -1 -1 -1 -1 -1 -1 -1 -1
 MicOpt= -1 -1 -1 -1 -1 -1 -1 -1 -1 -1 -1 -1 -1 -1 -1 -1 -1
 NAtoms=    177 NQM=      177 NQMF=       0 NMMI=      0 NMMIF=      0
                NMic=       0 NMicF=      0.
                    Isotopes and Nuclear Properties:
 (Nuclear quadrupole moments (NQMom) in fm**2, nuclear magnetic moments (NMagM)
  in nuclear magnetons)

  Atom         1           2           3           4           5           6           7           8           9          10
 IAtWgt=          12          12          12          19          12          12          16          12          12          12
 AtmWgt=  12.0000000  12.0000000  12.0000000  18.9984033  12.0000000  12.0000000  15.9949146  12.0000000  12.0000000  12.0000000
 NucSpn=           0           0           0           1           0           0           0           0           0           0
 AtZEff=  -0.0000000  -0.0000000  -0.0000000  -0.0000000  -0.0000000  -0.0000000  -0.0000000  -0.0000000  -0.0000000  -0.0000000
 NQMom=    0.0000000   0.0000000   0.0000000   0.0000000   0.0000000   0.0000000   0.0000000   0.0000000   0.0000000   0.0000000
 NMagM=    0.0000000   0.0000000   0.0000000   2.6288670   0.0000000   0.0000000   0.0000000   0.0000000   0.0000000   0.0000000
 AtZNuc=   6.0000000   6.0000000   6.0000000   9.0000000   6.0000000   6.0000000   8.0000000   6.0000000   6.0000000   6.0000000

  Atom        11          12          13          14          15          16          17          18          19          20
 IAtWgt=          12          16          12          12          12          32          12          12          12          19
 AtmWgt=  12.0000000  15.9949146  12.0000000  12.0000000  12.0000000  31.9720718  12.0000000  12.0000000  12.0000000  18.9984033
 NucSpn=           0           0           0           0           0           0           0           0           0           1
 AtZEff=  -0.0000000  -0.0000000  -0.0000000  -0.0000000  -0.0000000  -0.0000000  -0.0000000  -0.0000000  -0.0000000  -0.0000000
 NQMom=    0.0000000   0.0000000   0.0000000   0.0000000   0.0000000   0.0000000   0.0000000   0.0000000   0.0000000   0.0000000
 NMagM=    0.0000000   0.0000000   0.0000000   0.0000000   0.0000000   0.0000000   0.0000000   0.0000000   0.0000000   2.6288670
 AtZNuc=   6.0000000   8.0000000   6.0000000   6.0000000   6.0000000  16.0000000   6.0000000   6.0000000   6.0000000   9.0000000

  Atom        21          22          23          24          25          26          27          28          29          30
 IAtWgt=          12          12          16          12          12          12          12          16          12          12
 AtmWgt=  12.0000000  12.0000000  15.9949146  12.0000000  12.0000000  12.0000000  12.0000000  15.9949146  12.0000000  12.0000000
 NucSpn=           0           0           0           0           0           0           0           0           0           0
 AtZEff=  -0.0000000  -0.0000000  -0.0000000  -0.0000000  -0.0000000  -0.0000000  -0.0000000  -0.0000000  -0.0000000  -0.0000000
 NQMom=    0.0000000   0.0000000   0.0000000   0.0000000   0.0000000   0.0000000   0.0000000   0.0000000   0.0000000   0.0000000
 NMagM=    0.0000000   0.0000000   0.0000000   0.0000000   0.0000000   0.0000000   0.0000000   0.0000000   0.0000000   0.0000000
 AtZNuc=   6.0000000   6.0000000   8.0000000   6.0000000   6.0000000   6.0000000   6.0000000   8.0000000   6.0000000   6.0000000

  Atom        31          32          33          34          35          36          37          38          39          40
 IAtWgt=          12          32          12          12          12          19          12          12          16          12
 AtmWgt=  12.0000000  31.9720718  12.0000000  12.0000000  12.0000000  18.9984033  12.0000000  12.0000000  15.9949146  12.0000000
 NucSpn=           0           0           0           0           0           1           0           0           0           0
 AtZEff=  -0.0000000  -0.0000000  -0.0000000  -0.0000000  -0.0000000  -0.0000000  -0.0000000  -0.0000000  -0.0000000  -0.0000000
 NQMom=    0.0000000   0.0000000   0.0000000   0.0000000   0.0000000   0.0000000   0.0000000   0.0000000   0.0000000   0.0000000
 NMagM=    0.0000000   0.0000000   0.0000000   0.0000000   0.0000000   2.6288670   0.0000000   0.0000000   0.0000000   0.0000000
 AtZNuc=   6.0000000  16.0000000   6.0000000   6.0000000   6.0000000   9.0000000   6.0000000   6.0000000   8.0000000   6.0000000

  Atom        41          42          43          44          45          46          47          48          49          50
 IAtWgt=          12          12          12          16          12          12          12          32          12          12
 AtmWgt=  12.0000000  12.0000000  12.0000000  15.9949146  12.0000000  12.0000000  12.0000000  31.9720718  12.0000000  12.0000000
 NucSpn=           0           0           0           0           0           0           0           0           0           0
 AtZEff=  -0.0000000  -0.0000000  -0.0000000  -0.0000000  -0.0000000  -0.0000000  -0.0000000  -0.0000000  -0.0000000  -0.0000000
 NQMom=    0.0000000   0.0000000   0.0000000   0.0000000   0.0000000   0.0000000   0.0000000   0.0000000   0.0000000   0.0000000
 NMagM=    0.0000000   0.0000000   0.0000000   0.0000000   0.0000000   0.0000000   0.0000000   0.0000000   0.0000000   0.0000000
 AtZNuc=   6.0000000   6.0000000   6.0000000   8.0000000   6.0000000   6.0000000   6.0000000  16.0000000   6.0000000   6.0000000

  Atom        51          52          53          54          55          56          57          58          59          60
 IAtWgt=          12          19          12          12          16          12          12          12          12          16
 AtmWgt=  12.0000000  18.9984033  12.0000000  12.0000000  15.9949146  12.0000000  12.0000000  12.0000000  12.0000000  15.9949146
 NucSpn=           0           1           0           0           0           0           0           0           0           0
 AtZEff=  -0.0000000  -0.0000000  -0.0000000  -0.0000000  -0.0000000  -0.0000000  -0.0000000  -0.0000000  -0.0000000  -0.0000000
 NQMom=    0.0000000   0.0000000   0.0000000   0.0000000   0.0000000   0.0000000   0.0000000   0.0000000   0.0000000   0.0000000
 NMagM=    0.0000000   2.6288670   0.0000000   0.0000000   0.0000000   0.0000000   0.0000000   0.0000000   0.0000000   0.0000000
 AtZNuc=   6.0000000   9.0000000   6.0000000   6.0000000   8.0000000   6.0000000   6.0000000   6.0000000   6.0000000   8.0000000

  Atom        61          62          63          64          65          66          67          68          69          70
 IAtWgt=          12          12          12          32          12          12          12          19          12          12
 AtmWgt=  12.0000000  12.0000000  12.0000000  31.9720718  12.0000000  12.0000000  12.0000000  18.9984033  12.0000000  12.0000000
 NucSpn=           0           0           0           0           0           0           0           1           0           0
 AtZEff=  -0.0000000  -0.0000000  -0.0000000  -0.0000000  -0.0000000  -0.0000000  -0.0000000  -0.0000000  -0.0000000  -0.0000000
 NQMom=    0.0000000   0.0000000   0.0000000   0.0000000   0.0000000   0.0000000   0.0000000   0.0000000   0.0000000   0.0000000
 NMagM=    0.0000000   0.0000000   0.0000000   0.0000000   0.0000000   0.0000000   0.0000000   2.6288670   0.0000000   0.0000000
 AtZNuc=   6.0000000   6.0000000   6.0000000  16.0000000   6.0000000   6.0000000   6.0000000   9.0000000   6.0000000   6.0000000

  Atom        71          72          73          74          75          76          77          78          79          80
 IAtWgt=          16          12          12          12          12          16          12          12          12          32
 AtmWgt=  15.9949146  12.0000000  12.0000000  12.0000000  12.0000000  15.9949146  12.0000000  12.0000000  12.0000000  31.9720718
 NucSpn=           0           0           0           0           0           0           0           0           0           0
 AtZEff=  -0.0000000  -0.0000000  -0.0000000  -0.0000000  -0.0000000  -0.0000000  -0.0000000  -0.0000000  -0.0000000  -0.0000000
 NQMom=    0.0000000   0.0000000   0.0000000   0.0000000   0.0000000   0.0000000   0.0000000   0.0000000   0.0000000   0.0000000
 NMagM=    0.0000000   0.0000000   0.0000000   0.0000000   0.0000000   0.0000000   0.0000000   0.0000000   0.0000000   0.0000000
 AtZNuc=   8.0000000   6.0000000   6.0000000   6.0000000   6.0000000   8.0000000   6.0000000   6.0000000   6.0000000  16.0000000

  Atom        81          82          83          84          85          86          87          88          89          90
 IAtWgt=          12          12          12          19          12          12          16          12          12          12
 AtmWgt=  12.0000000  12.0000000  12.0000000  18.9984033  12.0000000  12.0000000  15.9949146  12.0000000  12.0000000  12.0000000
 NucSpn=           0           0           0           1           0           0           0           0           0           0
 AtZEff=  -0.0000000  -0.0000000  -0.0000000  -0.0000000  -0.0000000  -0.0000000  -0.0000000  -0.0000000  -0.0000000  -0.0000000
 NQMom=    0.0000000   0.0000000   0.0000000   0.0000000   0.0000000   0.0000000   0.0000000   0.0000000   0.0000000   0.0000000
 NMagM=    0.0000000   0.0000000   0.0000000   2.6288670   0.0000000   0.0000000   0.0000000   0.0000000   0.0000000   0.0000000
 AtZNuc=   6.0000000   6.0000000   6.0000000   9.0000000   6.0000000   6.0000000   8.0000000   6.0000000   6.0000000   6.0000000

  Atom        91          92          93          94          95          96          97          98          99         100
 IAtWgt=          12          16          12          12          12          32          12          12          12          19
 AtmWgt=  12.0000000  15.9949146  12.0000000  12.0000000  12.0000000  31.9720718  12.0000000  12.0000000  12.0000000  18.9984033
 NucSpn=           0           0           0           0           0           0           0           0           0           1
 AtZEff=  -0.0000000  -0.0000000  -0.0000000  -0.0000000  -0.0000000  -0.0000000  -0.0000000  -0.0000000  -0.0000000  -0.0000000
 NQMom=    0.0000000   0.0000000   0.0000000   0.0000000   0.0000000   0.0000000   0.0000000   0.0000000   0.0000000   0.0000000
 NMagM=    0.0000000   0.0000000   0.0000000   0.0000000   0.0000000   0.0000000   0.0000000   0.0000000   0.0000000   2.6288670
 AtZNuc=   6.0000000   8.0000000   6.0000000   6.0000000   6.0000000  16.0000000   6.0000000   6.0000000   6.0000000   9.0000000

  Atom       101         102         103         104         105         106         107         108         109         110
 IAtWgt=          12          12          16          12          12          12          12          16          12          12
 AtmWgt=  12.0000000  12.0000000  15.9949146  12.0000000  12.0000000  12.0000000  12.0000000  15.9949146  12.0000000  12.0000000
 NucSpn=           0           0           0           0           0           0           0           0           0           0
 AtZEff=  -0.0000000  -0.0000000  -0.0000000  -0.0000000  -0.0000000  -0.0000000  -0.0000000  -0.0000000  -0.0000000  -0.0000000
 NQMom=    0.0000000   0.0000000   0.0000000   0.0000000   0.0000000   0.0000000   0.0000000   0.0000000   0.0000000   0.0000000
 NMagM=    0.0000000   0.0000000   0.0000000   0.0000000   0.0000000   0.0000000   0.0000000   0.0000000   0.0000000   0.0000000
 AtZNuc=   6.0000000   6.0000000   8.0000000   6.0000000   6.0000000   6.0000000   6.0000000   8.0000000   6.0000000   6.0000000

  Atom       111         112         113         114         115         116         117         118         119         120
 IAtWgt=          12          32           1           1           1           1           1           1           1           1
 AtmWgt=  12.0000000  31.9720718   1.0078250   1.0078250   1.0078250   1.0078250   1.0078250   1.0078250   1.0078250   1.0078250
 NucSpn=           0           0           1           1           1           1           1           1           1           1
 AtZEff=  -0.0000000  -0.0000000  -0.0000000  -0.0000000  -0.0000000  -0.0000000  -0.0000000  -0.0000000  -0.0000000  -0.0000000
 NQMom=    0.0000000   0.0000000   0.0000000   0.0000000   0.0000000   0.0000000   0.0000000   0.0000000   0.0000000   0.0000000
 NMagM=    0.0000000   0.0000000   2.7928460   2.7928460   2.7928460   2.7928460   2.7928460   2.7928460   2.7928460   2.7928460
 AtZNuc=   6.0000000  16.0000000   1.0000000   1.0000000   1.0000000   1.0000000   1.0000000   1.0000000   1.0000000   1.0000000

  Atom       121         122         123         124         125         126         127         128         129         130
 IAtWgt=           1           1           1           1           1           1           1           1           1           1
 AtmWgt=   1.0078250   1.0078250   1.0078250   1.0078250   1.0078250   1.0078250   1.0078250   1.0078250   1.0078250   1.0078250
 NucSpn=           1           1           1           1           1           1           1           1           1           1
 AtZEff=  -0.0000000  -0.0000000  -0.0000000  -0.0000000  -0.0000000  -0.0000000  -0.0000000  -0.0000000  -0.0000000  -0.0000000
 NQMom=    0.0000000   0.0000000   0.0000000   0.0000000   0.0000000   0.0000000   0.0000000   0.0000000   0.0000000   0.0000000
 NMagM=    2.7928460   2.7928460   2.7928460   2.7928460   2.7928460   2.7928460   2.7928460   2.7928460   2.7928460   2.7928460
 AtZNuc=   1.0000000   1.0000000   1.0000000   1.0000000   1.0000000   1.0000000   1.0000000   1.0000000   1.0000000   1.0000000

  Atom       131         132         133         134         135         136         137         138         139         140
 IAtWgt=           1           1           1           1           1           1           1           1           1           1
 AtmWgt=   1.0078250   1.0078250   1.0078250   1.0078250   1.0078250   1.0078250   1.0078250   1.0078250   1.0078250   1.0078250
 NucSpn=           1           1           1           1           1           1           1           1           1           1
 AtZEff=  -0.0000000  -0.0000000  -0.0000000  -0.0000000  -0.0000000  -0.0000000  -0.0000000  -0.0000000  -0.0000000  -0.0000000
 NQMom=    0.0000000   0.0000000   0.0000000   0.0000000   0.0000000   0.0000000   0.0000000   0.0000000   0.0000000   0.0000000
 NMagM=    2.7928460   2.7928460   2.7928460   2.7928460   2.7928460   2.7928460   2.7928460   2.7928460   2.7928460   2.7928460
 AtZNuc=   1.0000000   1.0000000   1.0000000   1.0000000   1.0000000   1.0000000   1.0000000   1.0000000   1.0000000   1.0000000

  Atom       141         142         143         144         145         146         147         148         149         150
 IAtWgt=           1           1           1           1           1           1           1           1           1           1
 AtmWgt=   1.0078250   1.0078250   1.0078250   1.0078250   1.0078250   1.0078250   1.0078250   1.0078250   1.0078250   1.0078250
 NucSpn=           1           1           1           1           1           1           1           1           1           1
 AtZEff=  -0.0000000  -0.0000000  -0.0000000  -0.0000000  -0.0000000  -0.0000000  -0.0000000  -0.0000000  -0.0000000  -0.0000000
 NQMom=    0.0000000   0.0000000   0.0000000   0.0000000   0.0000000   0.0000000   0.0000000   0.0000000   0.0000000   0.0000000
 NMagM=    2.7928460   2.7928460   2.7928460   2.7928460   2.7928460   2.7928460   2.7928460   2.7928460   2.7928460   2.7928460
 AtZNuc=   1.0000000   1.0000000   1.0000000   1.0000000   1.0000000   1.0000000   1.0000000   1.0000000   1.0000000   1.0000000

  Atom       151         152         153         154         155         156         157         158         159         160
 IAtWgt=           1           1           1           1           1           1           1           1           1           1
 AtmWgt=   1.0078250   1.0078250   1.0078250   1.0078250   1.0078250   1.0078250   1.0078250   1.0078250   1.0078250   1.0078250
 NucSpn=           1           1           1           1           1           1           1           1           1           1
 AtZEff=  -0.0000000  -0.0000000  -0.0000000  -0.0000000  -0.0000000  -0.0000000  -0.0000000  -0.0000000  -0.0000000  -0.0000000
 NQMom=    0.0000000   0.0000000   0.0000000   0.0000000   0.0000000   0.0000000   0.0000000   0.0000000   0.0000000   0.0000000
 NMagM=    2.7928460   2.7928460   2.7928460   2.7928460   2.7928460   2.7928460   2.7928460   2.7928460   2.7928460   2.7928460
 AtZNuc=   1.0000000   1.0000000   1.0000000   1.0000000   1.0000000   1.0000000   1.0000000   1.0000000   1.0000000   1.0000000

  Atom       161         162         163         164         165         166         167         168         169         170
 IAtWgt=           1           1           1           1           1           1           1           1           1           1
 AtmWgt=   1.0078250   1.0078250   1.0078250   1.0078250   1.0078250   1.0078250   1.0078250   1.0078250   1.0078250   1.0078250
 NucSpn=           1           1           1           1           1           1           1           1           1           1
 AtZEff=  -0.0000000  -0.0000000  -0.0000000  -0.0000000  -0.0000000  -0.0000000  -0.0000000  -0.0000000  -0.0000000  -0.0000000
 NQMom=    0.0000000   0.0000000   0.0000000   0.0000000   0.0000000   0.0000000   0.0000000   0.0000000   0.0000000   0.0000000
 NMagM=    2.7928460   2.7928460   2.7928460   2.7928460   2.7928460   2.7928460   2.7928460   2.7928460   2.7928460   2.7928460
 AtZNuc=   1.0000000   1.0000000   1.0000000   1.0000000   1.0000000   1.0000000   1.0000000   1.0000000   1.0000000   1.0000000

  Atom       171         172         173         174         175         176         177
 IAtWgt=           1           1           1           1           1           1           1
 AtmWgt=   1.0078250   1.0078250   1.0078250   1.0078250   1.0078250   1.0078250   1.0078250
 NucSpn=           1           1           1           1           1           1           1
 AtZEff=  -0.0000000  -0.0000000  -0.0000000  -0.0000000  -0.0000000  -0.0000000  -0.0000000
 NQMom=    0.0000000   0.0000000   0.0000000   0.0000000   0.0000000   0.0000000   0.0000000
 NMagM=    2.7928460   2.7928460   2.7928460   2.7928460   2.7928460   2.7928460   2.7928460
 AtZNuc=   1.0000000   1.0000000   1.0000000   1.0000000   1.0000000   1.0000000   1.0000000
 Leave Link  101 at Fri Jul 24 12:11:58 2020, MaxMem=  4026531840 cpu:               3.4 elap:               0.5
 (Enter /opt/ohpc/pub/libs/gaussian/g16-A.03/sandybridge/g16/l103.exe)

 GradGradGradGradGradGradGradGradGradGradGradGradGradGradGradGradGradGrad
 Berny optimization.
 Initialization pass.
                           ----------------------------
                           !    Initial Parameters    !
                           ! (Angstroms and Degrees)  !
 --------------------------                            --------------------------
 ! Name  Definition              Value          Derivative Info.                !
 --------------------------------------------------------------------------------
 ! R1    R(1,2)                  1.3976         estimate D2E/DX2                !
 ! R2    R(1,9)                  1.4256         estimate D2E/DX2                !
 ! R3    R(1,113)                1.0615         estimate D2E/DX2                !
 ! R4    R(2,3)                  1.3326         estimate D2E/DX2                !
 ! R5    R(2,114)                1.0926         estimate D2E/DX2                !
 ! R6    R(3,4)                  1.3463         estimate D2E/DX2                !
 ! R7    R(3,5)                  1.4455         estimate D2E/DX2                !
 ! R8    R(5,6)                  1.3887         estimate D2E/DX2                !
 ! R9    R(5,10)                 1.4584         estimate D2E/DX2                !
 ! R10   R(6,7)                  1.3028         estimate D2E/DX2                !
 ! R11   R(6,9)                  1.4056         estimate D2E/DX2                !
 ! R12   R(7,8)                  1.4547         estimate D2E/DX2                !
 ! R13   R(8,115)                1.0628         estimate D2E/DX2                !
 ! R14   R(8,116)                1.1398         estimate D2E/DX2                !
 ! R15   R(8,117)                1.0503         estimate D2E/DX2                !
 ! R16   R(9,118)                1.0511         estimate D2E/DX2                !
 ! R17   R(10,11)                1.4342         estimate D2E/DX2                !
 ! R18   R(10,16)                1.6926         estimate D2E/DX2                !
 ! R19   R(11,12)                1.3991         estimate D2E/DX2                !
 ! R20   R(11,14)                1.3475         estimate D2E/DX2                !
 ! R21   R(12,13)                1.3834         estimate D2E/DX2                !
 ! R22   R(13,119)               1.1221         estimate D2E/DX2                !
 ! R23   R(13,120)               1.096          estimate D2E/DX2                !
 ! R24   R(13,121)               1.1853         estimate D2E/DX2                !
 ! R25   R(14,15)                1.3742         estimate D2E/DX2                !
 ! R26   R(14,122)               1.1391         estimate D2E/DX2                !
 ! R27   R(15,16)                1.7768         estimate D2E/DX2                !
 ! R28   R(15,17)                1.4286         estimate D2E/DX2                !
 ! R29   R(17,18)                1.4391         estimate D2E/DX2                !
 ! R30   R(17,25)                1.4074         estimate D2E/DX2                !
 ! R31   R(18,19)                1.3886         estimate D2E/DX2                !
 ! R32   R(18,123)               1.1181         estimate D2E/DX2                !
 ! R33   R(19,20)                1.3512         estimate D2E/DX2                !
 ! R34   R(19,21)                1.4039         estimate D2E/DX2                !
 ! R35   R(21,22)                1.4693         estimate D2E/DX2                !
 ! R36   R(21,26)                1.456          estimate D2E/DX2                !
 ! R37   R(22,23)                1.3419         estimate D2E/DX2                !
 ! R38   R(22,25)                1.4237         estimate D2E/DX2                !
 ! R39   R(23,24)                1.4271         estimate D2E/DX2                !
 ! R40   R(24,124)               1.1141         estimate D2E/DX2                !
 ! R41   R(24,125)               1.0404         estimate D2E/DX2                !
 ! R42   R(24,126)               1.0536         estimate D2E/DX2                !
 ! R43   R(25,127)               1.0183         estimate D2E/DX2                !
 ! R44   R(26,27)                1.4152         estimate D2E/DX2                !
 ! R45   R(26,32)                1.6823         estimate D2E/DX2                !
 ! R46   R(27,28)                1.447          estimate D2E/DX2                !
 ! R47   R(27,30)                1.436          estimate D2E/DX2                !
 ! R48   R(28,29)                1.3947         estimate D2E/DX2                !
 ! R49   R(29,128)               1.0703         estimate D2E/DX2                !
 ! R50   R(29,129)               1.0881         estimate D2E/DX2                !
 ! R51   R(29,130)               1.1151         estimate D2E/DX2                !
 ! R52   R(30,31)                1.4147         estimate D2E/DX2                !
 ! R53   R(30,131)               0.9919         estimate D2E/DX2                !
 ! R54   R(31,32)                1.6962         estimate D2E/DX2                !
 ! R55   R(31,33)                1.3988         estimate D2E/DX2                !
 ! R56   R(33,34)                1.4113         estimate D2E/DX2                !
 ! R57   R(33,41)                1.4383         estimate D2E/DX2                !
 ! R58   R(34,35)                1.3385         estimate D2E/DX2                !
 ! R59   R(34,132)               1.1477         estimate D2E/DX2                !
 ! R60   R(35,36)                1.3007         estimate D2E/DX2                !
 ! R61   R(35,37)                1.4764         estimate D2E/DX2                !
 ! R62   R(37,38)                1.3539         estimate D2E/DX2                !
 ! R63   R(37,42)                1.5298         estimate D2E/DX2                !
 ! R64   R(38,39)                1.3909         estimate D2E/DX2                !
 ! R65   R(38,41)                1.4574         estimate D2E/DX2                !
 ! R66   R(39,40)                1.4582         estimate D2E/DX2                !
 ! R67   R(40,133)               1.0179         estimate D2E/DX2                !
 ! R68   R(40,134)               1.1283         estimate D2E/DX2                !
 ! R69   R(40,135)               1.0881         estimate D2E/DX2                !
 ! R70   R(41,136)               1.0023         estimate D2E/DX2                !
 ! R71   R(42,43)                1.3096         estimate D2E/DX2                !
 ! R72   R(42,48)                1.6727         estimate D2E/DX2                !
 ! R73   R(43,44)                1.3343         estimate D2E/DX2                !
 ! R74   R(43,46)                1.491          estimate D2E/DX2                !
 ! R75   R(44,45)                1.4098         estimate D2E/DX2                !
 ! R76   R(45,137)               1.0873         estimate D2E/DX2                !
 ! R77   R(45,138)               1.1633         estimate D2E/DX2                !
 ! R78   R(45,139)               1.145          estimate D2E/DX2                !
 ! R79   R(46,47)                1.4552         estimate D2E/DX2                !
 ! R80   R(46,140)               1.0459         estimate D2E/DX2                !
 ! R81   R(47,48)                1.6529         estimate D2E/DX2                !
 ! R82   R(47,49)                1.4415         estimate D2E/DX2                !
 ! R83   R(49,50)                1.4055         estimate D2E/DX2                !
 ! R84   R(49,57)                1.3309         estimate D2E/DX2                !
 ! R85   R(50,51)                1.3835         estimate D2E/DX2                !
 ! R86   R(50,141)               1.0365         estimate D2E/DX2                !
 ! R87   R(51,52)                1.3669         estimate D2E/DX2                !
 ! R88   R(51,53)                1.411          estimate D2E/DX2                !
 ! R89   R(53,54)                1.3718         estimate D2E/DX2                !
 ! R90   R(53,58)                1.525          estimate D2E/DX2                !
 ! R91   R(54,55)                1.4393         estimate D2E/DX2                !
 ! R92   R(54,57)                1.4147         estimate D2E/DX2                !
 ! R93   R(55,56)                1.4323         estimate D2E/DX2                !
 ! R94   R(56,142)               1.1124         estimate D2E/DX2                !
 ! R95   R(56,143)               1.0188         estimate D2E/DX2                !
 ! R96   R(56,144)               1.073          estimate D2E/DX2                !
 ! R97   R(57,145)               1.092          estimate D2E/DX2                !
 ! R98   R(58,59)                1.3504         estimate D2E/DX2                !
 ! R99   R(58,64)                1.6759         estimate D2E/DX2                !
 ! R100  R(59,60)                1.345          estimate D2E/DX2                !
 ! R101  R(59,62)                1.3822         estimate D2E/DX2                !
 ! R102  R(60,61)                1.4746         estimate D2E/DX2                !
 ! R103  R(61,146)               1.1013         estimate D2E/DX2                !
 ! R104  R(61,147)               1.101          estimate D2E/DX2                !
 ! R105  R(61,148)               1.1065         estimate D2E/DX2                !
 ! R106  R(62,63)                1.3522         estimate D2E/DX2                !
 ! R107  R(62,149)               1.1283         estimate D2E/DX2                !
 ! R108  R(63,64)                1.6455         estimate D2E/DX2                !
 ! R109  R(63,65)                1.4778         estimate D2E/DX2                !
 ! R110  R(65,66)                1.4489         estimate D2E/DX2                !
 ! R111  R(65,73)                1.4131         estimate D2E/DX2                !
 ! R112  R(66,67)                1.3847         estimate D2E/DX2                !
 ! R113  R(66,150)               1.0635         estimate D2E/DX2                !
 ! R114  R(67,68)                1.383          estimate D2E/DX2                !
 ! R115  R(67,69)                1.3949         estimate D2E/DX2                !
 ! R116  R(69,70)                1.3671         estimate D2E/DX2                !
 ! R117  R(69,74)                1.4735         estimate D2E/DX2                !
 ! R118  R(70,71)                1.308          estimate D2E/DX2                !
 ! R119  R(70,73)                1.4145         estimate D2E/DX2                !
 ! R120  R(71,72)                1.4638         estimate D2E/DX2                !
 ! R121  R(72,151)               1.0685         estimate D2E/DX2                !
 ! R122  R(72,152)               1.1075         estimate D2E/DX2                !
 ! R123  R(72,153)               1.0959         estimate D2E/DX2                !
 ! R124  R(73,154)               1.102          estimate D2E/DX2                !
 ! R125  R(74,75)                1.3403         estimate D2E/DX2                !
 ! R126  R(74,80)                1.6974         estimate D2E/DX2                !
 ! R127  R(75,76)                1.347          estimate D2E/DX2                !
 ! R128  R(75,78)                1.4073         estimate D2E/DX2                !
 ! R129  R(76,77)                1.3886         estimate D2E/DX2                !
 ! R130  R(77,155)               1.0679         estimate D2E/DX2                !
 ! R131  R(77,156)               1.1428         estimate D2E/DX2                !
 ! R132  R(77,157)               1.1526         estimate D2E/DX2                !
 ! R133  R(78,79)                1.4738         estimate D2E/DX2                !
 ! R134  R(78,158)               1.0502         estimate D2E/DX2                !
 ! R135  R(79,80)                1.7538         estimate D2E/DX2                !
 ! R136  R(79,81)                1.4757         estimate D2E/DX2                !
 ! R137  R(81,82)                1.3528         estimate D2E/DX2                !
 ! R138  R(81,89)                1.4068         estimate D2E/DX2                !
 ! R139  R(82,83)                1.3579         estimate D2E/DX2                !
 ! R140  R(82,159)               1.1521         estimate D2E/DX2                !
 ! R141  R(83,84)                1.3503         estimate D2E/DX2                !
 ! R142  R(83,85)                1.4007         estimate D2E/DX2                !
 ! R143  R(85,86)                1.3497         estimate D2E/DX2                !
 ! R144  R(85,90)                1.5153         estimate D2E/DX2                !
 ! R145  R(86,87)                1.4128         estimate D2E/DX2                !
 ! R146  R(86,89)                1.4048         estimate D2E/DX2                !
 ! R147  R(87,88)                1.4284         estimate D2E/DX2                !
 ! R148  R(88,160)               1.1465         estimate D2E/DX2                !
 ! R149  R(88,161)               1.0651         estimate D2E/DX2                !
 ! R150  R(88,162)               1.0222         estimate D2E/DX2                !
 ! R151  R(89,163)               1.1611         estimate D2E/DX2                !
 ! R152  R(90,91)                1.3624         estimate D2E/DX2                !
 ! R153  R(90,96)                1.6913         estimate D2E/DX2                !
 ! R154  R(91,92)                1.4312         estimate D2E/DX2                !
 ! R155  R(91,94)                1.3768         estimate D2E/DX2                !
 ! R156  R(92,93)                1.4071         estimate D2E/DX2                !
 ! R157  R(93,164)               1.1532         estimate D2E/DX2                !
 ! R158  R(93,165)               1.0356         estimate D2E/DX2                !
 ! R159  R(93,166)               1.0616         estimate D2E/DX2                !
 ! R160  R(94,95)                1.4614         estimate D2E/DX2                !
 ! R161  R(94,167)               1.0141         estimate D2E/DX2                !
 ! R162  R(95,96)                1.7013         estimate D2E/DX2                !
 ! R163  R(95,97)                1.5119         estimate D2E/DX2                !
 ! R164  R(97,98)                1.3704         estimate D2E/DX2                !
 ! R165  R(97,105)               1.3848         estimate D2E/DX2                !
 ! R166  R(98,99)                1.4502         estimate D2E/DX2                !
 ! R167  R(98,168)               1.0791         estimate D2E/DX2                !
 ! R168  R(99,100)               1.3983         estimate D2E/DX2                !
 ! R169  R(99,101)               1.3661         estimate D2E/DX2                !
 ! R170  R(101,102)              1.3857         estimate D2E/DX2                !
 ! R171  R(101,106)              1.4583         estimate D2E/DX2                !
 ! R172  R(102,103)              1.3303         estimate D2E/DX2                !
 ! R173  R(102,105)              1.481          estimate D2E/DX2                !
 ! R174  R(103,104)              1.4772         estimate D2E/DX2                !
 ! R175  R(104,169)              1.1004         estimate D2E/DX2                !
 ! R176  R(104,170)              1.1037         estimate D2E/DX2                !
 ! R177  R(104,171)              1.1421         estimate D2E/DX2                !
 ! R178  R(105,172)              1.072          estimate D2E/DX2                !
 ! R179  R(106,107)              1.3713         estimate D2E/DX2                !
 ! R180  R(106,112)              1.769          estimate D2E/DX2                !
 ! R181  R(107,108)              1.356          estimate D2E/DX2                !
 ! R182  R(107,110)              1.4892         estimate D2E/DX2                !
 ! R183  R(108,109)              1.4755         estimate D2E/DX2                !
 ! R184  R(109,173)              1.0709         estimate D2E/DX2                !
 ! R185  R(109,174)              1.0231         estimate D2E/DX2                !
 ! R186  R(109,175)              1.0944         estimate D2E/DX2                !
 ! R187  R(110,111)              1.297          estimate D2E/DX2                !
 ! R188  R(110,176)              1.0997         estimate D2E/DX2                !
 ! R189  R(111,112)              1.7895         estimate D2E/DX2                !
 ! R190  R(111,177)              1.0833         estimate D2E/DX2                !
 ! A1    A(2,1,9)              117.3503         estimate D2E/DX2                !
 ! A2    A(2,1,113)            117.6974         estimate D2E/DX2                !
 ! A3    A(9,1,113)            124.3319         estimate D2E/DX2                !
 ! A4    A(1,2,3)              120.5664         estimate D2E/DX2                !
 ! A5    A(1,2,114)            120.6273         estimate D2E/DX2                !
 ! A6    A(3,2,114)            118.7257         estimate D2E/DX2                !
 ! A7    A(2,3,4)              118.318          estimate D2E/DX2                !
 ! A8    A(2,3,5)              124.2907         estimate D2E/DX2                !
 ! A9    A(4,3,5)              117.3781         estimate D2E/DX2                !
 ! A10   A(3,5,6)              115.3976         estimate D2E/DX2                !
 ! A11   A(3,5,10)             122.1311         estimate D2E/DX2                !
 ! A12   A(6,5,10)             122.4048         estimate D2E/DX2                !
 ! A13   A(5,6,7)              119.568          estimate D2E/DX2                !
 ! A14   A(5,6,9)              121.0326         estimate D2E/DX2                !
 ! A15   A(7,6,9)              119.338          estimate D2E/DX2                !
 ! A16   A(6,7,8)              118.9413         estimate D2E/DX2                !
 ! A17   A(7,8,115)            108.5226         estimate D2E/DX2                !
 ! A18   A(7,8,116)            109.458          estimate D2E/DX2                !
 ! A19   A(7,8,117)            108.5895         estimate D2E/DX2                !
 ! A20   A(115,8,116)          108.5825         estimate D2E/DX2                !
 ! A21   A(115,8,117)          111.6118         estimate D2E/DX2                !
 ! A22   A(116,8,117)          110.0429         estimate D2E/DX2                !
 ! A23   A(1,9,6)              121.0871         estimate D2E/DX2                !
 ! A24   A(1,9,118)            112.8838         estimate D2E/DX2                !
 ! A25   A(6,9,118)            126.0278         estimate D2E/DX2                !
 ! A26   A(5,10,11)            128.0171         estimate D2E/DX2                !
 ! A27   A(5,10,16)            119.434          estimate D2E/DX2                !
 ! A28   A(11,10,16)           112.5189         estimate D2E/DX2                !
 ! A29   A(10,11,12)           118.1279         estimate D2E/DX2                !
 ! A30   A(10,11,14)           109.7578         estimate D2E/DX2                !
 ! A31   A(12,11,14)           131.7503         estimate D2E/DX2                !
 ! A32   A(11,12,13)           109.8169         estimate D2E/DX2                !
 ! A33   A(12,13,119)          115.7008         estimate D2E/DX2                !
 ! A34   A(12,13,120)          113.2849         estimate D2E/DX2                !
 ! A35   A(12,13,121)          106.6596         estimate D2E/DX2                !
 ! A36   A(119,13,120)         112.1617         estimate D2E/DX2                !
 ! A37   A(119,13,121)         104.8227         estimate D2E/DX2                !
 ! A38   A(120,13,121)         102.7871         estimate D2E/DX2                !
 ! A39   A(11,14,15)           118.3236         estimate D2E/DX2                !
 ! A40   A(11,14,122)          122.3377         estimate D2E/DX2                !
 ! A41   A(15,14,122)          119.3275         estimate D2E/DX2                !
 ! A42   A(14,15,16)           107.7204         estimate D2E/DX2                !
 ! A43   A(14,15,17)           136.4466         estimate D2E/DX2                !
 ! A44   A(16,15,17)           115.797          estimate D2E/DX2                !
 ! A45   A(10,16,15)            91.6225         estimate D2E/DX2                !
 ! A46   A(15,17,18)           118.2426         estimate D2E/DX2                !
 ! A47   A(15,17,25)           120.947          estimate D2E/DX2                !
 ! A48   A(18,17,25)           119.9177         estimate D2E/DX2                !
 ! A49   A(17,18,19)           120.7836         estimate D2E/DX2                !
 ! A50   A(17,18,123)          120.8595         estimate D2E/DX2                !
 ! A51   A(19,18,123)          117.6106         estimate D2E/DX2                !
 ! A52   A(18,19,20)           120.3818         estimate D2E/DX2                !
 ! A53   A(18,19,21)           119.7238         estimate D2E/DX2                !
 ! A54   A(20,19,21)           119.872          estimate D2E/DX2                !
 ! A55   A(19,21,22)           120.855          estimate D2E/DX2                !
 ! A56   A(19,21,26)           119.1799         estimate D2E/DX2                !
 ! A57   A(22,21,26)           119.8923         estimate D2E/DX2                !
 ! A58   A(21,22,23)           118.0918         estimate D2E/DX2                !
 ! A59   A(21,22,25)           117.9284         estimate D2E/DX2                !
 ! A60   A(23,22,25)           123.9524         estimate D2E/DX2                !
 ! A61   A(22,23,24)           114.1247         estimate D2E/DX2                !
 ! A62   A(23,24,124)          102.8084         estimate D2E/DX2                !
 ! A63   A(23,24,125)          110.656          estimate D2E/DX2                !
 ! A64   A(23,24,126)          110.4607         estimate D2E/DX2                !
 ! A65   A(124,24,125)         106.481          estimate D2E/DX2                !
 ! A66   A(124,24,126)         108.2296         estimate D2E/DX2                !
 ! A67   A(125,24,126)         117.1139         estimate D2E/DX2                !
 ! A68   A(17,25,22)           120.2618         estimate D2E/DX2                !
 ! A69   A(17,25,127)          123.4293         estimate D2E/DX2                !
 ! A70   A(22,25,127)          116.3071         estimate D2E/DX2                !
 ! A71   A(21,26,27)           131.9047         estimate D2E/DX2                !
 ! A72   A(21,26,32)           122.1408         estimate D2E/DX2                !
 ! A73   A(27,26,32)           105.949          estimate D2E/DX2                !
 ! A74   A(26,27,28)           116.8177         estimate D2E/DX2                !
 ! A75   A(26,27,30)           116.7763         estimate D2E/DX2                !
 ! A76   A(28,27,30)           126.4022         estimate D2E/DX2                !
 ! A77   A(27,28,29)           114.0083         estimate D2E/DX2                !
 ! A78   A(28,29,128)          106.5943         estimate D2E/DX2                !
 ! A79   A(28,29,129)          112.5426         estimate D2E/DX2                !
 ! A80   A(28,29,130)          106.6795         estimate D2E/DX2                !
 ! A81   A(128,29,129)         108.0134         estimate D2E/DX2                !
 ! A82   A(128,29,130)         107.3242         estimate D2E/DX2                !
 ! A83   A(129,29,130)         115.2451         estimate D2E/DX2                !
 ! A84   A(27,30,31)           109.4612         estimate D2E/DX2                !
 ! A85   A(27,30,131)          125.5387         estimate D2E/DX2                !
 ! A86   A(31,30,131)          124.7964         estimate D2E/DX2                !
 ! A87   A(30,31,32)           109.5612         estimate D2E/DX2                !
 ! A88   A(30,31,33)           127.4078         estimate D2E/DX2                !
 ! A89   A(32,31,33)           122.62           estimate D2E/DX2                !
 ! A90   A(26,32,31)            97.8719         estimate D2E/DX2                !
 ! A91   A(31,33,34)           120.786          estimate D2E/DX2                !
 ! A92   A(31,33,41)           123.2835         estimate D2E/DX2                !
 ! A93   A(34,33,41)           115.8258         estimate D2E/DX2                !
 ! A94   A(33,34,35)           126.3486         estimate D2E/DX2                !
 ! A95   A(33,34,132)          116.5458         estimate D2E/DX2                !
 ! A96   A(35,34,132)          117.1054         estimate D2E/DX2                !
 ! A97   A(34,35,36)           122.0392         estimate D2E/DX2                !
 ! A98   A(34,35,37)           117.0518         estimate D2E/DX2                !
 ! A99   A(36,35,37)           120.8419         estimate D2E/DX2                !
 ! A100  A(35,37,38)           120.7381         estimate D2E/DX2                !
 ! A101  A(35,37,42)           117.153          estimate D2E/DX2                !
 ! A102  A(38,37,42)           122.0849         estimate D2E/DX2                !
 ! A103  A(37,38,39)           119.9044         estimate D2E/DX2                !
 ! A104  A(37,38,41)           120.1064         estimate D2E/DX2                !
 ! A105  A(39,38,41)           119.5208         estimate D2E/DX2                !
 ! A106  A(38,39,40)           112.5941         estimate D2E/DX2                !
 ! A107  A(39,40,133)          108.9673         estimate D2E/DX2                !
 ! A108  A(39,40,134)          104.5664         estimate D2E/DX2                !
 ! A109  A(39,40,135)          109.7733         estimate D2E/DX2                !
 ! A110  A(133,40,134)         109.9581         estimate D2E/DX2                !
 ! A111  A(133,40,135)         116.5833         estimate D2E/DX2                !
 ! A112  A(134,40,135)         106.3069         estimate D2E/DX2                !
 ! A113  A(33,41,38)           119.7894         estimate D2E/DX2                !
 ! A114  A(33,41,136)          116.9625         estimate D2E/DX2                !
 ! A115  A(38,41,136)          122.9349         estimate D2E/DX2                !
 ! A116  A(37,42,43)           127.7377         estimate D2E/DX2                !
 ! A117  A(37,42,48)           118.7111         estimate D2E/DX2                !
 ! A118  A(43,42,48)           113.3062         estimate D2E/DX2                !
 ! A119  A(42,43,44)           122.6782         estimate D2E/DX2                !
 ! A120  A(42,43,46)           112.53           estimate D2E/DX2                !
 ! A121  A(44,43,46)           124.7261         estimate D2E/DX2                !
 ! A122  A(43,44,45)           115.1384         estimate D2E/DX2                !
 ! A123  A(44,45,137)          114.8568         estimate D2E/DX2                !
 ! A124  A(44,45,138)          109.5834         estimate D2E/DX2                !
 ! A125  A(44,45,139)          111.959          estimate D2E/DX2                !
 ! A126  A(137,45,138)         101.8908         estimate D2E/DX2                !
 ! A127  A(137,45,139)         110.9296         estimate D2E/DX2                !
 ! A128  A(138,45,139)         106.8535         estimate D2E/DX2                !
 ! A129  A(43,46,47)           108.3855         estimate D2E/DX2                !
 ! A130  A(43,46,140)          129.4655         estimate D2E/DX2                !
 ! A131  A(47,46,140)          122.1282         estimate D2E/DX2                !
 ! A132  A(46,47,48)           110.1718         estimate D2E/DX2                !
 ! A133  A(46,47,49)           124.6944         estimate D2E/DX2                !
 ! A134  A(48,47,49)           125.0857         estimate D2E/DX2                !
 ! A135  A(42,48,47)            95.3443         estimate D2E/DX2                !
 ! A136  A(47,49,50)           117.4836         estimate D2E/DX2                !
 ! A137  A(47,49,57)           123.8308         estimate D2E/DX2                !
 ! A138  A(50,49,57)           118.4714         estimate D2E/DX2                !
 ! A139  A(49,50,51)           119.8875         estimate D2E/DX2                !
 ! A140  A(49,50,141)          124.4617         estimate D2E/DX2                !
 ! A141  A(51,50,141)          115.284          estimate D2E/DX2                !
 ! A142  A(50,51,52)           122.3073         estimate D2E/DX2                !
 ! A143  A(50,51,53)           121.8929         estimate D2E/DX2                !
 ! A144  A(52,51,53)           115.781          estimate D2E/DX2                !
 ! A145  A(51,53,54)           116.0416         estimate D2E/DX2                !
 ! A146  A(51,53,58)           122.3203         estimate D2E/DX2                !
 ! A147  A(54,53,58)           121.0435         estimate D2E/DX2                !
 ! A148  A(53,54,55)           118.5648         estimate D2E/DX2                !
 ! A149  A(53,54,57)           121.6303         estimate D2E/DX2                !
 ! A150  A(55,54,57)           119.7677         estimate D2E/DX2                !
 ! A151  A(54,55,56)           111.7458         estimate D2E/DX2                !
 ! A152  A(55,56,142)          107.0125         estimate D2E/DX2                !
 ! A153  A(55,56,143)          111.5734         estimate D2E/DX2                !
 ! A154  A(55,56,144)          102.3238         estimate D2E/DX2                !
 ! A155  A(142,56,143)         117.1871         estimate D2E/DX2                !
 ! A156  A(142,56,144)         104.7765         estimate D2E/DX2                !
 ! A157  A(143,56,144)         112.6901         estimate D2E/DX2                !
 ! A158  A(49,57,54)           121.4404         estimate D2E/DX2                !
 ! A159  A(49,57,145)          118.6055         estimate D2E/DX2                !
 ! A160  A(54,57,145)          119.0287         estimate D2E/DX2                !
 ! A161  A(53,58,59)           129.9665         estimate D2E/DX2                !
 ! A162  A(53,58,64)           117.6639         estimate D2E/DX2                !
 ! A163  A(59,58,64)           112.368          estimate D2E/DX2                !
 ! A164  A(58,59,60)           117.7579         estimate D2E/DX2                !
 ! A165  A(58,59,62)           110.0061         estimate D2E/DX2                !
 ! A166  A(60,59,62)           132.1601         estimate D2E/DX2                !
 ! A167  A(59,60,61)           114.1241         estimate D2E/DX2                !
 ! A168  A(60,61,146)          110.454          estimate D2E/DX2                !
 ! A169  A(60,61,147)          110.4798         estimate D2E/DX2                !
 ! A170  A(60,61,148)          106.8195         estimate D2E/DX2                !
 ! A171  A(146,61,147)         114.0835         estimate D2E/DX2                !
 ! A172  A(146,61,148)         105.8882         estimate D2E/DX2                !
 ! A173  A(147,61,148)         108.7482         estimate D2E/DX2                !
 ! A174  A(59,62,63)           114.2193         estimate D2E/DX2                !
 ! A175  A(59,62,149)          121.1728         estimate D2E/DX2                !
 ! A176  A(63,62,149)          124.552          estimate D2E/DX2                !
 ! A177  A(62,63,64)           110.8736         estimate D2E/DX2                !
 ! A178  A(62,63,65)           128.1474         estimate D2E/DX2                !
 ! A179  A(64,63,65)           120.9443         estimate D2E/DX2                !
 ! A180  A(58,64,63)            92.4912         estimate D2E/DX2                !
 ! A181  A(63,65,66)           123.318          estimate D2E/DX2                !
 ! A182  A(63,65,73)           122.9634         estimate D2E/DX2                !
 ! A183  A(66,65,73)           113.4273         estimate D2E/DX2                !
 ! A184  A(65,66,67)           121.0001         estimate D2E/DX2                !
 ! A185  A(65,66,150)          116.9775         estimate D2E/DX2                !
 ! A186  A(67,66,150)          121.9989         estimate D2E/DX2                !
 ! A187  A(66,67,68)           112.763          estimate D2E/DX2                !
 ! A188  A(66,67,69)           121.4947         estimate D2E/DX2                !
 ! A189  A(68,67,69)           125.7397         estimate D2E/DX2                !
 ! A190  A(67,69,70)           121.3008         estimate D2E/DX2                !
 ! A191  A(67,69,74)           117.6226         estimate D2E/DX2                !
 ! A192  A(70,69,74)           121.0633         estimate D2E/DX2                !
 ! A193  A(69,70,71)           119.5622         estimate D2E/DX2                !
 ! A194  A(69,70,73)           116.6195         estimate D2E/DX2                !
 ! A195  A(71,70,73)           123.784          estimate D2E/DX2                !
 ! A196  A(70,71,72)           114.5911         estimate D2E/DX2                !
 ! A197  A(71,72,151)          109.7249         estimate D2E/DX2                !
 ! A198  A(71,72,152)          108.3425         estimate D2E/DX2                !
 ! A199  A(71,72,153)          108.3612         estimate D2E/DX2                !
 ! A200  A(151,72,152)         109.8376         estimate D2E/DX2                !
 ! A201  A(151,72,153)         109.1308         estimate D2E/DX2                !
 ! A202  A(152,72,153)         111.4155         estimate D2E/DX2                !
 ! A203  A(65,73,70)           126.0091         estimate D2E/DX2                !
 ! A204  A(65,73,154)          116.5066         estimate D2E/DX2                !
 ! A205  A(70,73,154)          117.3793         estimate D2E/DX2                !
 ! A206  A(69,74,75)           133.0818         estimate D2E/DX2                !
 ! A207  A(69,74,80)           114.9216         estimate D2E/DX2                !
 ! A208  A(75,74,80)           111.9876         estimate D2E/DX2                !
 ! A209  A(74,75,76)           116.9194         estimate D2E/DX2                !
 ! A210  A(74,75,78)           116.4135         estimate D2E/DX2                !
 ! A211  A(76,75,78)           126.4655         estimate D2E/DX2                !
 ! A212  A(75,76,77)           115.0923         estimate D2E/DX2                !
 ! A213  A(76,77,155)          114.5819         estimate D2E/DX2                !
 ! A214  A(76,77,156)          109.3479         estimate D2E/DX2                !
 ! A215  A(76,77,157)          110.2971         estimate D2E/DX2                !
 ! A216  A(155,77,156)         110.91           estimate D2E/DX2                !
 ! A217  A(155,77,157)         104.6039         estimate D2E/DX2                !
 ! A218  A(156,77,157)         106.743          estimate D2E/DX2                !
 ! A219  A(75,78,79)           109.8993         estimate D2E/DX2                !
 ! A220  A(75,78,158)          128.2451         estimate D2E/DX2                !
 ! A221  A(79,78,158)          121.565          estimate D2E/DX2                !
 ! A222  A(78,79,80)           108.2691         estimate D2E/DX2                !
 ! A223  A(78,79,81)           126.1688         estimate D2E/DX2                !
 ! A224  A(80,79,81)           125.5604         estimate D2E/DX2                !
 ! A225  A(74,80,79)            93.4036         estimate D2E/DX2                !
 ! A226  A(79,81,82)           124.0467         estimate D2E/DX2                !
 ! A227  A(79,81,89)           119.6459         estimate D2E/DX2                !
 ! A228  A(82,81,89)           116.2805         estimate D2E/DX2                !
 ! A229  A(81,82,83)           124.1852         estimate D2E/DX2                !
 ! A230  A(81,82,159)          116.512          estimate D2E/DX2                !
 ! A231  A(83,82,159)          119.2489         estimate D2E/DX2                !
 ! A232  A(82,83,84)           118.3337         estimate D2E/DX2                !
 ! A233  A(82,83,85)           118.1827         estimate D2E/DX2                !
 ! A234  A(84,83,85)           122.5529         estimate D2E/DX2                !
 ! A235  A(83,85,86)           120.7668         estimate D2E/DX2                !
 ! A236  A(83,85,90)           118.4836         estimate D2E/DX2                !
 ! A237  A(86,85,90)           120.5568         estimate D2E/DX2                !
 ! A238  A(85,86,87)           120.2316         estimate D2E/DX2                !
 ! A239  A(85,86,89)           118.4859         estimate D2E/DX2                !
 ! A240  A(87,86,89)           121.2753         estimate D2E/DX2                !
 ! A241  A(86,87,88)           115.1973         estimate D2E/DX2                !
 ! A242  A(87,88,160)          108.6            estimate D2E/DX2                !
 ! A243  A(87,88,161)          111.2686         estimate D2E/DX2                !
 ! A244  A(87,88,162)          108.1823         estimate D2E/DX2                !
 ! A245  A(160,88,161)         109.9542         estimate D2E/DX2                !
 ! A246  A(160,88,162)         106.191          estimate D2E/DX2                !
 ! A247  A(161,88,162)         112.4475         estimate D2E/DX2                !
 ! A248  A(81,89,86)           121.4751         estimate D2E/DX2                !
 ! A249  A(81,89,163)          118.7656         estimate D2E/DX2                !
 ! A250  A(86,89,163)          119.7399         estimate D2E/DX2                !
 ! A251  A(85,90,91)           130.1174         estimate D2E/DX2                !
 ! A252  A(85,90,96)           116.6945         estimate D2E/DX2                !
 ! A253  A(91,90,96)           113.1871         estimate D2E/DX2                !
 ! A254  A(90,91,92)           120.4086         estimate D2E/DX2                !
 ! A255  A(90,91,94)           115.1746         estimate D2E/DX2                !
 ! A256  A(92,91,94)           124.3364         estimate D2E/DX2                !
 ! A257  A(91,92,93)           117.1472         estimate D2E/DX2                !
 ! A258  A(92,93,164)          105.8854         estimate D2E/DX2                !
 ! A259  A(92,93,165)          112.105          estimate D2E/DX2                !
 ! A260  A(92,93,166)          105.8191         estimate D2E/DX2                !
 ! A261  A(164,93,165)         113.6468         estimate D2E/DX2                !
 ! A262  A(164,93,166)         108.6842         estimate D2E/DX2                !
 ! A263  A(165,93,166)         110.3004         estimate D2E/DX2                !
 ! A264  A(91,94,95)           108.2121         estimate D2E/DX2                !
 ! A265  A(91,94,167)          130.5524         estimate D2E/DX2                !
 ! A266  A(95,94,167)          121.233          estimate D2E/DX2                !
 ! A267  A(94,95,96)           112.4408         estimate D2E/DX2                !
 ! A268  A(94,95,97)           126.5814         estimate D2E/DX2                !
 ! A269  A(96,95,97)           120.8843         estimate D2E/DX2                !
 ! A270  A(90,96,95)            90.9352         estimate D2E/DX2                !
 ! A271  A(95,97,98)           119.6884         estimate D2E/DX2                !
 ! A272  A(95,97,105)          117.6974         estimate D2E/DX2                !
 ! A273  A(98,97,105)          122.5491         estimate D2E/DX2                !
 ! A274  A(97,98,99)           116.3896         estimate D2E/DX2                !
 ! A275  A(97,98,168)          127.4771         estimate D2E/DX2                !
 ! A276  A(99,98,168)          115.4846         estimate D2E/DX2                !
 ! A277  A(98,99,100)          115.7895         estimate D2E/DX2                !
 ! A278  A(98,99,101)          121.669          estimate D2E/DX2                !
 ! A279  A(100,99,101)         121.8928         estimate D2E/DX2                !
 ! A280  A(99,101,102)         122.4771         estimate D2E/DX2                !
 ! A281  A(99,101,106)         116.4028         estimate D2E/DX2                !
 ! A282  A(102,101,106)        120.6434         estimate D2E/DX2                !
 ! A283  A(101,102,103)        120.9919         estimate D2E/DX2                !
 ! A284  A(101,102,105)        115.5898         estimate D2E/DX2                !
 ! A285  A(103,102,105)        123.3427         estimate D2E/DX2                !
 ! A286  A(102,103,104)        116.4793         estimate D2E/DX2                !
 ! A287  A(103,104,169)        109.4229         estimate D2E/DX2                !
 ! A288  A(103,104,170)        110.9854         estimate D2E/DX2                !
 ! A289  A(103,104,171)        106.3017         estimate D2E/DX2                !
 ! A290  A(169,104,170)        116.2781         estimate D2E/DX2                !
 ! A291  A(169,104,171)        110.514          estimate D2E/DX2                !
 ! A292  A(170,104,171)        102.7419         estimate D2E/DX2                !
 ! A293  A(97,105,102)         120.5881         estimate D2E/DX2                !
 ! A294  A(97,105,172)         124.1001         estimate D2E/DX2                !
 ! A295  A(102,105,172)        114.8903         estimate D2E/DX2                !
 ! A296  A(101,106,107)        126.8266         estimate D2E/DX2                !
 ! A297  A(101,106,112)        120.6178         estimate D2E/DX2                !
 ! A298  A(107,106,112)        112.4843         estimate D2E/DX2                !
 ! A299  A(106,107,108)        120.2361         estimate D2E/DX2                !
 ! A300  A(106,107,110)        110.2506         estimate D2E/DX2                !
 ! A301  A(108,107,110)        129.4544         estimate D2E/DX2                !
 ! A302  A(107,108,109)        111.2754         estimate D2E/DX2                !
 ! A303  A(108,109,173)        106.2529         estimate D2E/DX2                !
 ! A304  A(108,109,174)        113.1686         estimate D2E/DX2                !
 ! A305  A(108,109,175)        110.0812         estimate D2E/DX2                !
 ! A306  A(173,109,174)        111.2533         estimate D2E/DX2                !
 ! A307  A(173,109,175)        106.737          estimate D2E/DX2                !
 ! A308  A(174,109,175)        109.1321         estimate D2E/DX2                !
 ! A309  A(107,110,111)        115.1331         estimate D2E/DX2                !
 ! A310  A(107,110,176)        124.4092         estimate D2E/DX2                !
 ! A311  A(111,110,176)        120.4406         estimate D2E/DX2                !
 ! A312  A(110,111,112)        112.0503         estimate D2E/DX2                !
 ! A313  A(110,111,177)        129.6508         estimate D2E/DX2                !
 ! A314  A(112,111,177)        118.2565         estimate D2E/DX2                !
 ! A315  A(106,112,111)         90.0436         estimate D2E/DX2                !
 ! D1    D(9,1,2,3)             -5.6271         estimate D2E/DX2                !
 ! D2    D(9,1,2,114)          177.6786         estimate D2E/DX2                !
 ! D3    D(113,1,2,3)         -176.9956         estimate D2E/DX2                !
 ! D4    D(113,1,2,114)          6.3101         estimate D2E/DX2                !
 ! D5    D(2,1,9,6)              5.7003         estimate D2E/DX2                !
 ! D6    D(2,1,9,118)         -173.9064         estimate D2E/DX2                !
 ! D7    D(113,1,9,6)          176.4402         estimate D2E/DX2                !
 ! D8    D(113,1,9,118)         -3.1665         estimate D2E/DX2                !
 ! D9    D(1,2,3,4)           -176.6832         estimate D2E/DX2                !
 ! D10   D(1,2,3,5)              1.9557         estimate D2E/DX2                !
 ! D11   D(114,2,3,4)            0.0731         estimate D2E/DX2                !
 ! D12   D(114,2,3,5)          178.712          estimate D2E/DX2                !
 ! D13   D(2,3,5,6)              1.8596         estimate D2E/DX2                !
 ! D14   D(2,3,5,10)           178.9579         estimate D2E/DX2                !
 ! D15   D(4,3,5,6)           -179.4897         estimate D2E/DX2                !
 ! D16   D(4,3,5,10)            -2.3914         estimate D2E/DX2                !
 ! D17   D(3,5,6,7)            175.3783         estimate D2E/DX2                !
 ! D18   D(3,5,6,9)             -1.7521         estimate D2E/DX2                !
 ! D19   D(10,5,6,7)            -1.7112         estimate D2E/DX2                !
 ! D20   D(10,5,6,9)          -178.8416         estimate D2E/DX2                !
 ! D21   D(3,5,10,11)          -56.6294         estimate D2E/DX2                !
 ! D22   D(3,5,10,16)          121.2185         estimate D2E/DX2                !
 ! D23   D(6,5,10,11)          120.2657         estimate D2E/DX2                !
 ! D24   D(6,5,10,16)          -61.8864         estimate D2E/DX2                !
 ! D25   D(5,6,7,8)            138.3865         estimate D2E/DX2                !
 ! D26   D(9,6,7,8)            -44.4341         estimate D2E/DX2                !
 ! D27   D(5,6,9,1)             -1.9951         estimate D2E/DX2                !
 ! D28   D(5,6,9,118)          177.5568         estimate D2E/DX2                !
 ! D29   D(7,6,9,1)           -179.1319         estimate D2E/DX2                !
 ! D30   D(7,6,9,118)            0.4199         estimate D2E/DX2                !
 ! D31   D(6,7,8,115)         -158.974          estimate D2E/DX2                !
 ! D32   D(6,7,8,116)           82.6796         estimate D2E/DX2                !
 ! D33   D(6,7,8,117)          -37.4738         estimate D2E/DX2                !
 ! D34   D(5,10,11,12)          -5.7494         estimate D2E/DX2                !
 ! D35   D(5,10,11,14)        -179.6324         estimate D2E/DX2                !
 ! D36   D(16,10,11,12)        176.2796         estimate D2E/DX2                !
 ! D37   D(16,10,11,14)          2.3966         estimate D2E/DX2                !
 ! D38   D(5,10,16,15)         179.5758         estimate D2E/DX2                !
 ! D39   D(11,10,16,15)         -2.2595         estimate D2E/DX2                !
 ! D40   D(10,11,12,13)        169.3605         estimate D2E/DX2                !
 ! D41   D(14,11,12,13)        -18.3647         estimate D2E/DX2                !
 ! D42   D(10,11,14,15)         -1.2213         estimate D2E/DX2                !
 ! D43   D(10,11,14,122)       177.5512         estimate D2E/DX2                !
 ! D44   D(12,11,14,15)       -173.985          estimate D2E/DX2                !
 ! D45   D(12,11,14,122)         4.7875         estimate D2E/DX2                !
 ! D46   D(11,12,13,119)        71.8529         estimate D2E/DX2                !
[...]
     4  F   -0.119070   0.000000
     5  C   -0.064310   0.000000
     6  C    0.121922  -0.000000
     7  O   -0.237156   0.000000
     8  C    0.050752   0.000000
     9  C   -0.053945  -0.000000
    10  C   -0.188022   0.000000
    11  C    0.182679  -0.000000
    12  O   -0.241974   0.000000
    13  C    0.049722  -0.000000
    14  C   -0.016111  -0.000000
    15  C   -0.157811   0.000000
    16  S    0.184692  -0.000000
    17  C    0.063550  -0.000000
    18  C   -0.027470   0.000000
    19  C    0.133260  -0.000000
    20  F   -0.118767   0.000000
    21  C   -0.054213   0.000000
    22  C    0.129411  -0.000000
    23  O   -0.238192  -0.000000
    24  C    0.051421  -0.000000
    25  C   -0.055714   0.000000
    26  C   -0.192576  -0.000000
    27  C    0.179439   0.000000
    28  O   -0.241666   0.000000
    29  C    0.050608   0.000000
    30  C   -0.018147  -0.000000
    31  C   -0.156840   0.000000
    32  S    0.196211   0.000000
    33  C    0.054262   0.000000
    34  C   -0.019715  -0.000000
    35  C    0.130372   0.000000
    36  F   -0.116806   0.000000
    37  C   -0.054295  -0.000000
    38  C    0.132177   0.000000
    39  O   -0.238168  -0.000000
    40  C    0.053608  -0.000000
    41  C   -0.055297  -0.000000
    42  C   -0.191732   0.000000
    43  C    0.181504  -0.000000
    44  O   -0.241369   0.000000
    45  C    0.049451  -0.000000
    46  C   -0.015619   0.000000
    47  C   -0.157399  -0.000000
    48  S    0.184068   0.000000
    49  C    0.063821   0.000000
    50  C   -0.028808  -0.000000
    51  C    0.133830   0.000000
    52  F   -0.118973   0.000000
    53  C   -0.065862  -0.000000
    54  C    0.136713   0.000000
    55  O   -0.230230  -0.000000
    56  C    0.051648   0.000000
    57  C   -0.058465   0.000000
    58  C   -0.198006  -0.000000
    59  C    0.197047   0.000000
    60  O   -0.240365   0.000000
    61  C    0.048819   0.000000
    62  C   -0.019233  -0.000000
    63  C   -0.157699   0.000000
    64  S    0.182190  -0.000000
    65  C    0.064459   0.000000
    66  C   -0.029707  -0.000000
    67  C    0.133002   0.000000
    68  F   -0.120875  -0.000000
    69  C   -0.063530   0.000000
    70  C    0.136648  -0.000000
    71  O   -0.230161  -0.000000
    72  C    0.051189   0.000000
    73  C   -0.057927   0.000000
    74  C   -0.197752  -0.000000
    75  C    0.194145   0.000000
    76  O   -0.240313  -0.000000
    77  C    0.048646  -0.000000
    78  C   -0.017952  -0.000000
    79  C   -0.157298   0.000000
    80  S    0.184043   0.000000
    81  C    0.060200  -0.000000
    82  C   -0.027558  -0.000000
    83  C    0.134749   0.000000
    84  F   -0.118303  -0.000000
    85  C   -0.058507  -0.000000
    86  C    0.131051   0.000000
    87  O   -0.237844   0.000000
    88  C    0.050858   0.000000
    89  C   -0.055026  -0.000000
    90  C   -0.193436  -0.000000
    91  C    0.184031   0.000000
    92  O   -0.241463  -0.000000
    93  C    0.050190   0.000000
    94  C   -0.016800  -0.000000
    95  C   -0.156987   0.000000
    96  S    0.181580  -0.000000
    97  C    0.062143   0.000000
    98  C   -0.029266  -0.000000
    99  C    0.135109   0.000000
   100  F   -0.118975  -0.000000
   101  C   -0.049445  -0.000000
   102  C    0.129664   0.000000
   103  O   -0.237439   0.000000
   104  C    0.051580  -0.000000
   105  C   -0.055952   0.000000
   106  C   -0.201856   0.000000
   107  C    0.165340  -0.000000
   108  O   -0.241643  -0.000000
   109  C    0.048937  -0.000000
   110  C   -0.003581   0.000000
   111  C   -0.132919   0.000000
   112  S    0.181222  -0.000000
   113  H    0.003244  -0.000000
   114  H    0.005687   0.000000
   115  H    0.058610  -0.000000
   116  H    0.049643  -0.000000
   117  H    0.048363  -0.000000
   118  H   -0.001757   0.000000
   119  H    0.044675  -0.000000
   120  H    0.045687   0.000000
   121  H    0.056227   0.000000
   122  H    0.002865  -0.000000
   123  H   -0.003271  -0.000000
   124  H    0.060174  -0.000000
   125  H    0.051210   0.000000
   126  H    0.051206  -0.000000
   127  H   -0.000681  -0.000000
   128  H    0.056227  -0.000000
   129  H    0.044534  -0.000000
   130  H    0.042822  -0.000000
   131  H   -0.001247  -0.000000
   132  H    0.004992   0.000000
   133  H    0.053099   0.000000
   134  H    0.058228   0.000000
   135  H    0.045568  -0.000000
   136  H   -0.009369   0.000000
   137  H    0.045907   0.000000
   138  H    0.057451   0.000000
   139  H    0.044963   0.000000
   140  H    0.003276  -0.000000
   141  H   -0.002119  -0.000000
   142  H    0.050361  -0.000000
   143  H    0.049238   0.000000
   144  H    0.056650  -0.000000
   145  H   -0.000900  -0.000000
   146  H    0.054919   0.000000
   147  H    0.044744   0.000000
   148  H    0.045091  -0.000000
   149  H    0.003257  -0.000000
   150  H   -0.003096  -0.000000
   151  H    0.050581   0.000000
   152  H    0.051077   0.000000
   153  H    0.056738  -0.000000
   154  H    0.000788  -0.000000
   155  H    0.046530  -0.000000
   156  H    0.043246   0.000000
   157  H    0.055069   0.000000
   158  H    0.003207   0.000000
   159  H   -0.004636  -0.000000
   160  H    0.051810   0.000000
   161  H    0.051940   0.000000
   162  H    0.060693  -0.000000
   163  H    0.001448  -0.000000
   164  H    0.046779  -0.000000
   165  H    0.043374  -0.000000
   166  H    0.056250  -0.000000
   167  H    0.003179   0.000000
   168  H   -0.004141   0.000000
   169  H    0.052239   0.000000
   170  H    0.050423   0.000000
   171  H    0.059210   0.000000
   172  H    0.000396   0.000000
   173  H    0.055080  -0.000000
   174  H    0.045076   0.000000
   175  H    0.042909   0.000000
   176  H    0.003541  -0.000000
   177  H    0.031306  -0.000000
 Sum of Mulliken charges =  -0.00000  -0.00000
 Mulliken charges and spin densities with hydrogens summed into heavy atoms:
               1          2
     1  C    0.030678   0.000000
     2  C   -0.005977  -0.000000
     3  C    0.124216   0.000000
     4  F   -0.119070   0.000000
     5  C   -0.064310   0.000000
     6  C    0.121922  -0.000000
     7  O   -0.237156   0.000000
     8  C    0.207367  -0.000000
     9  C   -0.055702  -0.000000
    10  C   -0.188022   0.000000
    11  C    0.182679  -0.000000
    12  O   -0.241974   0.000000
    13  C    0.196311  -0.000000
    14  C   -0.013246  -0.000000
    15  C   -0.157811   0.000000
    16  S    0.184692  -0.000000
    17  C    0.063550  -0.000000
    18  C   -0.030740  -0.000000
    19  C    0.133260  -0.000000
    20  F   -0.118767   0.000000
    21  C   -0.054213   0.000000
    22  C    0.129411  -0.000000
    23  O   -0.238192  -0.000000
    24  C    0.214011  -0.000000
    25  C   -0.056395   0.000000
    26  C   -0.192576  -0.000000
    27  C    0.179439   0.000000
    28  O   -0.241666   0.000000
    29  C    0.194191   0.000000
    30  C   -0.019394  -0.000000
    31  C   -0.156840   0.000000
    32  S    0.196211   0.000000
    33  C    0.054262   0.000000
    34  C   -0.014723  -0.000000
    35  C    0.130372   0.000000
    36  F   -0.116806   0.000000
    37  C   -0.054295  -0.000000
    38  C    0.132177   0.000000
    39  O   -0.238168  -0.000000
    40  C    0.210503  -0.000000
    41  C   -0.064665  -0.000000
    42  C   -0.191732   0.000000
    43  C    0.181504  -0.000000
    44  O   -0.241369   0.000000
    45  C    0.197772   0.000000
    46  C   -0.012343   0.000000
    47  C   -0.157399  -0.000000
    48  S    0.184068   0.000000
    49  C    0.063821   0.000000
    50  C   -0.030927  -0.000000
    51  C    0.133830   0.000000
    52  F   -0.118973   0.000000
    53  C   -0.065862  -0.000000
    54  C    0.136713   0.000000
    55  O   -0.230230  -0.000000
    56  C    0.207896   0.000000
    57  C   -0.059365   0.000000
    58  C   -0.198006  -0.000000
    59  C    0.197047   0.000000
    60  O   -0.240365   0.000000
    61  C    0.193574   0.000000
    62  C   -0.015976  -0.000000
    63  C   -0.157699   0.000000
    64  S    0.182190  -0.000000
    65  C    0.064459   0.000000
    66  C   -0.032803  -0.000000
    67  C    0.133002   0.000000
    68  F   -0.120875  -0.000000
    69  C   -0.063530   0.000000
    70  C    0.136648  -0.000000
    71  O   -0.230161  -0.000000
    72  C    0.209585   0.000000
    73  C   -0.057138   0.000000
    74  C   -0.197752  -0.000000
    75  C    0.194145   0.000000
    76  O   -0.240313  -0.000000
    77  C    0.193490  -0.000000
    78  C   -0.014745  -0.000000
    79  C   -0.157298   0.000000
    80  S    0.184043   0.000000
    81  C    0.060200  -0.000000
    82  C   -0.032194  -0.000000
    83  C    0.134749   0.000000
    84  F   -0.118303  -0.000000
    85  C   -0.058507  -0.000000
    86  C    0.131051   0.000000
    87  O   -0.237844   0.000000
    88  C    0.215301   0.000000
    89  C   -0.053579  -0.000000
    90  C   -0.193436  -0.000000
    91  C    0.184031   0.000000
    92  O   -0.241463  -0.000000
    93  C    0.196593  -0.000000
    94  C   -0.013621  -0.000000
    95  C   -0.156987   0.000000
    96  S    0.181580  -0.000000
    97  C    0.062143   0.000000
    98  C   -0.033407  -0.000000
    99  C    0.135109   0.000000
   100  F   -0.118975  -0.000000
   101  C   -0.049445  -0.000000
   102  C    0.129664   0.000000
   103  O   -0.237439   0.000000
   104  C    0.213451  -0.000000
   105  C   -0.055556   0.000000
   106  C   -0.201856   0.000000
   107  C    0.165340  -0.000000
   108  O   -0.241643  -0.000000
   109  C    0.192001   0.000000
   110  C   -0.000040   0.000000
   111  C   -0.101612   0.000000
   112  S    0.181222  -0.000000
 Electronic spatial extent (au):  <R**2>=         818826.0961
 Charge=             -0.0000 electrons
 Dipole moment (field-independent basis, Debye):
    X=              2.9261    Y=             -2.2180    Z=             -0.0675  Tot=              3.6723
 Quadrupole moment (field-independent basis, Debye-Ang):
   XX=           -581.0850   YY=           -611.4063   ZZ=           -632.0985
   XY=            -29.6500   XZ=            -71.1644   YZ=             -8.0478
 Traceless Quadrupole moment (field-independent basis, Debye-Ang):
   XX=             27.1116   YY=             -3.2097   ZZ=            -23.9019
   XY=            -29.6500   XZ=            -71.1644   YZ=             -8.0478
 Octapole moment (field-independent basis, Debye-Ang**2):
  XXX=            330.4557  YYY=            -36.1915  ZZZ=             -0.4331  XYY=            532.4396
  XXY=            505.6046  XXZ=           -965.7288  XZZ=           -167.3581  YZZ=             22.1114
  YYZ=             53.0684  XYZ=           -280.2484
 Hexadecapole moment (field-independent basis, Debye-Ang**3):
 XXXX=        -894579.0481 YYYY=         -11143.4612 ZZZZ=          -9253.0072 XXXY=           2588.0075
 XXXZ=         -38848.2263 YYYX=          -2531.6593 YYYZ=             39.4712 ZZZX=          -1896.7370
 ZZZY=           -162.9724 XXYY=        -166909.2058 XXZZ=        -164481.6691 YYZZ=          -3398.9711
 XXYZ=         -10957.1948 YYXZ=           -365.8232 ZZXY=            941.4601
 N-N= 1.963096532057D+04 E-N=-5.755006297140D+04  KE= 7.737454523758D+03
 Leave Link  601 at Sat Jul 25 05:43:17 2020, MaxMem=  4026531840 cpu:              17.7 elap:               2.4
 (Enter /opt/ohpc/pub/libs/gaussian/g16-A.03/sandybridge/g16/l9999.exe)

 Test job not archived.
 1\1\GINC-SKYLAKE032\FOpt\ULC-wPBE\CC-pVDZ\C84H65F7O14S7\RDU230\25-Jul-
 2020\0\\#P uLC-wPBE/cc-pVDZ iop(3/107=0340300000, 3/108=0340300000) op
 t\\H65 C84 S7 O14 F7\\0,1\C,26.66959855,2.5290129163,-1.8303135092\C,2
 6.4274326206,2.4598355098,-0.4673234622\C,25.2925410268,1.7843483357,-
 0.0374216526\F,25.0460386293,1.7397081305,1.280882425\C,24.3962685108,
 1.1646970375,-0.9045140299\C,24.6696127508,1.2605522405,-2.2853797906\
 O,23.7669684596,0.6566177375,-3.0961046579\C,23.9832950805,0.709121317
 1,-4.4896076455\C,25.7990136434,1.9389181648,-2.7451081285\C,23.224929
 5588,0.4429491171,-0.3795932389\C,23.2281594892,-0.5474394326,0.576000
 4505\O,24.4001210498,-1.0110525863,1.0724439842\C,24.3205425799,-1.916
 5727785,2.1519733587\C,21.9208809462,-1.0026186354,0.9215429353\C,20.9
 373094714,-0.3549615031,0.2190125907\S,21.6055048595,0.8090893457,-0.8
 598447833\C,19.4819160155,-0.5718342961,0.3076232293\C,18.9092049746,-
 0.959221267,1.5172724924\C,17.5395617306,-1.1676654017,1.5741870846\F,
 17.0096425867,-1.5118078622,2.7581760908\C,16.6897852067,-1.0147924665
 ,0.4820408807\C,17.2888812221,-0.606465531,-0.7283662593\O,16.43784136
 22,-0.4534044258,-1.7701726896\C,16.9660475004,-0.0320044755,-3.010126
 6018\C,18.6628727779,-0.3932453874,-0.8149359975\C,15.2463842552,-1.27
 10321564,0.6059821174\C,14.6505097375,-2.4018372856,1.1176232266\O,15.
 4081074444,-3.4598022364,1.4954047615\C,14.7384079274,-4.5313195078,2.
 1223571548\C,13.2270673596,-2.3189335661,1.1606769654\C,12.7567717071,
 -1.1260995511,0.6729018506\S,14.047065578,-0.1066921878,0.1659024176\C
 ,11.3518812943,-0.6962989387,0.549518411\C,10.9422030008,0.1155751232,
 -0.5055519294\C,9.6089113332,0.4890854893,-0.5853070309\F,9.2340554025
 ,1.2457603337,-1.6274568057\C,8.6434564709,0.1032738734,0.34029874\C,9
 .0792739284,-0.7252895807,1.3959605274\O,8.1173177595,-1.0884879095,2.
 278400114\C,8.4850908295,-1.902843794,3.3706718821\C,10.4122960072,-1.
 1154627227,1.5011670476\C,7.2499679924,0.5566883736,0.2097717438\C,6.8
 176568953,1.8546618753,0.0560148096\O,7.704536348,2.8768895151,0.09809
 54849\C,7.2101455941,4.1633650224,-0.2067014486\C,5.4049498602,1.96272
 97909,-0.1105723899\C,4.7777004129,0.743763144,-0.0757657082\S,5.90915
 12657,-0.5332501193,0.1573980992\C,3.3337334198,0.4747391605,-0.203209
 003\C,2.5392415628,1.3082005081,-0.9883239087\C,1.1832895699,1.0366661
 089,-1.0850764008\F,0.4324416267,1.8463482704,-1.8520868915\C,0.560436
 6015,-0.030444693,-0.4473403613\C,1.3806559315,-0.8576188077,0.3492228
 147\O,0.7445019923,-1.8641442181,0.9877171512\C,1.5188782881,-2.763252
 1189,1.751139227\C,2.7473769712,-0.6080460228,0.4650816539\C,-0.880243
 7204,-0.2919847983,-0.6005702342\C,-1.4733835221,-1.431945471,-1.09145
 98902\O,-0.7120543284,-2.4681585525,-1.5178923316\C,-1.3967781387,-3.5
 984867262,-2.01207613\C,-2.898857212,-1.3670816379,-1.094537478\C,-3.3
 729810589,-0.176563794,-0.6056047108\S,-2.080610679,0.8669680469,-0.15
 23080967\C,-4.7803314346,0.2400607283,-0.4642347375\C,-5.7402713246,-0
 .237894436,-1.3543411222\C,-7.05649842,0.1654555989,-1.1920665034\F,-7
 .9687440549,-0.298740988,-2.0648568228\C,-7.4832678768,1.0316651844,-0
 .1915127553\C,-6.497474235,1.4971233414,0.7050583724\O,-6.9435363882,2
 .3058122438,1.6904610384\C,-5.9979100259,2.8480194555,2.5870044566\C,-
 5.1660896646,1.1074150175,0.5659274101\C,-8.889632489,1.4501840319,-0.
 0763665086\C,-9.3837820887,2.7337033593,-0.1084473199\O,-8.5479163129,
 3.7820130151,-0.3014568252\C,-9.1299405851,5.0672956729,-0.3015372737\
 C,-10.8004779063,2.7947167991,0.0508693621\C,-11.3677260122,1.55460728
 49,0.1975453995\S,-10.1726204316,0.3159805975,0.1530144592\C,-12.79646
 37537,1.2352500715,0.3720037834\C,-13.6313514353,2.1242009514,1.045439
 9607\C,-14.9753802263,1.8096683611,1.1802793399\F,-15.7632453501,2.695
 4060978,1.8093577206\C,-15.5440635257,0.6333931484,0.7002678364\C,-14.
 6801846596,-0.251881696,0.0214706964\O,-15.264242499,-1.3772296768,-0.
 4521307079\C,-14.4586391653,-2.3127379144,-1.1382927013\C,-13.32944124
 3,0.0468941766,-0.1442478088\C,-16.9726236581,0.34583163,0.9063133409\
 C,-17.6522625697,0.3619794027,2.1032234314\O,-16.9899797862,0.60614670
 09,3.2592302729\C,-17.7694139249,0.7100818567,4.4309679124\C,-19.04657
 64242,0.0924000239,1.9642259111\C,-19.4108996718,-0.1276827823,0.66076
 71438\S,-18.0521935275,-0.0256721271,-0.3921744612\C,-20.7569067285,-0
 .4384103949,0.1451081763\C,-21.6574626087,-1.152863003,0.932052664\C,-
 22.9212061382,-1.4216948866,0.4280245209\F,-23.7593558201,-2.136013192
 6,1.1951075183\C,-23.3525625254,-1.0139258159,-0.8310318933\C,-22.4195
 981417,-0.3044604509,-1.6160667273\O,-22.8615192005,0.0704524763,-2.83
 96801158\C,-21.9766933692,0.7772878241,-3.6831172315\C,-21.1441449237,
 -0.0179273205,-1.1338842043\C,-24.7156939139,-1.3162159518,-1.29679419
 7\C,-25.8902517859,-1.0412512322,-0.6340156868\O,-25.8682738644,-0.366
 2510959,0.5413613849\C,-27.0965139999,-0.2365927661,1.2227587999\C,-27
 .0508111161,-1.5145595059,-1.3225528257\C,-26.725280453,-2.1354402907,
 -2.4942309217\S,-25.0404083188,-2.146778975,-2.7790405443\H,27.5540213
 044,3.0566973338,-2.1975273629\H,27.0871234167,2.9196018198,0.27058748
 25\H,23.1475957984,0.1627856867,-4.9466109972\H,24.9321239159,0.220011
 083,-4.7728247307\H,23.9839855053,1.7483493191,-4.8638015701\H,26.0119
 025497,2.0090476178,-3.8122041385\H,23.8375358887,-2.8654081891,1.8561
 096658\H,23.7746690529,-1.4818781414,3.0082834329\H,25.3550843603,-2.1
 251125114,2.4560642895\H,21.7084354362,-1.8015939234,1.6317853343\H,19
 .4995677998,-1.0693905884,2.4281515654\H,16.1099104723,0.0410419016,-3
 .6935599586\H,17.6893093577,-0.762847284,-3.4128627913\H,17.4525494127
 ,0.9561005687,-2.9304342412\H,19.1202032913,-0.1116019078,-1.764135541
 4\H,15.5131481653,-5.2577417529,2.4023545141\H,14.020088087,-5.0211773
 109,1.4402029661\H,14.2080773986,-4.2026120893,3.0341474464\H,12.56813
 97226,-3.1197347233,1.4962284984\H,11.6315896192,0.4423320633,-1.28640
 55134\H,9.2292090748,-1.404881173,4.0170243245\H,7.5650721157,-2.07103
 06224,3.945877699\H,8.8862982292,-2.8763144907,3.036790449\H,10.748809
 5924,-1.7214423984,2.3423738124\H,6.7549114301,4.1963278955,-1.2125909
 896\H,8.0755309616,4.8391296992,-0.1833343662\H,6.4702584103,4.5049716
 795,0.5395251715\H,4.8620036628,2.9020148791,-0.2147992188\H,2.9557397
 395,2.1433634786,-1.553344907\H,2.2776225008,-3.2730037919,1.131594453
 4\H,2.0192874158,-2.2574492246,2.5960590164\H,0.8156432305,-3.50827302
 13,2.1461658855\H,3.3718322444,-1.2353434143,1.1023156102\H,-0.6248120
 61,-4.3184686125,-2.3156085209\H,-2.034533131,-4.0614586553,-1.2375264
 523\H,-2.017773688,-3.3490458609,-2.891321429\H,-3.5571692401,-2.17309
 89098,-1.4185089344\H,-5.4830626953,-0.8882563786,-2.1916394247\H,-5.4
 871417715,2.0603342825,3.1688625633\H,-5.2434130272,3.4589024883,2.060
 874954\H,-6.5657636652,3.4888092179,3.2743608569\H,-4.4133478868,1.450
 0617631,1.2769399019\H,-9.86138335,5.1859201463,-1.1211957345\H,-9.624
 3448424,5.2921120443,0.6607517815\H,-8.307103327,5.7785087668,-0.45498
 80424\H,-11.3907880319,3.710556153,0.0217009788\H,-13.2578993024,3.051
 0545194,1.4834587816\H,-14.0171566979,-1.8773008985,-2.0520414847\H,-1
 3.6511959522,-2.7024692052,-0.493879385\H,-15.1267977222,-3.1375744472
 ,-1.4184385967\H,-12.6756092932,-0.632188409,-0.6927314218\H,-18.51346
 36494,1.5230340139,4.3547232525\H,-18.2884331672,-0.2375398864,4.66272
 47866\H,-17.0704495495,0.94076725,5.2460843097\H,-19.7635898833,0.0853
 918653,2.7850255202\H,-21.3879860737,-1.536647698,1.917198927\H,-21.67
 79811787,1.743791496,-3.2403538643\H,-21.0720026141,0.1864670628,-3.91
 10883994\H,-22.5300899399,0.9631578591,-4.612967255\H,-20.4426130125,0
 .5615377533,-1.7352531349\H,-26.8740407088,0.2859073046,2.1629453566\H
 ,-27.5397775582,-1.221450698,1.4554452218\H,-27.8244332291,0.362291209
 3,0.6457803482\H,-28.076273802,-1.3978270875,-0.9722902184\H,-27.40784
 38445,-2.5802145085,-3.2180750763\\Version=EM64L-G16RevA.03\State=1-A\
 HF=-7775.1100166\S2=0.\S2-1=0.\S2A=0.\RMSD=5.833e-09\RMSF=7.504e-07\Di
 pole=1.1526156,-0.7932914,0.3600371\Quadrupole=20.4048866,-10.2520797,
 -10.1528069,-42.9530339,-37.8217638,-9.8625223\PG=C01 [X(C84H65F7O14S7
 )]\\@


 TERRY FORSTER, PORTLY ATLANTA BRAVES RELIEVER,
 ANNOUNCING THAT HE WAS GOING TO A FAT FARM:
 "A WAIST IS A TERRIBLE THING TO MIND."
 Job cpu time:       5 days 18 hours  7 minutes 10.8 seconds.
 Elapsed time:       0 days 17 hours 31 minutes 14.2 seconds.
 File lengths (MBytes):  RWF=   4060 Int=      0 D2E=      0 Chk=    364 Scr=      8
 Normal termination of Gaussian 16 at Sat Jul 25 05:43:17 2020.
