 Entering Gaussian System, Link 0=g16
 Input=mols_66_3_00_c-c-c-c_opt_0.gjf
 Output=mols_66_3_00_c-c-c-c_opt_0.log
 Initial command:
 /opt/ohpc/pub/libs/gaussian/g16-A.03/sandybridge/g16/l1.exe "/mnt/gpfs2_4m/scratch/rdu230/ondemand/projects/dihedral_energies/7trial/wtuning/mols_66_3_00_c-c-c-c/Gau-42016.inp" -scrdir="/mnt/gpfs2_4m/scratch/rdu230/ondemand/projects/dihedral_energies/7trial/wtuning/mols_66_3_00_c-c-c-c/"
 Entering Link 1 = /opt/ohpc/pub/libs/gaussian/g16-A.03/sandybridge/g16/l1.exe PID=     42021.
  
 Copyright (c) 1988,1990,1992,1993,1995,1998,2003,2009,2016,
            Gaussian, Inc.  All Rights Reserved.
  
 This is part of the Gaussian(R) 16 program.  It is based on
 the Gaussian(R) 09 system (copyright 2009, Gaussian, Inc.),
 the Gaussian(R) 03 system (copyright 2003, Gaussian, Inc.),
 the Gaussian(R) 98 system (copyright 1998, Gaussian, Inc.),
 the Gaussian(R) 94 system (copyright 1995, Gaussian, Inc.),
 the Gaussian 92(TM) system (copyright 1992, Gaussian, Inc.),
 the Gaussian 90(TM) system (copyright 1990, Gaussian, Inc.),
 the Gaussian 88(TM) system (copyright 1988, Gaussian, Inc.),
 the Gaussian 86(TM) system (copyright 1986, Carnegie Mellon
 University), and the Gaussian 82(TM) system (copyright 1983,
 Carnegie Mellon University). Gaussian is a federally registered
 trademark of Gaussian, Inc.
  
 This software contains proprietary and confidential information,
 including trade secrets, belonging to Gaussian, Inc.
  
 This software is provided under written license and may be
 used, copied, transmitted, or stored only in accord with that
 written license.
  
 The following legend is applicable only to US Government
 contracts under FAR:
  
                    RESTRICTED RIGHTS LEGEND
  
 Use, reproduction and disclosure by the US Government is
 subject to restrictions as set forth in subparagraphs (a)
 and (c) of the Commercial Computer Software - Restricted
 Rights clause in FAR 52.227-19.
  
 Gaussian, Inc.
 340 Quinnipiac St., Bldg. 40, Wallingford CT 06492
  
  
 ---------------------------------------------------------------
 Warning -- This program may not be used in any manner that
 competes with the business of Gaussian, Inc. or will provide
 assistance to any competitor of Gaussian, Inc.  The licensee
 of this program is prohibited from giving any competitor of
 Gaussian, Inc. access to this program.  By using this program,
 the user acknowledges that Gaussian, Inc. is engaged in the
 business of creating and licensing software in the field of
 computational chemistry and represents and warrants to the
 licensee that it is not a competitor of Gaussian, Inc. and that
 it will not use this program in any manner prohibited above.
 ---------------------------------------------------------------
  

 Cite this work as:
 Gaussian 16, Revision A.03,
 M. J. Frisch, G. W. Trucks, H. B. Schlegel, G. E. Scuseria, 
 M. A. Robb, J. R. Cheeseman, G. Scalmani, V. Barone, 
 G. A. Petersson, H. Nakatsuji, X. Li, M. Caricato, A. V. Marenich, 
 J. Bloino, B. G. Janesko, R. Gomperts, B. Mennucci, H. P. Hratchian, 
 J. V. Ortiz, A. F. Izmaylov, J. L. Sonnenberg, D. Williams-Young, 
 F. Ding, F. Lipparini, F. Egidi, J. Goings, B. Peng, A. Petrone, 
 T. Henderson, D. Ranasinghe, V. G. Zakrzewski, J. Gao, N. Rega, 
 G. Zheng, W. Liang, M. Hada, M. Ehara, K. Toyota, R. Fukuda, 
 J. Hasegawa, M. Ishida, T. Nakajima, Y. Honda, O. Kitao, H. Nakai, 
 T. Vreven, K. Throssell, J. A. Montgomery, Jr., J. E. Peralta, 
 F. Ogliaro, M. J. Bearpark, J. J. Heyd, E. N. Brothers, K. N. Kudin, 
 V. N. Staroverov, T. A. Keith, R. Kobayashi, J. Normand, 
 K. Raghavachari, A. P. Rendell, J. C. Burant, S. S. Iyengar, 
 J. Tomasi, M. Cossi, J. M. Millam, M. Klene, C. Adamo, R. Cammi, 
 J. W. Ochterski, R. L. Martin, K. Morokuma, O. Farkas, 
 J. B. Foresman, and D. J. Fox, Gaussian, Inc., Wallingford CT, 2016.
 
 ******************************************
 Gaussian 16:  EM64L-G16RevA.03 25-Dec-2016
                24-Jul-2020 
 ******************************************
 %mem=30GB
 %nproc=8
 Will use up to    8 processors via shared memory.
 ---------------------------------------------------------------
 #P uLC-wPBE/cc-pVDZ iop(3/107=0299000000, 3/108=0299000000) opt
 ---------------------------------------------------------------
 1/18=20,19=15,26=3,38=1/1,3;
 2/9=110,12=2,17=6,18=5,40=1/2;
 3/5=16,11=2,25=1,30=1,71=1,74=-41,107=299000000,108=299000000,116=2/1,2,3;
 4//1;
 5/5=2,38=5/2;
 6/7=2,8=2,9=2,10=2,28=1/1;
 7//1,2,3,16;
 1/18=20,19=15,26=3/3(2);
 2/9=110/2;
 99//99;
 2/9=110/2;
 3/5=16,11=2,25=1,30=1,71=1,74=-41,107=299000000,108=299000000,116=2/1,2,3;
 4/5=5,16=3,69=1/1;
 5/5=2,38=5/2;
 7//1,2,3,16;
 1/18=20,19=15,26=3/3(-5);
 2/9=110/2;
 6/7=2,8=2,9=2,10=2,19=2,28=1/1;
 99/9=1/99;
 Leave Link    1 at Fri Jul 24 14:32:37 2020, MaxMem=  4026531840 cpu:               1.4 elap:               0.2
 (Enter /opt/ohpc/pub/libs/gaussian/g16-A.03/sandybridge/g16/l101.exe)
 -------
 H26 C36
 -------
 Symbolic Z-matrix:
 Charge =  0 Multiplicity = 1
 C                    -12.22676  -0.01055  -0.07118 
 C                    -11.49668  -0.88349   0.83341 
 C                    -10.10853  -0.84413   0.88414 
 C                    -9.35899   0.00127   0.03425 
 C                    -10.05604   0.82373  -0.86373 
 C                    -11.49267   0.91204  -0.89131 
 C                    -7.95082   0.00968  -0.02219 
 C                    -7.20233  -1.14545  -0.17423 
 C                    -5.83317  -1.20044  -0.20318 
 C                    -5.05657   0.04161   0.02787 
 C                    -5.8014    1.20344   0.25979 
 C                    -7.22032   1.15785   0.23124 
 C                    -3.56036   0.01179   0.05628 
 C                    -2.86521  -0.59782  -1.04674 
 C                    -1.42974  -0.58425  -1.06738 
 C                    -0.69922   0.00254   0.05208 
 C                    -1.43658   0.49471   1.06389 
 C                    -2.9107    0.52914   1.08399 
 C                     0.69913   0.02547   0.02443 
 C                     1.41494   0.52046  -1.03142 
 C                     2.85815   0.52388  -1.00781 
 C                     3.59718   0.03342   0.04633 
 C                     2.87487  -0.51015   1.05413 
 C                     1.51095  -0.56141   1.08152 
 C                     5.03029   0.03025  -0.01799 
 C                     5.77364   1.17966  -0.14829 
 C                     7.14333   1.21804  -0.21011 
 C                     7.93034   0.02279   0.03603 
 C                     7.23081  -1.20197   0.20719 
 C                     5.73781  -1.16658   0.21454 
 C                     9.34411  -0.01303  -0.04387 
 C                     10.09634  -0.89286  -0.8868 
 C                     11.45789  -0.83132  -0.84809 
 C                     12.19549   0.02985  -0.07703 
 C                     11.50456   0.83511   0.7812 
 C                     10.12374   0.84887   0.78646 
 H                    -13.23698   0.01137  -0.03454 
 H                    -12.08244  -1.52312   1.5231 
 H                    -9.55737  -1.47393   1.51462 
 H                    -9.52098   1.5126   -1.5161 
 H                    -12.02893   1.54557  -1.6087 
 H                    -7.74918  -2.11648  -0.41403 
 H                    -5.29339  -2.13467  -0.31169 
 H                    -5.2695    2.08442   0.34737 
 H                    -7.70636   2.14537   0.33896 
 H                    -3.38555  -0.91883  -1.89681 
 H                    -0.97688  -0.99086  -1.87388 
 H                    -0.97418   0.99159   1.95702 
 H                    -3.41033   0.98788   1.94281 
 H                     0.9378    0.92588  -1.88252 
 H                     3.37051   0.96282  -1.96192 
 H                     3.38153  -0.94743   1.89664 
 H                     0.90018  -0.97215   1.9601 
 H                     5.22257   2.1115   -0.38556 
 H                     7.66692   2.11833  -0.34261 
 H                     7.66952  -2.14704   0.37293 
 H                     5.25354  -2.14126   0.41374 
 H                     9.53608  -1.47671  -1.53467 
 H                     11.99242  -1.49109  -1.52697 
 H                     13.272    0.05371  -0.01725 
 H                     12.05344   1.53686   1.43996 
 H                     9.56291   1.49255   1.5499 
 
 ITRead=  0  0  0  0  0  0  0  0  0  0  0  0  0  0  0  0  0  0  0  0
 ITRead=  0  0  0  0  0  0  0  0  0  0  0  0  0  0  0  0  0  0  0  0
 ITRead=  0  0  0  0  0  0  0  0  0  0  0  0  0  0  0  0  0  0  0  0
 ITRead=  0  0
 MicOpt= -1 -1 -1 -1 -1 -1 -1 -1 -1 -1 -1 -1 -1 -1 -1 -1 -1 -1 -1 -1
 MicOpt= -1 -1 -1 -1 -1 -1 -1 -1 -1 -1 -1 -1 -1 -1 -1 -1 -1 -1 -1 -1
 MicOpt= -1 -1 -1 -1 -1 -1 -1 -1 -1 -1 -1 -1 -1 -1 -1 -1 -1 -1 -1 -1
 MicOpt= -1 -1
 NAtoms=     62 NQM=       62 NQMF=       0 NMMI=      0 NMMIF=      0
                NMic=       0 NMicF=      0.
                    Isotopes and Nuclear Properties:
 (Nuclear quadrupole moments (NQMom) in fm**2, nuclear magnetic moments (NMagM)
  in nuclear magnetons)

  Atom         1           2           3           4           5           6           7           8           9          10
 IAtWgt=          12          12          12          12          12          12          12          12          12          12
 AtmWgt=  12.0000000  12.0000000  12.0000000  12.0000000  12.0000000  12.0000000  12.0000000  12.0000000  12.0000000  12.0000000
 NucSpn=           0           0           0           0           0           0           0           0           0           0
 AtZEff=  -0.0000000  -0.0000000  -0.0000000  -0.0000000  -0.0000000  -0.0000000  -0.0000000  -0.0000000  -0.0000000  -0.0000000
 NQMom=    0.0000000   0.0000000   0.0000000   0.0000000   0.0000000   0.0000000   0.0000000   0.0000000   0.0000000   0.0000000
 NMagM=    0.0000000   0.0000000   0.0000000   0.0000000   0.0000000   0.0000000   0.0000000   0.0000000   0.0000000   0.0000000
 AtZNuc=   6.0000000   6.0000000   6.0000000   6.0000000   6.0000000   6.0000000   6.0000000   6.0000000   6.0000000   6.0000000

  Atom        11          12          13          14          15          16          17          18          19          20
 IAtWgt=          12          12          12          12          12          12          12          12          12          12
 AtmWgt=  12.0000000  12.0000000  12.0000000  12.0000000  12.0000000  12.0000000  12.0000000  12.0000000  12.0000000  12.0000000
 NucSpn=           0           0           0           0           0           0           0           0           0           0
 AtZEff=  -0.0000000  -0.0000000  -0.0000000  -0.0000000  -0.0000000  -0.0000000  -0.0000000  -0.0000000  -0.0000000  -0.0000000
 NQMom=    0.0000000   0.0000000   0.0000000   0.0000000   0.0000000   0.0000000   0.0000000   0.0000000   0.0000000   0.0000000
 NMagM=    0.0000000   0.0000000   0.0000000   0.0000000   0.0000000   0.0000000   0.0000000   0.0000000   0.0000000   0.0000000
 AtZNuc=   6.0000000   6.0000000   6.0000000   6.0000000   6.0000000   6.0000000   6.0000000   6.0000000   6.0000000   6.0000000

  Atom        21          22          23          24          25          26          27          28          29          30
 IAtWgt=          12          12          12          12          12          12          12          12          12          12
 AtmWgt=  12.0000000  12.0000000  12.0000000  12.0000000  12.0000000  12.0000000  12.0000000  12.0000000  12.0000000  12.0000000
 NucSpn=           0           0           0           0           0           0           0           0           0           0
 AtZEff=  -0.0000000  -0.0000000  -0.0000000  -0.0000000  -0.0000000  -0.0000000  -0.0000000  -0.0000000  -0.0000000  -0.0000000
 NQMom=    0.0000000   0.0000000   0.0000000   0.0000000   0.0000000   0.0000000   0.0000000   0.0000000   0.0000000   0.0000000
 NMagM=    0.0000000   0.0000000   0.0000000   0.0000000   0.0000000   0.0000000   0.0000000   0.0000000   0.0000000   0.0000000
 AtZNuc=   6.0000000   6.0000000   6.0000000   6.0000000   6.0000000   6.0000000   6.0000000   6.0000000   6.0000000   6.0000000

  Atom        31          32          33          34          35          36          37          38          39          40
 IAtWgt=          12          12          12          12          12          12           1           1           1           1
 AtmWgt=  12.0000000  12.0000000  12.0000000  12.0000000  12.0000000  12.0000000   1.0078250   1.0078250   1.0078250   1.0078250
 NucSpn=           0           0           0           0           0           0           1           1           1           1
 AtZEff=  -0.0000000  -0.0000000  -0.0000000  -0.0000000  -0.0000000  -0.0000000  -0.0000000  -0.0000000  -0.0000000  -0.0000000
 NQMom=    0.0000000   0.0000000   0.0000000   0.0000000   0.0000000   0.0000000   0.0000000   0.0000000   0.0000000   0.0000000
 NMagM=    0.0000000   0.0000000   0.0000000   0.0000000   0.0000000   0.0000000   2.7928460   2.7928460   2.7928460   2.7928460
 AtZNuc=   6.0000000   6.0000000   6.0000000   6.0000000   6.0000000   6.0000000   1.0000000   1.0000000   1.0000000   1.0000000

  Atom        41          42          43          44          45          46          47          48          49          50
 IAtWgt=           1           1           1           1           1           1           1           1           1           1
 AtmWgt=   1.0078250   1.0078250   1.0078250   1.0078250   1.0078250   1.0078250   1.0078250   1.0078250   1.0078250   1.0078250
 NucSpn=           1           1           1           1           1           1           1           1           1           1
 AtZEff=  -0.0000000  -0.0000000  -0.0000000  -0.0000000  -0.0000000  -0.0000000  -0.0000000  -0.0000000  -0.0000000  -0.0000000
 NQMom=    0.0000000   0.0000000   0.0000000   0.0000000   0.0000000   0.0000000   0.0000000   0.0000000   0.0000000   0.0000000
 NMagM=    2.7928460   2.7928460   2.7928460   2.7928460   2.7928460   2.7928460   2.7928460   2.7928460   2.7928460   2.7928460
 AtZNuc=   1.0000000   1.0000000   1.0000000   1.0000000   1.0000000   1.0000000   1.0000000   1.0000000   1.0000000   1.0000000

  Atom        51          52          53          54          55          56          57          58          59          60
 IAtWgt=           1           1           1           1           1           1           1           1           1           1
 AtmWgt=   1.0078250   1.0078250   1.0078250   1.0078250   1.0078250   1.0078250   1.0078250   1.0078250   1.0078250   1.0078250
 NucSpn=           1           1           1           1           1           1           1           1           1           1
 AtZEff=  -0.0000000  -0.0000000  -0.0000000  -0.0000000  -0.0000000  -0.0000000  -0.0000000  -0.0000000  -0.0000000  -0.0000000
 NQMom=    0.0000000   0.0000000   0.0000000   0.0000000   0.0000000   0.0000000   0.0000000   0.0000000   0.0000000   0.0000000
 NMagM=    2.7928460   2.7928460   2.7928460   2.7928460   2.7928460   2.7928460   2.7928460   2.7928460   2.7928460   2.7928460
 AtZNuc=   1.0000000   1.0000000   1.0000000   1.0000000   1.0000000   1.0000000   1.0000000   1.0000000   1.0000000   1.0000000

  Atom        61          62
 IAtWgt=           1           1
 AtmWgt=   1.0078250   1.0078250
 NucSpn=           1           1
 AtZEff=  -0.0000000  -0.0000000
 NQMom=    0.0000000   0.0000000
 NMagM=    2.7928460   2.7928460
 AtZNuc=   1.0000000   1.0000000
 Leave Link  101 at Fri Jul 24 14:32:38 2020, MaxMem=  4026531840 cpu:               2.9 elap:               0.4
 (Enter /opt/ohpc/pub/libs/gaussian/g16-A.03/sandybridge/g16/l103.exe)

 GradGradGradGradGradGradGradGradGradGradGradGradGradGradGradGradGradGrad
 Berny optimization.
 Initialization pass.
                           ----------------------------
                           !    Initial Parameters    !
                           ! (Angstroms and Degrees)  !
 --------------------------                            --------------------------
 ! Name  Definition              Value          Derivative Info.                !
 --------------------------------------------------------------------------------
 ! R1    R(1,2)                  1.4537         estimate D2E/DX2                !
 ! R2    R(1,6)                  1.4362         estimate D2E/DX2                !
 ! R3    R(1,37)                 1.0111         estimate D2E/DX2                !
 ! R4    R(2,3)                  1.3896         estimate D2E/DX2                !
 ! R5    R(2,38)                 1.1081         estimate D2E/DX2                !
 ! R6    R(3,4)                  1.4138         estimate D2E/DX2                !
 ! R7    R(3,39)                 1.0478         estimate D2E/DX2                !
 ! R8    R(4,5)                  1.4031         estimate D2E/DX2                !
 ! R9    R(4,7)                  1.4093         estimate D2E/DX2                !
 ! R10   R(5,6)                  1.4396         estimate D2E/DX2                !
 ! R11   R(5,40)                 1.0892         estimate D2E/DX2                !
 ! R12   R(6,41)                 1.0971         estimate D2E/DX2                !
 ! R13   R(7,8)                  1.3848         estimate D2E/DX2                !
 ! R14   R(7,12)                 1.3842         estimate D2E/DX2                !
 ! R15   R(8,9)                  1.3706         estimate D2E/DX2                !
 ! R16   R(8,42)                 1.1399         estimate D2E/DX2                !
 ! R17   R(9,10)                 1.483          estimate D2E/DX2                !
 ! R18   R(9,43)                 1.0844         estimate D2E/DX2                !
 ! R19   R(10,11)                1.3994         estimate D2E/DX2                !
 ! R20   R(10,13)                1.4968         estimate D2E/DX2                !
 ! R21   R(11,12)                1.4199         estimate D2E/DX2                !
 ! R22   R(11,44)                1.0328         estimate D2E/DX2                !
 ! R23   R(12,45)                1.1059         estimate D2E/DX2                !
 ! R24   R(13,14)                1.4393         estimate D2E/DX2                !
 ! R25   R(13,18)                1.3213         estimate D2E/DX2                !
 ! R26   R(14,15)                1.4357         estimate D2E/DX2                !
 ! R27   R(14,46)                1.0471         estimate D2E/DX2                !
 ! R28   R(15,16)                1.4599         estimate D2E/DX2                !
 ! R29   R(15,47)                1.0104         estimate D2E/DX2                !
 ! R30   R(16,17)                1.3452         estimate D2E/DX2                !
 ! R31   R(16,19)                1.3988         estimate D2E/DX2                !
 ! R32   R(17,18)                1.4747         estimate D2E/DX2                !
 ! R33   R(17,48)                1.1218         estimate D2E/DX2                !
 ! R34   R(18,49)                1.0944         estimate D2E/DX2                !
 ! R35   R(19,20)                1.3683         estimate D2E/DX2                !
 ! R36   R(19,24)                1.4563         estimate D2E/DX2                !
 ! R37   R(20,21)                1.4434         estimate D2E/DX2                !
 ! R38   R(20,50)                1.0566         estimate D2E/DX2                !
 ! R39   R(21,22)                1.3776         estimate D2E/DX2                !
 ! R40   R(21,51)                1.1686         estimate D2E/DX2                !
 ! R41   R(22,23)                1.3538         estimate D2E/DX2                !
 ! R42   R(22,25)                1.4346         estimate D2E/DX2                !
 ! R43   R(23,24)                1.3652         estimate D2E/DX2                !
 ! R44   R(23,52)                1.076          estimate D2E/DX2                !
 ! R45   R(24,53)                1.1461         estimate D2E/DX2                !
 ! R46   R(25,26)                1.375          estimate D2E/DX2                !
 ! R47   R(25,30)                1.4096         estimate D2E/DX2                !
 ! R48   R(26,27)                1.3716         estimate D2E/DX2                !
 ! R49   R(26,54)                1.1083         estimate D2E/DX2                !
 ! R50   R(27,28)                1.4521         estimate D2E/DX2                !
 ! R51   R(27,55)                1.0499         estimate D2E/DX2                !
 ! R52   R(28,29)                1.4208         estimate D2E/DX2                !
 ! R53   R(28,31)                1.4165         estimate D2E/DX2                !
 ! R54   R(29,30)                1.4934         estimate D2E/DX2                !
 ! R55   R(29,56)                1.055          estimate D2E/DX2                !
 ! R56   R(30,57)                1.1064         estimate D2E/DX2                !
 ! R57   R(31,32)                1.432          estimate D2E/DX2                !
 ! R58   R(31,36)                1.4283         estimate D2E/DX2                !
 ! R59   R(32,33)                1.3635         estimate D2E/DX2                !
 ! R60   R(32,58)                1.0366         estimate D2E/DX2                !
 ! R61   R(33,34)                1.3712         estimate D2E/DX2                !
 ! R62   R(33,59)                1.0871         estimate D2E/DX2                !
 ! R63   R(34,35)                1.3647         estimate D2E/DX2                !
 ! R64   R(34,60)                1.0784         estimate D2E/DX2                !
 ! R65   R(35,36)                1.3809         estimate D2E/DX2                !
 ! R66   R(35,61)                1.108          estimate D2E/DX2                !
 ! R67   R(36,62)                1.1453         estimate D2E/DX2                !
 ! A1    A(2,1,6)              118.9715         estimate D2E/DX2                !
 ! A2    A(2,1,37)             119.4873         estimate D2E/DX2                !
 ! A3    A(6,1,37)             121.1614         estimate D2E/DX2                !
 ! A4    A(1,2,3)              120.49           estimate D2E/DX2                !
 ! A5    A(1,2,38)             117.9328         estimate D2E/DX2                !
 ! A6    A(3,2,38)             121.444          estimate D2E/DX2                !
 ! A7    A(2,3,4)              121.6397         estimate D2E/DX2                !
 ! A8    A(2,3,39)             122.0316         estimate D2E/DX2                !
 ! A9    A(4,3,39)             116.2481         estimate D2E/DX2                !
 ! A10   A(3,4,5)              118.1553         estimate D2E/DX2                !
 ! A11   A(3,4,7)              123.8739         estimate D2E/DX2                !
 ! A12   A(5,4,7)              117.8562         estimate D2E/DX2                !
 ! A13   A(4,5,6)              122.9554         estimate D2E/DX2                !
 ! A14   A(4,5,40)             120.663          estimate D2E/DX2                !
 ! A15   A(6,5,40)             116.1006         estimate D2E/DX2                !
 ! A16   A(1,6,5)              117.3698         estimate D2E/DX2                !
 ! A17   A(1,6,41)             119.638          estimate D2E/DX2                !
 ! A18   A(5,6,41)             122.3947         estimate D2E/DX2                !
 ! A19   A(4,7,8)              122.6481         estimate D2E/DX2                !
 ! A20   A(4,7,12)             121.6622         estimate D2E/DX2                !
 ! A21   A(8,7,12)             115.2613         estimate D2E/DX2                !
 ! A22   A(7,8,9)              125.1508         estimate D2E/DX2                !
 ! A23   A(7,8,42)             118.3173         estimate D2E/DX2                !
 ! A24   A(9,8,42)             116.1431         estimate D2E/DX2                !
 ! A25   A(8,9,10)             119.0947         estimate D2E/DX2                !
 ! A26   A(8,9,43)             122.2714         estimate D2E/DX2                !
 ! A27   A(10,9,43)            118.4557         estimate D2E/DX2                !
 ! A28   A(9,10,11)            116.2594         estimate D2E/DX2                !
 ! A29   A(9,10,13)            120.6474         estimate D2E/DX2                !
 ! A30   A(11,10,13)           123.0546         estimate D2E/DX2                !
 ! A31   A(10,11,12)           120.124          estimate D2E/DX2                !
 ! A32   A(10,11,44)           116.6222         estimate D2E/DX2                !
 ! A33   A(12,11,44)           122.9376         estimate D2E/DX2                !
 ! A34   A(7,12,11)            123.8939         estimate D2E/DX2                !
 ! A35   A(7,12,45)            121.7733         estimate D2E/DX2                !
 ! A36   A(11,12,45)           114.1137         estimate D2E/DX2                !
 ! A37   A(10,13,14)           118.4698         estimate D2E/DX2                !
 ! A38   A(10,13,18)           119.897          estimate D2E/DX2                !
 ! A39   A(14,13,18)           121.6311         estimate D2E/DX2                !
 ! A40   A(13,14,15)           119.3358         estimate D2E/DX2                !
 ! A41   A(13,14,46)           120.7976         estimate D2E/DX2                !
 ! A42   A(15,14,46)           119.2147         estimate D2E/DX2                !
 ! A43   A(14,15,16)           119.545          estimate D2E/DX2                !
 ! A44   A(14,15,47)           117.1179         estimate D2E/DX2                !
 ! A45   A(16,15,47)           123.3371         estimate D2E/DX2                !
 ! A46   A(15,16,17)           116.7139         estimate D2E/DX2                !
 ! A47   A(15,16,19)           119.4505         estimate D2E/DX2                !
 ! A48   A(17,16,19)           123.8356         estimate D2E/DX2                !
 ! A49   A(16,17,18)           124.5213         estimate D2E/DX2                !
 ! A50   A(16,17,48)           122.3406         estimate D2E/DX2                !
 ! A51   A(18,17,48)           113.0079         estimate D2E/DX2                !
 ! A52   A(13,18,17)           118.1478         estimate D2E/DX2                !
 ! A53   A(13,18,49)           123.37           estimate D2E/DX2                !
 ! A54   A(17,18,49)           118.4802         estimate D2E/DX2                !
 ! A55   A(16,19,20)           122.9666         estimate D2E/DX2                !
 ! A56   A(16,19,24)           122.4324         estimate D2E/DX2                !
 ! A57   A(20,19,24)           114.4736         estimate D2E/DX2                !
 ! A58   A(19,20,21)           120.7507         estimate D2E/DX2                !
 ! A59   A(19,20,50)           121.6106         estimate D2E/DX2                !
 ! A60   A(21,20,50)           117.6319         estimate D2E/DX2                !
 ! A61   A(20,21,22)           123.2329         estimate D2E/DX2                !
 ! A62   A(20,21,51)           115.2096         estimate D2E/DX2                !
 ! A63   A(22,21,51)           121.5521         estimate D2E/DX2                !
 ! A64   A(21,22,23)           115.235          estimate D2E/DX2                !
 ! A65   A(21,22,25)           120.1579         estimate D2E/DX2                !
 ! A66   A(23,22,25)           124.4352         estimate D2E/DX2                !
 ! A67   A(22,23,24)           124.2674         estimate D2E/DX2                !
 ! A68   A(22,23,52)           119.6583         estimate D2E/DX2                !
 ! A69   A(24,23,52)           116.0708         estimate D2E/DX2                !
 ! A70   A(19,24,23)           121.819          estimate D2E/DX2                !
 ! A71   A(19,24,53)           113.8137         estimate D2E/DX2                !
 ! A72   A(23,24,53)           124.1421         estimate D2E/DX2                !
 ! A73   A(22,25,26)           122.8514         estimate D2E/DX2                !
 ! A74   A(22,25,30)           119.7285         estimate D2E/DX2                !
 ! A75   A(26,25,30)           117.0021         estimate D2E/DX2                !
 ! A76   A(25,26,27)           124.5766         estimate D2E/DX2                !
 ! A77   A(25,26,54)           117.021          estimate D2E/DX2                !
 ! A78   A(27,26,54)           117.6038         estimate D2E/DX2                !
 ! A79   A(26,27,28)           120.7002         estimate D2E/DX2                !
 ! A80   A(26,27,55)           121.8501         estimate D2E/DX2                !
 ! A81   A(28,27,55)           117.19           estimate D2E/DX2                !
 ! A82   A(27,28,29)           117.5888         estimate D2E/DX2                !
 ! A83   A(27,28,31)           123.5176         estimate D2E/DX2                !
 ! A84   A(29,28,31)           118.451          estimate D2E/DX2                !
 ! A85   A(28,29,30)           118.1886         estimate D2E/DX2                !
 ! A86   A(28,29,56)           125.9003         estimate D2E/DX2                !
 ! A87   A(30,29,56)           115.8581         estimate D2E/DX2                !
 ! A88   A(25,30,29)           121.404          estimate D2E/DX2                !
 ! A89   A(25,30,57)           123.9146         estimate D2E/DX2                !
 ! A90   A(29,30,57)           114.6813         estimate D2E/DX2                !
 ! A91   A(28,31,32)           124.9636         estimate D2E/DX2                !
 ! A92   A(28,31,36)           119.7847         estimate D2E/DX2                !
 ! A93   A(32,31,36)           115.2283         estimate D2E/DX2                !
 ! A94   A(31,32,33)           118.6938         estimate D2E/DX2                !
 ! A95   A(31,32,58)           115.4707         estimate D2E/DX2                !
 ! A96   A(33,32,58)           125.654          estimate D2E/DX2                !
 ! A97   A(32,33,34)           125.5538         estimate D2E/DX2                !
 ! A98   A(32,33,59)           116.4785         estimate D2E/DX2                !
 ! A99   A(34,33,59)           117.8919         estimate D2E/DX2                !
 ! A100  A(33,34,35)           116.8637         estimate D2E/DX2                !
 ! A101  A(33,34,60)           125.5932         estimate D2E/DX2                !
 ! A102  A(35,34,60)           117.2246         estimate D2E/DX2                !
 ! A103  A(34,35,36)           120.9669         estimate D2E/DX2                !
 ! A104  A(34,35,61)           119.7888         estimate D2E/DX2                !
 ! A105  A(36,35,61)           119.1283         estimate D2E/DX2                !
 ! A106  A(31,36,35)           122.5187         estimate D2E/DX2                !
 ! A107  A(31,36,62)           117.3455         estimate D2E/DX2                !
 ! A108  A(35,36,62)           119.8546         estimate D2E/DX2                !
 ! D1    D(6,1,2,3)             -1.2649         estimate D2E/DX2                !
 ! D2    D(6,1,2,38)           174.6005         estimate D2E/DX2                !
 ! D3    D(37,1,2,3)          -174.274          estimate D2E/DX2                !
 ! D4    D(37,1,2,38)            1.5914         estimate D2E/DX2                !
 ! D5    D(2,1,6,5)              6.0392         estimate D2E/DX2                !
 ! D6    D(2,1,6,41)           177.391          estimate D2E/DX2                !
 ! D7    D(37,1,6,5)           178.9272         estimate D2E/DX2                !
 ! D8    D(37,1,6,41)           -9.721          estimate D2E/DX2                !
 ! D9    D(1,2,3,4)             -2.2956         estimate D2E/DX2                !
 ! D10   D(1,2,3,39)          -178.9097         estimate D2E/DX2                !
 ! D11   D(38,2,3,4)          -178.0136         estimate D2E/DX2                !
 ! D12   D(38,2,3,39)            5.3723         estimate D2E/DX2                !
 ! D13   D(2,3,4,5)              0.7612         estimate D2E/DX2                !
 ! D14   D(2,3,4,7)           -175.257          estimate D2E/DX2                !
 ! D15   D(39,3,4,5)           177.561          estimate D2E/DX2                !
 ! D16   D(39,3,4,7)             1.5427         estimate D2E/DX2                !
 ! D17   D(3,4,5,6)              4.4766         estimate D2E/DX2                !
 ! D18   D(3,4,5,40)           178.1478         estimate D2E/DX2                !
 ! D19   D(7,4,5,6)           -179.2623         estimate D2E/DX2                !
 ! D20   D(7,4,5,40)            -5.591          estimate D2E/DX2                !
 ! D21   D(3,4,7,8)             50.2597         estimate D2E/DX2                !
 ! D22   D(3,4,7,12)          -121.8704         estimate D2E/DX2                !
 ! D23   D(5,4,7,8)           -125.7696         estimate D2E/DX2                !
 ! D24   D(5,4,7,12)            62.1003         estimate D2E/DX2                !
 ! D25   D(4,5,6,1)             -7.8553         estimate D2E/DX2                !
 ! D26   D(4,5,6,41)          -178.9512         estimate D2E/DX2                !
 ! D27   D(40,5,6,1)           178.2058         estimate D2E/DX2                !
 ! D28   D(40,5,6,41)            7.1099         estimate D2E/DX2                !
 ! D29   D(4,7,8,9)           -178.3448         estimate D2E/DX2                !
 ! D30   D(4,7,8,42)             9.1089         estimate D2E/DX2                !
 ! D31   D(12,7,8,9)            -5.749          estimate D2E/DX2                !
 ! D32   D(12,7,8,42)         -178.2953         estimate D2E/DX2                !
 ! D33   D(4,7,12,11)          176.4025         estimate D2E/DX2                !
 ! D34   D(4,7,12,45)           -9.2963         estimate D2E/DX2                !
 ! D35   D(8,7,12,11)            3.7266         estimate D2E/DX2                !
 ! D36   D(8,7,12,45)          178.0277         estimate D2E/DX2                !
 ! D37   D(7,8,9,10)             4.0996         estimate D2E/DX2                !
 ! D38   D(7,8,9,43)           179.1702         estimate D2E/DX2                !
 ! D39   D(42,8,9,10)          176.7908         estimate D2E/DX2                !
 ! D40   D(42,8,9,43)           -8.1386         estimate D2E/DX2                !
 ! D41   D(8,9,10,11)           -0.1718         estimate D2E/DX2                !
 ! D42   D(8,9,10,13)          177.6337         estimate D2E/DX2                !
 ! D43   D(43,9,10,11)        -175.4315         estimate D2E/DX2                !
 ! D44   D(43,9,10,13)           2.3739         estimate D2E/DX2                !
 ! D45   D(9,10,11,12)          -1.603          estimate D2E/DX2                !
 ! D46   D(9,10,11,44)        -175.3339         estimate D2E/DX2                !
 ! D47   D(13,10,11,12)       -179.3503         estimate D2E/DX2                !
 ! D48   D(13,10,11,44)          6.9187         estimate D2E/DX2                !
 ! D49   D(9,10,13,14)          52.1344         estimate D2E/DX2                !
 ! D50   D(9,10,13,18)        -127.3526         estimate D2E/DX2                !
 ! D51   D(11,10,13,14)       -130.2138         estimate D2E/DX2                !
 ! D52   D(11,10,13,18)         50.2992         estimate D2E/DX2                !
 ! D53   D(10,11,12,7)          -0.2223         estimate D2E/DX2                !
 ! D54   D(10,11,12,45)       -174.9155         estimate D2E/DX2                !
 ! D55   D(44,11,12,7)         173.0981         estimate D2E/DX2                !
 ! D56   D(44,11,12,45)         -1.5951         estimate D2E/DX2                !
 ! D57   D(10,13,14,15)        177.2636         estimate D2E/DX2                !
 ! D58   D(10,13,14,46)          6.5902         estimate D2E/DX2                !
 ! D59   D(18,13,14,15)         -3.2588         estimate D2E/DX2                !
 ! D60   D(18,13,14,46)       -173.9322         estimate D2E/DX2                !
 ! D61   D(10,13,18,17)       -179.2162         estimate D2E/DX2                !
 ! D62   D(10,13,18,49)          0.2616         estimate D2E/DX2                !
 ! D63   D(14,13,18,17)          1.3135         estimate D2E/DX2                !
 ! D64   D(14,13,18,49)       -179.2087         estimate D2E/DX2                !
 ! D65   D(13,14,15,16)          2.2454         estimate D2E/DX2                !
 ! D66   D(13,14,15,47)       -177.7745         estimate D2E/DX2                !
 ! D67   D(46,14,15,16)        173.0677         estimate D2E/DX2                !
 ! D68   D(46,14,15,47)         -6.9522         estimate D2E/DX2                !
 ! D69   D(14,15,16,17)          0.6219         estimate D2E/DX2                !
 ! D70   D(14,15,16,19)       -179.4321         estimate D2E/DX2                !
 ! D71   D(47,15,16,17)       -179.3569         estimate D2E/DX2                !
 ! D72   D(47,15,16,19)          0.5891         estimate D2E/DX2                !
 ! D73   D(15,16,17,18)         -2.7151         estimate D2E/DX2                !
 ! D74   D(15,16,17,48)       -178.274          estimate D2E/DX2                !
 ! D75   D(19,16,17,18)        177.3415         estimate D2E/DX2                !
 ! D76   D(19,16,17,48)          1.7827         estimate D2E/DX2                !
 ! D77   D(15,16,19,20)         51.771          estimate D2E/DX2                !
 ! D78   D(15,16,19,24)       -123.897          estimate D2E/DX2                !
 ! D79   D(17,16,19,20)       -128.2871         estimate D2E/DX2                !
 ! D80   D(17,16,19,24)         56.0448         estimate D2E/DX2                !
 ! D81   D(16,17,18,13)          1.825          estimate D2E/DX2                !
 ! D82   D(16,17,18,49)       -177.6788         estimate D2E/DX2                !
 ! D83   D(48,17,18,13)        177.7491         estimate D2E/DX2                !
 ! D84   D(48,17,18,49)         -1.7547         estimate D2E/DX2                !
 ! D85   D(16,19,20,21)        179.8343         estimate D2E/DX2                !
 ! D86   D(16,19,20,50)          0.8111         estimate D2E/DX2                !
 ! D87   D(24,19,20,21)         -4.1823         estimate D2E/DX2                !
 ! D88   D(24,19,20,50)        176.7945         estimate D2E/DX2                !
 ! D89   D(16,19,24,23)       -178.7641         estimate D2E/DX2                !
 ! D90   D(16,19,24,53)         -4.0036         estimate D2E/DX2                !
 ! D91   D(20,19,24,23)          5.2285         estimate D2E/DX2                !
 ! D92   D(20,19,24,53)        179.989          estimate D2E/DX2                !
 ! D93   D(19,20,21,22)          0.4835         estimate D2E/DX2                !
 ! D94   D(19,20,21,51)        179.6548         estimate D2E/DX2                !
 ! D95   D(50,20,21,22)        179.5445         estimate D2E/DX2                !
 ! D96   D(50,20,21,51)         -1.2841         estimate D2E/DX2                !
 ! D97   D(20,21,22,23)          2.5491         estimate D2E/DX2                !
 ! D98   D(20,21,22,25)        177.9937         estimate D2E/DX2                !
 ! D99   D(51,21,22,23)       -176.5711         estimate D2E/DX2                !
 ! D100  D(51,21,22,25)         -1.1265         estimate D2E/DX2                !
 ! D101  D(21,22,23,24)         -1.5309         estimate D2E/DX2                !
 ! D102  D(21,22,23,52)        177.7618         estimate D2E/DX2                !
 ! D103  D(25,22,23,24)       -176.7547         estimate D2E/DX2                !
 ! D104  D(25,22,23,52)          2.538          estimate D2E/DX2                !
 ! D105  D(21,22,25,26)         60.9573         estimate D2E/DX2                !
 ! D106  D(21,22,25,30)       -126.6892         estimate D2E/DX2                !
 ! D107  D(23,22,25,26)       -124.0399         estimate D2E/DX2                !
 ! D108  D(23,22,25,30)         48.3136         estimate D2E/DX2                !
 ! D109  D(22,23,24,19)         -2.4373         estimate D2E/DX2                !
 ! D110  D(22,23,24,53)       -176.6439         estimate D2E/DX2                !
 ! D111  D(52,23,24,19)        178.2469         estimate D2E/DX2                !
 ! D112  D(52,23,24,53)          4.0404         estimate D2E/DX2                !
 ! D113  D(22,25,26,27)        179.8415         estimate D2E/DX2                !
 ! D114  D(22,25,26,54)        -10.6691         estimate D2E/DX2                !
 ! D115  D(30,25,26,27)          7.2929         estimate D2E/DX2                !
 ! D116  D(30,25,26,54)        176.7823         estimate D2E/DX2                !
 ! D117  D(22,25,30,29)       -177.6951         estimate D2E/DX2                !
 ! D118  D(22,25,30,57)          2.3307         estimate D2E/DX2                !
 ! D119  D(26,25,30,29)         -4.9023         estimate D2E/DX2                !
 ! D120  D(26,25,30,57)        175.1235         estimate D2E/DX2                !
 ! D121  D(25,26,27,28)         -8.1263         estimate D2E/DX2                !
 ! D122  D(25,26,27,55)        177.8927         estimate D2E/DX2                !
 ! D123  D(54,26,27,28)       -177.5597         estimate D2E/DX2                !
 ! D124  D(54,26,27,55)          8.4593         estimate D2E/DX2                !
 ! D125  D(26,27,28,29)          6.1811         estimate D2E/DX2                !
 ! D126  D(26,27,28,31)        178.4153         estimate D2E/DX2                !
 ! D127  D(55,27,28,29)       -179.5659         estimate D2E/DX2                !
 ! D128  D(55,27,28,31)         -7.3317         estimate D2E/DX2                !
 ! D129  D(27,28,29,30)         -4.0203         estimate D2E/DX2                !
 ! D130  D(27,28,29,56)        178.7466         estimate D2E/DX2                !
 ! D131  D(31,28,29,30)       -176.6588         estimate D2E/DX2                !
 ! D132  D(31,28,29,56)          6.1081         estimate D2E/DX2                !
 ! D133  D(27,28,31,32)       -123.2128         estimate D2E/DX2                !
 ! D134  D(27,28,31,36)         58.6345         estimate D2E/DX2                !
 ! D135  D(29,28,31,32)         48.9586         estimate D2E/DX2                !
 ! D136  D(29,28,31,36)       -129.1941         estimate D2E/DX2                !
 ! D137  D(28,29,30,25)          3.6167         estimate D2E/DX2                !
 ! D138  D(28,29,30,57)       -176.4068         estimate D2E/DX2                !
 ! D139  D(56,29,30,25)       -178.8738         estimate D2E/DX2                !
 ! D140  D(56,29,30,57)          1.1027         estimate D2E/DX2                !
 ! D141  D(28,31,32,33)       -179.0754         estimate D2E/DX2                !
 ! D142  D(28,31,32,58)          5.5418         estimate D2E/DX2                !
 ! D143  D(36,31,32,33)         -0.8477         estimate D2E/DX2                !
 ! D144  D(36,31,32,58)       -176.2304         estimate D2E/DX2                !
 ! D145  D(28,31,36,35)        178.1924         estimate D2E/DX2                !
 ! D146  D(28,31,36,62)          4.2999         estimate D2E/DX2                !
 ! D147  D(32,31,36,35)         -0.1341         estimate D2E/DX2                !
 ! D148  D(32,31,36,62)       -174.0267         estimate D2E/DX2                !
 ! D149  D(31,32,33,34)         -1.2268         estimate D2E/DX2                !
 ! D150  D(31,32,33,59)       -177.98           estimate D2E/DX2                !
 ! D151  D(58,32,33,34)        173.6418         estimate D2E/DX2                !
 ! D152  D(58,32,33,59)         -3.1114         estimate D2E/DX2                !
 ! D153  D(32,33,34,35)          4.1866         estimate D2E/DX2                !
 ! D154  D(32,33,34,60)        177.499          estimate D2E/DX2                !
 ! D155  D(59,33,34,35)       -179.1016         estimate D2E/DX2                !
 ! D156  D(59,33,34,60)         -5.7892         estimate D2E/DX2                !
 ! D157  D(33,34,35,36)         -5.0206         estimate D2E/DX2                !
 ! D158  D(33,34,35,61)        178.9282         estimate D2E/DX2                !
 ! D159  D(60,34,35,36)       -178.9072         estimate D2E/DX2                !
 ! D160  D(60,34,35,61)          5.0415         estimate D2E/DX2                !
 ! D161  D(34,35,36,31)          3.2052         estimate D2E/DX2                !
 ! D162  D(34,35,36,62)        176.9495         estimate D2E/DX2                !
 ! D163  D(61,35,36,31)        179.282          estimate D2E/DX2                !
 ! D164  D(61,35,36,62)         -6.9736         estimate D2E/DX2                !
 --------------------------------------------------------------------------------
 Trust Radius=3.00D-01 FncErr=1.00D-07 GrdErr=1.00D-06 EigMax=2.50D+02 EigMin=1.00D-04
 Number of steps in this run=    349 maximum allowed number of steps=    372.
 GradGradGradGradGradGradGradGradGradGradGradGradGradGradGradGradGradGrad

 Leave Link  103 at Fri Jul 24 14:32:38 2020, MaxMem=  4026531840 cpu:               0.1 elap:               0.0
 (Enter /opt/ohpc/pub/libs/gaussian/g16-A.03/sandybridge/g16/l202.exe)
 Stoichiometry    C36H26
 Framework group  C1[X(C36H26)]
 Deg. of freedom   180
 Full point group                 C1      NOp   1
 Largest Abelian subgroup         C1      NOp   1
 Largest concise Abelian subgroup C1      NOp   1
                         Standard orientation:                         
 ---------------------------------------------------------------------
 Center     Atomic      Atomic             Coordinates (Angstroms)
 Number     Number       Type             X           Y           Z
 ---------------------------------------------------------------------
      1          6           0      -12.220627    0.009034    0.085570
      2          6           0      -11.491517    0.884265   -0.817582
      3          6           0      -10.103397    0.845284   -0.869655
      4          6           0       -9.352950   -0.002004   -0.022449
      5          6           0      -10.049048   -0.826733    0.874188
      6          6           0      -11.485632   -0.915370    0.902846
      7          6           0       -7.944728   -0.010293    0.032717
      8          6           0       -7.196306    1.144616    0.186834
      9          6           0       -5.827137    1.199779    0.214695
     10          6           0       -5.050517   -0.041570   -0.020004
     11          6           0       -5.795349   -1.202977   -0.254026
     12          6           0       -7.214246   -1.157715   -0.224107
     13          6           0       -3.554334   -0.011403   -0.049679
     14          6           0       -2.858316    0.595703    1.054165
     15          6           0       -1.422826    0.582343    1.073493
     16          6           0       -0.693198   -0.001647   -0.048019
     17          6           0       -1.431371   -0.491540   -1.060340
     18          6           0       -2.905504   -0.526187   -1.079204
     19          6           0        0.705180   -0.024382   -0.021674
     20          6           0        1.422026   -0.521752    1.032361
     21          6           0        2.865212   -0.524853    1.007449
     22          6           0        3.603210   -0.031753   -0.046174
     23          6           0        2.879905    0.514084   -1.052036
     24          6           0        1.515947    0.565163   -1.078086
     25          6           0        5.036379   -0.028469    0.016869
     26          6           0        5.780055   -1.178053    0.143768
     27          6           0        7.149800   -1.216328    0.204271
     28          6           0        7.936376   -0.020346   -0.039723
     29          6           0        7.236477    1.204684   -0.207335
     30          6           0        5.743469    1.169046   -0.213444
     31          6           0        9.350211    0.015536    0.039001
     32          6           0       10.103038    0.893501    0.883346
     33          6           0       11.464558    0.832302    0.843275
     34          6           0       12.201628   -0.026896    0.069508
     35          6           0       11.510072   -0.830230   -0.790016
     36          6           0       10.129260   -0.844236   -0.794075
     37          1           0      -13.230878   -0.012978    0.049782
     38          1           0      -12.078004    1.525428   -1.505222
     39          1           0       -9.552920    1.476686   -1.499124
     40          1           0       -9.513275   -1.517049    1.524436
     41          1           0      -12.021135   -1.550706    1.619203
     42          1           0       -7.743121    2.114969    0.429435
     43          1           0       -5.287429    2.133851    0.324951
     44          1           0       -5.263359   -2.083651   -0.344186
     45          1           0       -7.700202   -2.145070   -0.333741
     46          1           0       -3.377949    0.914589    1.905459
     47          1           0       -0.969312    0.987112    1.880552
     48          1           0       -0.969685   -0.986197   -1.955064
     49          1           0       -3.405813   -0.982974   -1.938671
     50          1           0        0.945720   -0.929290    1.882913
     51          1           0        3.378506   -0.965968    1.960055
     52          1           0        3.385733    0.953467   -1.893954
     53          1           0        0.904314    0.977888   -1.955133
     54          1           0        5.229365   -2.110554    0.379300
     55          1           0        7.673670   -2.116833    0.334154
     56          1           0        7.674860    2.150235   -0.371224
     57          1           0        5.258852    2.144102   -0.409889
     58          1           0        9.543244    1.475697    1.533109
     59          1           0       11.999575    1.490550    1.523246
     60          1           0       13.278083   -0.050415    0.008713
     61          1           0       12.058491   -1.530313   -1.450940
     62          1           0        9.567858   -1.486195   -1.558546
 ---------------------------------------------------------------------
 Rotational constants (GHZ):           0.9608900           0.0195300           0.0194803
 Leave Link  202 at Fri Jul 24 14:32:38 2020, MaxMem=  4026531840 cpu:               0.1 elap:               0.0
 (Enter /opt/ohpc/pub/libs/gaussian/g16-A.03/sandybridge/g16/l301.exe)
 Standard basis: CC-pVDZ (5D, 7F)
 Ernie: Thresh=  0.10000D-02 Tol=  0.10000D-05 Strict=F.
 Ernie:  72 primitive shells out of 922 were deleted.
 There are   670 symmetry adapted cartesian basis functions of A   symmetry.
 There are   634 symmetry adapted basis functions of A   symmetry.
   634 basis functions,  1370 primitive gaussians,   670 cartesian basis functions
   121 alpha electrons      121 beta electrons
       nuclear repulsion energy      2897.2023514006 Hartrees.
 IExCor=32609 DFT=T Ex+Corr=LC-wPBE ExCW=0 ScaHFX=  1.000000
 ScaDFX=  1.000000  0.000000  1.000000  1.000000 ScalE2=  1.000000  1.000000
 IRadAn=      5 IRanWt=     -1 IRanGd=            0 ICorTp=0 IEmpDi=  4
 HFx  wShort=  0.000000 wLong=  0.299000 cFull=  0.000000 cShort=  0.000000 cLong=  1.000000
 DFx  wShort=  0.000000 wLong=  0.299000 cFull=  0.000000 cShort=  0.000000 cLong=  1.000000
 NAtoms=   62 NActive=   62 NUniq=   62 SFac= 1.00D+00 NAtFMM=   60 NAOKFM=T Big=T
 Integral buffers will be    131072 words long.
 Raffenetti 2 integral format.
 Two-electron integral symmetry is turned on.
 Leave Link  301 at Fri Jul 24 14:32:38 2020, MaxMem=  4026531840 cpu:               0.8 elap:               0.1
 (Enter /opt/ohpc/pub/libs/gaussian/g16-A.03/sandybridge/g16/l302.exe)
 NPDir=0 NMtPBC=     1 NCelOv=     1 NCel=       1 NClECP=     1 NCelD=      1
         NCelK=      1 NCelE2=     1 NClLst=     1 CellRange=     0.0.
 One-electron integrals computed using PRISM.
 One-electron integral symmetry used in STVInt
 NBasis=   634 RedAO= T EigKep=  2.41D-04  NBF=   634
 NBsUse=   634 1.00D-06 EigRej= -1.00D+00 NBFU=   634
 Precomputing XC quadrature grid using
 IXCGrd= 4 IRadAn=           5 IRanWt=          -1 IRanGd=           0 AccXCQ= 0.00D+00.
 Generated NRdTot=       0 NPtTot=           0 NUsed=           0 NTot=          32
 NSgBfM=   562   562   562   562   562 MxSgAt=    62 MxSgA2=    62.
 Leave Link  302 at Fri Jul 24 14:32:39 2020, MaxMem=  4026531840 cpu:              11.2 elap:               1.4
 (Enter /opt/ohpc/pub/libs/gaussian/g16-A.03/sandybridge/g16/l303.exe)
 DipDrv:  MaxL=1.
 Leave Link  303 at Fri Jul 24 14:32:39 2020, MaxMem=  4026531840 cpu:               0.9 elap:               0.1
 (Enter /opt/ohpc/pub/libs/gaussian/g16-A.03/sandybridge/g16/l401.exe)
 ExpMin= 1.22D-01 ExpMax= 6.67D+03 ExpMxC= 2.28D+02 IAcc=3 IRadAn=         5 AccDes= 0.00D+00
 Harris functional with IExCor=32609 and IRadAn=       5 diagonalized for initial guess.
 HarFok:  IExCor=32609 AccDes= 0.00D+00 IRadAn=         5 IDoV= 1 UseB2=F ITyADJ=14
 ICtDFT=  3500011 ScaDFX=  1.000000  1.000000  1.000000  1.000000
 FoFCou: FMM=F IPFlag=           0 FMFlag=      100000 FMFlg1=        2001
         NFxFlg=           0 DoJE=T BraDBF=F KetDBF=T FulRan=T
         wScrn=  0.000000 ICntrl=       500 IOpCl=  0 I1Cent=   200000004 NGrid=           0
         NMat0=    1 NMatS0=      1 NMatT0=    0 NMatD0=    1 NMtDS0=    0 NMtDT0=    0
 Petite list used in FoFCou.
 Harris En= -1386.39934061454    
 JPrj=0 DoOrth=F DoCkMO=F.
 Initial guess <Sx>= 0.0000 <Sy>= 0.0000 <Sz>= 0.0000 <S**2>=-0.0000 S=-0.0000
 Leave Link  401 at Fri Jul 24 14:32:46 2020, MaxMem=  4026531840 cpu:              51.3 elap:               6.5
 (Enter /opt/ohpc/pub/libs/gaussian/g16-A.03/sandybridge/g16/l502.exe)
 Integral symmetry usage will be decided dynamically.
 UHF open shell SCF:
 Using DIIS extrapolation, IDIIS=  1040.
 NGot=  4026531840 LenX=  4025621762 LenY=  4025172192
 Requested convergence on RMS density matrix=1.00D-08 within 128 cycles.
 Requested convergence on MAX density matrix=1.00D-06.
 Requested convergence on             energy=1.00D-06.
 No special actions if energy rises.
 Fock matrices will be formed incrementally for  20 cycles.
 Integral accuracy reduced to 1.0D-05 until final iterations.

 Cycle   1  Pass 0  IDiag  1:
 FoFJK:  IHMeth= 1 ICntrl=       0 DoSepK=T KAlg= 0 I1Cent=           0 FoldK=F
 IRaf=         1 NMat=       1 IRICut=       1 DoRegI=T DoRafI=F ISym2E= 0 IDoP0=0 IntGTp=1.
 FoFCou: FMM=T IPFlag=           0 FMFlag=      100000 FMFlg1=        2001
         NFxFlg=           0 DoJE=T BraDBF=F KetDBF=F FulRan=T
         wScrn=  0.000000 ICntrl=       500 IOpCl=  0 I1Cent=           0 NGrid=           0
         NMat0=    1 NMatS0=      1 NMatT0=    0 NMatD0=    1 NMtDS0=    0 NMtDT0=    0
 Symmetry not used in FoFCou.
 FMM levels:  10  Number of levels for PrismC:   9
 E= -1385.78039541272    
 DIIS: error= 2.10D-02 at cycle   1 NSaved=   1.
 NSaved= 1 IEnMin= 1 EnMin= -1385.78039541272     IErMin= 1 ErrMin= 2.10D-02
 ErrMax= 2.10D-02  0.00D+00 EMaxC= 1.00D-01 BMatC= 1.81D+00 BMatP= 1.81D+00
 IDIUse=3 WtCom= 7.90D-01 WtEn= 2.10D-01
 Coeff-Com:  0.100D+01
 Coeff-En:   0.100D+01
 Coeff:      0.100D+01
 Gap=     0.315 Goal=   None    Shift=    0.000
 Gap=     0.315 Goal=   None    Shift=    0.000
 GapD=    0.315 DampG=1.000 DampE=0.500 DampFc=0.5000 IDamp=-1.
 Damping current iteration by 5.00D-01
 RMSDP=2.42D-03 MaxDP=7.21D-02              OVMax= 9.74D-02

 Cycle   2  Pass 0  IDiag  1:
 RMSU=  1.14D-03    CP:  9.68D-01
 E= -1386.08844690841     Delta-E=       -0.308051495694 Rises=F Damp=T
 DIIS: error= 6.40D-03 at cycle   2 NSaved=   2.
 NSaved= 2 IEnMin= 2 EnMin= -1386.08844690841     IErMin= 2 ErrMin= 6.40D-03
 ErrMax= 6.40D-03  0.00D+00 EMaxC= 1.00D-01 BMatC= 1.44D-01 BMatP= 1.81D+00
 IDIUse=3 WtCom= 9.36D-01 WtEn= 6.40D-02
 Coeff-Com: -0.264D+00 0.126D+01
 Coeff-En:   0.000D+00 0.100D+01
 Coeff:     -0.247D+00 0.125D+01
 Gap=     0.319 Goal=   None    Shift=    0.000
 Gap=     0.319 Goal=   None    Shift=    0.000
 RMSDP=8.14D-04 MaxDP=2.44D-02 DE=-3.08D-01 OVMax= 4.17D-02

 Cycle   3  Pass 0  IDiag  1:
 RMSU=  4.97D-04    CP:  9.46D-01  1.51D+00
 E= -1386.34772062216     Delta-E=       -0.259273713753 Rises=F Damp=F
 DIIS: error= 1.83D-03 at cycle   3 NSaved=   3.
 NSaved= 3 IEnMin= 3 EnMin= -1386.34772062216     IErMin= 3 ErrMin= 1.83D-03
 ErrMax= 1.83D-03  0.00D+00 EMaxC= 1.00D-01 BMatC= 1.53D-02 BMatP= 1.44D-01
 IDIUse=3 WtCom= 9.82D-01 WtEn= 1.83D-02
 Coeff-Com: -0.968D-01 0.362D+00 0.735D+00
 Coeff-En:   0.000D+00 0.000D+00 0.100D+01
 Coeff:     -0.950D-01 0.355D+00 0.740D+00
 Gap=     0.317 Goal=   None    Shift=    0.000
 Gap=     0.317 Goal=   None    Shift=    0.000
 RMSDP=1.40D-04 MaxDP=1.01D-02 DE=-2.59D-01 OVMax= 1.57D-02

 Cycle   4  Pass 0  IDiag  1:
 RMSU=  1.34D-04    CP:  9.46D-01  1.52D+00  9.20D-01
 E= -1386.35046899366     Delta-E=       -0.002748371502 Rises=F Damp=F
 DIIS: error= 1.00D-03 at cycle   4 NSaved=   4.
 NSaved= 4 IEnMin= 4 EnMin= -1386.35046899366     IErMin= 4 ErrMin= 1.00D-03
 ErrMax= 1.00D-03  0.00D+00 EMaxC= 1.00D-01 BMatC= 4.65D-03 BMatP= 1.53D-02
 IDIUse=3 WtCom= 9.90D-01 WtEn= 1.00D-02
 Coeff-Com: -0.239D-01 0.729D-01 0.370D+00 0.581D+00
 Coeff-En:   0.000D+00 0.000D+00 0.202D+00 0.798D+00
 Coeff:     -0.237D-01 0.721D-01 0.369D+00 0.583D+00
 Gap=     0.318 Goal=   None    Shift=    0.000
 Gap=     0.318 Goal=   None    Shift=    0.000
 RMSDP=6.35D-05 MaxDP=3.89D-03 DE=-2.75D-03 OVMax= 7.19D-03

 Cycle   5  Pass 0  IDiag  1:
 RMSU=  3.91D-05    CP:  9.45D-01  1.53D+00  9.62D-01  6.64D-01
 E= -1386.35167968303     Delta-E=       -0.001210689363 Rises=F Damp=F
 DIIS: error= 2.07D-04 at cycle   5 NSaved=   5.
 NSaved= 5 IEnMin= 5 EnMin= -1386.35167968303     IErMin= 5 ErrMin= 2.07D-04
 ErrMax= 2.07D-04  0.00D+00 EMaxC= 1.00D-01 BMatC= 1.92D-04 BMatP= 4.65D-03
 IDIUse=3 WtCom= 9.98D-01 WtEn= 2.07D-03
 Coeff-Com:  0.156D-02-0.963D-02 0.514D-01 0.196D+00 0.761D+00
 Coeff-En:   0.000D+00 0.000D+00 0.000D+00 0.000D+00 0.100D+01
 Coeff:      0.156D-02-0.961D-02 0.513D-01 0.196D+00 0.761D+00
 Gap=     0.318 Goal=   None    Shift=    0.000
 Gap=     0.318 Goal=   None    Shift=    0.000
 RMSDP=2.01D-05 MaxDP=8.53D-04 DE=-1.21D-03 OVMax= 1.84D-03

 Cycle   6  Pass 0  IDiag  1:
 RMSU=  1.75D-05    CP:  9.45D-01  1.53D+00  9.70D-01  7.29D-01  9.90D-01
 E= -1386.35173894733     Delta-E=       -0.000059264306 Rises=F Damp=F
 DIIS: error= 5.28D-05 at cycle   6 NSaved=   6.
 NSaved= 6 IEnMin= 6 EnMin= -1386.35173894733     IErMin= 6 ErrMin= 5.28D-05
 ErrMax= 5.28D-05  0.00D+00 EMaxC= 1.00D-01 BMatC= 2.29D-05 BMatP= 1.92D-04
 IDIUse=1 WtCom= 1.00D+00 WtEn= 0.00D+00
 Coeff-Com:  0.212D-02-0.783D-02-0.335D-02 0.357D-01 0.297D+00 0.676D+00
 Coeff:      0.212D-02-0.783D-02-0.335D-02 0.357D-01 0.297D+00 0.676D+00
 Gap=     0.318 Goal=   None    Shift=    0.000
 Gap=     0.318 Goal=   None    Shift=    0.000
 RMSDP=1.29D-05 MaxDP=3.32D-04 DE=-5.93D-05 OVMax= 7.79D-04

 Cycle   7  Pass 0  IDiag  1:
 RMSU=  1.14D-05    CP:  9.45D-01  1.53D+00  9.74D-01  7.40D-01  1.10D+00
                    CP:  1.19D+00
 E= -1386.35174717651     Delta-E=       -0.000008229173 Rises=F Damp=F
 DIIS: error= 5.76D-05 at cycle   7 NSaved=   7.
 NSaved= 7 IEnMin= 7 EnMin= -1386.35174717651     IErMin= 6 ErrMin= 5.28D-05
 ErrMax= 5.76D-05  0.00D+00 EMaxC= 1.00D-01 BMatC= 3.88D-06 BMatP= 2.29D-05
 IDIUse=1 WtCom= 1.00D+00 WtEn= 0.00D+00
 Coeff-Com:  0.661D-03-0.165D-02-0.921D-02-0.195D-01-0.155D-01 0.222D+00
 Coeff-Com:  0.823D+00
 Coeff:      0.661D-03-0.165D-02-0.921D-02-0.195D-01-0.155D-01 0.222D+00
 Coeff:      0.823D+00
 Gap=     0.318 Goal=   None    Shift=    0.000
 Gap=     0.318 Goal=   None    Shift=    0.000
 RMSDP=2.01D-05 MaxDP=4.83D-04 DE=-8.23D-06 OVMax= 3.97D-04

 Cycle   8  Pass 0  IDiag  1:
 RMSU=  1.37D-05    CP:  9.45D-01  1.53D+00  9.77D-01  7.48D-01  1.19D+00
                    CP:  1.69D+00  1.97D+00
 E= -1386.35174915393     Delta-E=       -0.000001977419 Rises=F Damp=F
 DIIS: error= 8.55D-05 at cycle   8 NSaved=   8.
 NSaved= 8 IEnMin= 8 EnMin= -1386.35174915393     IErMin= 6 ErrMin= 5.28D-05
 ErrMax= 8.55D-05  0.00D+00 EMaxC= 1.00D-01 BMatC= 4.33D-06 BMatP= 3.88D-06
 IDIUse=1 WtCom= 1.00D+00 WtEn= 0.00D+00
 Coeff-Com:  0.650D-03-0.163D-02-0.901D-02-0.190D-01-0.147D-01 0.218D+00
 Coeff-Com:  0.803D+00 0.220D-01
 Coeff:      0.650D-03-0.163D-02-0.901D-02-0.190D-01-0.147D-01 0.218D+00
 Coeff:      0.803D+00 0.220D-01
 Gap=     0.318 Goal=   None    Shift=    0.000
 Gap=     0.318 Goal=   None    Shift=    0.000
 RMSDP=7.61D-07 MaxDP=1.83D-05 DE=-1.98D-06 OVMax= 3.19D-06

 Initial convergence to 1.0D-05 achieved.  Increase integral accuracy.
 Cycle   9  Pass 1  IDiag  1:
 E= -1386.35107668762     Delta-E=        0.000672466302 Rises=F Damp=F
 DIIS: error= 3.70D-04 at cycle   1 NSaved=   1.
 NSaved= 1 IEnMin= 1 EnMin= -1386.35107668762     IErMin= 1 ErrMin= 3.70D-04
 ErrMax= 3.70D-04  0.00D+00 EMaxC= 1.00D-01 BMatC= 1.50D-04 BMatP= 1.50D-04
 IDIUse=3 WtCom= 9.96D-01 WtEn= 3.70D-03
 Coeff-Com:  0.100D+01
 Coeff-En:   0.100D+01
 Coeff:      0.100D+01
 Gap=     0.318 Goal=   None    Shift=    0.000
 Gap=     0.318 Goal=   None    Shift=    0.000
 RMSDP=7.61D-07 MaxDP=1.83D-05 DE= 6.72D-04 OVMax= 6.46D-04

 Cycle  10  Pass 1  IDiag  1:
 RMSU=  2.27D-04    CP:  9.99D-01
 E= -1386.35110849415     Delta-E=       -0.000031806527 Rises=F Damp=F
 DIIS: error= 1.69D-05 at cycle   2 NSaved=   2.
 NSaved= 2 IEnMin= 2 EnMin= -1386.35110849415     IErMin= 2 ErrMin= 1.69D-05
 ErrMax= 1.69D-05  0.00D+00 EMaxC= 1.00D-01 BMatC= 4.32D-07 BMatP= 1.50D-04
 IDIUse=1 WtCom= 1.00D+00 WtEn= 0.00D+00
 Coeff-Com: -0.361D-01 0.104D+01
 Coeff:     -0.361D-01 0.104D+01
 Gap=     0.318 Goal=   None    Shift=    0.000
 Gap=     0.318 Goal=   None    Shift=    0.000
 RMSDP=1.15D-05 MaxDP=4.06D-04 DE=-3.18D-05 OVMax= 8.67D-05

 Cycle  11  Pass 1  IDiag  1:
 RMSU=  3.29D-06    CP:  9.99D-01  1.05D+00
 E= -1386.35110857326     Delta-E=       -0.000000079114 Rises=F Damp=F
 DIIS: error= 5.17D-06 at cycle   3 NSaved=   3.
 NSaved= 3 IEnMin= 3 EnMin= -1386.35110857326     IErMin= 3 ErrMin= 5.17D-06
 ErrMax= 5.17D-06  0.00D+00 EMaxC= 1.00D-01 BMatC= 1.65D-07 BMatP= 4.32D-07
 IDIUse=1 WtCom= 1.00D+00 WtEn= 0.00D+00
 Coeff-Com: -0.172D-01 0.452D+00 0.565D+00
 Coeff:     -0.172D-01 0.452D+00 0.565D+00
 Gap=     0.318 Goal=   None    Shift=    0.000
 Gap=     0.318 Goal=   None    Shift=    0.000
 RMSDP=4.51D-07 MaxDP=2.96D-05 DE=-7.91D-08 OVMax= 4.16D-05

 Cycle  12  Pass 1  IDiag  1:
 RMSU=  4.00D-07    CP:  9.99D-01  1.05D+00  1.03D+00
 E= -1386.35110865067     Delta-E=       -0.000000077404 Rises=F Damp=F
 DIIS: error= 1.75D-06 at cycle   4 NSaved=   4.
 NSaved= 4 IEnMin= 4 EnMin= -1386.35110865067     IErMin= 4 ErrMin= 1.75D-06
 ErrMax= 1.75D-06  0.00D+00 EMaxC= 1.00D-01 BMatC= 1.16D-08 BMatP= 1.65D-07
 IDIUse=1 WtCom= 1.00D+00 WtEn= 0.00D+00
 Coeff-Com:  0.906D-03-0.368D-01 0.151D+00 0.885D+00
 Coeff:      0.906D-03-0.368D-01 0.151D+00 0.885D+00
 Gap=     0.318 Goal=   None    Shift=    0.000
 Gap=     0.318 Goal=   None    Shift=    0.000
 RMSDP=2.65D-07 MaxDP=6.51D-06 DE=-7.74D-08 OVMax= 2.64D-05

 Cycle  13  Pass 1  IDiag  1:
 RMSU=  1.52D-07    CP:  9.99D-01  1.05D+00  1.08D+00  9.73D-01
 E= -1386.35110865869     Delta-E=       -0.000000008016 Rises=F Damp=F
 DIIS: error= 7.82D-07 at cycle   5 NSaved=   5.
 NSaved= 5 IEnMin= 5 EnMin= -1386.35110865869     IErMin= 5 ErrMin= 7.82D-07
 ErrMax= 7.82D-07  0.00D+00 EMaxC= 1.00D-01 BMatC= 3.02D-09 BMatP= 1.16D-08
 IDIUse=1 WtCom= 1.00D+00 WtEn= 0.00D+00
 Coeff-Com:  0.216D-02-0.625D-01 0.658D-02 0.392D+00 0.661D+00
 Coeff:      0.216D-02-0.625D-01 0.658D-02 0.392D+00 0.661D+00
 Gap=     0.318 Goal=   None    Shift=    0.000
 Gap=     0.318 Goal=   None    Shift=    0.000
 RMSDP=7.67D-08 MaxDP=2.63D-06 DE=-8.02D-09 OVMax= 1.21D-05

 Cycle  14  Pass 1  IDiag  1:
 RMSU=  6.32D-08    CP:  9.99D-01  1.05D+00  1.09D+00  1.04D+00  1.12D+00
 E= -1386.35110866011     Delta-E=       -0.000000001430 Rises=F Damp=F
 DIIS: error= 5.66D-07 at cycle   6 NSaved=   6.
 NSaved= 6 IEnMin= 6 EnMin= -1386.35110866011     IErMin= 6 ErrMin= 5.66D-07
 ErrMax= 5.66D-07  0.00D+00 EMaxC= 1.00D-01 BMatC= 4.69D-10 BMatP= 3.02D-09
 IDIUse=1 WtCom= 1.00D+00 WtEn= 0.00D+00
 Coeff-Com: -0.743D-04 0.539D-02-0.477D-01-0.233D+00 0.768D-01 0.120D+01
 Coeff:     -0.743D-04 0.539D-02-0.477D-01-0.233D+00 0.768D-01 0.120D+01
 Gap=     0.318 Goal=   None    Shift=    0.000
 Gap=     0.318 Goal=   None    Shift=    0.000
 RMSDP=6.46D-08 MaxDP=3.20D-06 DE=-1.43D-09 OVMax= 1.31D-05

 Cycle  15  Pass 1  IDiag  1:
 RMSU=  3.34D-08    CP:  9.99D-01  1.05D+00  1.09D+00  1.07D+00  1.44D+00
                    CP:  1.37D+00
 E= -1386.35110866078     Delta-E=       -0.000000000664 Rises=F Damp=F
 DIIS: error= 2.22D-07 at cycle   7 NSaved=   7.
 NSaved= 7 IEnMin= 7 EnMin= -1386.35110866078     IErMin= 7 ErrMin= 2.22D-07
 ErrMax= 2.22D-07  0.00D+00 EMaxC= 1.00D-01 BMatC= 1.49D-10 BMatP= 4.69D-10
 IDIUse=1 WtCom= 1.00D+00 WtEn= 0.00D+00
 Coeff-Com: -0.381D-03 0.128D-01-0.263D-01-0.186D+00-0.666D-01 0.623D+00
 Coeff-Com:  0.643D+00
 Coeff:     -0.381D-03 0.128D-01-0.263D-01-0.186D+00-0.666D-01 0.623D+00
 Coeff:      0.643D+00
 Gap=     0.318 Goal=   None    Shift=    0.000
 Gap=     0.318 Goal=   None    Shift=    0.000
 RMSDP=2.00D-08 MaxDP=9.53D-07 DE=-6.64D-10 OVMax= 3.61D-06

 Cycle  16  Pass 1  IDiag  1:
 RMSU=  1.26D-08    CP:  9.99D-01  1.05D+00  1.09D+00  1.07D+00  1.50D+00
                    CP:  1.54D+00  1.11D+00
 E= -1386.35110866096     Delta-E=       -0.000000000178 Rises=F Damp=F
 DIIS: error= 6.14D-08 at cycle   8 NSaved=   8.
 NSaved= 8 IEnMin= 8 EnMin= -1386.35110866096     IErMin= 8 ErrMin= 6.14D-08
 ErrMax= 6.14D-08  0.00D+00 EMaxC= 1.00D-01 BMatC= 8.60D-12 BMatP= 1.49D-10
 IDIUse=1 WtCom= 1.00D+00 WtEn= 0.00D+00
 Coeff-Com: -0.294D-04 0.590D-03 0.375D-02 0.119D-01-0.177D-01-0.940D-01
 Coeff-Com:  0.740D-01 0.102D+01
 Coeff:     -0.294D-04 0.590D-03 0.375D-02 0.119D-01-0.177D-01-0.940D-01
 Coeff:      0.740D-01 0.102D+01
 Gap=     0.318 Goal=   None    Shift=    0.000
 Gap=     0.318 Goal=   None    Shift=    0.000
 RMSDP=7.81D-09 MaxDP=3.65D-07 DE=-1.78D-10 OVMax= 1.43D-06

 SCF Done:  E(ULC-wPBE) =  -1386.35110866     A.U. after   16 cycles
            NFock= 16  Conv=0.78D-08     -V/T= 2.0068
 <Sx>= 0.0000 <Sy>= 0.0000 <Sz>= 0.0000 <S**2>=-0.0000 S=-0.0000
 <L.S>= 0.000000000000E+00
 KE= 1.376988434246D+03 PE=-9.008362704379D+03 EE= 3.347820810072D+03
 Annihilation of the first spin contaminant:
 S**2 before annihilation    -0.0000,   after     0.0000
 Leave Link  502 at Fri Jul 24 14:38:27 2020, MaxMem=  4026531840 cpu:            2671.2 elap:             340.9
 (Enter /opt/ohpc/pub/libs/gaussian/g16-A.03/sandybridge/g16/l601.exe)
 Copying SCF densities to generalized density rwf, IOpCl= 1 IROHF=0.

 **********************************************************************

            Population analysis using the SCF density.

 **********************************************************************

 Orbital symmetries:
 Alpha Orbitals:
       Occupied  (A) (A) (A) (A) (A) (A) (A) (A) (A) (A) (A) (A)
                 (A) (A) (A) (A) (A) (A) (A) (A) (A) (A) (A) (A)
                 (A) (A) (A) (A) (A) (A) (A) (A) (A) (A) (A) (A)
                 (A) (A) (A) (A) (A) (A) (A) (A) (A) (A) (A) (A)
                 (A) (A) (A) (A) (A) (A) (A) (A) (A) (A) (A) (A)
                 (A) (A) (A) (A) (A) (A) (A) (A) (A) (A) (A) (A)
                 (A) (A) (A) (A) (A) (A) (A) (A) (A) (A) (A) (A)
                 (A) (A) (A) (A) (A) (A) (A) (A) (A) (A) (A) (A)
                 (A) (A) (A) (A) (A) (A) (A) (A) (A) (A) (A) (A)
                 (A) (A) (A) (A) (A) (A) (A) (A) (A) (A) (A) (A)
                 (A)
       Virtual   (A) (A) (A) (A) (A) (A) (A) (A) (A) (A) (A) (A)
                 (A) (A) (A) (A) (A) (A) (A) (A) (A) (A) (A) (A)
                 (A) (A) (A) (A) (A) (A) (A) (A) (A) (A) (A) (A)
                 (A) (A) (A) (A) (A) (A) (A) (A) (A) (A) (A) (A)
                 (A) (A) (A) (A) (A) (A) (A) (A) (A) (A) (A) (A)
                 (A) (A) (A) (A) (A) (A) (A) (A) (A) (A) (A) (A)
                 (A) (A) (A) (A) (A) (A) (A) (A) (A) (A) (A) (A)
                 (A) (A) (A) (A) (A) (A) (A) (A) (A) (A) (A) (A)
                 (A) (A) (A) (A) (A) (A) (A) (A) (A) (A) (A) (A)
                 (A) (A) (A) (A) (A) (A) (A) (A) (A) (A) (A) (A)
                 (A) (A) (A) (A) (A) (A) (A) (A) (A) (A) (A) (A)
                 (A) (A) (A) (A) (A) (A) (A) (A) (A) (A) (A) (A)
                 (A) (A) (A) (A) (A) (A) (A) (A) (A) (A) (A) (A)
                 (A) (A) (A) (A) (A) (A) (A) (A) (A) (A) (A) (A)
                 (A) (A) (A) (A) (A) (A) (A) (A) (A) (A) (A) (A)
                 (A) (A) (A) (A) (A) (A) (A) (A) (A) (A) (A) (A)
                 (A) (A) (A) (A) (A) (A) (A) (A) (A) (A) (A) (A)
                 (A) (A) (A) (A) (A) (A) (A) (A) (A) (A) (A) (A)
                 (A) (A) (A) (A) (A) (A) (A) (A) (A) (A) (A) (A)
                 (A) (A) (A) (A) (A) (A) (A) (A) (A) (A) (A) (A)
                 (A) (A) (A) (A) (A) (A) (A) (A) (A) (A) (A) (A)
                 (A) (A) (A) (A) (A) (A) (A) (A) (A) (A) (A) (A)
                 (A) (A) (A) (A) (A) (A) (A) (A) (A) (A) (A) (A)
                 (A) (A) (A) (A) (A) (A) (A) (A) (A) (A) (A) (A)
                 (A) (A) (A) (A) (A) (A) (A) (A) (A) (A) (A) (A)
                 (A) (A) (A) (A) (A) (A) (A) (A) (A) (A) (A) (A)
                 (A) (A) (A) (A) (A) (A) (A) (A) (A) (A) (A) (A)
                 (A) (A) (A) (A) (A) (A) (A) (A) (A) (A) (A) (A)
                 (A) (A) (A) (A) (A) (A) (A) (A) (A) (A) (A) (A)
                 (A) (A) (A) (A) (A) (A) (A) (A) (A) (A) (A) (A)
                 (A) (A) (A) (A) (A) (A) (A) (A) (A) (A) (A) (A)
                 (A) (A) (A) (A) (A) (A) (A) (A) (A) (A) (A) (A)
                 (A) (A) (A) (A) (A) (A) (A) (A) (A) (A) (A) (A)
                 (A) (A) (A) (A) (A) (A) (A) (A) (A) (A) (A) (A)
                 (A) (A) (A) (A) (A) (A) (A) (A) (A) (A) (A) (A)
                 (A) (A) (A) (A) (A) (A) (A) (A) (A) (A) (A) (A)
                 (A) (A) (A) (A) (A) (A) (A) (A) (A) (A) (A) (A)
                 (A) (A) (A) (A) (A) (A) (A) (A) (A) (A) (A) (A)
                 (A) (A) (A) (A) (A) (A) (A) (A) (A) (A) (A) (A)
                 (A) (A) (A) (A) (A) (A) (A) (A) (A) (A) (A) (A)
                 (A) (A) (A) (A) (A) (A) (A) (A) (A) (A) (A) (A)
                 (A) (A) (A) (A) (A) (A) (A) (A) (A) (A) (A) (A)
                 (A) (A) (A) (A) (A) (A) (A) (A) (A)
 Beta  Orbitals:
       Occupied  (A) (A) (A) (A) (A) (A) (A) (A) (A) (A) (A) (A)
                 (A) (A) (A) (A) (A) (A) (A) (A) (A) (A) (A) (A)
                 (A) (A) (A) (A) (A) (A) (A) (A) (A) (A) (A) (A)
                 (A) (A) (A) (A) (A) (A) (A) (A) (A) (A) (A) (A)
                 (A) (A) (A) (A) (A) (A) (A) (A) (A) (A) (A) (A)
                 (A) (A) (A) (A) (A) (A) (A) (A) (A) (A) (A) (A)
                 (A) (A) (A) (A) (A) (A) (A) (A) (A) (A) (A) (A)
                 (A) (A) (A) (A) (A) (A) (A) (A) (A) (A) (A) (A)
                 (A) (A) (A) (A) (A) (A) (A) (A) (A) (A) (A) (A)
                 (A) (A) (A) (A) (A) (A) (A) (A) (A) (A) (A) (A)
                 (A)
       Virtual   (A) (A) (A) (A) (A) (A) (A) (A) (A) (A) (A) (A)
                 (A) (A) (A) (A) (A) (A) (A) (A) (A) (A) (A) (A)
                 (A) (A) (A) (A) (A) (A) (A) (A) (A) (A) (A) (A)
                 (A) (A) (A) (A) (A) (A) (A) (A) (A) (A) (A) (A)
                 (A) (A) (A) (A) (A) (A) (A) (A) (A) (A) (A) (A)
                 (A) (A) (A) (A) (A) (A) (A) (A) (A) (A) (A) (A)
                 (A) (A) (A) (A) (A) (A) (A) (A) (A) (A) (A) (A)
                 (A) (A) (A) (A) (A) (A) (A) (A) (A) (A) (A) (A)
                 (A) (A) (A) (A) (A) (A) (A) (A) (A) (A) (A) (A)
                 (A) (A) (A) (A) (A) (A) (A) (A) (A) (A) (A) (A)
                 (A) (A) (A) (A) (A) (A) (A) (A) (A) (A) (A) (A)
                 (A) (A) (A) (A) (A) (A) (A) (A) (A) (A) (A) (A)
                 (A) (A) (A) (A) (A) (A) (A) (A) (A) (A) (A) (A)
                 (A) (A) (A) (A) (A) (A) (A) (A) (A) (A) (A) (A)
                 (A) (A) (A) (A) (A) (A) (A) (A) (A) (A) (A) (A)
                 (A) (A) (A) (A) (A) (A) (A) (A) (A) (A) (A) (A)
                 (A) (A) (A) (A) (A) (A) (A) (A) (A) (A) (A) (A)
                 (A) (A) (A) (A) (A) (A) (A) (A) (A) (A) (A) (A)
                 (A) (A) (A) (A) (A) (A) (A) (A) (A) (A) (A) (A)
                 (A) (A) (A) (A) (A) (A) (A) (A) (A) (A) (A) (A)
                 (A) (A) (A) (A) (A) (A) (A) (A) (A) (A) (A) (A)
                 (A) (A) (A) (A) (A) (A) (A) (A) (A) (A) (A) (A)
                 (A) (A) (A) (A) (A) (A) (A) (A) (A) (A) (A) (A)
                 (A) (A) (A) (A) (A) (A) (A) (A) (A) (A) (A) (A)
                 (A) (A) (A) (A) (A) (A) (A) (A) (A) (A) (A) (A)
                 (A) (A) (A) (A) (A) (A) (A) (A) (A) (A) (A) (A)
                 (A) (A) (A) (A) (A) (A) (A) (A) (A) (A) (A) (A)
                 (A) (A) (A) (A) (A) (A) (A) (A) (A) (A) (A) (A)
                 (A) (A) (A) (A) (A) (A) (A) (A) (A) (A) (A) (A)
                 (A) (A) (A) (A) (A) (A) (A) (A) (A) (A) (A) (A)
                 (A) (A) (A) (A) (A) (A) (A) (A) (A) (A) (A) (A)
                 (A) (A) (A) (A) (A) (A) (A) (A) (A) (A) (A) (A)
                 (A) (A) (A) (A) (A) (A) (A) (A) (A) (A) (A) (A)
                 (A) (A) (A) (A) (A) (A) (A) (A) (A) (A) (A) (A)
                 (A) (A) (A) (A) (A) (A) (A) (A) (A) (A) (A) (A)
                 (A) (A) (A) (A) (A) (A) (A) (A) (A) (A) (A) (A)
                 (A) (A) (A) (A) (A) (A) (A) (A) (A) (A) (A) (A)
                 (A) (A) (A) (A) (A) (A) (A) (A) (A) (A) (A) (A)
                 (A) (A) (A) (A) (A) (A) (A) (A) (A) (A) (A) (A)
                 (A) (A) (A) (A) (A) (A) (A) (A) (A) (A) (A) (A)
                 (A) (A) (A) (A) (A) (A) (A) (A) (A) (A) (A) (A)
                 (A) (A) (A) (A) (A) (A) (A) (A) (A) (A) (A) (A)
                 (A) (A) (A) (A) (A) (A) (A) (A) (A)
 The electronic state is 1-A.
 Alpha  occ. eigenvalues --  -10.08513 -10.08365 -10.08104 -10.07938 -10.07840
 Alpha  occ. eigenvalues --  -10.07827 -10.07795 -10.07792 -10.07777 -10.07754
 Alpha  occ. eigenvalues --  -10.07729 -10.07613 -10.07602 -10.07586 -10.07570
 Alpha  occ. eigenvalues --  -10.07536 -10.07515 -10.07376 -10.07288 -10.07264
 Alpha  occ. eigenvalues --  -10.07247 -10.07187 -10.07153 -10.07143 -10.07121
 Alpha  occ. eigenvalues --  -10.07119 -10.07102 -10.06949 -10.06786 -10.06780
 Alpha  occ. eigenvalues --  -10.06633 -10.06568 -10.06481 -10.06417 -10.06317
 Alpha  occ. eigenvalues --  -10.06282  -0.98216  -0.97464  -0.96957  -0.96140
 Alpha  occ. eigenvalues --   -0.94648  -0.93658  -0.91207  -0.89003  -0.87260
 Alpha  occ. eigenvalues --   -0.85045  -0.84819  -0.84609  -0.84354  -0.83927
 Alpha  occ. eigenvalues --   -0.83878  -0.83681  -0.81816  -0.80071  -0.75026
 Alpha  occ. eigenvalues --   -0.73018  -0.72857  -0.72042  -0.71187  -0.70663
 Alpha  occ. eigenvalues --   -0.70183  -0.69166  -0.68768  -0.68179  -0.67047
 Alpha  occ. eigenvalues --   -0.66443  -0.63629  -0.63130  -0.62506  -0.61305
 Alpha  occ. eigenvalues --   -0.59566  -0.58087  -0.57586  -0.57476  -0.56682
 Alpha  occ. eigenvalues --   -0.55916  -0.55127  -0.54810  -0.54189  -0.53984
 Alpha  occ. eigenvalues --   -0.53762  -0.53641  -0.53441  -0.52793  -0.51976
 Alpha  occ. eigenvalues --   -0.51247  -0.51082  -0.50985  -0.50614  -0.50357
 Alpha  occ. eigenvalues --   -0.49782  -0.49341  -0.48839  -0.48418  -0.47651
 Alpha  occ. eigenvalues --   -0.47079  -0.46664  -0.46415  -0.45959  -0.44959
 Alpha  occ. eigenvalues --   -0.44747  -0.44021  -0.43837  -0.43146  -0.42626
 Alpha  occ. eigenvalues --   -0.42300  -0.41967  -0.41562  -0.41101  -0.37899
 Alpha  occ. eigenvalues --   -0.36585  -0.35262  -0.34835  -0.34726  -0.34390
 Alpha  occ. eigenvalues --   -0.34142  -0.33948  -0.33794  -0.33072  -0.31050
 Alpha  occ. eigenvalues --   -0.29937
 Alpha virt. eigenvalues --    0.01903   0.03195   0.04799   0.05161   0.05457
 Alpha virt. eigenvalues --    0.05807   0.06531   0.06779   0.07240   0.07756
 Alpha virt. eigenvalues --    0.09351   0.10839   0.14578   0.15218   0.15409
 Alpha virt. eigenvalues --    0.15583   0.15935   0.16331   0.16942   0.17372
 Alpha virt. eigenvalues --    0.17970   0.18643   0.19091   0.19270   0.19614
 Alpha virt. eigenvalues --    0.20045   0.20883   0.21700   0.21730   0.22025
 Alpha virt. eigenvalues --    0.22138   0.22705   0.22806   0.23111   0.23465
 Alpha virt. eigenvalues --    0.23669   0.23756   0.24062   0.24275   0.24556
 Alpha virt. eigenvalues --    0.24862   0.25116   0.25536   0.26093   0.30270
 Alpha virt. eigenvalues --    0.30907   0.31208   0.31924   0.32952   0.33235
 Alpha virt. eigenvalues --    0.34671   0.35308   0.35968   0.36424   0.36654
 Alpha virt. eigenvalues --    0.36799   0.37045   0.37331   0.37404   0.37584
 Alpha virt. eigenvalues --    0.38039   0.38729   0.39603   0.39970   0.40590
 Alpha virt. eigenvalues --    0.41068   0.41605   0.42361   0.42875   0.43124
 Alpha virt. eigenvalues --    0.43627   0.44531   0.45001   0.48924   0.49261
 Alpha virt. eigenvalues --    0.49630   0.50295   0.50890   0.51132   0.51865
 Alpha virt. eigenvalues --    0.52106   0.52437   0.52750   0.53039   0.53551
 Alpha virt. eigenvalues --    0.53679   0.53970   0.54461   0.54742   0.55359
 Alpha virt. eigenvalues --    0.56055   0.56436   0.56982   0.57165   0.57513
 Alpha virt. eigenvalues --    0.57620   0.57949   0.58100   0.58337   0.58385
 Alpha virt. eigenvalues --    0.58567   0.58880   0.59011   0.59279   0.59474
 Alpha virt. eigenvalues --    0.59534   0.59913   0.60287   0.60374   0.60427
 Alpha virt. eigenvalues --    0.60574   0.60976   0.61129   0.61304   0.61556
 Alpha virt. eigenvalues --    0.61696   0.62095   0.62198   0.62486   0.62607
 Alpha virt. eigenvalues --    0.62962   0.63074   0.63842   0.64064   0.64265
 Alpha virt. eigenvalues --    0.64687   0.65010   0.65108   0.65355   0.65883
 Alpha virt. eigenvalues --    0.66130   0.66619   0.67183   0.67521   0.68071
 Alpha virt. eigenvalues --    0.68513   0.68815   0.69146   0.69448   0.69843
 Alpha virt. eigenvalues --    0.70479   0.70579   0.70803   0.71136   0.71591
 Alpha virt. eigenvalues --    0.71790   0.72188   0.72774   0.72858   0.73568
 Alpha virt. eigenvalues --    0.73844   0.74101   0.74373   0.74860   0.74937
 Alpha virt. eigenvalues --    0.75442   0.75774   0.76042   0.76491   0.76916
 Alpha virt. eigenvalues --    0.77124   0.77447   0.77892   0.78306   0.78700
 Alpha virt. eigenvalues --    0.78972   0.79285   0.79470   0.79812   0.79970
 Alpha virt. eigenvalues --    0.80315   0.80503   0.80753   0.81359   0.81918
 Alpha virt. eigenvalues --    0.82103   0.82580   0.83351   0.83935   0.84567
 Alpha virt. eigenvalues --    0.85012   0.85876   0.86460   0.86553   0.87233
 Alpha virt. eigenvalues --    0.87530   0.88489   0.90752   0.91688   0.92743
 Alpha virt. eigenvalues --    0.93450   0.94974   0.95681   0.96039   0.97386
 Alpha virt. eigenvalues --    0.97750   0.97993   0.98977   0.99167   0.99800
 Alpha virt. eigenvalues --    1.00039   1.00309   1.01159   1.01856   1.01912
 Alpha virt. eigenvalues --    1.02744   1.02975   1.03470   1.03855   1.04491
 Alpha virt. eigenvalues --    1.04917   1.05208   1.05275   1.05743   1.06018
 Alpha virt. eigenvalues --    1.06307   1.06549   1.07099   1.07469   1.07867
 Alpha virt. eigenvalues --    1.08572   1.08787   1.09324   1.09594   1.09776
 Alpha virt. eigenvalues --    1.10322   1.10542   1.10714   1.11174   1.11597
 Alpha virt. eigenvalues --    1.11804   1.12178   1.12282   1.12691   1.12956
 Alpha virt. eigenvalues --    1.13169   1.13729   1.13926   1.14280   1.14672
 Alpha virt. eigenvalues --    1.14973   1.15683   1.16420   1.16650   1.17126
 Alpha virt. eigenvalues --    1.17711   1.18747   1.19060   1.19547   1.19775
 Alpha virt. eigenvalues --    1.20471   1.20753   1.21202   1.21311   1.21803
 Alpha virt. eigenvalues --    1.22415   1.22805   1.22863   1.23430   1.24214
 Alpha virt. eigenvalues --    1.24630   1.25057   1.27737   1.29461   1.32050
 Alpha virt. eigenvalues --    1.32437   1.32725   1.33117   1.33286   1.33868
 Alpha virt. eigenvalues --    1.35211   1.38697   1.39584   1.40012   1.40232
 Alpha virt. eigenvalues --    1.40583   1.41186   1.42083   1.42411   1.43198
 Alpha virt. eigenvalues --    1.45424   1.46947   1.47306   1.49328   1.50182
 Alpha virt. eigenvalues --    1.50743   1.51016   1.51814   1.52054   1.52744
 Alpha virt. eigenvalues --    1.52888   1.53183   1.53726   1.54526   1.55060
[...]
    59   Atom        0.000000      0.000000      0.000000
    60   Atom        0.000000     -0.000000      0.000000
    61   Atom        0.000000      0.000000      0.000000
    62   Atom        0.000000      0.000000      0.000000
 --------------------------------------------------------


 ---------------------------------------------------------------------------------
              Anisotropic Spin Dipole Couplings in Principal Axis System
 ---------------------------------------------------------------------------------

       Atom             a.u.   MegaHertz   Gauss  10(-4) cm-1        Axes

              Baa    -0.0000    -0.000    -0.000    -0.000  0.0104  0.3043  0.9525
     1 C(13)  Bbb     0.0000     0.000     0.000     0.000  0.9790  0.1911 -0.0718
              Bcc     0.0000     0.000     0.000     0.000 -0.2038  0.9332 -0.2959
 
              Baa    -0.0000    -0.000    -0.000    -0.000  0.1103  0.2645  0.9581
     2 C(13)  Bbb     0.0000     0.000     0.000     0.000  0.8542  0.4676 -0.2274
              Bcc     0.0000     0.000     0.000     0.000 -0.5081  0.8435 -0.1744
 
              Baa    -0.0000    -0.000    -0.000    -0.000 -0.4811  0.8590 -0.1754
     3 C(13)  Bbb     0.0000     0.000     0.000     0.000 -0.5408 -0.1333  0.8305
              Bcc     0.0000     0.000     0.000     0.000  0.6900  0.4944  0.5287
 
              Baa    -0.0000    -0.000    -0.000    -0.000  0.9984  0.0464  0.0335
     4 C(13)  Bbb     0.0000     0.000     0.000     0.000 -0.0061 -0.4958  0.8684
              Bcc     0.0000     0.000     0.000     0.000 -0.0569  0.8672  0.4947
 
              Baa    -0.0000    -0.000    -0.000    -0.000 -0.0934  0.9779 -0.1872
     5 C(13)  Bbb     0.0000     0.000     0.000     0.000  0.9913  0.1088  0.0740
              Bcc     0.0000     0.000     0.000     0.000 -0.0927  0.1786  0.9795
 
              Baa    -0.0000    -0.000    -0.000    -0.000  0.9377 -0.3145 -0.1478
     6 C(13)  Bbb     0.0000     0.000     0.000     0.000  0.2009  0.1436  0.9690
              Bcc     0.0000     0.000     0.000     0.000  0.2835  0.9383 -0.1979
 
              Baa    -0.0000    -0.000    -0.000    -0.000  0.9934 -0.0762  0.0858
     7 C(13)  Bbb     0.0000     0.000     0.000     0.000 -0.0788  0.0910  0.9927
              Bcc     0.0000     0.000     0.000     0.000  0.0834  0.9929 -0.0844
 
              Baa    -0.0000    -0.000    -0.000    -0.000  0.8162  0.3556  0.4554
     8 C(13)  Bbb    -0.0000    -0.000    -0.000    -0.000 -0.2682 -0.4650  0.8437
              Bcc     0.0000     0.000     0.000     0.000 -0.5118  0.8108  0.2841
 
              Baa    -0.0000    -0.000    -0.000    -0.000 -0.1240  0.9453  0.3016
     9 C(13)  Bbb     0.0000     0.000     0.000     0.000  0.8912 -0.0275  0.4529
              Bcc     0.0000     0.000     0.000     0.000 -0.4364 -0.3249  0.8390
 
              Baa    -0.0000    -0.000    -0.000    -0.000  0.1958  0.6897  0.6971
    10 C(13)  Bbb     0.0000     0.000     0.000     0.000 -0.2288  0.7234 -0.6515
              Bcc     0.0000     0.000     0.000     0.000  0.9536  0.0319 -0.2994
 
              Baa    -0.0000    -0.000    -0.000    -0.000  0.9153  0.2913  0.2780
    11 C(13)  Bbb     0.0000     0.000     0.000     0.000 -0.1471 -0.4008  0.9043
              Bcc     0.0000     0.000     0.000     0.000 -0.3748  0.8686  0.3241
 
              Baa    -0.0000    -0.000    -0.000    -0.000 -0.0713 -0.4551  0.8876
    12 C(13)  Bbb     0.0000     0.000     0.000     0.000  0.9594  0.2123  0.1859
              Bcc     0.0000     0.000     0.000     0.000 -0.2730  0.8648  0.4214
 
              Baa    -0.0000    -0.000    -0.000    -0.000  0.8051  0.5804 -0.1226
    13 C(13)  Bbb     0.0000     0.000     0.000     0.000 -0.5847  0.7415 -0.3291
              Bcc     0.0000     0.000     0.000     0.000 -0.1001  0.3366  0.9363
 
              Baa    -0.0000    -0.000    -0.000    -0.000  0.3015  0.6866 -0.6616
    14 C(13)  Bbb    -0.0000    -0.000    -0.000    -0.000 -0.0435  0.7031  0.7098
              Bcc     0.0000     0.000     0.000     0.000  0.9525 -0.1852  0.2418
 
              Baa    -0.0000    -0.000    -0.000    -0.000  0.9239  0.0913 -0.3717
    15 C(13)  Bbb    -0.0000    -0.000    -0.000    -0.000 -0.2141  0.9283 -0.3041
              Bcc     0.0000     0.000     0.000     0.000  0.3173  0.3605  0.8771
 
              Baa    -0.0000    -0.000    -0.000    -0.000 -0.4410  0.6768  0.5895
    16 C(13)  Bbb    -0.0000    -0.000    -0.000    -0.000  0.4537 -0.3986  0.7970
              Bcc     0.0000     0.000     0.000     0.000  0.7744  0.6190 -0.1313
 
              Baa    -0.0000    -0.000    -0.000    -0.000  0.0521  0.4413  0.8958
    17 C(13)  Bbb     0.0000     0.000     0.000     0.000  0.9986 -0.0265 -0.0450
              Bcc     0.0000     0.000     0.000     0.000  0.0039  0.8969 -0.4421
 
              Baa    -0.0000    -0.000    -0.000    -0.000  0.1413  0.8583  0.4933
    18 C(13)  Bbb    -0.0000    -0.000    -0.000    -0.000  0.4001 -0.5053  0.7645
              Bcc     0.0000     0.000     0.000     0.000  0.9055  0.0893 -0.4149
 
              Baa    -0.0000    -0.000    -0.000    -0.000  0.0856  0.9703  0.2262
    19 C(13)  Bbb     0.0000     0.000     0.000     0.000  0.8576  0.0438 -0.5124
              Bcc     0.0000     0.000     0.000     0.000  0.5071 -0.2379  0.8284
 
              Baa    -0.0000    -0.000    -0.000    -0.000 -0.2737 -0.3099  0.9105
    20 C(13)  Bbb    -0.0000    -0.000    -0.000    -0.000 -0.0921  0.9508  0.2959
              Bcc     0.0000     0.000     0.000     0.000  0.9574  0.0029  0.2888
 
              Baa    -0.0000    -0.000    -0.000    -0.000  0.7134 -0.1225  0.6899
    21 C(13)  Bbb     0.0000     0.000     0.000     0.000  0.6721  0.3980 -0.6244
              Bcc     0.0000     0.000     0.000     0.000 -0.1981  0.9092  0.3663
 
              Baa    -0.0000    -0.000    -0.000    -0.000 -0.0549  0.8406  0.5389
    22 C(13)  Bbb    -0.0000    -0.000    -0.000    -0.000  0.3656 -0.4853  0.7942
              Bcc     0.0000     0.000     0.000     0.000  0.9291  0.2407 -0.2807
 
              Baa    -0.0000    -0.000    -0.000    -0.000  0.8862 -0.1089  0.4503
    23 C(13)  Bbb    -0.0000    -0.000    -0.000    -0.000 -0.4631 -0.1788  0.8681
              Bcc     0.0000     0.000     0.000     0.000  0.0141  0.9778  0.2089
 
              Baa    -0.0000    -0.000    -0.000    -0.000 -0.3656 -0.5948  0.7159
    24 C(13)  Bbb     0.0000     0.000     0.000     0.000 -0.0770  0.7859  0.6136
              Bcc     0.0000     0.000     0.000     0.000  0.9276 -0.1692  0.3331
 
              Baa    -0.0000    -0.000    -0.000    -0.000 -0.2875  0.9296  0.2305
    25 C(13)  Bbb    -0.0000    -0.000    -0.000    -0.000  0.9278  0.2106  0.3080
              Bcc     0.0000     0.000     0.000     0.000 -0.2377 -0.3024  0.9230
 
              Baa    -0.0000    -0.000    -0.000    -0.000 -0.4708  0.7794 -0.4133
    26 C(13)  Bbb     0.0000     0.000     0.000     0.000 -0.2120  0.3547  0.9106
              Bcc     0.0000     0.000     0.000     0.000  0.8564  0.5164 -0.0017
 
              Baa    -0.0000    -0.000    -0.000    -0.000  0.8632 -0.5044 -0.0227
    27 C(13)  Bbb    -0.0000    -0.000    -0.000    -0.000  0.2777  0.4367  0.8557
              Bcc     0.0000     0.000     0.000     0.000  0.4217  0.7449 -0.5170
 
              Baa    -0.0000    -0.000    -0.000    -0.000  0.7846 -0.4044  0.4699
    28 C(13)  Bbb    -0.0000    -0.000    -0.000    -0.000  0.0544  0.8000  0.5976
              Bcc     0.0000     0.000     0.000     0.000 -0.6176 -0.4433  0.6497
 
              Baa    -0.0000    -0.000    -0.000    -0.000  0.3576  0.1614  0.9198
    29 C(13)  Bbb    -0.0000    -0.000    -0.000    -0.000 -0.6945  0.7044  0.1464
              Bcc     0.0000     0.000     0.000     0.000  0.6243  0.6912 -0.3640
 
              Baa    -0.0000    -0.000    -0.000    -0.000  0.9068 -0.0375  0.4198
    30 C(13)  Bbb     0.0000     0.000     0.000     0.000 -0.2607  0.7328  0.6286
              Bcc     0.0000     0.000     0.000     0.000  0.3312  0.6794 -0.6547
 
              Baa    -0.0000    -0.000    -0.000    -0.000  0.2006 -0.0867  0.9758
    31 C(13)  Bbb     0.0000     0.000     0.000     0.000  0.9522 -0.2171 -0.2150
              Bcc     0.0000     0.000     0.000     0.000  0.2305  0.9723  0.0390
 
              Baa    -0.0000    -0.000    -0.000    -0.000 -0.2801  0.9145  0.2918
    32 C(13)  Bbb     0.0000     0.000     0.000     0.000  0.9458  0.2109  0.2469
              Bcc     0.0000     0.000     0.000     0.000 -0.1643 -0.3451  0.9241
 
              Baa    -0.0000    -0.000    -0.000    -0.000  0.8737 -0.3336 -0.3541
    33 C(13)  Bbb     0.0000     0.000     0.000     0.000  0.2238 -0.3708  0.9014
              Bcc     0.0000     0.000     0.000     0.000  0.4320  0.8667  0.2493
 
              Baa    -0.0000    -0.000    -0.000    -0.000  0.7992  0.5713 -0.1868
    34 C(13)  Bbb    -0.0000    -0.000    -0.000    -0.000  0.2321 -0.0066  0.9727
              Bcc     0.0000     0.000     0.000     0.000 -0.5545  0.8207  0.1379
 
              Baa    -0.0000    -0.000    -0.000    -0.000  0.9809  0.0562 -0.1863
    35 C(13)  Bbb    -0.0000    -0.000    -0.000    -0.000  0.0048  0.9502  0.3116
              Bcc     0.0000     0.000     0.000     0.000  0.1945 -0.3065  0.9318
 
              Baa    -0.0000    -0.000    -0.000    -0.000  0.7390 -0.6251  0.2514
    36 C(13)  Bbb    -0.0000    -0.000    -0.000    -0.000 -0.3694 -0.0638  0.9271
              Bcc     0.0000     0.000     0.000     0.000  0.5634  0.7780  0.2781
 
              Baa    -0.0000    -0.000    -0.000    -0.000 -0.2580  0.8743 -0.4111
    37 H(1)   Bbb    -0.0000    -0.000    -0.000    -0.000 -0.0377  0.4161  0.9085
              Bcc     0.0000     0.000     0.000     0.000  0.9654  0.2499 -0.0744
 
              Baa    -0.0000    -0.000    -0.000    -0.000 -0.2637  0.2669  0.9269
    38 H(1)   Bbb    -0.0000    -0.000    -0.000    -0.000  0.9428  0.2746  0.1892
              Bcc     0.0000     0.000     0.000     0.000 -0.2041  0.9238 -0.3240
 
              Baa    -0.0000    -0.000    -0.000    -0.000  0.7198  0.6940  0.0147
    39 H(1)   Bbb     0.0000     0.000     0.000     0.000 -0.6145  0.6272  0.4785
              Bcc     0.0000     0.000     0.000     0.000  0.3229 -0.3535  0.8780
 
              Baa    -0.0000    -0.000    -0.000    -0.000 -0.6026  0.7696 -0.2111
    40 H(1)   Bbb     0.0000     0.000     0.000     0.000  0.7438  0.6375  0.2007
              Bcc     0.0000     0.000     0.000     0.000 -0.2890  0.0361  0.9566
 
              Baa    -0.0000    -0.000    -0.000    -0.000  0.9101 -0.2286  0.3457
    41 H(1)   Bbb    -0.0000    -0.000    -0.000    -0.000 -0.1168  0.6588  0.7432
              Bcc     0.0000     0.000     0.000     0.000  0.3976  0.7168 -0.5728
 
              Baa    -0.0000    -0.000    -0.000    -0.000 -0.5928 -0.5303  0.6061
    42 H(1)   Bbb    -0.0000    -0.000    -0.000    -0.000  0.7580 -0.1133  0.6423
              Bcc     0.0000     0.000     0.000     0.000 -0.2720  0.8402  0.4691
 
              Baa    -0.0000    -0.000    -0.000    -0.000  0.6647  0.6368  0.3908
    43 H(1)   Bbb     0.0000     0.000     0.000     0.000  0.2204 -0.6669  0.7118
              Bcc     0.0000     0.000     0.000     0.000  0.7139 -0.3870 -0.5836
 
              Baa    -0.0000    -0.000    -0.000    -0.000  0.4091  0.7528  0.5156
    44 H(1)   Bbb    -0.0000    -0.000    -0.000    -0.000 -0.1689 -0.4929  0.8536
              Bcc     0.0000     0.000     0.000     0.000  0.8967 -0.4363 -0.0745
 
              Baa    -0.0000    -0.000    -0.000    -0.000 -0.0454 -0.5134  0.8570
    45 H(1)   Bbb    -0.0000    -0.000    -0.000    -0.000  0.9832 -0.1748 -0.0526
              Bcc     0.0000     0.000     0.000     0.000  0.1768  0.8402  0.5127
 
              Baa    -0.0000    -0.000    -0.000    -0.000 -0.4933  0.3253  0.8068
    46 H(1)   Bbb     0.0000     0.000     0.000     0.000  0.0440  0.9356 -0.3503
              Bcc     0.0000     0.000     0.000     0.000  0.8688  0.1373  0.4758
 
              Baa    -0.0000    -0.000    -0.000    -0.000  0.7906  0.2908 -0.5388
    47 H(1)   Bbb    -0.0000    -0.000    -0.000    -0.000 -0.3862  0.9197 -0.0703
              Bcc     0.0000     0.000     0.000     0.000  0.4752  0.2637  0.8395
 
              Baa    -0.0000    -0.000    -0.000    -0.000  0.7036 -0.5009 -0.5041
    48 H(1)   Bbb    -0.0000    -0.000    -0.000    -0.000  0.1211  0.7834 -0.6096
              Bcc     0.0000     0.000     0.000     0.000  0.7002  0.3678  0.6118
 
              Baa    -0.0000    -0.000    -0.000    -0.000  0.9057  0.2190  0.3630
    49 H(1)   Bbb     0.0000     0.000     0.000     0.000  0.0977  0.7254 -0.6814
              Bcc     0.0000     0.000     0.000     0.000 -0.4125  0.6526  0.6355
 
              Baa    -0.0000    -0.000    -0.000    -0.000  0.9922 -0.0829  0.0929
    50 H(1)   Bbb    -0.0000    -0.000    -0.000    -0.000  0.0132  0.8120  0.5836
              Bcc     0.0000     0.000     0.000     0.000 -0.1238 -0.5778  0.8067
 
              Baa    -0.0000    -0.000    -0.000    -0.000  0.5000 -0.4262  0.7538
    51 H(1)   Bbb     0.0000     0.000     0.000     0.000  0.8636  0.1803 -0.4709
              Bcc     0.0000     0.000     0.000     0.000  0.0648  0.8865  0.4582
 
              Baa    -0.0000    -0.000    -0.000    -0.000 -0.3061 -0.3083  0.9007
    52 H(1)   Bbb     0.0000     0.000     0.000     0.000  0.8984  0.2193  0.3804
              Bcc     0.0000     0.000     0.000     0.000 -0.3148  0.9257  0.2099
 
              Baa    -0.0000    -0.000    -0.000    -0.000 -0.5953  0.7819 -0.1849
    53 H(1)   Bbb    -0.0000    -0.000    -0.000    -0.000  0.1857  0.3577  0.9152
              Bcc     0.0000     0.000     0.000     0.000  0.7817  0.5105 -0.3581
 
              Baa    -0.0000    -0.000    -0.000    -0.000  0.8984  0.2267 -0.3761
    54 H(1)   Bbb     0.0000     0.000     0.000     0.000  0.2970  0.3173  0.9006
              Bcc     0.0000     0.000     0.000     0.000 -0.3235  0.9208 -0.2178
 
              Baa    -0.0000    -0.000    -0.000    -0.000 -0.0657  0.9090  0.4116
    55 H(1)   Bbb    -0.0000    -0.000    -0.000    -0.000  0.1483 -0.3990  0.9049
              Bcc     0.0000     0.000     0.000     0.000  0.9868  0.1205 -0.1086
 
              Baa    -0.0000    -0.000    -0.000    -0.000 -0.1184  0.5190  0.8466
    56 H(1)   Bbb     0.0000     0.000     0.000     0.000  0.8585 -0.3749  0.3499
              Bcc     0.0000     0.000     0.000     0.000  0.4990  0.7682 -0.4011
 
              Baa    -0.0000    -0.000    -0.000    -0.000  0.8739 -0.1918  0.4467
    57 H(1)   Bbb    -0.0000    -0.000    -0.000    -0.000  0.4258  0.7453 -0.5131
              Bcc     0.0000     0.000     0.000     0.000 -0.2345  0.6386  0.7329
 
              Baa    -0.0000    -0.000    -0.000    -0.000  0.8320 -0.5355 -0.1452
    58 H(1)   Bbb     0.0000     0.000     0.000     0.000 -0.0153 -0.2837  0.9588
              Bcc     0.0000     0.000     0.000     0.000  0.5546  0.7955  0.2442
 
              Baa    -0.0000    -0.000    -0.000    -0.000  0.9198 -0.3804 -0.0962
    59 H(1)   Bbb    -0.0000    -0.000    -0.000    -0.000  0.0099 -0.2227  0.9748
              Bcc     0.0000     0.000     0.000     0.000  0.3922  0.8976  0.2011
 
              Baa    -0.0000    -0.000    -0.000    -0.000  0.8377 -0.4664  0.2841
    60 H(1)   Bbb     0.0000     0.000     0.000     0.000  0.0742  0.6127  0.7869
              Bcc     0.0000     0.000     0.000     0.000  0.5411  0.6381 -0.5478
 
              Baa    -0.0000    -0.000    -0.000    -0.000  0.8873 -0.4566 -0.0656
    61 H(1)   Bbb    -0.0000    -0.000    -0.000    -0.000 -0.0993 -0.3280  0.9394
              Bcc     0.0000     0.000     0.000     0.000  0.4505  0.8270  0.3364
 
              Baa    -0.0000    -0.000    -0.000    -0.000 -0.3365 -0.1586  0.9282
    62 H(1)   Bbb    -0.0000    -0.000    -0.000    -0.000  0.8831 -0.3954  0.2526
              Bcc     0.0000     0.000     0.000     0.000  0.3270  0.9047  0.2731
 

 ---------------------------------------------------------------------------------

 No NMR shielding tensors so no spin-rotation constants.
 Leave Link  601 at Fri Jul 24 15:46:18 2020, MaxMem=  4026531840 cpu:               5.4 elap:               0.7
 (Enter /opt/ohpc/pub/libs/gaussian/g16-A.03/sandybridge/g16/l9999.exe)

 Test job not archived.
 1\1\GINC-SKYLAKE039\FOpt\ULC-wPBE\CC-pVDZ\C36H26\RDU230\24-Jul-2020\0\
 \#P uLC-wPBE/cc-pVDZ iop(3/107=0299000000, 3/108=0299000000) opt\\H26 
 C36\\0,1\C,-12.2146662197,0.0020172518,0.0051789757\C,-11.5121926091,-
 1.1538714543,0.3441628568\C,-10.1187806266,-1.1532687605,0.3433484904\
 C,-9.4015814985,0.0022363233,0.0043125869\C,-10.119161597,1.1576257584
 ,-0.3342579043\C,-11.5125816607,1.1580157231,-0.3342007479\C,-7.913007
 0392,0.0023235884,0.0038944834\C,-7.1909106786,-1.0721545485,-0.531535
 1624\C,-5.7992148632,-1.0717910741,-0.532750432\C,-5.0768791651,0.0024
 99967,0.0030386162\C,-5.799023422,1.0766876999,0.5392531677\C,-7.19073
 58527,1.0768867761,0.5388683663\C,-3.589147674,0.0025940608,0.00259835
 33\C,-2.8671197748,-0.4324887118,-1.1165194826\C,-1.4754942441,-0.4317
 870435,-1.1171974851\C,-0.7528375036,0.0026874862,0.0017474336\C,-1.47
 48255774,0.4371222057,1.1210750585\C,-2.8664929733,0.4377267806,1.1212
 159591\C,0.7348648785,0.0026800834,0.0012749478\C,1.4568748041,0.43317
 02097,-1.1195863867\C,2.8485294926,0.4338145668,-1.1197376627\C,3.5712
 313736,0.002667804,0.0004253538\C,2.8491828555,-0.4284707591,1.1210497
 612\C,1.457541431,-0.4278114637,1.121726526\C,5.0589502756,0.002681468
 7,0.0000396832\C,5.7810572773,1.0747797803,-0.5404573967\C,7.172748545
 8,1.0750899954,-0.5400281237\C,7.8951367926,0.002737284,-0.0007341325\
 C,7.1730941186,-1.0696226967,0.5389514342\C,5.7813815792,-1.0693757827
 ,0.5401120312\C,9.3836988927,0.0028024752,-0.0011174316\C,10.101038494
 ,-1.1540779095,-0.3351097829\C,11.4944583665,-1.1545380186,-0.33585091
 61\C,12.196787297,0.0028832547,-0.0018471284\C,11.4945560438,1.1602588
 793,0.3325078692\C,10.1011417107,1.1597278379,0.3324948876\H,-13.30982
 81465,0.0019247027,0.005506454\H,-12.0542710285,-2.0650157759,0.619414
 9008\H,-9.5745140431,-2.0593175423,0.6316179972\H,-9.5752060021,2.0637
 504299,-0.6228701779\H,-12.0549549629,2.0690851358,-0.6091178513\H,-7.
 7299715593,-1.919676706,-0.9687884116\H,-5.2606874693,-1.9315807812,-0
 .9460464118\H,-5.260364759,1.9365596333,0.9522312099\H,-7.7296271356,1
 .9243302671,0.9764783748\H,-3.406002854,-0.7650728909,-2.0104104509\H,
 -0.9371507347,-0.7901736324,-2.0014172054\H,-0.9360653166,0.7955492193
 ,2.0049945678\H,-3.4047941314,0.770296511,2.0154614913\H,0.9181094828,
 0.788448878,-2.0047744797\H,3.3867968168,0.7632005153,-2.0151793648\H,
 3.3880051673,-0.7578450366,2.016157629\H,0.9192924031,-0.783075737,2.0
 072365854\H,5.2423825048,1.9329914495,-0.9568272842\H,7.711530034,1.92
 08402301,-0.981046802\H,7.7121537318,-1.9153523476,0.9796654517\H,5.24
 29710707,-1.9276056389,0.9567887509\H,9.556896992,-2.0614389582,-0.619
 4787995\H,12.0366516418,-2.0667963868,-0.6071501375\H,13.2919289415,0.
 0029160137,-0.0021415317\H,12.036844524,2.0725461237,0.603532421\H,9.5
 57096583,2.0670562865,0.6171324084\\Version=EM64L-G16RevA.03\State=1-A
 \HF=-1386.4696819\S2=0.\S2-1=0.\S2A=0.\RMSD=5.890e-09\RMSF=6.747e-06\D
 ipole=0.0000065,0.0000007,0.0000267\Quadrupole=11.4884202,-1.9495683,-
 9.5388519,0.0005302,-0.0061342,-0.0184419\PG=C01 [X(C36H26)]\\@


 THE LENGTH OF A MEETING IS PROPORTIONAL TO THE
 SQUARE OF THE PARTICIPANTS.
 Job cpu time:       0 days  9 hours 37 minutes 15.7 seconds.
 Elapsed time:       0 days  1 hours 13 minutes 40.3 seconds.
 File lengths (MBytes):  RWF=    500 Int=      0 D2E=      0 Chk=     48 Scr=      8
 Normal termination of Gaussian 16 at Fri Jul 24 15:46:18 2020.
