 Entering Gaussian System, Link 0=g16
 Input=mols_66_3_11_n-n-cF-cF_opt_0.gjf
 Output=mols_66_3_11_n-n-cF-cF_opt_0.log
 Initial command:
 /opt/ohpc/pub/libs/gaussian/g16-A.03/sandybridge/g16/l1.exe "/mnt/gpfs2_4m/scratch/rdu230/ondemand/projects/dihedral_energies/7trial/wtuning/mols_66_3_11_n-n-cF-cF/Gau-309959.inp" -scrdir="/mnt/gpfs2_4m/scratch/rdu230/ondemand/projects/dihedral_energies/7trial/wtuning/mols_66_3_11_n-n-cF-cF/"
 Entering Link 1 = /opt/ohpc/pub/libs/gaussian/g16-A.03/sandybridge/g16/l1.exe PID=    309960.
  
 Copyright (c) 1988,1990,1992,1993,1995,1998,2003,2009,2016,
            Gaussian, Inc.  All Rights Reserved.
  
 This is part of the Gaussian(R) 16 program.  It is based on
 the Gaussian(R) 09 system (copyright 2009, Gaussian, Inc.),
 the Gaussian(R) 03 system (copyright 2003, Gaussian, Inc.),
 the Gaussian(R) 98 system (copyright 1998, Gaussian, Inc.),
 the Gaussian(R) 94 system (copyright 1995, Gaussian, Inc.),
 the Gaussian 92(TM) system (copyright 1992, Gaussian, Inc.),
 the Gaussian 90(TM) system (copyright 1990, Gaussian, Inc.),
 the Gaussian 88(TM) system (copyright 1988, Gaussian, Inc.),
 the Gaussian 86(TM) system (copyright 1986, Carnegie Mellon
 University), and the Gaussian 82(TM) system (copyright 1983,
 Carnegie Mellon University). Gaussian is a federally registered
 trademark of Gaussian, Inc.
  
 This software contains proprietary and confidential information,
 including trade secrets, belonging to Gaussian, Inc.
  
 This software is provided under written license and may be
 used, copied, transmitted, or stored only in accord with that
 written license.
  
 The following legend is applicable only to US Government
 contracts under FAR:
  
                    RESTRICTED RIGHTS LEGEND
  
 Use, reproduction and disclosure by the US Government is
 subject to restrictions as set forth in subparagraphs (a)
 and (c) of the Commercial Computer Software - Restricted
 Rights clause in FAR 52.227-19.
  
 Gaussian, Inc.
 340 Quinnipiac St., Bldg. 40, Wallingford CT 06492
  
  
 ---------------------------------------------------------------
 Warning -- This program may not be used in any manner that
 competes with the business of Gaussian, Inc. or will provide
 assistance to any competitor of Gaussian, Inc.  The licensee
 of this program is prohibited from giving any competitor of
 Gaussian, Inc. access to this program.  By using this program,
 the user acknowledges that Gaussian, Inc. is engaged in the
 business of creating and licensing software in the field of
 computational chemistry and represents and warrants to the
 licensee that it is not a competitor of Gaussian, Inc. and that
 it will not use this program in any manner prohibited above.
 ---------------------------------------------------------------
  

 Cite this work as:
 Gaussian 16, Revision A.03,
 M. J. Frisch, G. W. Trucks, H. B. Schlegel, G. E. Scuseria, 
 M. A. Robb, J. R. Cheeseman, G. Scalmani, V. Barone, 
 G. A. Petersson, H. Nakatsuji, X. Li, M. Caricato, A. V. Marenich, 
 J. Bloino, B. G. Janesko, R. Gomperts, B. Mennucci, H. P. Hratchian, 
 J. V. Ortiz, A. F. Izmaylov, J. L. Sonnenberg, D. Williams-Young, 
 F. Ding, F. Lipparini, F. Egidi, J. Goings, B. Peng, A. Petrone, 
 T. Henderson, D. Ranasinghe, V. G. Zakrzewski, J. Gao, N. Rega, 
 G. Zheng, W. Liang, M. Hada, M. Ehara, K. Toyota, R. Fukuda, 
 J. Hasegawa, M. Ishida, T. Nakajima, Y. Honda, O. Kitao, H. Nakai, 
 T. Vreven, K. Throssell, J. A. Montgomery, Jr., J. E. Peralta, 
 F. Ogliaro, M. J. Bearpark, J. J. Heyd, E. N. Brothers, K. N. Kudin, 
 V. N. Staroverov, T. A. Keith, R. Kobayashi, J. Normand, 
 K. Raghavachari, A. P. Rendell, J. C. Burant, S. S. Iyengar, 
 J. Tomasi, M. Cossi, J. M. Millam, M. Klene, C. Adamo, R. Cammi, 
 J. W. Ochterski, R. L. Martin, K. Morokuma, O. Farkas, 
 J. B. Foresman, and D. J. Fox, Gaussian, Inc., Wallingford CT, 2016.
 
 ******************************************
 Gaussian 16:  EM64L-G16RevA.03 25-Dec-2016
                25-Jul-2020 
 ******************************************
 %mem=30GB
 %nproc=8
 Will use up to    8 processors via shared memory.
 ---------------------------------------------------------------
 #P uLC-wPBE/cc-pVDZ iop(3/107=0251000000, 3/108=0251000000) opt
 ---------------------------------------------------------------
 1/18=20,19=15,26=3,38=1/1,3;
 2/9=110,12=2,17=6,18=5,40=1/2;
 3/5=16,11=2,25=1,30=1,71=1,74=-41,107=251000000,108=251000000,116=2/1,2,3;
 4//1;
 5/5=2,38=5/2;
 6/7=2,8=2,9=2,10=2,28=1/1;
 7//1,2,3,16;
 1/18=20,19=15,26=3/3(2);
 2/9=110/2;
 99//99;
 2/9=110/2;
 3/5=16,11=2,25=1,30=1,71=1,74=-41,107=251000000,108=251000000,116=2/1,2,3;
 4/5=5,16=3,69=1/1;
 5/5=2,38=5/2;
 7//1,2,3,16;
 1/18=20,19=15,26=3/3(-5);
 2/9=110/2;
 6/7=2,8=2,9=2,10=2,19=2,28=1/1;
 99/9=1/99;
 Leave Link    1 at Sat Jul 25 00:12:54 2020, MaxMem=  4026531840 cpu:               1.3 elap:               0.2
 (Enter /opt/ohpc/pub/libs/gaussian/g16-A.03/sandybridge/g16/l101.exe)
 -------------
 H14 C30 N6 F6
 -------------
 Symbolic Z-matrix:
 Charge =  0 Multiplicity = 1
 C                    -12.0014   0.21806   0.05921 
 C                    -11.23987   1.34406  -0.33508 
 C                    -9.86462   1.33305  -0.40738 
 F                    -9.16989   2.4278   -0.72814 
 C                    -9.2321    0.10476  -0.00329 
 N                    -9.89905  -1.01238   0.29372 
 C                    -11.30691  -0.88966   0.27694 
 C                    -7.78573   0.04843  -0.05412 
 N                    -7.09872   0.97989   0.52465 
 C                    -5.68491   0.92267   0.55751 
 C                    -5.03263  -0.16162   0.03114 
 C                    -5.77923  -1.17939  -0.54508 
 C                    -7.15919  -1.10345  -0.60914 
 F                    -7.83749  -2.12417  -1.16448 
 C                    -3.57219  -0.16248   0.07711 
 C                    -2.77984  -1.31114   0.54306 
 C                    -1.46029  -1.27689   0.54071 
 F                    -0.78698  -2.39498   1.01013 
 C                    -0.6906   -0.11887   0.16525 
 N                    -1.35175   0.94682  -0.28518 
 C                    -2.78475   0.93698  -0.26297 
 C                     0.70375  -0.03566   0.16226 
 N                     1.43248  -1.14759  -0.36962 
 C                     2.78433  -1.13624  -0.39298 
 C                     3.51806  -0.03328   0.01539 
 C                     2.82478   1.10062   0.58771 
 C                     1.38067   1.0498    0.64478 
 F                     0.82883   2.05686   1.21488 
 C                     4.97144  -0.01087  -0.02697 
 C                     5.72963  -1.08502   0.48606 
 C                     7.11194  -1.15299   0.39906 
 F                     7.86439  -2.15908   0.8816 
 C                     7.7266    0.0127   -0.17598 
 N                     7.01781   1.03855  -0.63427 
 C                     5.72192   1.03919  -0.59208 
 C                     9.28015   0.07747  -0.31668 
 N                     9.86158  -1.04028  -0.81528 
 C                     11.24168  -1.02851  -0.90517 
 C                     11.92696   0.11663  -0.67047 
 C                     11.36206   1.23233  -0.22451 
 C                     9.94052   1.25835  -0.05013 
 F                     9.34487   2.27548   0.44096 
 H                    -13.0369   0.24142   0.04345 
 H                    -11.79016   2.27854  -0.6407 
 H                    -11.85452  -1.81091   0.58105 
 H                    -5.27317   1.79868   1.0645 
 H                    -5.237    -2.03162  -1.01766 
 H                    -3.38977  -2.16577   0.88759 
 H                    -3.17943   1.80213  -0.68807 
 H                     3.17891  -1.95226  -0.83176 
 H                     3.32474   1.9248    0.9386 
 H                     5.22586  -1.97601   0.95714 
 H                     5.19549   1.86548  -1.01608 
 H                     11.65126  -1.9847   -1.30355 
 H                     13.0263   0.05989  -0.76009 
 H                     11.86203   2.16431   0.08167 
 
 ITRead=  0  0  0  0  0  0  0  0  0  0  0  0  0  0  0  0  0  0  0  0
 ITRead=  0  0  0  0  0  0  0  0  0  0  0  0  0  0  0  0  0  0  0  0
 ITRead=  0  0  0  0  0  0  0  0  0  0  0  0  0  0  0  0
 MicOpt= -1 -1 -1 -1 -1 -1 -1 -1 -1 -1 -1 -1 -1 -1 -1 -1 -1 -1 -1 -1
 MicOpt= -1 -1 -1 -1 -1 -1 -1 -1 -1 -1 -1 -1 -1 -1 -1 -1 -1 -1 -1 -1
 MicOpt= -1 -1 -1 -1 -1 -1 -1 -1 -1 -1 -1 -1 -1 -1 -1 -1
 NAtoms=     56 NQM=       56 NQMF=       0 NMMI=      0 NMMIF=      0
                NMic=       0 NMicF=      0.
                    Isotopes and Nuclear Properties:
 (Nuclear quadrupole moments (NQMom) in fm**2, nuclear magnetic moments (NMagM)
  in nuclear magnetons)

  Atom         1           2           3           4           5           6           7           8           9          10
 IAtWgt=          12          12          12          19          12          14          12          12          14          12
 AtmWgt=  12.0000000  12.0000000  12.0000000  18.9984033  12.0000000  14.0030740  12.0000000  12.0000000  14.0030740  12.0000000
 NucSpn=           0           0           0           1           0           2           0           0           2           0
 AtZEff=  -0.0000000  -0.0000000  -0.0000000  -0.0000000  -0.0000000  -0.0000000  -0.0000000  -0.0000000  -0.0000000  -0.0000000
 NQMom=    0.0000000   0.0000000   0.0000000   0.0000000   0.0000000   2.0440000   0.0000000   0.0000000   2.0440000   0.0000000
 NMagM=    0.0000000   0.0000000   0.0000000   2.6288670   0.0000000   0.4037610   0.0000000   0.0000000   0.4037610   0.0000000
 AtZNuc=   6.0000000   6.0000000   6.0000000   9.0000000   6.0000000   7.0000000   6.0000000   6.0000000   7.0000000   6.0000000

  Atom        11          12          13          14          15          16          17          18          19          20
 IAtWgt=          12          12          12          19          12          12          12          19          12          14
 AtmWgt=  12.0000000  12.0000000  12.0000000  18.9984033  12.0000000  12.0000000  12.0000000  18.9984033  12.0000000  14.0030740
 NucSpn=           0           0           0           1           0           0           0           1           0           2
 AtZEff=  -0.0000000  -0.0000000  -0.0000000  -0.0000000  -0.0000000  -0.0000000  -0.0000000  -0.0000000  -0.0000000  -0.0000000
 NQMom=    0.0000000   0.0000000   0.0000000   0.0000000   0.0000000   0.0000000   0.0000000   0.0000000   0.0000000   2.0440000
 NMagM=    0.0000000   0.0000000   0.0000000   2.6288670   0.0000000   0.0000000   0.0000000   2.6288670   0.0000000   0.4037610
 AtZNuc=   6.0000000   6.0000000   6.0000000   9.0000000   6.0000000   6.0000000   6.0000000   9.0000000   6.0000000   7.0000000

  Atom        21          22          23          24          25          26          27          28          29          30
 IAtWgt=          12          12          14          12          12          12          12          19          12          12
 AtmWgt=  12.0000000  12.0000000  14.0030740  12.0000000  12.0000000  12.0000000  12.0000000  18.9984033  12.0000000  12.0000000
 NucSpn=           0           0           2           0           0           0           0           1           0           0
 AtZEff=  -0.0000000  -0.0000000  -0.0000000  -0.0000000  -0.0000000  -0.0000000  -0.0000000  -0.0000000  -0.0000000  -0.0000000
 NQMom=    0.0000000   0.0000000   2.0440000   0.0000000   0.0000000   0.0000000   0.0000000   0.0000000   0.0000000   0.0000000
 NMagM=    0.0000000   0.0000000   0.4037610   0.0000000   0.0000000   0.0000000   0.0000000   2.6288670   0.0000000   0.0000000
 AtZNuc=   6.0000000   6.0000000   7.0000000   6.0000000   6.0000000   6.0000000   6.0000000   9.0000000   6.0000000   6.0000000

  Atom        31          32          33          34          35          36          37          38          39          40
 IAtWgt=          12          19          12          14          12          12          14          12          12          12
 AtmWgt=  12.0000000  18.9984033  12.0000000  14.0030740  12.0000000  12.0000000  14.0030740  12.0000000  12.0000000  12.0000000
 NucSpn=           0           1           0           2           0           0           2           0           0           0
 AtZEff=  -0.0000000  -0.0000000  -0.0000000  -0.0000000  -0.0000000  -0.0000000  -0.0000000  -0.0000000  -0.0000000  -0.0000000
 NQMom=    0.0000000   0.0000000   0.0000000   2.0440000   0.0000000   0.0000000   2.0440000   0.0000000   0.0000000   0.0000000
 NMagM=    0.0000000   2.6288670   0.0000000   0.4037610   0.0000000   0.0000000   0.4037610   0.0000000   0.0000000   0.0000000
 AtZNuc=   6.0000000   9.0000000   6.0000000   7.0000000   6.0000000   6.0000000   7.0000000   6.0000000   6.0000000   6.0000000

  Atom        41          42          43          44          45          46          47          48          49          50
 IAtWgt=          12          19           1           1           1           1           1           1           1           1
 AtmWgt=  12.0000000  18.9984033   1.0078250   1.0078250   1.0078250   1.0078250   1.0078250   1.0078250   1.0078250   1.0078250
 NucSpn=           0           1           1           1           1           1           1           1           1           1
 AtZEff=  -0.0000000  -0.0000000  -0.0000000  -0.0000000  -0.0000000  -0.0000000  -0.0000000  -0.0000000  -0.0000000  -0.0000000
 NQMom=    0.0000000   0.0000000   0.0000000   0.0000000   0.0000000   0.0000000   0.0000000   0.0000000   0.0000000   0.0000000
 NMagM=    0.0000000   2.6288670   2.7928460   2.7928460   2.7928460   2.7928460   2.7928460   2.7928460   2.7928460   2.7928460
 AtZNuc=   6.0000000   9.0000000   1.0000000   1.0000000   1.0000000   1.0000000   1.0000000   1.0000000   1.0000000   1.0000000

  Atom        51          52          53          54          55          56
 IAtWgt=           1           1           1           1           1           1
 AtmWgt=   1.0078250   1.0078250   1.0078250   1.0078250   1.0078250   1.0078250
 NucSpn=           1           1           1           1           1           1
 AtZEff=  -0.0000000  -0.0000000  -0.0000000  -0.0000000  -0.0000000  -0.0000000
 NQMom=    0.0000000   0.0000000   0.0000000   0.0000000   0.0000000   0.0000000
 NMagM=    2.7928460   2.7928460   2.7928460   2.7928460   2.7928460   2.7928460
 AtZNuc=   1.0000000   1.0000000   1.0000000   1.0000000   1.0000000   1.0000000
 Leave Link  101 at Sat Jul 25 00:12:54 2020, MaxMem=  4026531840 cpu:               2.9 elap:               0.4
 (Enter /opt/ohpc/pub/libs/gaussian/g16-A.03/sandybridge/g16/l103.exe)

 GradGradGradGradGradGradGradGradGradGradGradGradGradGradGradGradGradGrad
 Berny optimization.
 Initialization pass.
                           ----------------------------
                           !    Initial Parameters    !
                           ! (Angstroms and Degrees)  !
 --------------------------                            --------------------------
 ! Name  Definition              Value          Derivative Info.                !
 --------------------------------------------------------------------------------
 ! R1    R(1,2)                  1.4154         estimate D2E/DX2                !
 ! R2    R(1,7)                  1.3254         estimate D2E/DX2                !
 ! R3    R(1,43)                 1.0359         estimate D2E/DX2                !
 ! R4    R(2,3)                  1.3772         estimate D2E/DX2                !
 ! R5    R(2,44)                 1.1267         estimate D2E/DX2                !
 ! R6    R(3,4)                  1.3357         estimate D2E/DX2                !
 ! R7    R(3,5)                  1.4395         estimate D2E/DX2                !
 ! R8    R(5,6)                  1.3346         estimate D2E/DX2                !
 ! R9    R(5,8)                  1.4484         estimate D2E/DX2                !
 ! R10   R(6,7)                  1.4133         estimate D2E/DX2                !
 ! R11   R(7,45)                 1.114          estimate D2E/DX2                !
 ! R12   R(8,9)                  1.2941         estimate D2E/DX2                !
 ! R13   R(8,13)                 1.4239         estimate D2E/DX2                !
 ! R14   R(9,10)                 1.4154         estimate D2E/DX2                !
 ! R15   R(10,11)                1.3705         estimate D2E/DX2                !
 ! R16   R(10,46)                1.0927         estimate D2E/DX2                !
 ! R17   R(11,12)                1.3875         estimate D2E/DX2                !
 ! R18   R(11,15)                1.4612         estimate D2E/DX2                !
 ! R19   R(12,13)                1.3835         estimate D2E/DX2                !
 ! R20   R(12,47)                1.1152         estimate D2E/DX2                !
 ! R21   R(13,14)                1.3455         estimate D2E/DX2                !
 ! R22   R(15,16)                1.4712         estimate D2E/DX2                !
 ! R23   R(15,21)                1.3945         estimate D2E/DX2                !
 ! R24   R(16,17)                1.32           estimate D2E/DX2                !
 ! R25   R(16,48)                1.105          estimate D2E/DX2                !
 ! R26   R(17,18)                1.387          estimate D2E/DX2                !
 ! R27   R(17,19)                1.4403         estimate D2E/DX2                !
 ! R28   R(19,20)                1.3326         estimate D2E/DX2                !
 ! R29   R(19,22)                1.3968         estimate D2E/DX2                !
 ! R30   R(20,21)                1.4332         estimate D2E/DX2                !
 ! R31   R(21,49)                1.0416         estimate D2E/DX2                !
 ! R32   R(22,23)                1.4319         estimate D2E/DX2                !
 ! R33   R(22,27)                1.3672         estimate D2E/DX2                !
 ! R34   R(23,24)                1.3521         estimate D2E/DX2                !
 ! R35   R(24,25)                1.3862         estimate D2E/DX2                !
 ! R36   R(24,50)                1.007          estimate D2E/DX2                !
 ! R37   R(25,26)                1.447          estimate D2E/DX2                !
 ! R38   R(25,29)                1.4542         estimate D2E/DX2                !
 ! R39   R(26,27)                1.4461         estimate D2E/DX2                !
 ! R40   R(26,51)                1.0258         estimate D2E/DX2                !
 ! R41   R(27,28)                1.2821         estimate D2E/DX2                !
 ! R42   R(29,30)                1.4113         estimate D2E/DX2                !
 ! R43   R(29,35)                1.409          estimate D2E/DX2                !
 ! R44   R(30,31)                1.3867         estimate D2E/DX2                !
 ! R45   R(30,52)                1.1267         estimate D2E/DX2                !
 ! R46   R(31,32)                1.3458         estimate D2E/DX2                !
 ! R47   R(31,33)                1.4378         estimate D2E/DX2                !
 ! R48   R(33,34)                1.3284         estimate D2E/DX2                !
 ! R49   R(33,36)                1.5613         estimate D2E/DX2                !
 ! R50   R(34,35)                1.2966         estimate D2E/DX2                !
 ! R51   R(35,53)                1.0676         estimate D2E/DX2                !
 ! R52   R(36,37)                1.355          estimate D2E/DX2                !
 ! R53   R(36,41)                1.379          estimate D2E/DX2                !
 ! R54   R(37,38)                1.3831         estimate D2E/DX2                !
 ! R55   R(38,39)                1.355          estimate D2E/DX2                !
 ! R56   R(38,54)                1.1139         estimate D2E/DX2                !
 ! R57   R(39,40)                1.3277         estimate D2E/DX2                !
 ! R58   R(39,55)                1.1044         estimate D2E/DX2                !
 ! R59   R(40,41)                1.4324         estimate D2E/DX2                !
 ! R60   R(40,56)                1.101          estimate D2E/DX2                !
 ! R61   R(41,42)                1.2769         estimate D2E/DX2                !
 ! A1    A(2,1,7)              115.3868         estimate D2E/DX2                !
 ! A2    A(2,1,43)             121.0412         estimate D2E/DX2                !
 ! A3    A(7,1,43)             123.0335         estimate D2E/DX2                !
 ! A4    A(1,2,3)              123.0619         estimate D2E/DX2                !
 ! A5    A(1,2,44)             118.2041         estimate D2E/DX2                !
 ! A6    A(3,2,44)             118.6919         estimate D2E/DX2                !
 ! A7    A(2,3,4)              121.6991         estimate D2E/DX2                !
 ! A8    A(2,3,5)              115.5232         estimate D2E/DX2                !
 ! A9    A(4,3,5)              122.5642         estimate D2E/DX2                !
 ! A10   A(3,5,6)              123.8595         estimate D2E/DX2                !
 ! A11   A(3,5,8)              117.5257         estimate D2E/DX2                !
 ! A12   A(6,5,8)              118.3153         estimate D2E/DX2                !
 ! A13   A(5,6,7)              114.9928         estimate D2E/DX2                !
 ! A14   A(1,7,6)              126.6179         estimate D2E/DX2                !
 ! A15   A(1,7,45)             118.5812         estimate D2E/DX2                !
 ! A16   A(6,7,45)             114.4952         estimate D2E/DX2                !
 ! A17   A(5,8,9)              119.1093         estimate D2E/DX2                !
 ! A18   A(5,8,13)             118.9837         estimate D2E/DX2                !
 ! A19   A(9,8,13)             121.5359         estimate D2E/DX2                !
 ! A20   A(8,9,10)             120.7706         estimate D2E/DX2                !
 ! A21   A(9,10,11)            119.9009         estimate D2E/DX2                !
 ! A22   A(9,10,46)            110.779          estimate D2E/DX2                !
 ! A23   A(11,10,46)           129.2828         estimate D2E/DX2                !
 ! A24   A(10,11,12)           118.9294         estimate D2E/DX2                !
 ! A25   A(10,11,15)           117.6518         estimate D2E/DX2                !
 ! A26   A(12,11,15)           123.397          estimate D2E/DX2                !
 ! A27   A(11,12,13)           121.041          estimate D2E/DX2                !
 ! A28   A(11,12,47)           118.3533         estimate D2E/DX2                !
 ! A29   A(13,12,47)           120.4833         estimate D2E/DX2                !
 ! A30   A(8,13,12)            117.7257         estimate D2E/DX2                !
 ! A31   A(8,13,14)            123.5568         estimate D2E/DX2                !
 ! A32   A(12,13,14)           118.7046         estimate D2E/DX2                !
 ! A33   A(11,15,16)           123.2806         estimate D2E/DX2                !
 ! A34   A(11,15,21)           123.7982         estimate D2E/DX2                !
 ! A35   A(16,15,21)           112.8747         estimate D2E/DX2                !
 ! A36   A(15,16,17)           121.1697         estimate D2E/DX2                !
 ! A37   A(15,16,48)           113.9118         estimate D2E/DX2                !
 ! A38   A(17,16,48)           124.917          estimate D2E/DX2                !
 ! A39   A(16,17,18)           117.6294         estimate D2E/DX2                !
 ! A40   A(16,17,19)           123.7489         estimate D2E/DX2                !
 ! A41   A(18,17,19)           118.4855         estimate D2E/DX2                !
 ! A42   A(17,19,20)           117.7733         estimate D2E/DX2                !
 ! A43   A(17,19,22)           125.5852         estimate D2E/DX2                !
 ! A44   A(20,19,22)           116.5453         estimate D2E/DX2                !
 ! A45   A(19,20,21)           119.0359         estimate D2E/DX2                !
 ! A46   A(15,21,20)           125.0154         estimate D2E/DX2                !
 ! A47   A(15,21,49)           122.7134         estimate D2E/DX2                !
 ! A48   A(20,21,49)           111.5204         estimate D2E/DX2                !
 ! A49   A(19,22,23)           117.5522         estimate D2E/DX2                !
 ! A50   A(19,22,27)           122.7363         estimate D2E/DX2                !
 ! A51   A(23,22,27)           119.7113         estimate D2E/DX2                !
 ! A52   A(22,23,24)           120.5794         estimate D2E/DX2                !
 ! A53   A(23,24,25)           122.0589         estimate D2E/DX2                !
 ! A54   A(23,24,50)           113.1084         estimate D2E/DX2                !
 ! A55   A(25,24,50)           124.4512         estimate D2E/DX2                !
 ! A56   A(24,25,26)           119.1041         estimate D2E/DX2                !
 ! A57   A(24,25,29)           122.1872         estimate D2E/DX2                !
 ! A58   A(26,25,29)           118.5739         estimate D2E/DX2                !
 ! A59   A(25,26,27)           117.8074         estimate D2E/DX2                !
 ! A60   A(25,26,51)           122.0964         estimate D2E/DX2                !
 ! A61   A(27,26,51)           120.0941         estimate D2E/DX2                !
 ! A62   A(22,27,26)           120.5571         estimate D2E/DX2                !
 ! A63   A(22,27,28)           124.5722         estimate D2E/DX2                !
 ! A64   A(26,27,28)           114.8199         estimate D2E/DX2                !
 ! A65   A(25,29,30)           120.9713         estimate D2E/DX2                !
 ! A66   A(25,29,35)           123.7468         estimate D2E/DX2                !
 ! A67   A(30,29,35)           115.2688         estimate D2E/DX2                !
 ! A68   A(29,30,31)           123.3678         estimate D2E/DX2                !
 ! A69   A(29,30,52)           120.9062         estimate D2E/DX2                !
 ! A70   A(31,30,52)           115.6674         estimate D2E/DX2                !
 ! A71   A(30,31,32)           124.8529         estimate D2E/DX2                !
 ! A72   A(30,31,33)           114.2983         estimate D2E/DX2                !
 ! A73   A(32,31,33)           120.695          estimate D2E/DX2                !
 ! A74   A(31,33,34)           122.4085         estimate D2E/DX2                !
 ! A75   A(31,33,36)           119.6738         estimate D2E/DX2                !
 ! A76   A(34,33,36)           117.8906         estimate D2E/DX2                !
 ! A77   A(33,34,35)           121.4945         estimate D2E/DX2                !
 ! A78   A(29,35,34)           123.028          estimate D2E/DX2                !
 ! A79   A(29,35,53)           118.2605         estimate D2E/DX2                !
 ! A80   A(34,35,53)           118.706          estimate D2E/DX2                !
 ! A81   A(33,36,37)           115.209          estimate D2E/DX2                !
 ! A82   A(33,36,41)           119.645          estimate D2E/DX2                !
 ! A83   A(37,36,41)           124.8924         estimate D2E/DX2                !
 ! A84   A(36,37,38)           116.4278         estimate D2E/DX2                !
 ! A85   A(37,38,39)           120.0388         estimate D2E/DX2                !
 ! A86   A(37,38,54)           112.5099         estimate D2E/DX2                !
 ! A87   A(39,38,54)           126.9744         estimate D2E/DX2                !
 ! A88   A(38,39,40)           123.5851         estimate D2E/DX2                !
 ! A89   A(38,39,55)           116.4826         estimate D2E/DX2                !
 ! A90   A(40,39,55)           119.5997         estimate D2E/DX2                !
 ! A91   A(39,40,41)           118.5808         estimate D2E/DX2                !
 ! A92   A(39,40,56)           127.6978         estimate D2E/DX2                !
 ! A93   A(41,40,56)           113.6659         estimate D2E/DX2                !
 ! A94   A(36,41,40)           115.8586         estimate D2E/DX2                !
 ! A95   A(36,41,42)           122.2129         estimate D2E/DX2                !
 ! A96   A(40,41,42)           121.6156         estimate D2E/DX2                !
 ! D1    D(7,1,2,3)             -4.1377         estimate D2E/DX2                !
 ! D2    D(7,1,2,44)           173.4692         estimate D2E/DX2                !
 ! D3    D(43,1,2,3)          -175.9678         estimate D2E/DX2                !
 ! D4    D(43,1,2,44)            1.639          estimate D2E/DX2                !
 ! D5    D(2,1,7,6)              7.2639         estimate D2E/DX2                !
 ! D6    D(2,1,7,45)          -179.4612         estimate D2E/DX2                !
 ! D7    D(43,1,7,6)           178.913          estimate D2E/DX2                !
 ! D8    D(43,1,7,45)           -7.8121         estimate D2E/DX2                !
 ! D9    D(1,2,3,4)           -177.1124         estimate D2E/DX2                !
 ! D10   D(1,2,3,5)             -2.294          estimate D2E/DX2                !
 ! D11   D(44,2,3,4)             5.2918         estimate D2E/DX2                !
 ! D12   D(44,2,3,5)          -179.8898         estimate D2E/DX2                !
 ! D13   D(2,3,5,6)              6.7908         estimate D2E/DX2                !
 ! D14   D(2,3,5,8)           -179.6136         estimate D2E/DX2                !
 ! D15   D(4,3,5,6)           -178.4403         estimate D2E/DX2                !
 ! D16   D(4,3,5,8)             -4.8447         estimate D2E/DX2                !
 ! D17   D(3,5,6,7)             -4.2778         estimate D2E/DX2                !
 ! D18   D(8,5,6,7)           -177.8262         estimate D2E/DX2                !
 ! D19   D(3,5,8,9)             51.7003         estimate D2E/DX2                !
 ! D20   D(3,5,8,13)          -135.1836         estimate D2E/DX2                !
 ! D21   D(6,5,8,9)           -134.3393         estimate D2E/DX2                !
 ! D22   D(6,5,8,13)            38.7767         estimate D2E/DX2                !
 ! D23   D(5,6,7,1)             -3.2485         estimate D2E/DX2                !
 ! D24   D(5,6,7,45)          -176.7598         estimate D2E/DX2                !
 ! D25   D(5,8,9,10)           176.6527         estimate D2E/DX2                !
 ! D26   D(13,8,9,10)            3.7189         estimate D2E/DX2                !
 ! D27   D(5,8,13,12)         -174.7891         estimate D2E/DX2                !
 ! D28   D(5,8,13,14)            3.8896         estimate D2E/DX2                !
 ! D29   D(9,8,13,12)           -1.8466         estimate D2E/DX2                !
 ! D30   D(9,8,13,14)          176.8321         estimate D2E/DX2                !
 ! D31   D(8,9,10,11)           -3.2908         estimate D2E/DX2                !
 ! D32   D(8,9,10,46)          178.7288         estimate D2E/DX2                !
 ! D33   D(9,10,11,12)           0.9407         estimate D2E/DX2                !
 ! D34   D(9,10,11,15)         179.2997         estimate D2E/DX2                !
 ! D35   D(46,10,11,12)        178.501          estimate D2E/DX2                !
 ! D36   D(46,10,11,15)         -3.14           estimate D2E/DX2                !
 ! D37   D(10,11,12,13)          0.8672         estimate D2E/DX2                !
 ! D38   D(10,11,12,47)        176.8633         estimate D2E/DX2                !
 ! D39   D(15,11,12,13)       -177.3917         estimate D2E/DX2                !
 ! D40   D(15,11,12,47)         -1.3956         estimate D2E/DX2                !
 ! D41   D(10,11,15,16)        132.2362         estimate D2E/DX2                !
 ! D42   D(10,11,15,21)        -45.1056         estimate D2E/DX2                !
 ! D43   D(12,11,15,16)        -49.4841         estimate D2E/DX2                !
 ! D44   D(12,11,15,21)        133.174          estimate D2E/DX2                !
 ! D45   D(11,12,13,8)          -0.5092         estimate D2E/DX2                !
 ! D46   D(11,12,13,14)       -179.2538         estimate D2E/DX2                !
 ! D47   D(47,12,13,8)        -176.4203         estimate D2E/DX2                !
 ! D48   D(47,12,13,14)          4.835          estimate D2E/DX2                !
 ! D49   D(11,15,16,17)        178.5595         estimate D2E/DX2                !
 ! D50   D(11,15,16,48)         -1.8707         estimate D2E/DX2                !
 ! D51   D(21,15,16,17)         -3.8378         estimate D2E/DX2                !
 ! D52   D(21,15,16,48)        175.732          estimate D2E/DX2                !
 ! D53   D(11,15,21,20)       -177.0456         estimate D2E/DX2                !
 ! D54   D(11,15,21,49)         -7.8247         estimate D2E/DX2                !
 ! D55   D(16,15,21,20)          5.3661         estimate D2E/DX2                !
 ! D56   D(16,15,21,49)        174.587          estimate D2E/DX2                !
 ! D57   D(15,16,17,18)        179.2762         estimate D2E/DX2                !
 ! D58   D(15,16,17,19)          3.5915         estimate D2E/DX2                !
 ! D59   D(48,16,17,18)         -0.2442         estimate D2E/DX2                !
 ! D60   D(48,16,17,19)       -175.9289         estimate D2E/DX2                !
 ! D61   D(16,17,19,20)         -4.4198         estimate D2E/DX2                !
 ! D62   D(16,17,19,22)        179.2839         estimate D2E/DX2                !
 ! D63   D(18,17,19,20)        179.9301         estimate D2E/DX2                !
 ! D64   D(18,17,19,22)          3.6337         estimate D2E/DX2                !
 ! D65   D(17,19,20,21)          5.4859         estimate D2E/DX2                !
 ! D66   D(22,19,20,21)       -177.8807         estimate D2E/DX2                !
 ! D67   D(17,19,22,23)         43.3023         estimate D2E/DX2                !
 ! D68   D(17,19,22,27)       -136.5022         estimate D2E/DX2                !
 ! D69   D(20,19,22,23)       -133.0346         estimate D2E/DX2                !
 ! D70   D(20,19,22,27)         47.1609         estimate D2E/DX2                !
 ! D71   D(19,20,21,15)         -6.6056         estimate D2E/DX2                !
 ! D72   D(19,20,21,49)       -176.8672         estimate D2E/DX2                !
 ! D73   D(19,22,23,24)       -179.4918         estimate D2E/DX2                !
 ! D74   D(27,22,23,24)          0.3189         estimate D2E/DX2                !
 ! D75   D(19,22,27,26)       -178.4307         estimate D2E/DX2                !
 ! D76   D(19,22,27,28)          4.3007         estimate D2E/DX2                !
 ! D77   D(23,22,27,26)          1.7688         estimate D2E/DX2                !
 ! D78   D(23,22,27,28)       -175.4998         estimate D2E/DX2                !
 ! D79   D(22,23,24,25)         -3.9111         estimate D2E/DX2                !
 ! D80   D(22,23,24,50)       -177.1143         estimate D2E/DX2                !
 ! D81   D(23,24,25,26)          5.2023         estimate D2E/DX2                !
 ! D82   D(23,24,25,29)       -179.0801         estimate D2E/DX2                !
 ! D83   D(50,24,25,26)        177.6168         estimate D2E/DX2                !
 ! D84   D(50,24,25,29)         -6.6656         estimate D2E/DX2                !
 ! D85   D(24,25,26,27)         -2.967          estimate D2E/DX2                !
 ! D86   D(24,25,26,51)        177.5578         estimate D2E/DX2                !
 ! D87   D(29,25,26,27)       -178.8404         estimate D2E/DX2                !
 ! D88   D(29,25,26,51)          1.6844         estimate D2E/DX2                !
 ! D89   D(24,25,29,30)        -47.7122         estimate D2E/DX2                !
 ! D90   D(24,25,29,35)        130.9087         estimate D2E/DX2                !
 ! D91   D(26,25,29,30)        128.0272         estimate D2E/DX2                !
 ! D92   D(26,25,29,35)        -53.3519         estimate D2E/DX2                !
 ! D93   D(25,26,27,22)         -0.4324         estimate D2E/DX2                !
 ! D94   D(25,26,27,28)        177.0897         estimate D2E/DX2                !
 ! D95   D(51,26,27,22)        179.0537         estimate D2E/DX2                !
 ! D96   D(51,26,27,28)         -3.4241         estimate D2E/DX2                !
 ! D97   D(25,29,30,31)        175.9721         estimate D2E/DX2                !
 ! D98   D(25,29,30,52)         -1.1227         estimate D2E/DX2                !
 ! D99   D(35,29,30,31)         -2.7599         estimate D2E/DX2                !
 ! D100  D(35,29,30,52)       -179.8547         estimate D2E/DX2                !
 ! D101  D(25,29,35,34)       -179.29           estimate D2E/DX2                !
 ! D102  D(25,29,35,53)         -0.1548         estimate D2E/DX2                !
 ! D103  D(30,29,35,34)         -0.5976         estimate D2E/DX2                !
 ! D104  D(30,29,35,53)        178.5377         estimate D2E/DX2                !
 ! D105  D(29,30,31,32)        179.7362         estimate D2E/DX2                !
 ! D106  D(29,30,31,33)          4.2369         estimate D2E/DX2                !
 ! D107  D(52,30,31,32)         -3.0293         estimate D2E/DX2                !
 ! D108  D(52,30,31,33)       -178.5285         estimate D2E/DX2                !
 ! D109  D(30,31,33,34)         -2.7174         estimate D2E/DX2                !
 ! D110  D(30,31,33,36)        179.2169         estimate D2E/DX2                !
 ! D111  D(32,31,33,34)       -178.4226         estimate D2E/DX2                !
 ! D112  D(32,31,33,36)          3.5117         estimate D2E/DX2                !
 ! D113  D(31,33,34,35)         -0.3293         estimate D2E/DX2                !
 ! D114  D(36,33,34,35)        177.7692         estimate D2E/DX2                !
 ! D115  D(31,33,36,37)         45.699          estimate D2E/DX2                !
 ! D116  D(31,33,36,41)       -139.805          estimate D2E/DX2                !
 ! D117  D(34,33,36,37)       -132.4534         estimate D2E/DX2                !
 ! D118  D(34,33,36,41)         42.0426         estimate D2E/DX2                !
 ! D119  D(33,34,35,29)          2.0897         estimate D2E/DX2                !
 ! D120  D(33,34,35,53)       -177.0419         estimate D2E/DX2                !
 ! D121  D(33,36,37,38)       -177.7275         estimate D2E/DX2                !
 ! D122  D(41,36,37,38)          8.1056         estimate D2E/DX2                !
 ! D123  D(33,36,41,40)       -179.0852         estimate D2E/DX2                !
 ! D124  D(33,36,41,42)          7.246          estimate D2E/DX2                !
 ! D125  D(37,36,41,40)         -5.1585         estimate D2E/DX2                !
 ! D126  D(37,36,41,42)       -178.8273         estimate D2E/DX2                !
 ! D127  D(36,37,38,39)         -8.5192         estimate D2E/DX2                !
 ! D128  D(36,37,38,54)        178.8624         estimate D2E/DX2                !
 ! D129  D(37,38,39,40)          6.7657         estimate D2E/DX2                !
 ! D130  D(37,38,39,55)       -179.8988         estimate D2E/DX2                !
 ! D131  D(54,38,39,40)        178.222          estimate D2E/DX2                !
 ! D132  D(54,38,39,55)         -8.4426         estimate D2E/DX2                !
 ! D133  D(38,39,40,41)         -3.6197         estimate D2E/DX2                !
 ! D134  D(38,39,40,56)        173.4834         estimate D2E/DX2                !
 ! D135  D(55,39,40,41)       -176.7583         estimate D2E/DX2                !
 ! D136  D(55,39,40,56)          0.3449         estimate D2E/DX2                !
 ! D137  D(39,40,41,36)          2.5627         estimate D2E/DX2                !
 ! D138  D(39,40,41,42)        176.2727         estimate D2E/DX2                !
 ! D139  D(56,40,41,36)       -174.935          estimate D2E/DX2                !
 ! D140  D(56,40,41,42)         -1.225          estimate D2E/DX2                !
 --------------------------------------------------------------------------------
 Trust Radius=3.00D-01 FncErr=1.00D-07 GrdErr=1.00D-06 EigMax=2.50D+02 EigMin=1.00D-04
 Number of steps in this run=    307 maximum allowed number of steps=    336.
 GradGradGradGradGradGradGradGradGradGradGradGradGradGradGradGradGradGrad

 Leave Link  103 at Sat Jul 25 00:12:54 2020, MaxMem=  4026531840 cpu:               0.2 elap:               0.0
 (Enter /opt/ohpc/pub/libs/gaussian/g16-A.03/sandybridge/g16/l202.exe)
 Stoichiometry    C30H14F6N6
 Framework group  C1[X(C30H14F6N6)]
 Deg. of freedom   162
 Full point group                 C1      NOp   1
 Largest Abelian subgroup         C1      NOp   1
 Largest concise Abelian subgroup C1      NOp   1
                         Standard orientation:                         
 ---------------------------------------------------------------------
 Center     Atomic      Atomic             Coordinates (Angstroms)
 Number     Number       Type             X           Y           Z
 ---------------------------------------------------------------------
      1          6           0      -12.003855    0.223969    0.059892
      2          6           0      -11.241623    1.348693   -0.336663
      3          6           0       -9.866341    1.336873   -0.408293
      4          9           0       -9.170948    2.430548   -0.731280
      5          6           0       -9.234585    0.109227   -0.001061
      6          7           0       -9.902199   -1.006900    0.298243
      7          6           0      -11.309995   -0.883560    0.280518
      8          6           0       -7.788219    0.052101   -0.051079
      9          7           0       -7.101044    0.984587    0.525837
     10          6           0       -5.687273    0.926781    0.559487
     11          6           0       -5.035258   -0.159036    0.035951
     12          6           0       -5.782066   -1.177792   -0.538247
     13          6           0       -7.161963   -1.101357   -0.603131
     14          9           0       -7.840477   -2.123051   -1.156407
     15          6           0       -3.574834   -0.160475    0.082605
     16          6           0       -2.783246   -1.308419    0.551589
     17          6           0       -1.463675   -1.274787    0.549776
     18          9           0       -0.791107   -2.392098    1.022108
     19          6           0       -0.693267   -0.118011    0.171981
     20          7           0       -1.353713    0.946941   -0.281228
     21          6           0       -2.786723    0.937826   -0.259669
     22          6           0        0.701117   -0.035456    0.169446
     23          7           0        1.429574   -1.148961   -0.359504
     24          6           0        2.781446   -1.138298   -0.382256
     25          6           0        3.515503   -0.034737    0.023887
     26          6           0        2.822487    1.100817    0.593245
     27          6           0        1.378324    1.050799    0.649760
     28          9           0        0.826691    2.059445    1.217253
     29          6           0        4.968905   -0.013111   -0.017848
     30          6           0        5.726351   -1.086419    0.498032
     31          6           0        7.108677   -1.155240    0.411835
     32          9           0        7.860423   -2.160553    0.897060
     33          6           0        7.724144    0.008824   -0.165627
     34          7           0        7.016052    1.033935   -0.626633
     35          6           0        5.720144    1.035279   -0.585047
     36          6           0        9.277794    0.072540   -0.305758
     37          7           0        9.858928   -1.046638   -0.801487
     38          6           0       11.239083   -1.035723   -0.890757
     39          6           0       11.924787    0.109636   -0.658406
     40          6           0       11.360201    1.226632   -0.215301
     41          6           0        9.938598    1.253728   -0.041649
     42          9           0        9.343196    2.272278    0.446797
     43          1           0      -13.039345    0.247783    0.043589
     44          1           0      -11.791327    2.282722   -0.644711
     45          1           0      -11.858177   -1.803843    0.586515
     46          1           0       -5.275356    1.803776    1.064637
     47          1           0       -5.240020   -2.031371   -1.008595
     48          1           0       -3.393732   -2.161958    0.897820
     49          1           0       -3.180798    1.802166   -0.686964
     50          1           0        3.175841   -1.955520   -0.818959
     51          1           0        3.322667    1.925571    0.942449
     52          1           0        5.221949   -1.976076    0.970949
     53          1           0        5.194297    1.860830   -1.011216
     54          1           0       11.648393   -1.993029   -1.286720
     55          1           0       13.024140    0.052169   -0.747374
     56          1           0       11.860465    2.159089    0.088941
 ---------------------------------------------------------------------
 Rotational constants (GHZ):           0.4245540           0.0165161           0.0160970
 Leave Link  202 at Sat Jul 25 00:12:54 2020, MaxMem=  4026531840 cpu:               0.1 elap:               0.0
 (Enter /opt/ohpc/pub/libs/gaussian/g16-A.03/sandybridge/g16/l301.exe)
 Standard basis: CC-pVDZ (5D, 7F)
 Ernie: Thresh=  0.10000D-02 Tol=  0.10000D-05 Strict=F.
 Ernie:  84 primitive shells out of 994 were deleted.
 There are   700 symmetry adapted cartesian basis functions of A   symmetry.
 There are   658 symmetry adapted basis functions of A   symmetry.
   658 basis functions,  1484 primitive gaussians,   700 cartesian basis functions
   145 alpha electrons      145 beta electrons
       nuclear repulsion energy      4053.1955319490 Hartrees.
 IExCor=32609 DFT=T Ex+Corr=LC-wPBE ExCW=0 ScaHFX=  1.000000
 ScaDFX=  1.000000  0.000000  1.000000  1.000000 ScalE2=  1.000000  1.000000
 IRadAn=      5 IRanWt=     -1 IRanGd=            0 ICorTp=0 IEmpDi=  4
 HFx  wShort=  0.000000 wLong=  0.251000 cFull=  0.000000 cShort=  0.000000 cLong=  1.000000
 DFx  wShort=  0.000000 wLong=  0.251000 cFull=  0.000000 cShort=  0.000000 cLong=  1.000000
 NAtoms=   56 NActive=   56 NUniq=   56 SFac= 1.00D+00 NAtFMM=   60 NAOKFM=F Big=F
 Integral buffers will be    131072 words long.
 Raffenetti 2 integral format.
 Two-electron integral symmetry is turned on.
 Leave Link  301 at Sat Jul 25 00:12:54 2020, MaxMem=  4026531840 cpu:               0.5 elap:               0.1
 (Enter /opt/ohpc/pub/libs/gaussian/g16-A.03/sandybridge/g16/l302.exe)
 NPDir=0 NMtPBC=     1 NCelOv=     1 NCel=       1 NClECP=     1 NCelD=      1
         NCelK=      1 NCelE2=     1 NClLst=     1 CellRange=     0.0.
 One-electron integrals computed using PRISM.
 One-electron integral symmetry used in STVInt
 NBasis=   658 RedAO= T EigKep=  4.41D-04  NBF=   658
 NBsUse=   658 1.00D-06 EigRej= -1.00D+00 NBFU=   658
 Precomputing XC quadrature grid using
 IXCGrd= 4 IRadAn=           5 IRanWt=          -1 IRanGd=           0 AccXCQ= 0.00D+00.
 Generated NRdTot=       0 NPtTot=           0 NUsed=           0 NTot=          32
 NSgBfM=   566   566   566   566   566 MxSgAt=    56 MxSgA2=    56.
 Leave Link  302 at Sat Jul 25 00:12:55 2020, MaxMem=  4026531840 cpu:               9.9 elap:               1.3
 (Enter /opt/ohpc/pub/libs/gaussian/g16-A.03/sandybridge/g16/l303.exe)
 DipDrv:  MaxL=1.
 Leave Link  303 at Sat Jul 25 00:12:56 2020, MaxMem=  4026531840 cpu:               0.9 elap:               0.2
 (Enter /opt/ohpc/pub/libs/gaussian/g16-A.03/sandybridge/g16/l401.exe)
 ExpMin= 1.22D-01 ExpMax= 1.47D+04 ExpMxC= 5.03D+02 IAcc=3 IRadAn=         5 AccDes= 0.00D+00
 Harris functional with IExCor=32609 and IRadAn=       5 diagonalized for initial guess.
 HarFok:  IExCor=32609 AccDes= 0.00D+00 IRadAn=         5 IDoV= 1 UseB2=F ITyADJ=14
 ICtDFT=  3500011 ScaDFX=  1.000000  1.000000  1.000000  1.000000
 FoFCou: FMM=F IPFlag=           0 FMFlag=      100000 FMFlg1=           0
         NFxFlg=           0 DoJE=T BraDBF=F KetDBF=T FulRan=T
         wScrn=  0.000000 ICntrl=       500 IOpCl=  0 I1Cent=   200000004 NGrid=           0
         NMat0=    1 NMatS0=      1 NMatT0=    0 NMatD0=    1 NMtDS0=    0 NMtDT0=    0
 Petite list used in FoFCou.
 Harris En= -2077.30340975958    
 JPrj=0 DoOrth=F DoCkMO=F.
 Initial guess <Sx>= 0.0000 <Sy>= 0.0000 <Sz>= 0.0000 <S**2>= 0.0000 S= 0.0000
 Leave Link  401 at Sat Jul 25 00:13:01 2020, MaxMem=  4026531840 cpu:              44.3 elap:               5.6
 (Enter /opt/ohpc/pub/libs/gaussian/g16-A.03/sandybridge/g16/l502.exe)
 Integral symmetry usage will be decided dynamically.
 UHF open shell SCF:
 Using DIIS extrapolation, IDIIS=  1040.
 NGot=  4026531840 LenX=  4025539292 LenY=  4025048592
 Requested convergence on RMS density matrix=1.00D-08 within 128 cycles.
 Requested convergence on MAX density matrix=1.00D-06.
 Requested convergence on             energy=1.00D-06.
 No special actions if energy rises.
 Fock matrices will be formed incrementally for  20 cycles.
 Integral accuracy reduced to 1.0D-05 until final iterations.

 Cycle   1  Pass 0  IDiag  1:
 FoFJK:  IHMeth= 1 ICntrl=       0 DoSepK=T KAlg= 0 I1Cent=           0 FoldK=F
 IRaf=         1 NMat=       1 IRICut=       1 DoRegI=T DoRafI=F ISym2E= 0 IDoP0=0 IntGTp=1.
 FoFCou: FMM=F IPFlag=           0 FMFlag=      100000 FMFlg1=           0
         NFxFlg=           0 DoJE=T BraDBF=F KetDBF=F FulRan=T
         wScrn=  0.000000 ICntrl=       500 IOpCl=  0 I1Cent=           0 NGrid=           0
         NMat0=    1 NMatS0=      1 NMatT0=    0 NMatD0=    1 NMtDS0=    0 NMtDT0=    0
 Symmetry not used in FoFCou.
 E= -2077.10960683390    
 DIIS: error= 1.39D-02 at cycle   1 NSaved=   1.
 NSaved= 1 IEnMin= 1 EnMin= -2077.10960683390     IErMin= 1 ErrMin= 1.39D-02
 ErrMax= 1.39D-02  0.00D+00 EMaxC= 1.00D-01 BMatC= 1.52D+00 BMatP= 1.52D+00
 IDIUse=3 WtCom= 8.61D-01 WtEn= 1.39D-01
 Coeff-Com:  0.100D+01
 Coeff-En:   0.100D+01
 Coeff:      0.100D+01
 Gap=     0.297 Goal=   None    Shift=    0.000
 Gap=     0.297 Goal=   None    Shift=    0.000
 GapD=    0.297 DampG=1.000 DampE=0.500 DampFc=0.5000 IDamp=-1.
 Damping current iteration by 5.00D-01
 RMSDP=1.86D-03 MaxDP=8.70D-02              OVMax= 1.39D-01

 Cycle   2  Pass 0  IDiag  1:
 RMSU=  9.26D-04    CP:  9.92D-01
 E= -2077.31458692077     Delta-E=       -0.204980086865 Rises=F Damp=T
 DIIS: error= 3.74D-03 at cycle   2 NSaved=   2.
 NSaved= 2 IEnMin= 2 EnMin= -2077.31458692077     IErMin= 2 ErrMin= 3.74D-03
 ErrMax= 3.74D-03  0.00D+00 EMaxC= 1.00D-01 BMatC= 1.19D-01 BMatP= 1.52D+00
 IDIUse=3 WtCom= 9.63D-01 WtEn= 3.74D-02
 Coeff-Com: -0.616D-01 0.106D+01
 Coeff-En:   0.000D+00 0.100D+01
 Coeff:     -0.593D-01 0.106D+01
 Gap=     0.304 Goal=   None    Shift=    0.000
 Gap=     0.304 Goal=   None    Shift=    0.000
 RMSDP=7.40D-04 MaxDP=2.10D-02 DE=-2.05D-01 OVMax= 8.33D-02

 Cycle   3  Pass 0  IDiag  1:
 RMSU=  6.51D-04    CP:  9.87D-01  1.37D+00
 E= -2077.50774326339     Delta-E=       -0.193156342621 Rises=F Damp=F
 DIIS: error= 2.74D-03 at cycle   3 NSaved=   3.
 NSaved= 3 IEnMin= 3 EnMin= -2077.50774326339     IErMin= 3 ErrMin= 2.74D-03
 ErrMax= 2.74D-03  0.00D+00 EMaxC= 1.00D-01 BMatC= 6.90D-02 BMatP= 1.19D-01
 IDIUse=3 WtCom= 9.73D-01 WtEn= 2.74D-02
 Coeff-Com: -0.901D-01 0.485D+00 0.605D+00
 Coeff-En:   0.000D+00 0.000D+00 0.100D+01
 Coeff:     -0.876D-01 0.472D+00 0.616D+00
 Gap=     0.285 Goal=   None    Shift=    0.000
 Gap=     0.285 Goal=   None    Shift=    0.000
 RMSDP=2.50D-04 MaxDP=1.35D-02 DE=-1.93D-01 OVMax= 2.78D-02

 Cycle   4  Pass 0  IDiag  1:
 RMSU=  1.75D-04    CP:  9.88D-01  1.42D+00  7.33D-01
 E= -2077.52404241374     Delta-E=       -0.016299150358 Rises=F Damp=F
 DIIS: error= 9.04D-04 at cycle   4 NSaved=   4.
 NSaved= 4 IEnMin= 4 EnMin= -2077.52404241374     IErMin= 4 ErrMin= 9.04D-04
 ErrMax= 9.04D-04  0.00D+00 EMaxC= 1.00D-01 BMatC= 6.81D-03 BMatP= 6.90D-02
 IDIUse=3 WtCom= 9.91D-01 WtEn= 9.04D-03
 Coeff-Com: -0.270D-01 0.119D+00 0.283D+00 0.625D+00
 Coeff-En:   0.000D+00 0.000D+00 0.000D+00 0.100D+01
 Coeff:     -0.268D-01 0.118D+00 0.280D+00 0.629D+00
 Gap=     0.286 Goal=   None    Shift=    0.000
 Gap=     0.286 Goal=   None    Shift=    0.000
 RMSDP=7.25D-05 MaxDP=4.07D-03 DE=-1.63D-02 OVMax= 8.28D-03

 Cycle   5  Pass 0  IDiag  1:
 RMSU=  4.67D-05    CP:  9.88D-01  1.41D+00  7.91D-01  7.69D-01
 E= -2077.52567945339     Delta-E=       -0.001637039642 Rises=F Damp=F
 DIIS: error= 2.60D-04 at cycle   5 NSaved=   5.
 NSaved= 5 IEnMin= 5 EnMin= -2077.52567945339     IErMin= 5 ErrMin= 2.60D-04
 ErrMax= 2.60D-04  0.00D+00 EMaxC= 1.00D-01 BMatC= 6.43D-04 BMatP= 6.81D-03
 IDIUse=3 WtCom= 9.97D-01 WtEn= 2.60D-03
 Coeff-Com: -0.885D-03 0.112D-02 0.679D-01 0.286D+00 0.646D+00
 Coeff-En:   0.000D+00 0.000D+00 0.000D+00 0.000D+00 0.100D+01
 Coeff:     -0.882D-03 0.112D-02 0.678D-01 0.286D+00 0.646D+00
 Gap=     0.286 Goal=   None    Shift=    0.000
 Gap=     0.286 Goal=   None    Shift=    0.000
 RMSDP=2.52D-05 MaxDP=1.05D-03 DE=-1.64D-03 OVMax= 2.32D-03

 Cycle   6  Pass 0  IDiag  1:
 RMSU=  2.00D-05    CP:  9.88D-01  1.42D+00  7.97D-01  8.39D-01  8.26D-01
 E= -2077.52584093394     Delta-E=       -0.000161480554 Rises=F Damp=F
 DIIS: error= 7.70D-05 at cycle   6 NSaved=   6.
 NSaved= 6 IEnMin= 6 EnMin= -2077.52584093394     IErMin= 6 ErrMin= 7.70D-05
 ErrMax= 7.70D-05  0.00D+00 EMaxC= 1.00D-01 BMatC= 5.95D-05 BMatP= 6.43D-04
 IDIUse=1 WtCom= 1.00D+00 WtEn= 0.00D+00
 Coeff-Com:  0.336D-02-0.134D-01-0.274D-03 0.495D-01 0.250D+00 0.711D+00
 Coeff:      0.336D-02-0.134D-01-0.274D-03 0.495D-01 0.250D+00 0.711D+00
 Gap=     0.286 Goal=   None    Shift=    0.000
 Gap=     0.286 Goal=   None    Shift=    0.000
 RMSDP=9.09D-06 MaxDP=5.08D-04 DE=-1.61D-04 OVMax= 1.46D-03

 Initial convergence to 1.0D-05 achieved.  Increase integral accuracy.
 Cycle   7  Pass 1  IDiag  1:
 E= -2077.52537744425     Delta-E=        0.000463489688 Rises=F Damp=F
 DIIS: error= 1.33D-04 at cycle   1 NSaved=   1.
 NSaved= 1 IEnMin= 1 EnMin= -2077.52537744425     IErMin= 1 ErrMin= 1.33D-04
 ErrMax= 1.33D-04  0.00D+00 EMaxC= 1.00D-01 BMatC= 4.46D-05 BMatP= 4.46D-05
 IDIUse=3 WtCom= 9.99D-01 WtEn= 1.33D-03
 Coeff-Com:  0.100D+01
 Coeff-En:   0.100D+01
 Coeff:      0.100D+01
 Gap=     0.287 Goal=   None    Shift=    0.000
 Gap=     0.287 Goal=   None    Shift=    0.000
 RMSDP=9.09D-06 MaxDP=5.08D-04 DE= 4.63D-04 OVMax= 7.85D-04

 Cycle   8  Pass 1  IDiag  1:
 RMSU=  7.23D-05    CP:  1.00D+00
 E= -2077.52538522240     Delta-E=       -0.000007778151 Rises=F Damp=F
 DIIS: error= 5.28D-05 at cycle   2 NSaved=   2.
 NSaved= 2 IEnMin= 2 EnMin= -2077.52538522240     IErMin= 2 ErrMin= 5.28D-05
 ErrMax= 5.28D-05  0.00D+00 EMaxC= 1.00D-01 BMatC= 1.83D-05 BMatP= 4.46D-05
 IDIUse=1 WtCom= 1.00D+00 WtEn= 0.00D+00
 Coeff-Com:  0.344D+00 0.656D+00
 Coeff:      0.344D+00 0.656D+00
 Gap=     0.287 Goal=   None    Shift=    0.000
 Gap=     0.287 Goal=   None    Shift=    0.000
 RMSDP=5.16D-06 MaxDP=4.21D-04 DE=-7.78D-06 OVMax= 5.20D-04

 Cycle   9  Pass 1  IDiag  1:
 RMSU=  4.65D-06    CP:  1.00D+00  1.03D+00
 E= -2077.52538824666     Delta-E=       -0.000003024255 Rises=F Damp=F
 DIIS: error= 3.95D-05 at cycle   3 NSaved=   3.
 NSaved= 3 IEnMin= 3 EnMin= -2077.52538824666     IErMin= 3 ErrMin= 3.95D-05
 ErrMax= 3.95D-05  0.00D+00 EMaxC= 1.00D-01 BMatC= 6.39D-06 BMatP= 1.83D-05
 IDIUse=1 WtCom= 1.00D+00 WtEn= 0.00D+00
 Coeff-Com: -0.273D-01 0.365D+00 0.662D+00
 Coeff:     -0.273D-01 0.365D+00 0.662D+00
 Gap=     0.287 Goal=   None    Shift=    0.000
 Gap=     0.287 Goal=   None    Shift=    0.000
 RMSDP=2.53D-06 MaxDP=1.83D-04 DE=-3.02D-06 OVMax= 3.01D-04

 Cycle  10  Pass 1  IDiag  1:
 RMSU=  1.34D-06    CP:  1.00D+00  1.05D+00  7.06D-01
 E= -2077.52538991333     Delta-E=       -0.000001666674 Rises=F Damp=F
 DIIS: error= 5.27D-06 at cycle   4 NSaved=   4.
 NSaved= 4 IEnMin= 4 EnMin= -2077.52538991333     IErMin= 4 ErrMin= 5.27D-06
 ErrMax= 5.27D-06  0.00D+00 EMaxC= 1.00D-01 BMatC= 1.67D-07 BMatP= 6.39D-06
 IDIUse=1 WtCom= 1.00D+00 WtEn= 0.00D+00
 Coeff-Com: -0.181D-01 0.108D+00 0.230D+00 0.680D+00
 Coeff:     -0.181D-01 0.108D+00 0.230D+00 0.680D+00
 Gap=     0.287 Goal=   None    Shift=    0.000
 Gap=     0.287 Goal=   None    Shift=    0.000
 RMSDP=5.41D-07 MaxDP=2.41D-05 DE=-1.67D-06 OVMax= 8.41D-05

 Cycle  11  Pass 1  IDiag  1:
 RMSU=  4.41D-07    CP:  1.00D+00  1.05D+00  7.48D-01  1.16D+00
 E= -2077.52538998729     Delta-E=       -0.000000073959 Rises=F Damp=F
 DIIS: error= 3.75D-06 at cycle   5 NSaved=   5.
 NSaved= 5 IEnMin= 5 EnMin= -2077.52538998729     IErMin= 5 ErrMin= 3.75D-06
 ErrMax= 3.75D-06  0.00D+00 EMaxC= 1.00D-01 BMatC= 5.21D-08 BMatP= 1.67D-07
 IDIUse=1 WtCom= 1.00D+00 WtEn= 0.00D+00
 Coeff-Com:  0.466D-02-0.113D+00-0.191D+00 0.287D+00 0.101D+01
 Coeff:      0.466D-02-0.113D+00-0.191D+00 0.287D+00 0.101D+01
 Gap=     0.287 Goal=   None    Shift=    0.000
 Gap=     0.287 Goal=   None    Shift=    0.000
 RMSDP=5.13D-07 MaxDP=2.27D-05 DE=-7.40D-08 OVMax= 1.17D-04

 Cycle  12  Pass 1  IDiag  1:
 RMSU=  2.63D-07    CP:  1.00D+00  1.06D+00  7.64D-01  1.48D+00  1.17D+00
 E= -2077.52539008012     Delta-E=       -0.000000092826 Rises=F Damp=F
 DIIS: error= 1.31D-06 at cycle   6 NSaved=   6.
 NSaved= 6 IEnMin= 6 EnMin= -2077.52539008012     IErMin= 6 ErrMin= 1.31D-06
 ErrMax= 1.31D-06  0.00D+00 EMaxC= 1.00D-01 BMatC= 1.08D-08 BMatP= 5.21D-08
 IDIUse=1 WtCom= 1.00D+00 WtEn= 0.00D+00
 Coeff-Com:  0.473D-02-0.764D-01-0.135D+00 0.581D-01 0.531D+00 0.618D+00
 Coeff:      0.473D-02-0.764D-01-0.135D+00 0.581D-01 0.531D+00 0.618D+00
 Gap=     0.287 Goal=   None    Shift=    0.000
 Gap=     0.287 Goal=   None    Shift=    0.000
 RMSDP=1.48D-07 MaxDP=5.56D-06 DE=-9.28D-08 OVMax= 2.15D-05

 Cycle  13  Pass 1  IDiag  1:
 RMSU=  8.69D-08    CP:  1.00D+00  1.06D+00  7.70D-01  1.55D+00  1.34D+00
                    CP:  1.05D+00
 E= -2077.52539003449     Delta-E=        0.000000045629 Rises=F Damp=F
 DIIS: error= 4.15D-07 at cycle   7 NSaved=   7.
 NSaved= 7 IEnMin= 6 EnMin= -2077.52539008012     IErMin= 7 ErrMin= 4.15D-07
 ErrMax= 4.15D-07  0.00D+00 EMaxC= 1.00D-01 BMatC= 7.84D-10 BMatP= 1.08D-08
 IDIUse=1 WtCom= 1.00D+00 WtEn= 0.00D+00
 Coeff-Com:  0.668D-03-0.508D-02-0.102D-01-0.240D-01 0.183D-01 0.190D+00
 Coeff-Com:  0.830D+00
 Coeff:      0.668D-03-0.508D-02-0.102D-01-0.240D-01 0.183D-01 0.190D+00
 Coeff:      0.830D+00
 Gap=     0.287 Goal=   None    Shift=    0.000
 Gap=     0.287 Goal=   None    Shift=    0.000
 RMSDP=4.80D-08 MaxDP=2.01D-06 DE= 4.56D-08 OVMax= 7.76D-06

 Cycle  14  Pass 1  IDiag  1:
 RMSU=  2.98D-08    CP:  1.00D+00  1.06D+00  7.70D-01  1.55D+00  1.36D+00
                    CP:  1.17D+00  1.09D+00
 E= -2077.52539003494     Delta-E=       -0.000000000456 Rises=F Damp=F
 DIIS: error= 1.52D-07 at cycle   8 NSaved=   8.
 NSaved= 8 IEnMin= 6 EnMin= -2077.52539008012     IErMin= 8 ErrMin= 1.52D-07
 ErrMax= 1.52D-07  0.00D+00 EMaxC= 1.00D-01 BMatC= 1.68D-10 BMatP= 7.84D-10
 IDIUse=1 WtCom= 1.00D+00 WtEn= 0.00D+00
 Coeff-Com: -0.987D-03 0.180D-01 0.313D-01-0.272D-01-0.128D+00-0.799D-01
 Coeff-Com:  0.267D+00 0.919D+00
 Coeff:     -0.987D-03 0.180D-01 0.313D-01-0.272D-01-0.128D+00-0.799D-01
 Coeff:      0.267D+00 0.919D+00
 Gap=     0.287 Goal=   None    Shift=    0.000
 Gap=     0.287 Goal=   None    Shift=    0.000
 RMSDP=2.99D-08 MaxDP=1.24D-06 DE=-4.56D-10 OVMax= 4.79D-06

 Cycle  15  Pass 1  IDiag  1:
 RMSU=  1.74D-08    CP:  1.00D+00  1.06D+00  7.70D-01  1.55D+00  1.38D+00
                    CP:  1.23D+00  1.23D+00  1.40D+00
 E= -2077.52539003509     Delta-E=       -0.000000000143 Rises=F Damp=F
 DIIS: error= 9.56D-08 at cycle   9 NSaved=   9.
 NSaved= 9 IEnMin= 6 EnMin= -2077.52539008012     IErMin= 9 ErrMin= 9.56D-08
 ErrMax= 9.56D-08  0.00D+00 EMaxC= 1.00D-01 BMatC= 3.23D-11 BMatP= 1.68D-10
 IDIUse=1 WtCom= 1.00D+00 WtEn= 0.00D+00
 Coeff-Com: -0.467D-03 0.762D-02 0.133D-01-0.925D-02-0.516D-01-0.539D-01
 Coeff-Com: -0.155D-02 0.381D+00 0.715D+00
 Coeff:     -0.467D-03 0.762D-02 0.133D-01-0.925D-02-0.516D-01-0.539D-01
 Coeff:     -0.155D-02 0.381D+00 0.715D+00
 Gap=     0.287 Goal=   None    Shift=    0.000
 Gap=     0.287 Goal=   None    Shift=    0.000
 RMSDP=8.75D-09 MaxDP=4.31D-07 DE=-1.43D-10 OVMax= 1.55D-06

 SCF Done:  E(ULC-wPBE) =  -2077.52539004     A.U. after   15 cycles
            NFock= 15  Conv=0.87D-08     -V/T= 2.0058
 <Sx>= 0.0000 <Sy>= 0.0000 <Sz>= 0.0000 <S**2>=-0.0000 S=-0.0000
 <L.S>= 0.000000000000E+00
 KE= 2.065456153292D+03 PE=-1.297098950206D+04 EE= 4.774812426787D+03
 Annihilation of the first spin contaminant:
 S**2 before annihilation    -0.0000,   after     0.0000
 Leave Link  502 at Sat Jul 25 00:20:01 2020, MaxMem=  4026531840 cpu:            3349.2 elap:             419.9
 (Enter /opt/ohpc/pub/libs/gaussian/g16-A.03/sandybridge/g16/l601.exe)
 Copying SCF densities to generalized density rwf, IOpCl= 1 IROHF=0.

 **********************************************************************

            Population analysis using the SCF density.

 **********************************************************************

 Orbital symmetries:
 Alpha Orbitals:
       Occupied  (A) (A) (A) (A) (A) (A) (A) (A) (A) (A) (A) (A)
                 (A) (A) (A) (A) (A) (A) (A) (A) (A) (A) (A) (A)
                 (A) (A) (A) (A) (A) (A) (A) (A) (A) (A) (A) (A)
                 (A) (A) (A) (A) (A) (A) (A) (A) (A) (A) (A) (A)
                 (A) (A) (A) (A) (A) (A) (A) (A) (A) (A) (A) (A)
                 (A) (A) (A) (A) (A) (A) (A) (A) (A) (A) (A) (A)
                 (A) (A) (A) (A) (A) (A) (A) (A) (A) (A) (A) (A)
                 (A) (A) (A) (A) (A) (A) (A) (A) (A) (A) (A) (A)
                 (A) (A) (A) (A) (A) (A) (A) (A) (A) (A) (A) (A)
                 (A) (A) (A) (A) (A) (A) (A) (A) (A) (A) (A) (A)
                 (A) (A) (A) (A) (A) (A) (A) (A) (A) (A) (A) (A)
                 (A) (A) (A) (A) (A) (A) (A) (A) (A) (A) (A) (A)
                 (A)
       Virtual   (A) (A) (A) (A) (A) (A) (A) (A) (A) (A) (A) (A)
                 (A) (A) (A) (A) (A) (A) (A) (A) (A) (A) (A) (A)
                 (A) (A) (A) (A) (A) (A) (A) (A) (A) (A) (A) (A)
                 (A) (A) (A) (A) (A) (A) (A) (A) (A) (A) (A) (A)
                 (A) (A) (A) (A) (A) (A) (A) (A) (A) (A) (A) (A)
                 (A) (A) (A) (A) (A) (A) (A) (A) (A) (A) (A) (A)
                 (A) (A) (A) (A) (A) (A) (A) (A) (A) (A) (A) (A)
                 (A) (A) (A) (A) (A) (A) (A) (A) (A) (A) (A) (A)
                 (A) (A) (A) (A) (A) (A) (A) (A) (A) (A) (A) (A)
                 (A) (A) (A) (A) (A) (A) (A) (A) (A) (A) (A) (A)
                 (A) (A) (A) (A) (A) (A) (A) (A) (A) (A) (A) (A)
                 (A) (A) (A) (A) (A) (A) (A) (A) (A) (A) (A) (A)
                 (A) (A) (A) (A) (A) (A) (A) (A) (A) (A) (A) (A)
                 (A) (A) (A) (A) (A) (A) (A) (A) (A) (A) (A) (A)
                 (A) (A) (A) (A) (A) (A) (A) (A) (A) (A) (A) (A)
                 (A) (A) (A) (A) (A) (A) (A) (A) (A) (A) (A) (A)
                 (A) (A) (A) (A) (A) (A) (A) (A) (A) (A) (A) (A)
                 (A) (A) (A) (A) (A) (A) (A) (A) (A) (A) (A) (A)
                 (A) (A) (A) (A) (A) (A) (A) (A) (A) (A) (A) (A)
                 (A) (A) (A) (A) (A) (A) (A) (A) (A) (A) (A) (A)
                 (A) (A) (A) (A) (A) (A) (A) (A) (A) (A) (A) (A)
                 (A) (A) (A) (A) (A) (A) (A) (A) (A) (A) (A) (A)
                 (A) (A) (A) (A) (A) (A) (A) (A) (A) (A) (A) (A)
                 (A) (A) (A) (A) (A) (A) (A) (A) (A) (A) (A) (A)
                 (A) (A) (A) (A) (A) (A) (A) (A) (A) (A) (A) (A)
                 (A) (A) (A) (A) (A) (A) (A) (A) (A) (A) (A) (A)
                 (A) (A) (A) (A) (A) (A) (A) (A) (A) (A) (A) (A)
                 (A) (A) (A) (A) (A) (A) (A) (A) (A) (A) (A) (A)
                 (A) (A) (A) (A) (A) (A) (A) (A) (A) (A) (A) (A)
                 (A) (A) (A) (A) (A) (A) (A) (A) (A) (A) (A) (A)
                 (A) (A) (A) (A) (A) (A) (A) (A) (A) (A) (A) (A)
                 (A) (A) (A) (A) (A) (A) (A) (A) (A) (A) (A) (A)
                 (A) (A) (A) (A) (A) (A) (A) (A) (A) (A) (A) (A)
                 (A) (A) (A) (A) (A) (A) (A) (A) (A) (A) (A) (A)
                 (A) (A) (A) (A) (A) (A) (A) (A) (A) (A) (A) (A)
                 (A) (A) (A) (A) (A) (A) (A) (A) (A) (A) (A) (A)
                 (A) (A) (A) (A) (A) (A) (A) (A) (A) (A) (A) (A)
                 (A) (A) (A) (A) (A) (A) (A) (A) (A) (A) (A) (A)
                 (A) (A) (A) (A) (A) (A) (A) (A) (A) (A) (A) (A)
                 (A) (A) (A) (A) (A) (A) (A) (A) (A) (A) (A) (A)
                 (A) (A) (A) (A) (A) (A) (A) (A) (A) (A) (A) (A)
                 (A) (A) (A) (A) (A) (A) (A) (A) (A) (A) (A) (A)
                 (A) (A) (A) (A) (A) (A) (A) (A) (A)
 Beta  Orbitals:
       Occupied  (A) (A) (A) (A) (A) (A) (A) (A) (A) (A) (A) (A)
                 (A) (A) (A) (A) (A) (A) (A) (A) (A) (A) (A) (A)
                 (A) (A) (A) (A) (A) (A) (A) (A) (A) (A) (A) (A)
                 (A) (A) (A) (A) (A) (A) (A) (A) (A) (A) (A) (A)
                 (A) (A) (A) (A) (A) (A) (A) (A) (A) (A) (A) (A)
                 (A) (A) (A) (A) (A) (A) (A) (A) (A) (A) (A) (A)
                 (A) (A) (A) (A) (A) (A) (A) (A) (A) (A) (A) (A)
                 (A) (A) (A) (A) (A) (A) (A) (A) (A) (A) (A) (A)
                 (A) (A) (A) (A) (A) (A) (A) (A) (A) (A) (A) (A)
                 (A) (A) (A) (A) (A) (A) (A) (A) (A) (A) (A) (A)
                 (A) (A) (A) (A) (A) (A) (A) (A) (A) (A) (A) (A)
                 (A) (A) (A) (A) (A) (A) (A) (A) (A) (A) (A) (A)
                 (A)
       Virtual   (A) (A) (A) (A) (A) (A) (A) (A) (A) (A) (A) (A)
                 (A) (A) (A) (A) (A) (A) (A) (A) (A) (A) (A) (A)
                 (A) (A) (A) (A) (A) (A) (A) (A) (A) (A) (A) (A)
                 (A) (A) (A) (A) (A) (A) (A) (A) (A) (A) (A) (A)
                 (A) (A) (A) (A) (A) (A) (A) (A) (A) (A) (A) (A)
                 (A) (A) (A) (A) (A) (A) (A) (A) (A) (A) (A) (A)
                 (A) (A) (A) (A) (A) (A) (A) (A) (A) (A) (A) (A)
                 (A) (A) (A) (A) (A) (A) (A) (A) (A) (A) (A) (A)
                 (A) (A) (A) (A) (A) (A) (A) (A) (A) (A) (A) (A)
                 (A) (A) (A) (A) (A) (A) (A) (A) (A) (A) (A) (A)
                 (A) (A) (A) (A) (A) (A) (A) (A) (A) (A) (A) (A)
                 (A) (A) (A) (A) (A) (A) (A) (A) (A) (A) (A) (A)
                 (A) (A) (A) (A) (A) (A) (A) (A) (A) (A) (A) (A)
                 (A) (A) (A) (A) (A) (A) (A) (A) (A) (A) (A) (A)
                 (A) (A) (A) (A) (A) (A) (A) (A) (A) (A) (A) (A)
                 (A) (A) (A) (A) (A) (A) (A) (A) (A) (A) (A) (A)
                 (A) (A) (A) (A) (A) (A) (A) (A) (A) (A) (A) (A)
                 (A) (A) (A) (A) (A) (A) (A) (A) (A) (A) (A) (A)
                 (A) (A) (A) (A) (A) (A) (A) (A) (A) (A) (A) (A)
                 (A) (A) (A) (A) (A) (A) (A) (A) (A) (A) (A) (A)
                 (A) (A) (A) (A) (A) (A) (A) (A) (A) (A) (A) (A)
                 (A) (A) (A) (A) (A) (A) (A) (A) (A) (A) (A) (A)
                 (A) (A) (A) (A) (A) (A) (A) (A) (A) (A) (A) (A)
                 (A) (A) (A) (A) (A) (A) (A) (A) (A) (A) (A) (A)
                 (A) (A) (A) (A) (A) (A) (A) (A) (A) (A) (A) (A)
                 (A) (A) (A) (A) (A) (A) (A) (A) (A) (A) (A) (A)
                 (A) (A) (A) (A) (A) (A) (A) (A) (A) (A) (A) (A)
                 (A) (A) (A) (A) (A) (A) (A) (A) (A) (A) (A) (A)
                 (A) (A) (A) (A) (A) (A) (A) (A) (A) (A) (A) (A)
                 (A) (A) (A) (A) (A) (A) (A) (A) (A) (A) (A) (A)
                 (A) (A) (A) (A) (A) (A) (A) (A) (A) (A) (A) (A)
                 (A) (A) (A) (A) (A) (A) (A) (A) (A) (A) (A) (A)
                 (A) (A) (A) (A) (A) (A) (A) (A) (A) (A) (A) (A)
                 (A) (A) (A) (A) (A) (A) (A) (A) (A) (A) (A) (A)
                 (A) (A) (A) (A) (A) (A) (A) (A) (A) (A) (A) (A)
                 (A) (A) (A) (A) (A) (A) (A) (A) (A) (A) (A) (A)
                 (A) (A) (A) (A) (A) (A) (A) (A) (A) (A) (A) (A)
                 (A) (A) (A) (A) (A) (A) (A) (A) (A) (A) (A) (A)
                 (A) (A) (A) (A) (A) (A) (A) (A) (A) (A) (A) (A)
                 (A) (A) (A) (A) (A) (A) (A) (A) (A) (A) (A) (A)
                 (A) (A) (A) (A) (A) (A) (A) (A) (A) (A) (A) (A)
                 (A) (A) (A) (A) (A) (A) (A) (A) (A) (A) (A) (A)
                 (A) (A) (A) (A) (A) (A) (A) (A) (A)
 The electronic state is 1-A.
 Alpha  occ. eigenvalues --  -24.45202 -24.45143 -24.44181 -24.44157 -24.43980
 Alpha  occ. eigenvalues --  -24.42236 -14.15936 -14.15802 -14.15662 -14.15304
 Alpha  occ. eigenvalues --  -14.14875 -14.14746 -10.14700 -10.14340 -10.14273
 Alpha  occ. eigenvalues --  -10.13936 -10.13765 -10.13660 -10.10178 -10.10023
 Alpha  occ. eigenvalues --  -10.09689 -10.09545 -10.09303 -10.08939 -10.08859
 Alpha  occ. eigenvalues --  -10.08697 -10.08575 -10.08298 -10.08124 -10.08087
 Alpha  occ. eigenvalues --  -10.07935 -10.07921 -10.07894 -10.07724 -10.07615
 Alpha  occ. eigenvalues --  -10.07563 -10.07534 -10.07367 -10.07200 -10.06621
 Alpha  occ. eigenvalues --  -10.05678 -10.05532  -1.31632  -1.31570  -1.28334
 Alpha  occ. eigenvalues --   -1.27886  -1.27857  -1.25129  -1.03518  -1.03430
 Alpha  occ. eigenvalues --   -1.02486  -1.00974  -1.00906  -0.99990  -0.93130
 Alpha  occ. eigenvalues --   -0.91746  -0.89360  -0.89088  -0.88598  -0.87618
 Alpha  occ. eigenvalues --   -0.87430  -0.86722  -0.86251  -0.84949  -0.83356
 Alpha  occ. eigenvalues --   -0.81672  -0.77817  -0.75325  -0.74717  -0.74084
 Alpha  occ. eigenvalues --   -0.73275  -0.72976  -0.72112  -0.71410  -0.70885
 Alpha  occ. eigenvalues --   -0.70418  -0.69393  -0.68555  -0.64706  -0.64262
 Alpha  occ. eigenvalues --   -0.64040  -0.63863  -0.63384  -0.62465  -0.61475
 Alpha  occ. eigenvalues --   -0.61382  -0.60787  -0.60460  -0.60320  -0.59788
 Alpha  occ. eigenvalues --   -0.59364  -0.59248  -0.58797  -0.57595  -0.57274
 Alpha  occ. eigenvalues --   -0.57111  -0.56904  -0.56052  -0.55576  -0.55102
 Alpha  occ. eigenvalues --   -0.54993  -0.54447  -0.53875  -0.52917  -0.51710
 Alpha  occ. eigenvalues --   -0.51014  -0.50831  -0.50342  -0.50202  -0.49876
 Alpha  occ. eigenvalues --   -0.49563  -0.49401  -0.49018  -0.48871  -0.48549
 Alpha  occ. eigenvalues --   -0.48268  -0.48219  -0.47750  -0.47508  -0.46973
 Alpha  occ. eigenvalues --   -0.46856  -0.46547  -0.46457  -0.45361  -0.45150
 Alpha  occ. eigenvalues --   -0.44869  -0.44084  -0.41411  -0.39765  -0.38271
 Alpha  occ. eigenvalues --   -0.37773  -0.37122  -0.36327  -0.35845  -0.35707
 Alpha  occ. eigenvalues --   -0.35558  -0.35225  -0.34939  -0.34622  -0.34256
 Alpha  occ. eigenvalues --   -0.33765  -0.33387  -0.32667  -0.32430  -0.31174
 Alpha virt. eigenvalues --   -0.02506  -0.00140   0.01298   0.02280   0.02740
 Alpha virt. eigenvalues --    0.03193   0.03262   0.03956   0.04335   0.05855
 Alpha virt. eigenvalues --    0.07541   0.08647   0.13220   0.13255   0.13907
 Alpha virt. eigenvalues --    0.14824   0.14933   0.16160   0.16805   0.17788
 Alpha virt. eigenvalues --    0.17952   0.18166   0.18409   0.18807   0.19121
 Alpha virt. eigenvalues --    0.19647   0.19949   0.20145   0.20286   0.20504
 Alpha virt. eigenvalues --    0.20879   0.21165   0.21568   0.21766   0.22481
 Alpha virt. eigenvalues --    0.22837   0.23136   0.23708   0.27472   0.28004
 Alpha virt. eigenvalues --    0.28604   0.29318   0.29848   0.30653   0.31051
 Alpha virt. eigenvalues --    0.31355   0.32145   0.32405   0.33041   0.33911
 Alpha virt. eigenvalues --    0.35181   0.36604   0.37044   0.37322   0.38070
 Alpha virt. eigenvalues --    0.38460   0.39141   0.39317   0.40092   0.40761
 Alpha virt. eigenvalues --    0.40961   0.41258   0.41283   0.41856   0.42258
 Alpha virt. eigenvalues --    0.43727   0.44069   0.45034   0.45715   0.45803
 Alpha virt. eigenvalues --    0.46293   0.46588   0.47391   0.47695   0.48183
 Alpha virt. eigenvalues --    0.48406   0.49300   0.50481   0.50736   0.51439
 Alpha virt. eigenvalues --    0.51522   0.51850   0.52321   0.52665   0.53509
 Alpha virt. eigenvalues --    0.53587   0.53722   0.53852   0.54444   0.54887
 Alpha virt. eigenvalues --    0.55230   0.55310   0.55407   0.55962   0.56006
 Alpha virt. eigenvalues --    0.56683   0.56739   0.56900   0.57658   0.57697
 Alpha virt. eigenvalues --    0.57967   0.58180   0.58514   0.58710   0.58964
 Alpha virt. eigenvalues --    0.59065   0.59600   0.59625   0.59858   0.59981
 Alpha virt. eigenvalues --    0.60295   0.60669   0.61180   0.61491   0.61739
 Alpha virt. eigenvalues --    0.62020   0.62657   0.63279   0.63546   0.63931
 Alpha virt. eigenvalues --    0.64294   0.64684   0.65004   0.65805   0.66003
 Alpha virt. eigenvalues --    0.66250   0.66721   0.67323   0.67627   0.68441
 Alpha virt. eigenvalues --    0.68668   0.68745   0.69160   0.69871   0.70560
 Alpha virt. eigenvalues --    0.70766   0.71068   0.71340   0.71590   0.72022
 Alpha virt. eigenvalues --    0.72498   0.72735   0.73433   0.73677   0.73813
 Alpha virt. eigenvalues --    0.74130   0.74344   0.74474   0.75706   0.75961
 Alpha virt. eigenvalues --    0.76354   0.76639   0.76693   0.77091   0.77454
 Alpha virt. eigenvalues --    0.77484   0.78495   0.79189   0.79621   0.80067
 Alpha virt. eigenvalues --    0.81031   0.81708   0.82854   0.83521   0.84281
 Alpha virt. eigenvalues --    0.84601   0.85370   0.86153   0.87963   0.88369
 Alpha virt. eigenvalues --    0.88509   0.89365   0.90047   0.90845   0.91205
 Alpha virt. eigenvalues --    0.92154   0.92744   0.93122   0.93816   0.94330
 Alpha virt. eigenvalues --    0.94533   0.95163   0.96106   0.96658   0.96970
 Alpha virt. eigenvalues --    0.97544   0.97974   0.98759   0.99079   0.99534
 Alpha virt. eigenvalues --    0.99693   1.00098   1.00421   1.00448   1.01095
 Alpha virt. eigenvalues --    1.01721   1.01957   1.02599   1.03597   1.03977
 Alpha virt. eigenvalues --    1.04308   1.04433   1.05020   1.05614   1.06430
 Alpha virt. eigenvalues --    1.06775   1.07186   1.07651   1.08252   1.08729
 Alpha virt. eigenvalues --    1.08978   1.09542   1.10074   1.10845   1.11140
 Alpha virt. eigenvalues --    1.11435   1.11486   1.11847   1.12222   1.13163
 Alpha virt. eigenvalues --    1.13749   1.14114   1.14238   1.14630   1.15157
 Alpha virt. eigenvalues --    1.16128   1.16463   1.16541   1.18171   1.19120
 Alpha virt. eigenvalues --    1.20126   1.20991   1.21128   1.21449   1.21977
 Alpha virt. eigenvalues --    1.22231   1.22956   1.23123   1.23374   1.23891
 Alpha virt. eigenvalues --    1.24449   1.24974   1.25108   1.25400   1.25766
 Alpha virt. eigenvalues --    1.26426   1.26743   1.27711   1.28529   1.28997
 Alpha virt. eigenvalues --    1.29605   1.29951   1.30583   1.31001   1.31577
 Alpha virt. eigenvalues --    1.32080   1.32334   1.34281   1.34954   1.36330
 Alpha virt. eigenvalues --    1.36670   1.37536   1.37831   1.38028   1.38651
 Alpha virt. eigenvalues --    1.39594   1.40129   1.40877   1.43575   1.44198
 Alpha virt. eigenvalues --    1.45775   1.45980   1.47066   1.47398   1.47671
 Alpha virt. eigenvalues --    1.48680   1.48736   1.49407   1.49603   1.50081
 Alpha virt. eigenvalues --    1.51191   1.51937   1.52352   1.52511   1.52811
 Alpha virt. eigenvalues --    1.53095   1.53615   1.53875   1.54851   1.55629
 Alpha virt. eigenvalues --    1.56130   1.56228   1.56381   1.56935   1.57231
 Alpha virt. eigenvalues --    1.57484   1.58667   1.59104   1.60202   1.60996
 Alpha virt. eigenvalues --    1.61283   1.62245   1.62565   1.63109   1.63956
 Alpha virt. eigenvalues --    1.64205   1.64463   1.64644   1.65050   1.65455
 Alpha virt. eigenvalues --    1.65660   1.65913   1.66290   1.66549   1.66867
 Alpha virt. eigenvalues --    1.67161   1.67879   1.68283   1.68662   1.69013
 Alpha virt. eigenvalues --    1.69167   1.69802   1.70141   1.70638   1.70926
 Alpha virt. eigenvalues --    1.71324   1.71610   1.72056   1.72247   1.72867
 Alpha virt. eigenvalues --    1.73203   1.73452   1.73702   1.74550   1.75435
 Alpha virt. eigenvalues --    1.76115   1.77280   1.77892   1.78530   1.78908
 Alpha virt. eigenvalues --    1.79260   1.79809   1.80311   1.81236   1.81871
 Alpha virt. eigenvalues --    1.82050   1.82612   1.82919   1.83185   1.83965
 Alpha virt. eigenvalues --    1.84607   1.84906   1.85558   1.86063   1.86670
 Alpha virt. eigenvalues --    1.87153   1.87994   1.88527   1.88825   1.89530
 Alpha virt. eigenvalues --    1.90259   1.90835   1.91449   1.91908   1.92350
 Alpha virt. eigenvalues --    1.92778   1.93379   1.93559   1.94036   1.95035
 Alpha virt. eigenvalues --    1.95468   1.96081   1.96859   1.97014   1.97602
 Alpha virt. eigenvalues --    1.98239   1.98637   1.99392   2.00159   2.00551
 Alpha virt. eigenvalues --    2.00692   2.01321   2.01410   2.03224   2.03665
 Alpha virt. eigenvalues --    2.04690   2.05314   2.06109   2.06610   2.08141
 Alpha virt. eigenvalues --    2.08924   2.09559   2.10084   2.10642   2.11024
 Alpha virt. eigenvalues --    2.11644   2.11680   2.13022   2.13666   2.14558
 Alpha virt. eigenvalues --    2.14920   2.18723   2.19064   2.19632   2.20260
 Alpha virt. eigenvalues --    2.20878   2.22452   2.24034   2.25209   2.27093
 Alpha virt. eigenvalues --    2.27656   2.29448   2.30079   2.31362   2.31532
 Alpha virt. eigenvalues --    2.32853   2.34017   2.34530   2.35022   2.35724
 Alpha virt. eigenvalues --    2.36872   2.37951   2.39036   2.39995   2.41629
 Alpha virt. eigenvalues --    2.42426   2.43661   2.44728   2.45722   2.46428
 Alpha virt. eigenvalues --    2.47310   2.47716   2.48370   2.49085   2.49942
 Alpha virt. eigenvalues --    2.50752   2.51593   2.51943   2.52331   2.53401
 Alpha virt. eigenvalues --    2.53841   2.54260   2.54988   2.55679   2.55730
 Alpha virt. eigenvalues --    2.57381   2.57735   2.57973   2.59445   2.60594
 Alpha virt. eigenvalues --    2.60939   2.62520   2.65437   2.66840   2.68821
 Alpha virt. eigenvalues --    2.72446   2.72520   2.74975   2.75402   2.77630
 Alpha virt. eigenvalues --    2.78721   2.80146   2.82060   2.82920   2.84614
 Alpha virt. eigenvalues --    2.84968   2.87760   2.89063   2.90577   2.91575
 Alpha virt. eigenvalues --    2.92814   2.94777   2.95439   2.98403   3.01717
 Alpha virt. eigenvalues --    3.03730   3.05314   3.22345   3.28124   3.35279
 Alpha virt. eigenvalues --    3.37454   3.39420   3.43373   3.58529   3.58942
 Alpha virt. eigenvalues --    3.59521   3.59538   3.59731   3.61035   3.62319
 Alpha virt. eigenvalues --    3.62644   3.63004   3.63414   3.64516   3.64563
 Alpha virt. eigenvalues --    3.77509   3.79037   3.79066   3.80065   3.83308
 Alpha virt. eigenvalues --    3.83851   3.97607   3.98107   3.98584   4.01855
 Alpha virt. eigenvalues --    4.06969   4.07845   4.19666   4.20314   4.20829
 Alpha virt. eigenvalues --    4.21573   4.23417   4.23812
  Beta  occ. eigenvalues --  -24.45202 -24.45143 -24.44181 -24.44157 -24.43980
  Beta  occ. eigenvalues --  -24.42236 -14.15936 -14.15802 -14.15662 -14.15304
  Beta  occ. eigenvalues --  -14.14875 -14.14746 -10.14700 -10.14340 -10.14273
  Beta  occ. eigenvalues --  -10.13936 -10.13765 -10.13660 -10.10178 -10.10023
  Beta  occ. eigenvalues --  -10.09689 -10.09545 -10.09303 -10.08939 -10.08859
  Beta  occ. eigenvalues --  -10.08697 -10.08575 -10.08298 -10.08124 -10.08087
  Beta  occ. eigenvalues --  -10.07935 -10.07921 -10.07894 -10.07724 -10.07615
  Beta  occ. eigenvalues --  -10.07563 -10.07534 -10.07367 -10.07200 -10.06621
  Beta  occ. eigenvalues --  -10.05678 -10.05532  -1.31632  -1.31570  -1.28334
  Beta  occ. eigenvalues --   -1.27886  -1.27857  -1.25129  -1.03518  -1.03430
  Beta  occ. eigenvalues --   -1.02486  -1.00974  -1.00906  -0.99990  -0.93130
  Beta  occ. eigenvalues --   -0.91746  -0.89360  -0.89088  -0.88598  -0.87618
  Beta  occ. eigenvalues --   -0.87430  -0.86722  -0.86251  -0.84949  -0.83356
  Beta  occ. eigenvalues --   -0.81672  -0.77817  -0.75325  -0.74717  -0.74084
  Beta  occ. eigenvalues --   -0.73275  -0.72976  -0.72112  -0.71410  -0.70885
  Beta  occ. eigenvalues --   -0.70418  -0.69393  -0.68555  -0.64706  -0.64262
  Beta  occ. eigenvalues --   -0.64040  -0.63863  -0.63384  -0.62465  -0.61475
  Beta  occ. eigenvalues --   -0.61382  -0.60787  -0.60460  -0.60320  -0.59788
  Beta  occ. eigenvalues --   -0.59364  -0.59248  -0.58797  -0.57595  -0.57274
  Beta  occ. eigenvalues --   -0.57111  -0.56904  -0.56052  -0.55576  -0.55102
  Beta  occ. eigenvalues --   -0.54993  -0.54447  -0.53875  -0.52917  -0.51710
[...]
    23   Atom       -0.000000     -0.000000     -0.000000
    24   Atom        0.000000      0.000000      0.000000
    25   Atom        0.000000     -0.000000     -0.000000
    26   Atom        0.000000     -0.000000     -0.000000
    27   Atom        0.000000      0.000000      0.000000
    28   Atom       -0.000000     -0.000000     -0.000000
    29   Atom       -0.000000     -0.000000      0.000000
    30   Atom        0.000000     -0.000000     -0.000000
    31   Atom        0.000000     -0.000000     -0.000000
    32   Atom       -0.000000      0.000000     -0.000000
    33   Atom       -0.000000     -0.000000     -0.000000
    34   Atom        0.000000      0.000000      0.000000
    35   Atom       -0.000000     -0.000000     -0.000000
    36   Atom        0.000000      0.000000      0.000000
    37   Atom       -0.000000      0.000000     -0.000000
    38   Atom       -0.000000      0.000000      0.000000
    39   Atom        0.000000      0.000000     -0.000000
    40   Atom        0.000000     -0.000000      0.000000
    41   Atom        0.000000      0.000000     -0.000000
    42   Atom        0.000000     -0.000000     -0.000000
    43   Atom        0.000000      0.000000      0.000000
    44   Atom       -0.000000     -0.000000      0.000000
    45   Atom       -0.000000      0.000000      0.000000
    46   Atom       -0.000000     -0.000000     -0.000000
    47   Atom        0.000000      0.000000      0.000000
    48   Atom        0.000000     -0.000000     -0.000000
    49   Atom       -0.000000      0.000000      0.000000
    50   Atom        0.000000      0.000000     -0.000000
    51   Atom        0.000000      0.000000      0.000000
    52   Atom        0.000000      0.000000      0.000000
    53   Atom       -0.000000      0.000000     -0.000000
    54   Atom       -0.000000     -0.000000      0.000000
    55   Atom       -0.000000      0.000000      0.000000
    56   Atom        0.000000      0.000000      0.000000
 --------------------------------------------------------


 ---------------------------------------------------------------------------------
              Anisotropic Spin Dipole Couplings in Principal Axis System
 ---------------------------------------------------------------------------------

       Atom             a.u.   MegaHertz   Gauss  10(-4) cm-1        Axes

              Baa    -0.0000    -0.000    -0.000    -0.000  0.9979 -0.0290  0.0580
     1 C(13)  Bbb    -0.0000    -0.000    -0.000    -0.000  0.0548  0.8550 -0.5158
              Bcc     0.0000     0.000     0.000     0.000 -0.0346  0.5179  0.8547
 
              Baa    -0.0000    -0.000    -0.000    -0.000  0.0298  0.6961  0.7174
     2 C(13)  Bbb     0.0000     0.000     0.000     0.000  0.8281  0.3847 -0.4077
              Bcc     0.0000     0.000     0.000     0.000 -0.5598  0.6062 -0.5649
 
              Baa    -0.0000    -0.000    -0.000    -0.000  0.9788 -0.1770 -0.1030
     3 C(13)  Bbb     0.0000     0.000     0.000     0.000  0.1409  0.2171  0.9659
              Bcc     0.0000     0.000     0.000     0.000  0.1486  0.9600 -0.2374
 
              Baa    -0.0000    -0.000    -0.000    -0.000 -0.3662  0.8813 -0.2987
     4 F(19)  Bbb     0.0000     0.000     0.000     0.000  0.5954  0.4686  0.6527
              Bcc     0.0000     0.000     0.000     0.000  0.7151  0.0612 -0.6963
 
              Baa    -0.0000    -0.000    -0.000    -0.000  0.9154  0.1711 -0.3645
     5 C(13)  Bbb    -0.0000    -0.000    -0.000    -0.000  0.2566  0.4497  0.8555
              Bcc     0.0000     0.000     0.000     0.000 -0.3103  0.8767 -0.3677
 
              Baa    -0.0000    -0.000    -0.000    -0.000  0.7496 -0.5124  0.4190
     6 N(14)  Bbb    -0.0000    -0.000    -0.000    -0.000  0.2800  0.8191  0.5008
              Bcc     0.0000     0.000     0.000     0.000 -0.5998 -0.2580  0.7574
 
              Baa    -0.0000    -0.000    -0.000    -0.000  0.9995 -0.0295 -0.0101
     7 C(13)  Bbb    -0.0000    -0.000    -0.000    -0.000  0.0221  0.8988 -0.4378
              Bcc     0.0000     0.000     0.000     0.000  0.0220  0.4374  0.8990
 
              Baa    -0.0000    -0.000    -0.000    -0.000 -0.5054  0.7668 -0.3957
     8 C(13)  Bbb     0.0000     0.000     0.000     0.000 -0.3305  0.2516  0.9096
              Bcc     0.0000     0.000     0.000     0.000  0.7971  0.5906  0.1262
 
              Baa    -0.0000    -0.000    -0.000    -0.000  0.9710 -0.2291  0.0685
     9 N(14)  Bbb    -0.0000    -0.000    -0.000    -0.000  0.2303  0.9731 -0.0100
              Bcc     0.0000     0.000     0.000     0.000 -0.0644  0.0254  0.9976
 
              Baa    -0.0000    -0.000    -0.000    -0.000  0.1906  0.9215  0.3384
    10 C(13)  Bbb    -0.0000    -0.000    -0.000    -0.000  0.9765 -0.2132  0.0305
              Bcc     0.0000     0.000     0.000     0.000 -0.1003 -0.3247  0.9405
 
              Baa    -0.0000    -0.000    -0.000    -0.000  0.9818 -0.1573 -0.1061
    11 C(13)  Bbb     0.0000     0.000     0.000     0.000  0.0985 -0.0553  0.9936
              Bcc     0.0000     0.000     0.000     0.000  0.1622  0.9860  0.0388
 
              Baa    -0.0000    -0.000    -0.000    -0.000  0.3840  0.8373  0.3893
    12 C(13)  Bbb     0.0000     0.000     0.000     0.000 -0.4240 -0.2146  0.8799
              Bcc     0.0000     0.000     0.000     0.000  0.8202 -0.5029  0.2726
 
              Baa    -0.0000    -0.000    -0.000    -0.000  0.8980 -0.3635 -0.2479
    13 C(13)  Bbb     0.0000     0.000     0.000     0.000  0.2013  0.8405 -0.5030
              Bcc     0.0000     0.000     0.000     0.000  0.3912  0.4017  0.8280
 
              Baa    -0.0000    -0.000    -0.000    -0.000  0.7425  0.6576  0.1278
    14 F(19)  Bbb     0.0000     0.000     0.000     0.000  0.2021 -0.4017  0.8932
              Bcc     0.0000     0.000     0.000     0.000  0.6387 -0.6373 -0.4312
 
              Baa    -0.0000    -0.000    -0.000    -0.000  0.3527 -0.0697  0.9331
    15 C(13)  Bbb    -0.0000    -0.000    -0.000    -0.000  0.9272 -0.1082 -0.3585
              Bcc     0.0000     0.000     0.000     0.000  0.1260  0.9917  0.0264
 
              Baa    -0.0000    -0.000    -0.000    -0.000  0.7269  0.6413 -0.2457
    16 C(13)  Bbb    -0.0000    -0.000    -0.000    -0.000 -0.0027  0.3604  0.9328
              Bcc     0.0000     0.000     0.000     0.000  0.6868 -0.6773  0.2637
 
              Baa    -0.0000    -0.000    -0.000    -0.000 -0.1230  0.8988 -0.4208
    17 C(13)  Bbb     0.0000     0.000     0.000     0.000 -0.5987  0.2709  0.7537
              Bcc     0.0000     0.000     0.000     0.000  0.7914  0.3447  0.5048
 
              Baa    -0.0000    -0.000    -0.000    -0.000  0.9751  0.2181  0.0399
    18 F(19)  Bbb     0.0000     0.000     0.000     0.000 -0.1403  0.4678  0.8726
              Bcc     0.0000     0.000     0.000     0.000 -0.1717  0.8565 -0.4867
 
              Baa    -0.0000    -0.000    -0.000    -0.000 -0.0778  0.2979  0.9514
    19 C(13)  Bbb     0.0000     0.000     0.000     0.000  0.9943  0.0929  0.0522
              Bcc     0.0000     0.000     0.000     0.000 -0.0728  0.9501 -0.3034
 
              Baa    -0.0000    -0.000    -0.000    -0.000  0.9877 -0.1101  0.1112
    20 N(14)  Bbb     0.0000     0.000     0.000     0.000 -0.1562 -0.6488  0.7448
              Bcc     0.0000     0.000     0.000     0.000  0.0099  0.7530  0.6580
 
              Baa    -0.0000    -0.000    -0.000    -0.000 -0.1652  0.2427  0.9559
    21 C(13)  Bbb     0.0000     0.000     0.000     0.000  0.9665 -0.1534  0.2059
              Bcc     0.0000     0.000     0.000     0.000  0.1966  0.9579 -0.2092
 
              Baa    -0.0000    -0.000    -0.000    -0.000 -0.1669  0.7246 -0.6687
    22 C(13)  Bbb    -0.0000    -0.000    -0.000    -0.000 -0.4892  0.5280  0.6942
              Bcc     0.0000     0.000     0.000     0.000  0.8561  0.4430  0.2663
 
              Baa    -0.0000    -0.000    -0.000    -0.000  0.3649  0.8932  0.2627
    23 N(14)  Bbb     0.0000     0.000     0.000     0.000  0.1754 -0.3431  0.9228
              Bcc     0.0000     0.000     0.000     0.000  0.9144 -0.2907 -0.2819
 
              Baa    -0.0000    -0.000    -0.000    -0.000 -0.1199 -0.1798  0.9764
    24 C(13)  Bbb    -0.0000    -0.000    -0.000    -0.000 -0.3340  0.9334  0.1309
              Bcc     0.0000     0.000     0.000     0.000  0.9349  0.3104  0.1720
 
              Baa    -0.0000    -0.000    -0.000    -0.000 -0.0336  0.9309  0.3638
    25 C(13)  Bbb    -0.0000    -0.000    -0.000    -0.000  0.0732 -0.3607  0.9298
              Bcc     0.0000     0.000     0.000     0.000  0.9968  0.0578 -0.0560
 
              Baa    -0.0000    -0.000    -0.000    -0.000 -0.4378  0.8088  0.3927
    26 C(13)  Bbb    -0.0000    -0.000    -0.000    -0.000  0.2797 -0.2926  0.9144
              Bcc     0.0000     0.000     0.000     0.000  0.8545  0.5101 -0.0981
 
              Baa    -0.0000    -0.000    -0.000    -0.000 -0.1281 -0.4291  0.8941
    27 C(13)  Bbb    -0.0000    -0.000    -0.000    -0.000 -0.6545  0.7140  0.2489
              Bcc     0.0000     0.000     0.000     0.000  0.7452  0.5533  0.3723
 
              Baa    -0.0000    -0.000    -0.000    -0.000  0.4732  0.8750  0.1023
    28 F(19)  Bbb     0.0000     0.000     0.000     0.000  0.0627 -0.1493  0.9868
              Bcc     0.0000     0.000     0.000     0.000  0.8787 -0.4605 -0.1255
 
              Baa    -0.0000    -0.000    -0.000    -0.000  0.0989  0.9118 -0.3986
    29 C(13)  Bbb     0.0000     0.000     0.000     0.000  0.6596  0.2399  0.7123
              Bcc     0.0000     0.000     0.000     0.000  0.7451 -0.3334 -0.5776
 
              Baa    -0.0000    -0.000    -0.000    -0.000  0.1859  0.3096  0.9325
    30 C(13)  Bbb    -0.0000    -0.000    -0.000    -0.000 -0.3706  0.9010 -0.2253
              Bcc     0.0000     0.000     0.000     0.000  0.9100  0.3037 -0.2823
 
              Baa    -0.0000    -0.000    -0.000    -0.000  0.9831 -0.1142  0.1428
    31 C(13)  Bbb     0.0000     0.000     0.000     0.000 -0.1009  0.3126  0.9445
              Bcc     0.0000     0.000     0.000     0.000  0.1525  0.9430 -0.2958
 
              Baa    -0.0000    -0.000    -0.000    -0.000  0.4870  0.8529 -0.1883
    32 F(19)  Bbb    -0.0000    -0.000    -0.000    -0.000 -0.2523  0.3437  0.9045
              Bcc     0.0000     0.000     0.000     0.000  0.8362 -0.3930  0.3826
 
              Baa    -0.0000    -0.000    -0.000    -0.000  0.7811  0.4017  0.4780
    33 C(13)  Bbb    -0.0000    -0.000    -0.000    -0.000 -0.5787  0.1783  0.7958
              Bcc     0.0000     0.000     0.000     0.000 -0.2344  0.8983 -0.3717
 
              Baa    -0.0000    -0.000    -0.000    -0.000 -0.1233 -0.4664  0.8760
    34 N(14)  Bbb     0.0000     0.000     0.000     0.000  0.9729 -0.2310  0.0139
              Bcc     0.0000     0.000     0.000     0.000  0.1959  0.8539  0.4822
 
              Baa    -0.0000    -0.000    -0.000    -0.000  0.0862  0.3129  0.9459
    35 C(13)  Bbb     0.0000     0.000     0.000     0.000  0.9877  0.0975 -0.1223
              Bcc     0.0000     0.000     0.000     0.000 -0.1305  0.9448 -0.3006
 
              Baa    -0.0000    -0.000    -0.000    -0.000  0.8520 -0.4122 -0.3228
    36 C(13)  Bbb    -0.0000    -0.000    -0.000    -0.000  0.3536  0.9078 -0.2257
              Bcc     0.0000     0.000     0.000     0.000  0.3860  0.0781  0.9192
 
              Baa    -0.0000    -0.000    -0.000    -0.000  0.7934  0.5973  0.1171
    37 N(14)  Bbb    -0.0000    -0.000    -0.000    -0.000 -0.2355  0.1239  0.9639
              Bcc     0.0000     0.000     0.000     0.000 -0.5613  0.7924 -0.2390
 
              Baa    -0.0000    -0.000    -0.000    -0.000 -0.1850 -0.3777  0.9072
    38 C(13)  Bbb     0.0000     0.000     0.000     0.000  0.9346  0.2178  0.2813
              Bcc     0.0000     0.000     0.000     0.000 -0.3039  0.8999  0.3127
 
              Baa    -0.0000    -0.000    -0.000    -0.000  0.9251 -0.3299 -0.1879
    39 C(13)  Bbb    -0.0000    -0.000    -0.000    -0.000  0.3712  0.8898  0.2655
              Bcc     0.0000     0.000     0.000     0.000  0.0796 -0.3154  0.9456
 
              Baa    -0.0000    -0.000    -0.000    -0.000  0.0477 -0.4072  0.9121
    40 C(13)  Bbb     0.0000     0.000     0.000     0.000  0.9687 -0.2037 -0.1416
              Bcc     0.0000     0.000     0.000     0.000  0.2434  0.8903  0.3848
 
              Baa    -0.0000    -0.000    -0.000    -0.000  0.9676 -0.1620 -0.1937
    41 C(13)  Bbb    -0.0000    -0.000    -0.000    -0.000  0.2095  0.9433  0.2575
              Bcc     0.0000     0.000     0.000     0.000  0.1410 -0.2897  0.9467
 
              Baa    -0.0000    -0.000    -0.000    -0.000 -0.2222  0.7512  0.6215
    42 F(19)  Bbb    -0.0000    -0.000    -0.000    -0.000  0.7631 -0.2627  0.5904
              Bcc     0.0000     0.000     0.000     0.000  0.6068  0.6055 -0.5149
 
              Baa    -0.0000    -0.000    -0.000    -0.000  0.8706 -0.4918  0.0137
    43 H(1)   Bbb     0.0000     0.000     0.000     0.000 -0.0437 -0.0495  0.9978
              Bcc     0.0000     0.000     0.000     0.000  0.4901  0.8693  0.0646
 
              Baa    -0.0000    -0.000    -0.000    -0.000  0.0904 -0.4882  0.8680
    44 H(1)   Bbb    -0.0000    -0.000    -0.000    -0.000  0.9091  0.3963  0.1283
              Bcc     0.0000     0.000     0.000     0.000 -0.4066  0.7775  0.4797
 
              Baa    -0.0000    -0.000    -0.000    -0.000 -0.5291 -0.1407  0.8368
    45 H(1)   Bbb     0.0000     0.000     0.000     0.000  0.2280  0.9263  0.2999
              Bcc     0.0000     0.000     0.000     0.000  0.8174 -0.3494  0.4580
 
              Baa    -0.0000    -0.000    -0.000    -0.000  0.5580  0.7456  0.3643
    46 H(1)   Bbb     0.0000     0.000     0.000     0.000  0.8242 -0.5488 -0.1394
              Bcc     0.0000     0.000     0.000     0.000 -0.0960 -0.3781  0.9208
 
              Baa    -0.0000    -0.000    -0.000    -0.000  0.9977 -0.0259 -0.0631
    47 H(1)   Bbb    -0.0000    -0.000    -0.000    -0.000  0.0404 -0.5215  0.8523
              Bcc     0.0000     0.000     0.000     0.000  0.0550  0.8529  0.5192
 
              Baa    -0.0000    -0.000    -0.000    -0.000  0.4092 -0.4657  0.7847
    48 H(1)   Bbb    -0.0000    -0.000    -0.000    -0.000 -0.2374  0.7760  0.5843
              Bcc     0.0000     0.000     0.000     0.000  0.8810  0.4254 -0.2070
 
              Baa    -0.0000    -0.000    -0.000    -0.000  0.4036  0.7508 -0.5230
    49 H(1)   Bbb     0.0000     0.000     0.000     0.000  0.4036  0.3669  0.8381
              Bcc     0.0000     0.000     0.000     0.000  0.8211 -0.5494 -0.1550
 
              Baa    -0.0000    -0.000    -0.000    -0.000  0.7968 -0.5389 -0.2735
    50 H(1)   Bbb     0.0000     0.000     0.000     0.000  0.5641  0.5009  0.6565
              Bcc     0.0000     0.000     0.000     0.000 -0.2168 -0.6773  0.7030
 
              Baa    -0.0000    -0.000    -0.000    -0.000 -0.0313 -0.4533  0.8908
    51 H(1)   Bbb     0.0000     0.000     0.000     0.000  0.8754 -0.4426 -0.1944
              Bcc     0.0000     0.000     0.000     0.000  0.4824  0.7737  0.4107
 
              Baa    -0.0000    -0.000    -0.000    -0.000 -0.4623  0.8552 -0.2345
    52 H(1)   Bbb    -0.0000    -0.000    -0.000    -0.000 -0.6587 -0.1541  0.7365
              Bcc     0.0000     0.000     0.000     0.000  0.5937  0.4949  0.6345
 
              Baa    -0.0000    -0.000    -0.000    -0.000  0.7929  0.5054 -0.3405
    53 H(1)   Bbb    -0.0000    -0.000    -0.000    -0.000  0.1011  0.4419  0.8914
              Bcc     0.0000     0.000     0.000     0.000 -0.6009  0.7412 -0.2992
 
              Baa    -0.0000    -0.000    -0.000    -0.000  0.9666  0.1278  0.2221
    54 H(1)   Bbb    -0.0000    -0.000    -0.000    -0.000 -0.1092 -0.5790  0.8080
              Bcc     0.0000     0.000     0.000     0.000 -0.2319  0.8053  0.5457
 
              Baa    -0.0000    -0.000    -0.000    -0.000  0.9815  0.1504 -0.1188
    55 H(1)   Bbb     0.0000     0.000     0.000     0.000  0.1625 -0.3241  0.9320
              Bcc     0.0000     0.000     0.000     0.000 -0.1016  0.9340  0.3426
 
              Baa    -0.0000    -0.000    -0.000    -0.000  0.8538 -0.3890 -0.3460
    56 H(1)   Bbb    -0.0000    -0.000    -0.000    -0.000  0.1742 -0.4130  0.8939
              Bcc     0.0000     0.000     0.000     0.000  0.4907  0.8235  0.2848
 

 ---------------------------------------------------------------------------------

 No NMR shielding tensors so no spin-rotation constants.
 Leave Link  601 at Sat Jul 25 01:39:22 2020, MaxMem=  4026531840 cpu:               6.3 elap:               0.9
 (Enter /opt/ohpc/pub/libs/gaussian/g16-A.03/sandybridge/g16/l9999.exe)

 Test job not archived.
 1\1\GINC-SKYLAKE011\FOpt\ULC-wPBE\CC-pVDZ\C30H14F6N6\RDU230\25-Jul-202
 0\0\\#P uLC-wPBE/cc-pVDZ iop(3/107=0251000000, 3/108=0251000000) opt\\
 H14 C30 N6 F6\\0,1\C,-11.9908412615,0.3072945753,0.0279738524\C,-11.27
 82542565,1.3549536127,-0.5519993209\C,-9.8936056649,1.2498511375,-0.59
 60988806\F,-9.1803435924,2.2287992322,-1.1767261653\C,-9.2504738212,0.
 1227755424,-0.0648975793\N,-9.9472312041,-0.8854603926,0.4794238543\C,
 -11.2796434245,-0.7884656999,0.5226376985\C,-7.7626794269,0.006547541,
 -0.0631807777\N,-7.0559267105,1.0698228103,0.3451333032\C,-5.725409170
 5,0.9812403105,0.3869884615\C,-4.9995255263,-0.1643194242,0.0215702127
 \C,-5.7353553455,-1.2733959441,-0.4120663345\C,-7.1188274557,-1.177027
 9876,-0.4517292166\F,-7.829155078,-2.2231934646,-0.901800754\C,-3.5176
 530917,-0.194745065,0.0922745171\C,-2.8294348319,-1.3185166356,0.56414
 07764\C,-1.4429783328,-1.2803132233,0.6015548142\F,-0.7776159666,-2.33
 99783406,1.0876833378\C,-0.7497688951,-0.139193844,0.1732609015\N,-1.4
 107424921,0.9390916514,-0.2713813624\C,-2.7436112022,0.9059478913,-0.3
 114782345\C,0.7403807263,-0.0844366804,0.17214865\N,1.4000515772,-1.14
 56293583,-0.314318583\C,2.7325224294,-1.1101760787,-0.3558335151\C,3.5
 081688129,-0.0261880572,0.0876856056\C,2.8215700209,1.0790790918,0.603
 7654645\C,1.434878339,1.0393238598,0.641883288\F,0.7707193115,2.078920
 979,1.1703252478\C,4.9895548178,-0.0531787005,0.0080460184\C,5.7193581
 718,-1.2077347976,0.3148489472\C,7.1025011227,-1.163842124,0.211987222
 \F,7.8116617907,-2.2546952124,0.5412906908\C,7.7514926596,0.0117442126
 ,-0.1915205878\N,7.0510729517,1.1185771824,-0.4773320564\C,5.721181926
 3,1.080141253,-0.3827808885\C,9.2350506919,0.0730860737,-0.3405889105\
 N,9.829905316,-0.9341112479,-0.9962829746\C,11.1536294783,-0.884281916
 6,-1.1747265588\C,11.9566439706,0.1608902179,-0.7121985738\C,11.351427
 3164,1.2063411205,-0.0175819686\C,9.9755792102,1.1501934177,0.16695467
 27\F,9.3671164479,2.127109788,0.859806462\H,-13.0844978355,0.338209364
 7,0.0909712739\H,-11.7662338454,2.2411501693,-0.9726662592\H,-11.80829
 7076,-1.6362067269,0.9805364661\H,-5.1971616103,1.8721791357,0.7548994
 699\H,-5.2542873908,-2.2001746231,-0.7452008018\H,-3.3495699705,-2.211
 8992781,0.9282690329\H,-3.2336979527,1.8054757073,-0.709842264\H,3.221
 7589488,-1.9945734658,-0.7884398867\H,3.342468391,1.957123039,1.001808
 747\H,5.2376763747,-2.1300237443,0.6585852871\H,5.1950061613,2.0066008
 178,-0.6542852644\H,11.5967566203,-1.7291309693,-1.7203168452\H,13.038
 3023508,0.1545112021,-0.8881894306\H,11.9162854957,2.0538730659,0.3862
 29719\\Version=EM64L-G16RevA.03\State=1-A\HF=-2077.6369929\S2=0.\S2-1=
 0.\S2A=0.\RMSD=5.553e-09\RMSF=7.806e-06\Dipole=0.0167478,0.0115896,0.1
 480769\Quadrupole=41.3784848,-20.28706,-21.0914248,1.1347594,3.5773344
 ,-0.2710023\PG=C01 [X(C30H14F6N6)]\\@


 ART, GLORY, FREEDOM FAIL, BUT NATURE STILL IS FAIR.

                                           -- BYRON
 Job cpu time:       0 days 11 hours 29 minutes  5.9 seconds.
 Elapsed time:       0 days  1 hours 26 minutes 27.3 seconds.
 File lengths (MBytes):  RWF=    532 Int=      0 D2E=      0 Chk=     48 Scr=      8
 Normal termination of Gaussian 16 at Sat Jul 25 01:39:22 2020.
