 Entering Gaussian System, Link 0=g16
 Input=mols_65_7_17_n-n-N_opt_0.gjf
 Output=mols_65_7_17_n-n-N_opt_0.log
 Initial command:
 /opt/ohpc/pub/libs/gaussian/g16-A.03/sandybridge/g16/l1.exe "/mnt/gpfs2_4m/scratch/rdu230/ondemand/projects/dihedral_energies/7trial/wtuning/mols_65_7_17_n-n-N/Gau-64731.inp" -scrdir="/mnt/gpfs2_4m/scratch/rdu230/ondemand/projects/dihedral_energies/7trial/wtuning/mols_65_7_17_n-n-N/"
 Entering Link 1 = /opt/ohpc/pub/libs/gaussian/g16-A.03/sandybridge/g16/l1.exe PID=     64733.
  
 Copyright (c) 1988,1990,1992,1993,1995,1998,2003,2009,2016,
            Gaussian, Inc.  All Rights Reserved.
  
 This is part of the Gaussian(R) 16 program.  It is based on
 the Gaussian(R) 09 system (copyright 2009, Gaussian, Inc.),
 the Gaussian(R) 03 system (copyright 2003, Gaussian, Inc.),
 the Gaussian(R) 98 system (copyright 1998, Gaussian, Inc.),
 the Gaussian(R) 94 system (copyright 1995, Gaussian, Inc.),
 the Gaussian 92(TM) system (copyright 1992, Gaussian, Inc.),
 the Gaussian 90(TM) system (copyright 1990, Gaussian, Inc.),
 the Gaussian 88(TM) system (copyright 1988, Gaussian, Inc.),
 the Gaussian 86(TM) system (copyright 1986, Carnegie Mellon
 University), and the Gaussian 82(TM) system (copyright 1983,
 Carnegie Mellon University). Gaussian is a federally registered
 trademark of Gaussian, Inc.
  
 This software contains proprietary and confidential information,
 including trade secrets, belonging to Gaussian, Inc.
  
 This software is provided under written license and may be
 used, copied, transmitted, or stored only in accord with that
 written license.
  
 The following legend is applicable only to US Government
 contracts under FAR:
  
                    RESTRICTED RIGHTS LEGEND
  
 Use, reproduction and disclosure by the US Government is
 subject to restrictions as set forth in subparagraphs (a)
 and (c) of the Commercial Computer Software - Restricted
 Rights clause in FAR 52.227-19.
  
 Gaussian, Inc.
 340 Quinnipiac St., Bldg. 40, Wallingford CT 06492
  
  
 ---------------------------------------------------------------
 Warning -- This program may not be used in any manner that
 competes with the business of Gaussian, Inc. or will provide
 assistance to any competitor of Gaussian, Inc.  The licensee
 of this program is prohibited from giving any competitor of
 Gaussian, Inc. access to this program.  By using this program,
 the user acknowledges that Gaussian, Inc. is engaged in the
 business of creating and licensing software in the field of
 computational chemistry and represents and warrants to the
 licensee that it is not a competitor of Gaussian, Inc. and that
 it will not use this program in any manner prohibited above.
 ---------------------------------------------------------------
  

 Cite this work as:
 Gaussian 16, Revision A.03,
 M. J. Frisch, G. W. Trucks, H. B. Schlegel, G. E. Scuseria, 
 M. A. Robb, J. R. Cheeseman, G. Scalmani, V. Barone, 
 G. A. Petersson, H. Nakatsuji, X. Li, M. Caricato, A. V. Marenich, 
 J. Bloino, B. G. Janesko, R. Gomperts, B. Mennucci, H. P. Hratchian, 
 J. V. Ortiz, A. F. Izmaylov, J. L. Sonnenberg, D. Williams-Young, 
 F. Ding, F. Lipparini, F. Egidi, J. Goings, B. Peng, A. Petrone, 
 T. Henderson, D. Ranasinghe, V. G. Zakrzewski, J. Gao, N. Rega, 
 G. Zheng, W. Liang, M. Hada, M. Ehara, K. Toyota, R. Fukuda, 
 J. Hasegawa, M. Ishida, T. Nakajima, Y. Honda, O. Kitao, H. Nakai, 
 T. Vreven, K. Throssell, J. A. Montgomery, Jr., J. E. Peralta, 
 F. Ogliaro, M. J. Bearpark, J. J. Heyd, E. N. Brothers, K. N. Kudin, 
 V. N. Staroverov, T. A. Keith, R. Kobayashi, J. Normand, 
 K. Raghavachari, A. P. Rendell, J. C. Burant, S. S. Iyengar, 
 J. Tomasi, M. Cossi, J. M. Millam, M. Klene, C. Adamo, R. Cammi, 
 J. W. Ochterski, R. L. Martin, K. Morokuma, O. Farkas, 
 J. B. Foresman, and D. J. Fox, Gaussian, Inc., Wallingford CT, 2016.
 
 ******************************************
 Gaussian 16:  EM64L-G16RevA.03 25-Dec-2016
                23-Jul-2020 
 ******************************************
 %mem=30GB
 %nproc=8
 Will use up to    8 processors via shared memory.
 ---------------------------------------------------------------
 #P uLC-wPBE/cc-pVDZ iop(3/107=0096100000, 3/108=0096100000) opt
 ---------------------------------------------------------------
 1/18=20,19=15,26=3,38=1/1,3;
 2/9=110,12=2,17=6,18=5,40=1/2;
 3/5=16,11=2,25=1,30=1,71=1,74=-41,107=96100000,108=96100000,116=2/1,2,3;
 4//1;
 5/5=2,38=5/2;
 6/7=2,8=2,9=2,10=2,28=1/1;
 7//1,2,3,16;
 1/18=20,19=15,26=3/3(2);
 2/9=110/2;
 99//99;
 2/9=110/2;
 3/5=16,11=2,25=1,30=1,71=1,74=-41,107=96100000,108=96100000,116=2/1,2,3;
 4/5=5,16=3,69=1/1;
 5/5=2,38=5/2;
 7//1,2,3,16;
 1/18=20,19=15,26=3/3(-5);
 2/9=110/2;
 6/7=2,8=2,9=2,10=2,19=2,28=1/1;
 99/9=1/99;
 Leave Link    1 at Thu Jul 23 23:40:55 2020, MaxMem=  4026531840 cpu:               1.2 elap:               0.2
 (Enter /opt/ohpc/pub/libs/gaussian/g16-A.03/sandybridge/g16/l101.exe)
 --------------
 H23 C49 S7 N21
 --------------
 Symbolic Z-matrix:
 Charge =  0 Multiplicity = 1
 C                     26.01756   1.07332   1.95424 
 C                     25.80077   1.30751   0.67346 
 N                     24.62569   1.0192    0.08393 
 C                     23.65292   0.48587   0.82614 
 N                     23.80564   0.26018   2.16175 
 C                     24.92238   0.56107   2.74113 
 C                     22.32966   0.25295   0.19685 
 N                     22.0341   0.36367  -1.0188 
 C                     20.73916   0.04557  -1.3402 
 C                     19.97125  -0.47983  -0.20581 
 S                     21.01874  -0.46326   1.1626 
 C                     18.59208  -0.91588  -0.14011 
 C                     18.14241  -1.89431   0.68167 
 N                     16.86178  -2.34806   0.76467 
 C                     15.97083  -1.64369  -0.03907 
 N                     16.26184  -0.60746  -0.77562 
 C                     17.5707  -0.2555   -0.89301 
 C                     14.56229  -2.03562   0.16026 
 N                     14.09523  -3.09362   0.70765 
 C                     12.74853  -3.12764   0.69623 
 C                     12.15071  -2.19316  -0.04206 
 S                     13.29669  -1.10763  -0.58924 
 C                     10.69108  -1.92762  -0.35029 
 C                     9.79909  -3.05525  -0.42328 
 N                     8.44178  -2.87769  -0.6662 
 C                     7.97304  -1.61762  -0.77566 
 N                     8.81562  -0.48067  -0.64691 
 C                     10.10394  -0.71448  -0.38068 
 C                     6.58049  -1.44523  -0.92693 
 N                     5.7024   -2.41759  -1.25532 
 C                     4.46799  -2.00909  -1.33208 
 C                     4.22185  -0.64758  -1.10085 
 S                     5.85169   0.10128  -0.84609 
 C                     3.01835   0.14312  -1.09535 
 C                     1.9086   -0.3201   -0.51192 
 N                     0.73216   0.33356  -0.50455 
 C                     0.741     1.5857   -0.98206 
 N                     1.75155   2.12626  -1.52094 
 C                     2.95871   1.48217  -1.53541 
 C                    -0.57996   2.36448  -0.98825 
 N                    -0.75631   3.55825  -1.48911 
 C                    -2.1043    3.94475  -1.32729 
 C                    -2.95135   3.00009  -0.7774 
 S                    -2.03948   1.61639  -0.33857 
 C                    -4.39113   2.95771  -0.47183 
 C                    -5.12131   4.18373  -0.30816 
 N                    -6.43449   4.31416  -0.06906 
 C                    -7.10314   3.11949   0.02018 
 N                    -6.57109   1.90491  -0.19886 
 C                    -5.16889   1.86624  -0.38881 
 C                    -8.5517    3.14617   0.26255 
 N                    -9.31157   4.2969    0.31139 
 C                    -10.6426   3.93944   0.50804 
 C                    -10.89141   2.66322   0.65146 
 S                    -9.44295   1.75764   0.51403 
 C                    -12.14348   1.89536   0.90941 
 C                    -12.28567   0.87812   1.69446 
 N                    -13.49029   0.16373   1.95918 
 C                    -14.54827   0.64727   1.30413 
 N                    -14.49372   1.76738   0.44055 
 C                    -13.32196   2.29749   0.295 
 C                    -15.80778  -0.07177   1.37093 
 N                    -15.96956  -1.13782   2.21344 
 C                    -17.25819  -1.65649   2.12724 
 C                    -18.07044  -1.0253    1.11565 
 S                    -17.2222   0.31887   0.42258 
 C                    -19.39044  -1.35018   0.72441 
 C                    -20.38825  -0.43771   0.31788 
 N                    -21.63406  -0.64783  -0.08524 
 C                    -21.96289  -1.99553  -0.01231 
 N                    -21.10299  -3.00764   0.35919 
 C                    -19.92962  -2.60692   0.75618 
 C                    -23.30351  -2.37766  -0.48809 
 N                    -24.22243  -1.4989   -0.88465 
 C                    -25.46799  -2.16556  -1.22125 
 C                    -25.35821  -3.55273  -1.13962 
 S                    -23.79914  -3.99629  -0.59293 
 H                     26.98043   1.30517   2.44626 
 H                     26.5304   1.75689   0.02922 
 H                     25.04551   0.3337    3.77821 
 H                     20.37854   0.08684  -2.37018 
 H                     18.8415  -2.53923   1.20587 
 H                     17.84597   0.60793  -1.47081 
 H                     12.20656  -3.9838    1.13027 
 H                     10.14088  -4.05975  -0.41558 
 H                     10.66435   0.26081  -0.34581 
 H                     3.62769  -2.73738  -1.52349 
 H                     1.81255  -1.33879  -0.05412 
 H                     3.73269   1.96002  -2.03518 
 H                    -2.44754   4.90176  -1.6911 
 H                    -4.59267   5.18705  -0.29315 
 H                    -4.77356   0.92301  -0.59392 
 H                    -11.30754   4.76722   0.64289 
 H                    -11.47236   0.3867    2.24802 
 H                    -13.36034   3.23292  -0.36837 
 H                    -17.56044  -2.51144   2.73101 
 H                    -20.09911   0.64341   0.29625 
 H                    -19.30483  -3.43795   0.99088 
 H                    -26.30092  -1.60502  -1.58698 
 H                    -26.19768  -4.26176  -1.3471 
 
 ITRead=  0  0  0  0  0  0  0  0  0  0  0  0  0  0  0  0  0  0  0  0
 ITRead=  0  0  0  0  0  0  0  0  0  0  0  0  0  0  0  0  0  0  0  0
 ITRead=  0  0  0  0  0  0  0  0  0  0  0  0  0  0  0  0  0  0  0  0
 ITRead=  0  0  0  0  0  0  0  0  0  0  0  0  0  0  0  0  0  0  0  0
 ITRead=  0  0  0  0  0  0  0  0  0  0  0  0  0  0  0  0  0  0  0  0
 MicOpt= -1 -1 -1 -1 -1 -1 -1 -1 -1 -1 -1 -1 -1 -1 -1 -1 -1 -1 -1 -1
 MicOpt= -1 -1 -1 -1 -1 -1 -1 -1 -1 -1 -1 -1 -1 -1 -1 -1 -1 -1 -1 -1
 MicOpt= -1 -1 -1 -1 -1 -1 -1 -1 -1 -1 -1 -1 -1 -1 -1 -1 -1 -1 -1 -1
 MicOpt= -1 -1 -1 -1 -1 -1 -1 -1 -1 -1 -1 -1 -1 -1 -1 -1 -1 -1 -1 -1
 MicOpt= -1 -1 -1 -1 -1 -1 -1 -1 -1 -1 -1 -1 -1 -1 -1 -1 -1 -1 -1 -1
 NAtoms=    100 NQM=      100 NQMF=       0 NMMI=      0 NMMIF=      0
                NMic=       0 NMicF=      0.
                    Isotopes and Nuclear Properties:
 (Nuclear quadrupole moments (NQMom) in fm**2, nuclear magnetic moments (NMagM)
  in nuclear magnetons)

  Atom         1           2           3           4           5           6           7           8           9          10
 IAtWgt=          12          12          14          12          14          12          12          14          12          12
 AtmWgt=  12.0000000  12.0000000  14.0030740  12.0000000  14.0030740  12.0000000  12.0000000  14.0030740  12.0000000  12.0000000
 NucSpn=           0           0           2           0           2           0           0           2           0           0
 AtZEff=  -0.0000000  -0.0000000  -0.0000000  -0.0000000  -0.0000000  -0.0000000  -0.0000000  -0.0000000  -0.0000000  -0.0000000
 NQMom=    0.0000000   0.0000000   2.0440000   0.0000000   2.0440000   0.0000000   0.0000000   2.0440000   0.0000000   0.0000000
 NMagM=    0.0000000   0.0000000   0.4037610   0.0000000   0.4037610   0.0000000   0.0000000   0.4037610   0.0000000   0.0000000
 AtZNuc=   6.0000000   6.0000000   7.0000000   6.0000000   7.0000000   6.0000000   6.0000000   7.0000000   6.0000000   6.0000000

  Atom        11          12          13          14          15          16          17          18          19          20
 IAtWgt=          32          12          12          14          12          14          12          12          14          12
 AtmWgt=  31.9720718  12.0000000  12.0000000  14.0030740  12.0000000  14.0030740  12.0000000  12.0000000  14.0030740  12.0000000
 NucSpn=           0           0           0           2           0           2           0           0           2           0
 AtZEff=  -0.0000000  -0.0000000  -0.0000000  -0.0000000  -0.0000000  -0.0000000  -0.0000000  -0.0000000  -0.0000000  -0.0000000
 NQMom=    0.0000000   0.0000000   0.0000000   2.0440000   0.0000000   2.0440000   0.0000000   0.0000000   2.0440000   0.0000000
 NMagM=    0.0000000   0.0000000   0.0000000   0.4037610   0.0000000   0.4037610   0.0000000   0.0000000   0.4037610   0.0000000
 AtZNuc=  16.0000000   6.0000000   6.0000000   7.0000000   6.0000000   7.0000000   6.0000000   6.0000000   7.0000000   6.0000000

  Atom        21          22          23          24          25          26          27          28          29          30
 IAtWgt=          12          32          12          12          14          12          14          12          12          14
 AtmWgt=  12.0000000  31.9720718  12.0000000  12.0000000  14.0030740  12.0000000  14.0030740  12.0000000  12.0000000  14.0030740
 NucSpn=           0           0           0           0           2           0           2           0           0           2
 AtZEff=  -0.0000000  -0.0000000  -0.0000000  -0.0000000  -0.0000000  -0.0000000  -0.0000000  -0.0000000  -0.0000000  -0.0000000
 NQMom=    0.0000000   0.0000000   0.0000000   0.0000000   2.0440000   0.0000000   2.0440000   0.0000000   0.0000000   2.0440000
 NMagM=    0.0000000   0.0000000   0.0000000   0.0000000   0.4037610   0.0000000   0.4037610   0.0000000   0.0000000   0.4037610
 AtZNuc=   6.0000000  16.0000000   6.0000000   6.0000000   7.0000000   6.0000000   7.0000000   6.0000000   6.0000000   7.0000000

  Atom        31          32          33          34          35          36          37          38          39          40
 IAtWgt=          12          12          32          12          12          14          12          14          12          12
 AtmWgt=  12.0000000  12.0000000  31.9720718  12.0000000  12.0000000  14.0030740  12.0000000  14.0030740  12.0000000  12.0000000
 NucSpn=           0           0           0           0           0           2           0           2           0           0
 AtZEff=  -0.0000000  -0.0000000  -0.0000000  -0.0000000  -0.0000000  -0.0000000  -0.0000000  -0.0000000  -0.0000000  -0.0000000
 NQMom=    0.0000000   0.0000000   0.0000000   0.0000000   0.0000000   2.0440000   0.0000000   2.0440000   0.0000000   0.0000000
 NMagM=    0.0000000   0.0000000   0.0000000   0.0000000   0.0000000   0.4037610   0.0000000   0.4037610   0.0000000   0.0000000
 AtZNuc=   6.0000000   6.0000000  16.0000000   6.0000000   6.0000000   7.0000000   6.0000000   7.0000000   6.0000000   6.0000000

  Atom        41          42          43          44          45          46          47          48          49          50
 IAtWgt=          14          12          12          32          12          12          14          12          14          12
 AtmWgt=  14.0030740  12.0000000  12.0000000  31.9720718  12.0000000  12.0000000  14.0030740  12.0000000  14.0030740  12.0000000
 NucSpn=           2           0           0           0           0           0           2           0           2           0
 AtZEff=  -0.0000000  -0.0000000  -0.0000000  -0.0000000  -0.0000000  -0.0000000  -0.0000000  -0.0000000  -0.0000000  -0.0000000
 NQMom=    2.0440000   0.0000000   0.0000000   0.0000000   0.0000000   0.0000000   2.0440000   0.0000000   2.0440000   0.0000000
 NMagM=    0.4037610   0.0000000   0.0000000   0.0000000   0.0000000   0.0000000   0.4037610   0.0000000   0.4037610   0.0000000
 AtZNuc=   7.0000000   6.0000000   6.0000000  16.0000000   6.0000000   6.0000000   7.0000000   6.0000000   7.0000000   6.0000000

  Atom        51          52          53          54          55          56          57          58          59          60
 IAtWgt=          12          14          12          12          32          12          12          14          12          14
 AtmWgt=  12.0000000  14.0030740  12.0000000  12.0000000  31.9720718  12.0000000  12.0000000  14.0030740  12.0000000  14.0030740
 NucSpn=           0           2           0           0           0           0           0           2           0           2
 AtZEff=  -0.0000000  -0.0000000  -0.0000000  -0.0000000  -0.0000000  -0.0000000  -0.0000000  -0.0000000  -0.0000000  -0.0000000
 NQMom=    0.0000000   2.0440000   0.0000000   0.0000000   0.0000000   0.0000000   0.0000000   2.0440000   0.0000000   2.0440000
 NMagM=    0.0000000   0.4037610   0.0000000   0.0000000   0.0000000   0.0000000   0.0000000   0.4037610   0.0000000   0.4037610
 AtZNuc=   6.0000000   7.0000000   6.0000000   6.0000000  16.0000000   6.0000000   6.0000000   7.0000000   6.0000000   7.0000000

  Atom        61          62          63          64          65          66          67          68          69          70
 IAtWgt=          12          12          14          12          12          32          12          12          14          12
 AtmWgt=  12.0000000  12.0000000  14.0030740  12.0000000  12.0000000  31.9720718  12.0000000  12.0000000  14.0030740  12.0000000
 NucSpn=           0           0           2           0           0           0           0           0           2           0
 AtZEff=  -0.0000000  -0.0000000  -0.0000000  -0.0000000  -0.0000000  -0.0000000  -0.0000000  -0.0000000  -0.0000000  -0.0000000
 NQMom=    0.0000000   0.0000000   2.0440000   0.0000000   0.0000000   0.0000000   0.0000000   0.0000000   2.0440000   0.0000000
 NMagM=    0.0000000   0.0000000   0.4037610   0.0000000   0.0000000   0.0000000   0.0000000   0.0000000   0.4037610   0.0000000
 AtZNuc=   6.0000000   6.0000000   7.0000000   6.0000000   6.0000000  16.0000000   6.0000000   6.0000000   7.0000000   6.0000000

  Atom        71          72          73          74          75          76          77          78          79          80
 IAtWgt=          14          12          12          14          12          12          32           1           1           1
 AtmWgt=  14.0030740  12.0000000  12.0000000  14.0030740  12.0000000  12.0000000  31.9720718   1.0078250   1.0078250   1.0078250
 NucSpn=           2           0           0           2           0           0           0           1           1           1
 AtZEff=  -0.0000000  -0.0000000  -0.0000000  -0.0000000  -0.0000000  -0.0000000  -0.0000000  -0.0000000  -0.0000000  -0.0000000
 NQMom=    2.0440000   0.0000000   0.0000000   2.0440000   0.0000000   0.0000000   0.0000000   0.0000000   0.0000000   0.0000000
 NMagM=    0.4037610   0.0000000   0.0000000   0.4037610   0.0000000   0.0000000   0.0000000   2.7928460   2.7928460   2.7928460
 AtZNuc=   7.0000000   6.0000000   6.0000000   7.0000000   6.0000000   6.0000000  16.0000000   1.0000000   1.0000000   1.0000000

  Atom        81          82          83          84          85          86          87          88          89          90
 IAtWgt=           1           1           1           1           1           1           1           1           1           1
 AtmWgt=   1.0078250   1.0078250   1.0078250   1.0078250   1.0078250   1.0078250   1.0078250   1.0078250   1.0078250   1.0078250
 NucSpn=           1           1           1           1           1           1           1           1           1           1
 AtZEff=  -0.0000000  -0.0000000  -0.0000000  -0.0000000  -0.0000000  -0.0000000  -0.0000000  -0.0000000  -0.0000000  -0.0000000
 NQMom=    0.0000000   0.0000000   0.0000000   0.0000000   0.0000000   0.0000000   0.0000000   0.0000000   0.0000000   0.0000000
 NMagM=    2.7928460   2.7928460   2.7928460   2.7928460   2.7928460   2.7928460   2.7928460   2.7928460   2.7928460   2.7928460
 AtZNuc=   1.0000000   1.0000000   1.0000000   1.0000000   1.0000000   1.0000000   1.0000000   1.0000000   1.0000000   1.0000000

  Atom        91          92          93          94          95          96          97          98          99         100
 IAtWgt=           1           1           1           1           1           1           1           1           1           1
 AtmWgt=   1.0078250   1.0078250   1.0078250   1.0078250   1.0078250   1.0078250   1.0078250   1.0078250   1.0078250   1.0078250
 NucSpn=           1           1           1           1           1           1           1           1           1           1
 AtZEff=  -0.0000000  -0.0000000  -0.0000000  -0.0000000  -0.0000000  -0.0000000  -0.0000000  -0.0000000  -0.0000000  -0.0000000
 NQMom=    0.0000000   0.0000000   0.0000000   0.0000000   0.0000000   0.0000000   0.0000000   0.0000000   0.0000000   0.0000000
 NMagM=    2.7928460   2.7928460   2.7928460   2.7928460   2.7928460   2.7928460   2.7928460   2.7928460   2.7928460   2.7928460
 AtZNuc=   1.0000000   1.0000000   1.0000000   1.0000000   1.0000000   1.0000000   1.0000000   1.0000000   1.0000000   1.0000000
 Leave Link  101 at Thu Jul 23 23:40:56 2020, MaxMem=  4026531840 cpu:               3.1 elap:               0.4
 (Enter /opt/ohpc/pub/libs/gaussian/g16-A.03/sandybridge/g16/l103.exe)

 GradGradGradGradGradGradGradGradGradGradGradGradGradGradGradGradGradGrad
 Berny optimization.
 Initialization pass.
                           ----------------------------
                           !    Initial Parameters    !
                           ! (Angstroms and Degrees)  !
 --------------------------                            --------------------------
 ! Name  Definition              Value          Derivative Info.                !
 --------------------------------------------------------------------------------
 ! R1    R(1,2)                  1.3199         estimate D2E/DX2                !
 ! R2    R(1,6)                  1.4426         estimate D2E/DX2                !
 ! R3    R(1,78)                 1.1059         estimate D2E/DX2                !
 ! R4    R(2,3)                  1.3459         estimate D2E/DX2                !
 ! R5    R(2,79)                 1.0721         estimate D2E/DX2                !
 ! R6    R(3,4)                  1.3348         estimate D2E/DX2                !
 ! R7    R(4,5)                  1.3631         estimate D2E/DX2                !
 ! R8    R(4,7)                  1.4837         estimate D2E/DX2                !
 ! R9    R(5,6)                  1.2936         estimate D2E/DX2                !
 ! R10   R(6,80)                 1.0688         estimate D2E/DX2                !
 ! R11   R(7,8)                  1.256          estimate D2E/DX2                !
 ! R12   R(7,11)                 1.7788         estimate D2E/DX2                !
 ! R13   R(8,9)                  1.3716         estimate D2E/DX2                !
 ! R14   R(9,10)                 1.4672         estimate D2E/DX2                !
 ! R15   R(9,81)                 1.0921         estimate D2E/DX2                !
 ! R16   R(10,11)                1.7234         estimate D2E/DX2                !
 ! R17   R(10,12)                1.448          estimate D2E/DX2                !
 ! R18   R(12,13)                1.3546         estimate D2E/DX2                !
 ! R19   R(12,17)                1.4304         estimate D2E/DX2                !
 ! R20   R(13,14)                1.3612         estimate D2E/DX2                !
 ! R21   R(13,82)                1.086          estimate D2E/DX2                !
 ! R22   R(14,15)                1.3914         estimate D2E/DX2                !
 ! R23   R(15,16)                1.3042         estimate D2E/DX2                !
 ! R24   R(15,18)                1.4756         estimate D2E/DX2                !
 ! R25   R(16,17)                1.3604         estimate D2E/DX2                !
 ! R26   R(17,83)                1.0748         estimate D2E/DX2                !
 ! R27   R(18,19)                1.2795         estimate D2E/DX2                !
 ! R28   R(18,22)                1.7392         estimate D2E/DX2                !
 ! R29   R(19,20)                1.3472         estimate D2E/DX2                !
 ! R30   R(20,21)                1.3326         estimate D2E/DX2                !
 ! R31   R(20,84)                1.1023         estimate D2E/DX2                !
 ! R32   R(21,22)                1.6706         estimate D2E/DX2                !
 ! R33   R(21,23)                1.5153         estimate D2E/DX2                !
 ! R34   R(23,24)                1.4396         estimate D2E/DX2                !
 ! R35   R(23,28)                1.3481         estimate D2E/DX2                !
 ! R36   R(24,25)                1.3903         estimate D2E/DX2                !
 ! R37   R(24,85)                1.0611         estimate D2E/DX2                !
 ! R38   R(25,26)                1.3489         estimate D2E/DX2                !
 ! R39   R(26,27)                1.421          estimate D2E/DX2                !
 ! R40   R(26,29)                1.4113         estimate D2E/DX2                !
 ! R41   R(27,28)                1.3362         estimate D2E/DX2                !
 ! R42   R(28,86)                1.1254         estimate D2E/DX2                !
 ! R43   R(29,30)                1.3507         estimate D2E/DX2                !
 ! R44   R(29,33)                1.7115         estimate D2E/DX2                !
 ! R45   R(30,31)                1.3025         estimate D2E/DX2                !
 ! R46   R(31,32)                1.4028         estimate D2E/DX2                !
 ! R47   R(31,87)                1.1283         estimate D2E/DX2                !
 ! R48   R(32,33)                1.8116         estimate D2E/DX2                !
 ! R49   R(32,34)                1.44           estimate D2E/DX2                !
 ! R50   R(34,35)                1.3366         estimate D2E/DX2                !
 ! R51   R(34,39)                1.4108         estimate D2E/DX2                !
 ! R52   R(35,36)                1.3459         estimate D2E/DX2                !
 ! R53   R(35,88)                1.121          estimate D2E/DX2                !
 ! R54   R(36,37)                1.3401         estimate D2E/DX2                !
 ! R55   R(37,38)                1.2664         estimate D2E/DX2                !
 ! R56   R(37,40)                1.5335         estimate D2E/DX2                !
 ! R57   R(38,39)                1.3683         estimate D2E/DX2                !
 ! R58   R(39,89)                1.0379         estimate D2E/DX2                !
 ! R59   R(40,41)                1.3065         estimate D2E/DX2                !
 ! R60   R(40,44)                1.7641         estimate D2E/DX2                !
 ! R61   R(41,42)                1.4116         estimate D2E/DX2                !
 ! R62   R(42,43)                1.3828         estimate D2E/DX2                !
 ! R63   R(42,90)                1.0798         estimate D2E/DX2                !
 ! R64   R(43,44)                1.7143         estimate D2E/DX2                !
 ! R65   R(43,45)                1.4725         estimate D2E/DX2                !
 ! R66   R(45,46)                1.4363         estimate D2E/DX2                !
 ! R67   R(45,50)                1.3428         estimate D2E/DX2                !
 ! R68   R(46,47)                1.3411         estimate D2E/DX2                !
 ! R69   R(46,91)                1.1342         estimate D2E/DX2                !
 ! R70   R(47,48)                1.372          estimate D2E/DX2                !
 ! R71   R(48,49)                1.344          estimate D2E/DX2                !
 ! R72   R(48,51)                1.4689         estimate D2E/DX2                !
 ! R73   R(49,50)                1.4155         estimate D2E/DX2                !
 ! R74   R(50,92)                1.0431         estimate D2E/DX2                !
 ! R75   R(51,52)                1.3798         estimate D2E/DX2                !
 ! R76   R(51,55)                1.669          estimate D2E/DX2                !
 ! R77   R(52,53)                1.3922         estimate D2E/DX2                !
 ! R78   R(53,54)                1.3081         estimate D2E/DX2                !
 ! R79   R(53,93)                1.0703         estimate D2E/DX2                !
 ! R80   R(54,55)                1.7138         estimate D2E/DX2                !
 ! R81   R(54,56)                1.4913         estimate D2E/DX2                !
 ! R82   R(56,57)                1.2928         estimate D2E/DX2                !
 ! R83   R(56,61)                1.3885         estimate D2E/DX2                !
 ! R84   R(57,58)                1.4253         estimate D2E/DX2                !
 ! R85   R(57,94)                1.0997         estimate D2E/DX2                !
 ! R86   R(58,59)                1.335          estimate D2E/DX2                !
 ! R87   R(59,60)                1.4154         estimate D2E/DX2                !
 ! R88   R(59,62)                1.4518         estimate D2E/DX2                !
 ! R89   R(60,61)                1.2943         estimate D2E/DX2                !
 ! R90   R(61,95)                1.1474         estimate D2E/DX2                !
 ! R91   R(62,63)                1.3684         estimate D2E/DX2                !
 ! R92   R(62,66)                1.7472         estimate D2E/DX2                !
 ! R93   R(63,64)                1.3918         estimate D2E/DX2                !
 ! R94   R(64,65)                1.4427         estimate D2E/DX2                !
 ! R95   R(64,96)                1.0894         estimate D2E/DX2                !
 ! R96   R(65,66)                1.734          estimate D2E/DX2                !
 ! R97   R(65,67)                1.4146         estimate D2E/DX2                !
 ! R98   R(67,68)                1.4119         estimate D2E/DX2                !
 ! R99   R(67,72)                1.3679         estimate D2E/DX2                !
 ! R100  R(68,69)                1.3262         estimate D2E/DX2                !
 ! R101  R(68,97)                1.1193         estimate D2E/DX2                !
 ! R102  R(69,70)                1.3891         estimate D2E/DX2                !
 ! R103  R(70,71)                1.3791         estimate D2E/DX2                !
 ! R104  R(70,73)                1.473          estimate D2E/DX2                !
 ! R105  R(71,72)                1.3019         estimate D2E/DX2                !
 ! R106  R(72,98)                1.0659         estimate D2E/DX2                !
 ! R107  R(73,74)                1.3319         estimate D2E/DX2                !
 ! R108  R(73,77)                1.6961         estimate D2E/DX2                !
 ! R109  R(74,75)                1.4523         estimate D2E/DX2                !
 ! R110  R(75,76)                1.3939         estimate D2E/DX2                !
 ! R111  R(75,99)                1.0685         estimate D2E/DX2                !
 ! R112  R(76,77)                1.7106         estimate D2E/DX2                !
 ! R113  R(76,100)               1.1182         estimate D2E/DX2                !
 ! A1    A(2,1,6)              117.8786         estimate D2E/DX2                !
 ! A2    A(2,1,78)             122.5154         estimate D2E/DX2                !
 ! A3    A(6,1,78)             119.5228         estimate D2E/DX2                !
 ! A4    A(1,2,3)              122.0333         estimate D2E/DX2                !
 ! A5    A(1,2,79)             123.072          estimate D2E/DX2                !
 ! A6    A(3,2,79)             114.8827         estimate D2E/DX2                !
 ! A7    A(2,3,4)              118.5754         estimate D2E/DX2                !
 ! A8    A(3,4,5)              121.9614         estimate D2E/DX2                !
 ! A9    A(3,4,7)              118.4815         estimate D2E/DX2                !
 ! A10   A(5,4,7)              119.3083         estimate D2E/DX2                !
 ! A11   A(4,5,6)              119.8053         estimate D2E/DX2                !
 ! A12   A(1,6,5)              119.5836         estimate D2E/DX2                !
 ! A13   A(1,6,80)             121.1546         estimate D2E/DX2                !
 ! A14   A(5,6,80)             118.9836         estimate D2E/DX2                !
 ! A15   A(4,7,8)              127.3427         estimate D2E/DX2                !
 ! A16   A(4,7,11)             119.3555         estimate D2E/DX2                !
 ! A17   A(8,7,11)             112.8025         estimate D2E/DX2                !
 ! A18   A(7,8,9)              115.3746         estimate D2E/DX2                !
 ! A19   A(8,9,10)             113.3291         estimate D2E/DX2                !
 ! A20   A(8,9,81)             121.6009         estimate D2E/DX2                !
 ! A21   A(10,9,81)            124.7446         estimate D2E/DX2                !
 ! A22   A(9,10,11)            106.9991         estimate D2E/DX2                !
 ! A23   A(9,10,12)            129.9011         estimate D2E/DX2                !
 ! A24   A(11,10,12)           123.0795         estimate D2E/DX2                !
 ! A25   A(7,11,10)             91.1872         estimate D2E/DX2                !
 ! A26   A(10,12,13)           124.1421         estimate D2E/DX2                !
 ! A27   A(10,12,17)           121.1446         estimate D2E/DX2                !
 ! A28   A(13,12,17)           114.5667         estimate D2E/DX2                !
 ! A29   A(12,13,14)           126.1641         estimate D2E/DX2                !
 ! A30   A(12,13,82)           120.5364         estimate D2E/DX2                !
 ! A31   A(14,13,82)           112.2244         estimate D2E/DX2                !
 ! A32   A(13,14,15)           113.4825         estimate D2E/DX2                !
 ! A33   A(14,15,16)           125.8434         estimate D2E/DX2                !
 ! A34   A(14,15,18)           113.4999         estimate D2E/DX2                !
 ! A35   A(16,15,18)           120.0213         estimate D2E/DX2                !
 ! A36   A(15,16,17)           117.9667         estimate D2E/DX2                !
 ! A37   A(12,17,16)           121.4737         estimate D2E/DX2                !
 ! A38   A(12,17,83)           118.0965         estimate D2E/DX2                !
 ! A39   A(16,17,83)           120.0425         estimate D2E/DX2                !
 ! A40   A(15,18,19)           128.7462         estimate D2E/DX2                !
 ! A41   A(15,18,22)           119.6501         estimate D2E/DX2                !
 ! A42   A(19,18,22)           111.0967         estimate D2E/DX2                !
 ! A43   A(18,19,20)           112.4678         estimate D2E/DX2                !
 ! A44   A(19,20,21)           115.8139         estimate D2E/DX2                !
 ! A45   A(19,20,84)           120.5151         estimate D2E/DX2                !
 ! A46   A(21,20,84)           122.8363         estimate D2E/DX2                !
 ! A47   A(20,21,22)           109.2317         estimate D2E/DX2                !
 ! A48   A(20,21,23)           131.8936         estimate D2E/DX2                !
 ! A49   A(22,21,23)           118.7028         estimate D2E/DX2                !
 ! A50   A(18,22,21)            90.6482         estimate D2E/DX2                !
 ! A51   A(21,23,24)           118.0273         estimate D2E/DX2                !
 ! A52   A(21,23,28)           125.5791         estimate D2E/DX2                !
 ! A53   A(24,23,28)           115.7135         estimate D2E/DX2                !
 ! A54   A(23,24,25)           120.9125         estimate D2E/DX2                !
 ! A55   A(23,24,85)           122.7898         estimate D2E/DX2                !
 ! A56   A(25,24,85)           115.891          estimate D2E/DX2                !
 ! A57   A(24,25,26)           118.2132         estimate D2E/DX2                !
 ! A58   A(25,26,27)           122.2786         estimate D2E/DX2                !
 ! A59   A(25,26,29)           117.7545         estimate D2E/DX2                !
 ! A60   A(27,26,29)           119.8053         estimate D2E/DX2                !
 ! A61   A(26,27,28)           116.729          estimate D2E/DX2                !
 ! A62   A(23,28,27)           125.5841         estimate D2E/DX2                !
 ! A63   A(23,28,86)           124.2146         estimate D2E/DX2                !
 ! A64   A(27,28,86)           109.5528         estimate D2E/DX2                !
 ! A65   A(26,29,30)           125.4217         estimate D2E/DX2                !
 ! A66   A(26,29,33)           121.6995         estimate D2E/DX2                !
 ! A67   A(30,29,33)           112.6523         estimate D2E/DX2                !
 ! A68   A(29,30,31)           113.8703         estimate D2E/DX2                !
 ! A69   A(30,31,32)           117.4505         estimate D2E/DX2                !
 ! A70   A(30,31,87)           120.8877         estimate D2E/DX2                !
 ! A71   A(32,31,87)           121.5842         estimate D2E/DX2                !
 ! A72   A(31,32,33)           105.4572         estimate D2E/DX2                !
 ! A73   A(31,32,34)           132.861          estimate D2E/DX2                !
 ! A74   A(33,32,34)           121.6259         estimate D2E/DX2                !
 ! A75   A(29,33,32)            90.1686         estimate D2E/DX2                !
 ! A76   A(32,34,35)           120.3497         estimate D2E/DX2                !
 ! A77   A(32,34,39)           123.7328         estimate D2E/DX2                !
 ! A78   A(35,34,39)           115.4678         estimate D2E/DX2                !
 ! A79   A(34,35,36)           124.0441         estimate D2E/DX2                !
 ! A80   A(34,35,88)           124.3581         estimate D2E/DX2                !
 ! A81   A(36,35,88)           111.3603         estimate D2E/DX2                !
 ! A82   A(35,36,37)           116.4921         estimate D2E/DX2                !
 ! A83   A(36,37,38)           123.7588         estimate D2E/DX2                !
 ! A84   A(36,37,40)           118.0517         estimate D2E/DX2                !
 ! A85   A(38,37,40)           117.9627         estimate D2E/DX2                !
 ! A86   A(37,38,39)           120.5013         estimate D2E/DX2                !
 ! A87   A(34,39,38)           118.7367         estimate D2E/DX2                !
 ! A88   A(34,39,89)           123.7583         estimate D2E/DX2                !
 ! A89   A(38,39,89)           116.5051         estimate D2E/DX2                !
 ! A90   A(37,40,41)           125.58           estimate D2E/DX2                !
 ! A91   A(37,40,44)           119.7263         estimate D2E/DX2                !
 ! A92   A(41,40,44)           114.6444         estimate D2E/DX2                !
 ! A93   A(40,41,42)           109.5793         estimate D2E/DX2                !
 ! A94   A(41,42,43)           116.3262         estimate D2E/DX2                !
 ! A95   A(41,42,90)           120.5026         estimate D2E/DX2                !
 ! A96   A(43,42,90)           123.0035         estimate D2E/DX2                !
 ! A97   A(42,43,44)           109.1088         estimate D2E/DX2                !
 ! A98   A(42,43,45)           134.5181         estimate D2E/DX2                !
 ! A99   A(44,43,45)           116.3445         estimate D2E/DX2                !
 ! A100  A(40,44,43)            90.2016         estimate D2E/DX2                !
 ! A101  A(43,45,46)           119.7461         estimate D2E/DX2                !
 ! A102  A(43,45,50)           127.0551         estimate D2E/DX2                !
 ! A103  A(46,45,50)           113.0986         estimate D2E/DX2                !
 ! A104  A(45,46,47)           126.9482         estimate D2E/DX2                !
 ! A105  A(45,46,91)           121.3087         estimate D2E/DX2                !
 ! A106  A(47,46,91)           111.5929         estimate D2E/DX2                !
 ! A107  A(46,47,48)           113.8368         estimate D2E/DX2                !
 ! A108  A(47,48,49)           125.6894         estimate D2E/DX2                !
 ! A109  A(47,48,51)           118.3938         estimate D2E/DX2                !
 ! A110  A(49,48,51)           115.7021         estimate D2E/DX2                !
 ! A111  A(48,49,50)           116.0214         estimate D2E/DX2                !
 ! A112  A(45,50,49)           124.0453         estimate D2E/DX2                !
 ! A113  A(45,50,92)           120.2209         estimate D2E/DX2                !
 ! A114  A(49,50,92)           115.2466         estimate D2E/DX2                !
 ! A115  A(48,51,52)           124.3353         estimate D2E/DX2                !
 ! A116  A(48,51,55)           122.4354         estimate D2E/DX2                !
 ! A117  A(52,51,55)           113.229          estimate D2E/DX2                !
 ! A118  A(51,52,53)           108.5041         estimate D2E/DX2                !
 ! A119  A(52,53,54)           116.6055         estimate D2E/DX2                !
 ! A120  A(52,53,93)           114.4058         estimate D2E/DX2                !
 ! A121  A(54,53,93)           128.5032         estimate D2E/DX2                !
 ! A122  A(53,54,55)           110.2413         estimate D2E/DX2                !
 ! A123  A(53,54,56)           132.9221         estimate D2E/DX2                !
 ! A124  A(55,54,56)           116.8349         estimate D2E/DX2                !
 ! A125  A(51,55,54)            91.364          estimate D2E/DX2                !
 ! A126  A(54,56,57)           127.0524         estimate D2E/DX2                !
 ! A127  A(54,56,61)           119.1399         estimate D2E/DX2                !
 ! A128  A(57,56,61)           113.7803         estimate D2E/DX2                !
 ! A129  A(56,57,58)           126.879          estimate D2E/DX2                !
 ! A130  A(56,57,94)           125.165          estimate D2E/DX2                !
 ! A131  A(58,57,94)           107.9139         estimate D2E/DX2                !
 ! A132  A(57,58,59)           113.3974         estimate D2E/DX2                !
 ! A133  A(58,59,60)           123.7429         estimate D2E/DX2                !
 ! A134  A(58,59,62)           119.0485         estimate D2E/DX2                !
 ! A135  A(60,59,62)           116.9644         estimate D2E/DX2                !
 ! A136  A(59,60,61)           115.3168         estimate D2E/DX2                !
 ! A137  A(56,61,60)           126.8694         estimate D2E/DX2                !
 ! A138  A(56,61,95)           121.3529         estimate D2E/DX2                !
 ! A139  A(60,61,95)           111.6317         estimate D2E/DX2                !
 ! A140  A(59,62,63)           121.1131         estimate D2E/DX2                !
 ! A141  A(59,62,66)           124.5137         estimate D2E/DX2                !
 ! A142  A(63,62,66)           114.3731         estimate D2E/DX2                !
 ! A143  A(62,63,64)           111.2025         estimate D2E/DX2                !
 ! A144  A(63,64,65)           113.6821         estimate D2E/DX2                !
 ! A145  A(63,64,96)           120.999          estimate D2E/DX2                !
 ! A146  A(65,64,96)           125.1505         estimate D2E/DX2                !
 ! A147  A(64,65,66)           110.1201         estimate D2E/DX2                !
 ! A148  A(64,65,67)           128.2292         estimate D2E/DX2                !
 ! A149  A(66,65,67)           121.5989         estimate D2E/DX2                !
 ! A150  A(62,66,65)            90.3291         estimate D2E/DX2                !
 ! A151  A(65,67,68)           126.2051         estimate D2E/DX2                !
 ! A152  A(65,67,72)           124.9173         estimate D2E/DX2                !
 ! A153  A(68,67,72)           108.7764         estimate D2E/DX2                !
 ! A154  A(67,68,69)           130.4678         estimate D2E/DX2                !
 ! A155  A(67,68,97)           116.5653         estimate D2E/DX2                !
 ! A156  A(69,68,97)           112.9434         estimate D2E/DX2                !
 ! A157  A(68,69,70)           111.108          estimate D2E/DX2                !
 ! A158  A(69,70,71)           125.3493         estimate D2E/DX2                !
 ! A159  A(69,70,73)           116.7547         estimate D2E/DX2                !
 ! A160  A(71,70,73)           117.6536         estimate D2E/DX2                !
 ! A161  A(70,71,72)           114.7224         estimate D2E/DX2                !
 ! A162  A(67,72,71)           129.1205         estimate D2E/DX2                !
 ! A163  A(67,72,98)           119.3664         estimate D2E/DX2                !
 ! A164  A(71,72,98)           110.8219         estimate D2E/DX2                !
 ! A165  A(70,73,74)           123.5701         estimate D2E/DX2                !
 ! A166  A(70,73,77)           122.2434         estimate D2E/DX2                !
 ! A167  A(74,73,77)           114.1828         estimate D2E/DX2                !
 ! A168  A(73,74,75)           110.9695         estimate D2E/DX2                !
 ! A169  A(74,75,76)           112.0678         estimate D2E/DX2                !
 ! A170  A(74,75,99)           120.4687         estimate D2E/DX2                !
 ! A171  A(76,75,99)           127.1214         estimate D2E/DX2                !
 ! A172  A(75,76,77)           110.398          estimate D2E/DX2                !
 ! A173  A(75,76,100)          124.1253         estimate D2E/DX2                !
 ! A174  A(77,76,100)          125.385          estimate D2E/DX2                !
 ! A175  A(73,77,76)            92.2136         estimate D2E/DX2                !
 ! D1    D(6,1,2,3)             -3.4588         estimate D2E/DX2                !
 ! D2    D(6,1,2,79)           175.2206         estimate D2E/DX2                !
 ! D3    D(78,1,2,3)           179.8767         estimate D2E/DX2                !
 ! D4    D(78,1,2,79)           -1.4439         estimate D2E/DX2                !
 ! D5    D(2,1,6,5)              4.8308         estimate D2E/DX2                !
 ! D6    D(2,1,6,80)           178.7103         estimate D2E/DX2                !
 ! D7    D(78,1,6,5)          -178.4015         estimate D2E/DX2                !
 ! D8    D(78,1,6,80)           -4.5219         estimate D2E/DX2                !
 ! D9    D(1,2,3,4)              0.3127         estimate D2E/DX2                !
 ! D10   D(79,2,3,4)          -178.4674         estimate D2E/DX2                !
 ! D11   D(2,3,4,5)              1.743          estimate D2E/DX2                !
 ! D12   D(2,3,4,7)            175.9695         estimate D2E/DX2                !
 ! D13   D(3,4,5,6)             -0.2973         estimate D2E/DX2                !
 ! D14   D(7,4,5,6)           -174.4776         estimate D2E/DX2                !
 ! D15   D(3,4,7,8)              8.4596         estimate D2E/DX2                !
 ! D16   D(3,4,7,11)           179.7344         estimate D2E/DX2                !
 ! D17   D(5,4,7,8)           -177.1571         estimate D2E/DX2                !
 ! D18   D(5,4,7,11)            -5.8823         estimate D2E/DX2                !
 ! D19   D(4,5,6,1)             -2.9595         estimate D2E/DX2                !
 ! D20   D(4,5,6,80)          -176.9724         estimate D2E/DX2                !
 ! D21   D(4,7,8,9)            177.9749         estimate D2E/DX2                !
 ! D22   D(11,7,8,9)             6.2211         estimate D2E/DX2                !
 ! D23   D(4,7,11,10)         -177.0181         estimate D2E/DX2                !
 ! D24   D(8,7,11,10)           -4.5354         estimate D2E/DX2                !
 ! D25   D(7,8,9,10)            -5.0228         estimate D2E/DX2                !
 ! D26   D(7,8,9,81)          -178.7665         estimate D2E/DX2                !
 ! D27   D(8,9,10,11)            1.3224         estimate D2E/DX2                !
 ! D28   D(8,9,10,12)          179.6913         estimate D2E/DX2                !
 ! D29   D(81,9,10,11)         174.8366         estimate D2E/DX2                !
 ! D30   D(81,9,10,12)          -6.7945         estimate D2E/DX2                !
 ! D31   D(9,10,11,7)            1.5635         estimate D2E/DX2                !
 ! D32   D(12,10,11,7)        -176.9432         estimate D2E/DX2                !
 ! D33   D(9,10,12,13)         148.5164         estimate D2E/DX2                !
 ! D34   D(9,10,12,17)         -36.1278         estimate D2E/DX2                !
 ! D35   D(11,10,12,13)        -33.3452         estimate D2E/DX2                !
 ! D36   D(11,10,12,17)        142.0106         estimate D2E/DX2                !
 ! D37   D(10,12,13,14)       -179.0826         estimate D2E/DX2                !
 ! D38   D(10,12,13,82)        -11.8907         estimate D2E/DX2                !
 ! D39   D(17,12,13,14)          5.2873         estimate D2E/DX2                !
 ! D40   D(17,12,13,82)        172.4791         estimate D2E/DX2                !
 ! D41   D(10,12,17,16)       -176.0124         estimate D2E/DX2                !
 ! D42   D(10,12,17,83)         -3.1558         estimate D2E/DX2                !
 ! D43   D(13,12,17,16)         -0.2379         estimate D2E/DX2                !
 ! D44   D(13,12,17,83)        172.6187         estimate D2E/DX2                !
 ! D45   D(12,13,14,15)         -3.9768         estimate D2E/DX2                !
 ! D46   D(82,13,14,15)       -172.0733         estimate D2E/DX2                !
 ! D47   D(13,14,15,16)         -2.8697         estimate D2E/DX2                !
 ! D48   D(13,14,15,18)       -173.6659         estimate D2E/DX2                !
 ! D49   D(14,15,16,17)          7.4841         estimate D2E/DX2                !
 ! D50   D(18,15,16,17)        177.7306         estimate D2E/DX2                !
 ! D51   D(14,15,18,19)        -17.6563         estimate D2E/DX2                !
 ! D52   D(14,15,18,22)        171.2877         estimate D2E/DX2                !
 ! D53   D(16,15,18,19)        170.9559         estimate D2E/DX2                !
 ! D54   D(16,15,18,22)         -0.1001         estimate D2E/DX2                !
 ! D55   D(15,16,17,12)         -5.6866         estimate D2E/DX2                !
 ! D56   D(15,16,17,83)       -178.4064         estimate D2E/DX2                !
 ! D57   D(15,18,19,20)       -178.9659         estimate D2E/DX2                !
 ! D58   D(22,18,19,20)         -7.2927         estimate D2E/DX2                !
 ! D59   D(15,18,22,21)        175.2493         estimate D2E/DX2                !
 ! D60   D(19,18,22,21)          2.7169         estimate D2E/DX2                !
 ! D61   D(18,19,20,21)          9.8835         estimate D2E/DX2                !
 ! D62   D(18,19,20,84)        179.7146         estimate D2E/DX2                !
 ! D63   D(19,20,21,22)         -7.4638         estimate D2E/DX2                !
 ! D64   D(19,20,21,23)        177.4934         estimate D2E/DX2                !
 ! D65   D(84,20,21,22)       -177.0347         estimate D2E/DX2                !
 ! D66   D(84,20,21,23)          7.9225         estimate D2E/DX2                !
 ! D67   D(20,21,22,18)          2.616          estimate D2E/DX2                !
 ! D68   D(23,21,22,18)        178.4105         estimate D2E/DX2                !
 ! D69   D(20,21,23,24)        -32.0393         estimate D2E/DX2                !
 ! D70   D(20,21,23,28)        138.0725         estimate D2E/DX2                !
 ! D71   D(22,21,23,24)        153.298          estimate D2E/DX2                !
 ! D72   D(22,21,23,28)        -36.5902         estimate D2E/DX2                !
 ! D73   D(21,23,24,25)        178.2383         estimate D2E/DX2                !
 ! D74   D(21,23,24,85)         -9.3847         estimate D2E/DX2                !
 ! D75   D(28,23,24,25)          7.156          estimate D2E/DX2                !
 ! D76   D(28,23,24,85)        179.5331         estimate D2E/DX2                !
 ! D77   D(21,23,28,27)       -179.6989         estimate D2E/DX2                !
 ! D78   D(21,23,28,86)         10.5086         estimate D2E/DX2                !
 ! D79   D(24,23,28,27)         -9.3848         estimate D2E/DX2                !
 ! D80   D(24,23,28,86)       -179.1772         estimate D2E/DX2                !
 ! D81   D(23,24,25,26)         -2.7466         estimate D2E/DX2                !
 ! D82   D(85,24,25,26)       -175.6259         estimate D2E/DX2                !
 ! D83   D(24,25,26,27)         -0.2142         estimate D2E/DX2                !
 ! D84   D(24,25,26,29)       -175.5803         estimate D2E/DX2                !
 ! D85   D(25,26,27,28)         -1.4145         estimate D2E/DX2                !
 ! D86   D(29,26,27,28)        173.8593         estimate D2E/DX2                !
 ! D87   D(25,26,29,30)        -14.9438         estimate D2E/DX2                !
 ! D88   D(25,26,29,33)        170.9337         estimate D2E/DX2                !
 ! D89   D(27,26,29,30)        169.5711         estimate D2E/DX2                !
 ! D90   D(27,26,29,33)         -4.5515         estimate D2E/DX2                !
 ! D91   D(26,27,28,23)          6.666          estimate D2E/DX2                !
 ! D92   D(26,27,28,86)        177.7194         estimate D2E/DX2                !
 ! D93   D(26,29,30,31)        179.8964         estimate D2E/DX2                !
 ! D94   D(33,29,30,31)         -5.5208         estimate D2E/DX2                !
 ! D95   D(26,29,33,32)       -179.1656         estimate D2E/DX2                !
 ! D96   D(30,29,33,32)          6.0223         estimate D2E/DX2                !
 ! D97   D(29,30,31,32)          1.381          estimate D2E/DX2                !
 ! D98   D(29,30,31,87)       -175.4647         estimate D2E/DX2                !
 ! D99   D(30,31,32,33)          3.0296         estimate D2E/DX2                !
 ! D100  D(30,31,32,34)       -179.7488         estimate D2E/DX2                !
 ! D101  D(87,31,32,33)        179.852          estimate D2E/DX2                !
 ! D102  D(87,31,32,34)         -2.9264         estimate D2E/DX2                !
 ! D103  D(31,32,33,29)         -4.9115         estimate D2E/DX2                !
 ! D104  D(34,32,33,29)        177.48           estimate D2E/DX2                !
 ! D105  D(31,32,34,35)         43.0255         estimate D2E/DX2                !
 ! D106  D(31,32,34,39)       -145.0251         estimate D2E/DX2                !
 ! D107  D(33,32,34,35)       -140.1198         estimate D2E/DX2                !
 ! D108  D(33,32,34,39)         31.8296         estimate D2E/DX2                !
 ! D109  D(32,34,35,36)       -177.52           estimate D2E/DX2                !
 ! D110  D(32,34,35,88)         -3.6067         estimate D2E/DX2                !
 ! D111  D(39,34,35,36)          9.8921         estimate D2E/DX2                !
 ! D112  D(39,34,35,88)       -176.1946         estimate D2E/DX2                !
 ! D113  D(32,34,39,38)        178.1635         estimate D2E/DX2                !
 ! D114  D(32,34,39,89)         10.0183         estimate D2E/DX2                !
 ! D115  D(35,34,39,38)         -9.5294         estimate D2E/DX2                !
 ! D116  D(35,34,39,89)       -177.6746         estimate D2E/DX2                !
 ! D117  D(34,35,36,37)         -7.9085         estimate D2E/DX2                !
 ! D118  D(88,35,36,37)        177.4847         estimate D2E/DX2                !
 ! D119  D(35,36,37,38)          5.6912         estimate D2E/DX2                !
 ! D120  D(35,36,37,40)       -179.9007         estimate D2E/DX2                !
 ! D121  D(36,37,38,39)         -6.1067         estimate D2E/DX2                !
 ! D122  D(40,37,38,39)        179.4805         estimate D2E/DX2                !
 ! D123  D(36,37,40,41)       -175.743          estimate D2E/DX2                !
 ! D124  D(36,37,40,44)          1.5612         estimate D2E/DX2                !
 ! D125  D(38,37,40,41)         -1.0054         estimate D2E/DX2                !
 ! D126  D(38,37,40,44)        176.2987         estimate D2E/DX2                !
 ! D127  D(37,38,39,34)          7.9904         estimate D2E/DX2                !
 ! D128  D(37,38,39,89)        176.9878         estimate D2E/DX2                !
 ! D129  D(37,40,41,42)        179.2703         estimate D2E/DX2                !
 ! D130  D(44,40,41,42)          1.8459         estimate D2E/DX2                !
 ! D131  D(37,40,44,43)       -177.3013         estimate D2E/DX2                !
 ! D132  D(41,40,44,43)          0.2866         estimate D2E/DX2                !
 ! D133  D(40,41,42,43)         -3.8593         estimate D2E/DX2                !
 ! D134  D(40,41,42,90)       -179.2934         estimate D2E/DX2                !
 ! D135  D(41,42,43,44)          4.0399         estimate D2E/DX2                !
 ! D136  D(41,42,43,45)       -178.0482         estimate D2E/DX2                !
 ! D137  D(90,42,43,44)        179.3486         estimate D2E/DX2                !
 ! D138  D(90,42,43,45)         -2.7395         estimate D2E/DX2                !
 ! D139  D(42,43,44,40)         -2.3556         estimate D2E/DX2                !
 ! D140  D(45,43,44,40)        179.3056         estimate D2E/DX2                !
 ! D141  D(42,43,45,46)        -21.9343         estimate D2E/DX2                !
 ! D142  D(42,43,45,50)        154.1622         estimate D2E/DX2                !
 ! D143  D(44,43,45,46)        155.864          estimate D2E/DX2                !
 ! D144  D(44,43,45,50)        -28.0395         estimate D2E/DX2                !
 ! D145  D(43,45,46,47)        177.8674         estimate D2E/DX2                !
 ! D146  D(43,45,46,91)         -6.9753         estimate D2E/DX2                !
 ! D147  D(50,45,46,47)          1.2534         estimate D2E/DX2                !
 ! D148  D(50,45,46,91)        176.4108         estimate D2E/DX2                !
 ! D149  D(43,45,50,49)       -174.5729         estimate D2E/DX2                !
 ! D150  D(43,45,50,92)         -2.9702         estimate D2E/DX2                !
 ! D151  D(46,45,50,49)          1.7429         estimate D2E/DX2                !
 ! D152  D(46,45,50,92)        173.3456         estimate D2E/DX2                !
 ! D153  D(45,46,47,48)          0.0487         estimate D2E/DX2                !
 ! D154  D(91,46,47,48)       -175.5024         estimate D2E/DX2                !
 ! D155  D(46,47,48,49)         -4.7683         estimate D2E/DX2                !
 ! D156  D(46,47,48,51)       -179.1991         estimate D2E/DX2                !
 ! D157  D(47,48,49,50)          7.4721         estimate D2E/DX2                !
 ! D158  D(51,48,49,50)       -177.9647         estimate D2E/DX2                !
 ! D159  D(47,48,51,52)          4.9466         estimate D2E/DX2                !
 ! D160  D(47,48,51,55)       -174.8305         estimate D2E/DX2                !
 ! D161  D(49,48,51,52)       -170.035          estimate D2E/DX2                !
 ! D162  D(49,48,51,55)         10.188          estimate D2E/DX2                !
 ! D163  D(48,49,50,45)         -5.7859         estimate D2E/DX2                !
 ! D164  D(48,49,50,92)       -177.7661         estimate D2E/DX2                !
 ! D165  D(48,51,52,53)        177.7635         estimate D2E/DX2                !
 ! D166  D(55,51,52,53)         -2.4413         estimate D2E/DX2                !
 ! D167  D(48,51,55,54)       -178.6549         estimate D2E/DX2                !
 ! D168  D(52,51,55,54)          1.5455         estimate D2E/DX2                !
 ! D169  D(51,52,53,54)          2.4271         estimate D2E/DX2                !
 ! D170  D(51,52,53,93)        175.122          estimate D2E/DX2                !
 ! D171  D(52,53,54,55)         -1.3248         estimate D2E/DX2                !
 ! D172  D(52,53,54,56)        178.1897         estimate D2E/DX2                !
 ! D173  D(93,53,54,55)       -172.8159         estimate D2E/DX2                !
 ! D174  D(93,53,54,56)          6.6986         estimate D2E/DX2                !
 ! D175  D(53,54,55,51)         -0.1384         estimate D2E/DX2                !
 ! D176  D(56,54,55,51)       -179.74           estimate D2E/DX2                !
 ! D177  D(53,54,56,57)       -139.5646         estimate D2E/DX2                !
 ! D178  D(53,54,56,61)         38.402          estimate D2E/DX2                !
 ! D179  D(55,54,56,57)         39.9249         estimate D2E/DX2                !
 ! D180  D(55,54,56,61)       -142.1085         estimate D2E/DX2                !
 ! D181  D(54,56,57,58)        178.6172         estimate D2E/DX2                !
 ! D182  D(54,56,57,94)         -4.0316         estimate D2E/DX2                !
 ! D183  D(61,56,57,58)          0.558          estimate D2E/DX2                !
 ! D184  D(61,56,57,94)        177.9092         estimate D2E/DX2                !
 ! D185  D(54,56,61,60)       -177.9406         estimate D2E/DX2                !
 ! D186  D(54,56,61,95)         -2.7107         estimate D2E/DX2                !
 ! D187  D(57,56,61,60)          0.2861         estimate D2E/DX2                !
 ! D188  D(57,56,61,95)        175.516          estimate D2E/DX2                !
 ! D189  D(56,57,58,59)         -0.3603         estimate D2E/DX2                !
 ! D190  D(94,57,58,59)       -178.0848         estimate D2E/DX2                !
 ! D191  D(57,58,59,60)         -0.6499         estimate D2E/DX2                !
 ! D192  D(57,58,59,62)        173.4928         estimate D2E/DX2                !
 ! D193  D(58,59,60,61)          1.3558         estimate D2E/DX2                !
 ! D194  D(62,59,60,61)       -172.8996         estimate D2E/DX2                !
 ! D195  D(58,59,62,63)          7.8205         estimate D2E/DX2                !
 ! D196  D(58,59,62,66)       -172.2586         estimate D2E/DX2                !
 ! D197  D(60,59,62,63)       -177.6428         estimate D2E/DX2                !
 ! D198  D(60,59,62,66)          2.278          estimate D2E/DX2                !
 ! D199  D(59,60,61,56)         -1.1694         estimate D2E/DX2                !
 ! D200  D(59,60,61,95)       -176.788          estimate D2E/DX2                !
 ! D201  D(59,62,63,64)        179.0036         estimate D2E/DX2                !
 ! D202  D(66,62,63,64)         -0.9248         estimate D2E/DX2                !
 ! D203  D(59,62,66,65)        177.9376         estimate D2E/DX2                !
 ! D204  D(63,62,66,65)         -2.1368         estimate D2E/DX2                !
 ! D205  D(62,63,64,65)          4.4285         estimate D2E/DX2                !
 ! D206  D(62,63,64,96)        179.9478         estimate D2E/DX2                !
 ! D207  D(63,64,65,66)         -5.9663         estimate D2E/DX2                !
 ! D208  D(63,64,65,67)        176.6503         estimate D2E/DX2                !
 ! D209  D(96,64,65,66)        178.7315         estimate D2E/DX2                !
 ! D210  D(96,64,65,67)          1.3482         estimate D2E/DX2                !
 ! D211  D(64,65,66,62)          4.4225         estimate D2E/DX2                !
 ! D212  D(67,65,66,62)       -177.9906         estimate D2E/DX2                !
 ! D213  D(64,65,67,68)        144.648          estimate D2E/DX2                !
 ! D214  D(64,65,67,72)        -31.2768         estimate D2E/DX2                !
 ! D215  D(66,65,67,68)        -32.4671         estimate D2E/DX2                !
 ! D216  D(66,65,67,72)        151.608          estimate D2E/DX2                !
 ! D217  D(65,67,68,69)        178.673          estimate D2E/DX2                !
 ! D218  D(65,67,68,97)          0.5806         estimate D2E/DX2                !
 ! D219  D(72,67,68,69)         -4.8556         estimate D2E/DX2                !
 ! D220  D(72,67,68,97)        177.052          estimate D2E/DX2                !
 ! D221  D(65,67,72,71)       -176.375          estimate D2E/DX2                !
 ! D222  D(65,67,72,98)         -6.8414         estimate D2E/DX2                !
 ! D223  D(68,67,72,71)          7.0973         estimate D2E/DX2                !
 ! D224  D(68,67,72,98)        176.6309         estimate D2E/DX2                !
 ! D225  D(67,68,69,70)          3.3151         estimate D2E/DX2                !
 ! D226  D(97,68,69,70)       -178.5377         estimate D2E/DX2                !
 ! D227  D(68,69,70,71)         -3.2139         estimate D2E/DX2                !
 ! D228  D(68,69,70,73)       -177.4024         estimate D2E/DX2                !
 ! D229  D(69,70,71,72)          5.1355         estimate D2E/DX2                !
 ! D230  D(73,70,71,72)        179.2768         estimate D2E/DX2                !
 ! D231  D(69,70,73,74)         -4.8538         estimate D2E/DX2                !
 ! D232  D(69,70,73,77)        174.3925         estimate D2E/DX2                !
 ! D233  D(71,70,73,74)       -179.5038         estimate D2E/DX2                !
 ! D234  D(71,70,73,77)         -0.2575         estimate D2E/DX2                !
 ! D235  D(70,71,72,67)         -7.529          estimate D2E/DX2                !
 ! D236  D(70,71,72,98)       -177.7773         estimate D2E/DX2                !
 ! D237  D(70,73,74,75)       -176.5911         estimate D2E/DX2                !
 ! D238  D(77,73,74,75)          4.1077         estimate D2E/DX2                !
 ! D239  D(70,73,77,76)        178.4502         estimate D2E/DX2                !
 ! D240  D(74,73,77,76)         -2.2382         estimate D2E/DX2                !
 ! D241  D(73,74,75,76)         -4.3812         estimate D2E/DX2                !
 ! D242  D(73,74,75,99)       -178.1299         estimate D2E/DX2                !
 ! D243  D(74,75,76,77)          2.7258         estimate D2E/DX2                !
 ! D244  D(74,75,76,100)       179.4028         estimate D2E/DX2                !
 ! D245  D(99,75,76,77)        175.9662         estimate D2E/DX2                !
 ! D246  D(99,75,76,100)        -7.3568         estimate D2E/DX2                !
 ! D247  D(75,76,77,73)         -0.4148         estimate D2E/DX2                !
 ! D248  D(100,76,77,73)      -177.0407         estimate D2E/DX2                !
 --------------------------------------------------------------------------------
 Trust Radius=3.00D-01 FncErr=1.00D-07 GrdErr=1.00D-06 EigMax=2.50D+02 EigMin=1.00D-04
 Number of steps in this run=    546 maximum allowed number of steps=    600.
 GradGradGradGradGradGradGradGradGradGradGradGradGradGradGradGradGradGrad

 Leave Link  103 at Thu Jul 23 23:40:56 2020, MaxMem=  4026531840 cpu:               0.1 elap:               0.0
 (Enter /opt/ohpc/pub/libs/gaussian/g16-A.03/sandybridge/g16/l202.exe)
 Stoichiometry    C49H23N21S7
 Framework group  C1[X(C49H23N21S7)]
 Deg. of freedom   294
 Full point group                 C1      NOp   1
 Largest Abelian subgroup         C1      NOp   1
 Largest concise Abelian subgroup C1      NOp   1
                         Standard orientation:                         
 ---------------------------------------------------------------------
 Center     Atomic      Atomic             Coordinates (Angstroms)
 Number     Number       Type             X           Y           Z
 ---------------------------------------------------------------------
      1          6           0       26.016868    1.078856    1.951130
      2          6           0       25.799891    1.314463    0.670644
      3          7           0       24.624823    1.026530    0.080892
      4          6           0       23.652271    0.492098    0.822582
      5          7           0       23.805172    0.264909    2.157916
      6          6           0       24.921891    0.565420    2.737532
      7          6           0       22.329008    0.259566    0.193154
      8          7           0       22.033299    0.371604   -1.022341
      9          6           0       20.738413    0.053541   -1.343987
     10          6           0       19.970741   -0.473354   -0.210130
     11         16           0       21.018359   -0.458095    1.158197
     12          6           0       18.591687   -0.909831   -0.144797
     13          6           0       18.142351   -1.889325    0.675901
     14          7           0       16.861846   -2.343495    0.758504
     15          6           0       15.970636   -1.638430   -0.044342
     16          7           0       16.261309   -0.601282   -0.779727
     17          6           0       17.570071   -0.248854   -0.896842
     18          6           0       14.562219   -2.030952    0.154675
     19          7           0       14.095481   -3.089698    0.700889
     20          6           0       12.748794   -3.124058    0.689562
     21          6           0       12.150660   -2.188880   -0.047597
     22         16           0       13.296309   -1.102421   -0.593636
     23          6           0       10.690932   -1.923354   -0.355386
     24          6           0        9.799219   -3.051135   -0.429585
     25          7           0        8.441844   -2.873638   -0.672169
     26          6           0        7.972775   -1.613561   -0.780136
     27          7           0        8.815069   -0.476547   -0.650156
     28          6           0       10.103482   -0.710333   -0.384315
     29          6           0        6.580166   -1.441357   -0.931072
     30          7           0        5.702293   -2.413560   -1.260498
     31          6           0        4.467772   -2.005291   -1.336667
     32          6           0        4.221300   -0.644117   -1.103844
     33         16           0        5.850972    0.104868   -0.848379
     34          6           0        3.017602    0.146270   -1.097321
     35          6           0        1.908028   -0.317904   -0.514322
     36          7           0        0.731418    0.335446   -0.506086
     37          6           0        0.739893    1.588141   -0.982155
     38          7           0        1.750251    2.129577   -1.520507
     39          6           0        2.957574    1.485814   -1.535834
     40          6           0       -0.581272    2.366588   -0.987317
     41          7           0       -0.757972    3.560881   -1.486793
     42          6           0       -2.106042    3.946850   -1.324399
     43          6           0       -2.952801    3.001345   -0.775509
     44         16           0       -2.040537    1.617369   -0.338357
     45          6           0       -4.392539    2.958242   -0.469856
     46          6           0       -5.123022    4.183892   -0.304701
     47          7           0       -6.436204    4.313701   -0.065326
     48          6           0       -7.104547    3.118766    0.022605
     49          7           0       -6.572201    1.904570   -0.197883
     50          6           0       -5.170013    1.866482   -0.388013
     51          6           0       -8.553087    3.144792    0.265147
     52          7           0       -9.313245    4.295276    0.315380
     53          6           0      -10.644165    3.937242    0.511750
     54          6           0      -10.892632    2.660794    0.653725
     55         16           0       -9.443963    1.755750    0.515110
     56          6           0      -12.144489    1.892321    0.910909
     57          6           0      -12.286344    0.874137    1.694800
     58          7           0      -13.490750    0.159138    1.958818
     59          6           0      -14.548914    0.643160    1.304422
     60          7           0      -14.494734    1.764275    0.442123
     61          6           0      -13.323132    2.294852    0.297075
     62          6           0      -15.808241   -0.076278    1.370516
     63          7           0      -15.969664   -1.143340    2.211810
     64          6           0      -17.258166   -1.662240    2.125138
     65          6           0      -18.070677   -1.030101    1.114354
     66         16           0      -17.222849    0.315090    0.422751
     67          6           0      -19.390628   -1.354860    0.722871
     68          6           0      -20.388710   -0.442186    0.317483
     69          7           0      -21.634512   -0.652161   -0.085754
     70          6           0      -21.962985   -2.000019   -0.014348
     71          7           0      -21.102790   -3.012345    0.355904
     72          6           0      -19.929482   -2.611779    0.753243
     73          6           0      -23.303558   -2.381946   -0.490438
     74          7           0      -24.222739   -1.502971   -0.885894
     75          6           0      -25.468164   -2.169566   -1.223148
     76          6           0      -25.358021   -3.556797   -1.143121
     77         16           0      -23.798784   -4.000589   -0.597090
     78          1           0       26.979722    1.310388    2.443327
     79          1           0       26.529340    1.764773    0.026845
     80          1           0       25.045181    0.336890    3.774335
     81          1           0       20.377677    0.095907   -2.373883
     82          1           0       18.841653   -2.534672    1.199290
     83          1           0       17.845069    0.615314   -1.473666
     84          1           0       12.207086   -3.980853    1.122666
     85          1           0       10.141271   -4.055555   -0.423069
     86          1           0       10.663645    0.265055   -0.348378
     87          1           0        3.627631   -2.733579   -1.528832
     88          1           0        1.812277   -1.337144   -0.057685
     89          1           0        3.731381    1.964436   -2.035133
     90          1           0       -2.449566    4.904191   -1.687071
     91          1           0       -4.594634    5.187322   -0.288591
     92          1           0       -4.774461    0.923588   -0.594247
     93          1           0      -11.309307    4.764693    0.647616
     94          1           0      -11.472848    0.382295    2.247718
     95          1           0      -13.361811    3.231033   -0.365213
     96          1           0      -17.560144   -2.517967    2.727951
     97          1           0      -20.099856    0.639035    0.297076
     98          1           0      -19.304465   -3.442921    0.986925
     99          1           0      -26.301269   -1.608814   -1.588146
    100          1           0      -26.197328   -4.265804   -1.351332
 ---------------------------------------------------------------------
 Rotational constants (GHZ):           0.0843738           0.0018926           0.0018659
 Leave Link  202 at Thu Jul 23 23:40:56 2020, MaxMem=  4026531840 cpu:               0.2 elap:               0.1
 (Enter /opt/ohpc/pub/libs/gaussian/g16-A.03/sandybridge/g16/l301.exe)
 Standard basis: CC-pVDZ (5D, 7F)
 Ernie: Thresh=  0.10000D-02 Tol=  0.10000D-05 Strict=F.
 Ernie:  210 primitive shells out of 2005 were deleted.
 There are  1298 symmetry adapted cartesian basis functions of A   symmetry.
 There are  1221 symmetry adapted basis functions of A   symmetry.
  1221 basis functions,  2968 primitive gaussians,  1298 cartesian basis functions
   288 alpha electrons      288 beta electrons
       nuclear repulsion energy      9821.0580836559 Hartrees.
 IExCor=32609 DFT=T Ex+Corr=LC-wPBE ExCW=0 ScaHFX=  1.000000
 ScaDFX=  1.000000  0.000000  1.000000  1.000000 ScalE2=  1.000000  1.000000
 IRadAn=      5 IRanWt=     -1 IRanGd=            0 ICorTp=0 IEmpDi=  4
 HFx  wShort=  0.000000 wLong=  0.096100 cFull=  0.000000 cShort=  0.000000 cLong=  1.000000
 DFx  wShort=  0.000000 wLong=  0.096100 cFull=  0.000000 cShort=  0.000000 cLong=  1.000000
 NAtoms=  100 NActive=  100 NUniq=  100 SFac= 1.00D+00 NAtFMM=   60 NAOKFM=T Big=T
 Integral buffers will be    131072 words long.
 Raffenetti 2 integral format.
 Two-electron integral symmetry is turned on.
 Leave Link  301 at Thu Jul 23 23:40:56 2020, MaxMem=  4026531840 cpu:               0.5 elap:               0.1
 (Enter /opt/ohpc/pub/libs/gaussian/g16-A.03/sandybridge/g16/l302.exe)
 NPDir=0 NMtPBC=     1 NCelOv=     1 NCel=       1 NClECP=     1 NCelD=      1
         NCelK=      1 NCelE2=     1 NClLst=     1 CellRange=     0.0.
 One-electron integrals computed using PRISM.
 One-electron integral symmetry used in STVInt
 NBasis=  1221 RedAO= T EigKep=  4.05D-04  NBF=  1221
 NBsUse=  1221 1.00D-06 EigRej= -1.00D+00 NBFU=  1221
 Precomputing XC quadrature grid using
 IXCGrd= 4 IRadAn=           5 IRanWt=          -1 IRanGd=           0 AccXCQ= 0.00D+00.
 Generated NRdTot=       0 NPtTot=           0 NUsed=           0 NTot=          32
 NSgBfM=   563   563   563   563   563 MxSgAt=   100 MxSgA2=    68.
 Leave Link  302 at Thu Jul 23 23:41:01 2020, MaxMem=  4026531840 cpu:              43.0 elap:               5.4
 (Enter /opt/ohpc/pub/libs/gaussian/g16-A.03/sandybridge/g16/l303.exe)
 DipDrv:  MaxL=1.
 Leave Link  303 at Thu Jul 23 23:41:02 2020, MaxMem=  4026531840 cpu:               1.9 elap:               0.3
 (Enter /opt/ohpc/pub/libs/gaussian/g16-A.03/sandybridge/g16/l401.exe)
 ExpMin= 1.22D-01 ExpMax= 1.11D+05 ExpMxC= 1.07D+03 IAcc=3 IRadAn=         5 AccDes= 0.00D+00
 Harris functional with IExCor=32609 and IRadAn=       5 diagonalized for initial guess.
 HarFok:  IExCor=32609 AccDes= 0.00D+00 IRadAn=         5 IDoV= 1 UseB2=F ITyADJ=14
 ICtDFT=  3500011 ScaDFX=  1.000000  1.000000  1.000000  1.000000
 FoFCou: FMM=F IPFlag=           0 FMFlag=      100000 FMFlg1=        2001
         NFxFlg=           0 DoJE=T BraDBF=F KetDBF=T FulRan=T
         wScrn=  0.000000 ICntrl=       500 IOpCl=  0 I1Cent=   200000004 NGrid=           0
         NMat0=    1 NMatS0=      1 NMatT0=    0 NMatD0=    1 NMtDS0=    0 NMtDT0=    0
 Petite list used in FoFCou.
 Harris En= -5814.08227283055    
 JPrj=0 DoOrth=F DoCkMO=F.
 Initial guess <Sx>= 0.0000 <Sy>= 0.0000 <Sz>= 0.0000 <S**2>=-0.0000 S=-0.0000
 Leave Link  401 at Thu Jul 23 23:41:14 2020, MaxMem=  4026531840 cpu:              98.4 elap:              12.4
 (Enter /opt/ohpc/pub/libs/gaussian/g16-A.03/sandybridge/g16/l502.exe)
 Integral symmetry usage will be decided dynamically.
 UHF open shell SCF:
 Using DIIS extrapolation, IDIIS=  1040.
 NGot=  4026531840 LenX=  4023139222 LenY=  4021453120
 Requested convergence on RMS density matrix=1.00D-08 within 128 cycles.
 Requested convergence on MAX density matrix=1.00D-06.
 Requested convergence on             energy=1.00D-06.
 No special actions if energy rises.
 Fock matrices will be formed incrementally for  20 cycles.
 Integral accuracy reduced to 1.0D-05 until final iterations.

 Cycle   1  Pass 0  IDiag  1:
 FoFJK:  IHMeth= 1 ICntrl=       0 DoSepK=T KAlg= 0 I1Cent=           0 FoldK=F
 IRaf=         1 NMat=       1 IRICut=       1 DoRegI=T DoRafI=F ISym2E= 0 IDoP0=0 IntGTp=1.
 FoFCou: FMM=T IPFlag=           0 FMFlag=      100000 FMFlg1=        2001
         NFxFlg=           0 DoJE=T BraDBF=F KetDBF=F FulRan=T
         wScrn=  0.000000 ICntrl=       500 IOpCl=  0 I1Cent=           0 NGrid=           0
         NMat0=    1 NMatS0=      1 NMatT0=    0 NMatD0=    1 NMtDS0=    0 NMtDT0=    0
 Symmetry not used in FoFCou.
 FMM levels:  10  Number of levels for PrismC:   9
 E= -5813.12551246945    
 DIIS: error= 1.86D-02 at cycle   1 NSaved=   1.
 NSaved= 1 IEnMin= 1 EnMin= -5813.12551246945     IErMin= 1 ErrMin= 1.86D-02
 ErrMax= 1.86D-02  0.00D+00 EMaxC= 1.00D-01 BMatC= 4.05D+00 BMatP= 4.05D+00
 IDIUse=3 WtCom= 8.14D-01 WtEn= 1.86D-01
 Coeff-Com:  0.100D+01
 Coeff-En:   0.100D+01
 Coeff:      0.100D+01
 Gap=     0.132 Goal=   None    Shift=    0.000
 Gap=     0.132 Goal=   None    Shift=    0.000
 GapD=    0.132 DampG=1.000 DampE=0.500 DampFc=0.5000 IDamp=-1.
 Damping current iteration by 5.00D-01
 RMSDP=2.71D-03 MaxDP=2.09D-01              OVMax= 2.89D-01

 Cycle   2  Pass 0  IDiag  1:
 RMSU=  1.35D-03    CP:  9.95D-01
 E= -5813.30352018226     Delta-E=       -0.178007712804 Rises=F Damp=T
 DIIS: error= 1.07D-02 at cycle   2 NSaved=   2.
[...]
    43 C(13)  Bbb    -0.0000    -0.000    -0.000    -0.000 -0.3367  0.4675  0.8174
              Bcc     0.0000     0.000     0.000     0.000  0.0641  0.8774 -0.4754
 
              Baa    -0.0000    -0.000    -0.000    -0.000  0.6122  0.6652 -0.4274
    44 S(33)  Bbb     0.0000     0.000     0.000     0.000  0.1840  0.4059  0.8952
              Bcc     0.0000     0.000     0.000     0.000  0.7690 -0.6267  0.1260
 
              Baa    -0.0000    -0.000    -0.000    -0.000 -0.1673  0.9801  0.1069
    45 C(13)  Bbb    -0.0000    -0.000    -0.000    -0.000  0.0127 -0.1062  0.9943
              Bcc     0.0000     0.000     0.000     0.000  0.9858  0.1677  0.0053
 
              Baa    -0.0000    -0.000    -0.000    -0.000  0.0696 -0.1796  0.9813
    46 C(13)  Bbb    -0.0000    -0.000    -0.000    -0.000  0.9835 -0.1526 -0.0976
              Bcc     0.0000     0.000     0.000     0.000  0.1672  0.9718  0.1660
 
              Baa    -0.0000    -0.000    -0.000    -0.000  0.8519 -0.5226 -0.0353
    47 N(14)  Bbb     0.0000     0.000     0.000     0.000  0.0584  0.0278  0.9979
              Bcc     0.0000     0.000     0.000     0.000  0.5205  0.8521 -0.0542
 
              Baa    -0.0000    -0.000    -0.000    -0.000  0.9467 -0.3025 -0.1106
    48 C(13)  Bbb     0.0000     0.000     0.000     0.000  0.3153  0.9407  0.1256
              Bcc     0.0000     0.000     0.000     0.000  0.0660 -0.1537  0.9859
 
              Baa    -0.0000    -0.000    -0.000    -0.000 -0.4290  0.8850  0.1809
    49 N(14)  Bbb    -0.0000    -0.000    -0.000    -0.000  0.8759  0.4565 -0.1563
              Bcc     0.0000     0.000     0.000     0.000  0.2209 -0.0914  0.9710
 
              Baa    -0.0000    -0.000    -0.000    -0.000 -0.0502  0.9836  0.1731
    50 C(13)  Bbb     0.0000     0.000     0.000     0.000  0.9978  0.0569 -0.0340
              Bcc     0.0000     0.000     0.000     0.000  0.0433 -0.1710  0.9843
 
              Baa    -0.0000    -0.000    -0.000    -0.000  0.9122 -0.3966 -0.1028
    51 C(13)  Bbb     0.0000     0.000     0.000     0.000  0.4094  0.8913  0.1947
              Bcc     0.0000     0.000     0.000     0.000  0.0144 -0.2197  0.9755
 
              Baa    -0.0000    -0.000    -0.000    -0.000  0.9742  0.2129 -0.0751
    52 N(14)  Bbb     0.0000     0.000     0.000     0.000  0.1335 -0.2752  0.9521
              Bcc     0.0000     0.000     0.000     0.000 -0.1821  0.9375  0.2965
 
              Baa    -0.0000    -0.000    -0.000    -0.000  0.7882 -0.6073 -0.0993
    53 C(13)  Bbb     0.0000     0.000     0.000     0.000  0.5734  0.7834 -0.2400
              Bcc     0.0000     0.000     0.000     0.000  0.2235  0.1322  0.9657
 
              Baa    -0.0000    -0.000    -0.000    -0.000  0.9440  0.3237 -0.0643
    54 C(13)  Bbb     0.0000     0.000     0.000     0.000 -0.3196  0.9452  0.0667
              Bcc     0.0000     0.000     0.000     0.000  0.0823 -0.0424  0.9957
 
              Baa    -0.0000    -0.000    -0.000    -0.000  0.7754  0.6233  0.1018
    55 S(33)  Bbb     0.0000     0.000     0.000     0.000 -0.1860  0.0714  0.9799
              Bcc     0.0000     0.000     0.000     0.000 -0.6035  0.7788 -0.1713
 
              Baa    -0.0000    -0.000    -0.000    -0.000  0.9807  0.0985  0.1688
    56 C(13)  Bbb    -0.0000    -0.000    -0.000    -0.000 -0.1866  0.2155  0.9585
              Bcc     0.0000     0.000     0.000     0.000 -0.0581  0.9715 -0.2297
 
              Baa    -0.0000    -0.000    -0.000    -0.000  0.1078  0.2310  0.9670
    57 C(13)  Bbb    -0.0000    -0.000    -0.000    -0.000  0.9670 -0.2501 -0.0480
              Bcc     0.0000     0.000     0.000     0.000  0.2307  0.9403 -0.2503
 
              Baa    -0.0000    -0.000    -0.000    -0.000 -0.5825  0.8109 -0.0563
    58 N(14)  Bbb     0.0000     0.000     0.000     0.000  0.8120  0.5775 -0.0838
              Bcc     0.0000     0.000     0.000     0.000  0.0354  0.0945  0.9949
 
              Baa    -0.0000    -0.000    -0.000    -0.000  0.3470  0.3444  0.8723
    59 C(13)  Bbb    -0.0000    -0.000    -0.000    -0.000  0.8932  0.1623 -0.4194
              Bcc     0.0000     0.000     0.000     0.000 -0.2860  0.9247 -0.2513
 
              Baa    -0.0000    -0.000    -0.000    -0.000  0.9461  0.3228 -0.0251
    60 N(14)  Bbb     0.0000     0.000     0.000     0.000 -0.0954  0.3521  0.9311
              Bcc     0.0000     0.000     0.000     0.000 -0.3094  0.8785 -0.3639
 
              Baa    -0.0000    -0.000    -0.000    -0.000  0.9917  0.1289  0.0022
    61 C(13)  Bbb     0.0000     0.000     0.000     0.000 -0.1137  0.8661  0.4867
              Bcc     0.0000     0.000     0.000     0.000  0.0608 -0.4829  0.8736
 
              Baa    -0.0000    -0.000    -0.000    -0.000 -0.1961  0.2135  0.9571
    62 C(13)  Bbb    -0.0000    -0.000    -0.000    -0.000  0.9334 -0.2584  0.2489
              Bcc     0.0000     0.000     0.000     0.000  0.3004  0.9422 -0.1486
 
              Baa    -0.0000    -0.000    -0.000    -0.000  0.6088  0.7837 -0.1232
    63 N(14)  Bbb     0.0000     0.000     0.000     0.000  0.7933 -0.5992  0.1078
              Bcc     0.0000     0.000     0.000     0.000 -0.0107  0.1634  0.9865
 
              Baa    -0.0000    -0.000    -0.000    -0.000  0.4308  0.8674 -0.2492
    64 C(13)  Bbb     0.0000     0.000     0.000     0.000  0.0223  0.2658  0.9638
              Bcc     0.0000     0.000     0.000     0.000  0.9022 -0.4207  0.0952
 
              Baa    -0.0000    -0.000    -0.000    -0.000  0.9996  0.0208  0.0205
    65 C(13)  Bbb     0.0000     0.000     0.000     0.000 -0.0053  0.8191 -0.5736
              Bcc     0.0000     0.000     0.000     0.000 -0.0287  0.5733  0.8188
 
              Baa    -0.0000    -0.000    -0.000    -0.000 -0.5740 -0.5787  0.5794
    66 S(33)  Bbb    -0.0000    -0.000    -0.000    -0.000  0.2561  0.5452  0.7983
              Bcc     0.0000     0.000     0.000     0.000  0.7778 -0.6065  0.1647
 
              Baa    -0.0000    -0.000    -0.000    -0.000 -0.0752 -0.3547  0.9320
    67 C(13)  Bbb    -0.0000    -0.000    -0.000    -0.000 -0.2895  0.9021  0.3199
              Bcc     0.0000     0.000     0.000     0.000  0.9542  0.2457  0.1706
 
              Baa    -0.0000    -0.000    -0.000    -0.000  0.1570  0.9587  0.2370
    68 C(13)  Bbb    -0.0000    -0.000    -0.000    -0.000  0.9819 -0.1772  0.0662
              Bcc     0.0000     0.000     0.000     0.000 -0.1055 -0.2224  0.9692
 
              Baa    -0.0000    -0.000    -0.000    -0.000 -0.0751 -0.0834  0.9937
    69 N(14)  Bbb    -0.0000    -0.000    -0.000    -0.000 -0.6076  0.7940  0.0207
              Bcc     0.0000     0.000     0.000     0.000  0.7907  0.6022  0.1103
 
              Baa    -0.0000    -0.000    -0.000    -0.000  0.9939 -0.0253  0.1074
    70 C(13)  Bbb     0.0000     0.000     0.000     0.000 -0.1088 -0.0606  0.9922
              Bcc     0.0000     0.000     0.000     0.000  0.0186  0.9978  0.0630
 
              Baa    -0.0000    -0.000    -0.000    -0.000  0.1854  0.2724  0.9442
    71 N(14)  Bbb    -0.0000    -0.000    -0.000    -0.000  0.4621  0.8238 -0.3284
              Bcc     0.0000     0.000     0.000     0.000  0.8672 -0.4972 -0.0268
 
              Baa    -0.0000    -0.000    -0.000    -0.000 -0.3971  0.9068  0.1417
    72 C(13)  Bbb     0.0000     0.000     0.000     0.000 -0.0651 -0.1819  0.9812
              Bcc     0.0000     0.000     0.000     0.000  0.9154  0.3804  0.1312
 
              Baa    -0.0000    -0.000    -0.000    -0.000  0.9881 -0.1490  0.0371
    73 C(13)  Bbb     0.0000     0.000     0.000     0.000  0.1104  0.8575  0.5025
              Bcc     0.0000     0.000     0.000     0.000 -0.1067 -0.4924  0.8638
 
              Baa    -0.0000    -0.000    -0.000    -0.000  0.7779  0.6245  0.0694
    74 N(14)  Bbb    -0.0000    -0.000    -0.000    -0.000  0.0054 -0.1172  0.9931
              Bcc     0.0000     0.000     0.000     0.000 -0.6283  0.7722  0.0945
 
              Baa    -0.0000    -0.000    -0.000    -0.000  0.3942  0.8821  0.2581
    75 C(13)  Bbb    -0.0000    -0.000    -0.000    -0.000 -0.3183 -0.1324  0.9387
              Bcc     0.0000     0.000     0.000     0.000  0.8622 -0.4522  0.2285
 
              Baa    -0.0000    -0.000    -0.000    -0.000  0.0278  0.9871  0.1578
    76 C(13)  Bbb    -0.0000    -0.000    -0.000    -0.000 -0.1389 -0.1525  0.9785
              Bcc     0.0000     0.000     0.000     0.000  0.9899 -0.0491  0.1329
 
              Baa    -0.0000    -0.000    -0.000    -0.000  0.5704  0.7956  0.2043
    77 S(33)  Bbb     0.0000     0.000     0.000     0.000  0.8179 -0.5730 -0.0521
              Bcc     0.0000     0.000     0.000     0.000 -0.0757 -0.1968  0.9775
 
              Baa    -0.0000    -0.000    -0.000    -0.000  0.8688  0.3740  0.3244
    78 H(1)   Bbb     0.0000     0.000     0.000     0.000 -0.1349 -0.4517  0.8819
              Bcc     0.0000     0.000     0.000     0.000 -0.4764  0.8100  0.3421
 
              Baa    -0.0000    -0.000    -0.000    -0.000  0.7947 -0.4108 -0.4469
    79 H(1)   Bbb    -0.0000    -0.000    -0.000    -0.000  0.5328  0.1193  0.8378
              Bcc     0.0000     0.000     0.000     0.000  0.2909  0.9039 -0.3137
 
              Baa    -0.0000    -0.000    -0.000    -0.000 -0.0981  0.8763 -0.4716
    80 H(1)   Bbb     0.0000     0.000     0.000     0.000 -0.6038  0.3243  0.7282
              Bcc     0.0000     0.000     0.000     0.000  0.7911  0.3562  0.4973
 
              Baa    -0.0000    -0.000    -0.000    -0.000  0.7024 -0.2014  0.6826
    81 H(1)   Bbb     0.0000     0.000     0.000     0.000 -0.3794  0.7056  0.5985
              Bcc     0.0000     0.000     0.000     0.000  0.6022  0.6794 -0.4192
 
              Baa    -0.0000    -0.000    -0.000    -0.000  0.8471  0.4518  0.2799
    82 H(1)   Bbb    -0.0000    -0.000    -0.000    -0.000 -0.1729  0.7323 -0.6587
              Bcc     0.0000     0.000     0.000     0.000 -0.5026  0.5096  0.6984
 
              Baa    -0.0000    -0.000    -0.000    -0.000 -0.0492  0.8978 -0.4377
    83 H(1)   Bbb     0.0000     0.000     0.000     0.000  0.2457  0.4357  0.8659
              Bcc     0.0000     0.000     0.000     0.000  0.9681 -0.0649 -0.2420
 
              Baa    -0.0000    -0.000    -0.000    -0.000 -0.0693  0.8647 -0.4975
    84 H(1)   Bbb    -0.0000    -0.000    -0.000    -0.000 -0.2627  0.4653  0.8453
              Bcc     0.0000     0.000     0.000     0.000  0.9624  0.1893  0.1949
 
              Baa    -0.0000    -0.000    -0.000    -0.000  0.8895 -0.2884 -0.3545
    85 H(1)   Bbb     0.0000     0.000     0.000     0.000  0.4073  0.8520  0.3289
              Bcc     0.0000     0.000     0.000     0.000  0.2072 -0.4369  0.8753
 
              Baa    -0.0000    -0.000    -0.000    -0.000 -0.0937  0.1652  0.9818
    86 H(1)   Bbb    -0.0000    -0.000    -0.000    -0.000 -0.4628  0.8659 -0.1899
              Bcc     0.0000     0.000     0.000     0.000  0.8815  0.4721  0.0047
 
              Baa    -0.0000    -0.000    -0.000    -0.000  0.0419 -0.1628  0.9858
    87 H(1)   Bbb    -0.0000    -0.000    -0.000    -0.000  0.9653 -0.2478 -0.0820
              Bcc     0.0000     0.000     0.000     0.000  0.2577  0.9550  0.1467
 
              Baa    -0.0000    -0.000    -0.000    -0.000  0.0683  0.9410 -0.3314
    88 H(1)   Bbb     0.0000     0.000     0.000     0.000  0.9972 -0.0741 -0.0049
              Bcc     0.0000     0.000     0.000     0.000  0.0291  0.3301  0.9435
 
              Baa    -0.0000    -0.000    -0.000    -0.000 -0.2728  0.8906 -0.3639
    89 H(1)   Bbb    -0.0000    -0.000    -0.000    -0.000 -0.0750  0.3575  0.9309
              Bcc     0.0000     0.000     0.000     0.000  0.9591  0.2813 -0.0308
 
              Baa    -0.0000    -0.000    -0.000    -0.000  0.4382  0.6530  0.6177
    90 H(1)   Bbb     0.0000     0.000     0.000     0.000  0.8714 -0.1398 -0.4703
              Bcc     0.0000     0.000     0.000     0.000 -0.2208  0.7443 -0.6303
 
              Baa    -0.0000    -0.000    -0.000    -0.000  0.4164 -0.5395  0.7318
    91 H(1)   Bbb    -0.0000    -0.000    -0.000    -0.000 -0.5233  0.5160  0.6782
              Bcc     0.0000     0.000     0.000     0.000  0.7435  0.6653  0.0675
 
              Baa    -0.0000    -0.000    -0.000    -0.000  0.2213 -0.1548  0.9628
    92 H(1)   Bbb    -0.0000    -0.000    -0.000    -0.000  0.9744 -0.0054 -0.2249
              Bcc     0.0000     0.000     0.000     0.000  0.0400  0.9879  0.1497
 
              Baa    -0.0000    -0.000    -0.000    -0.000  0.7980 -0.5621 -0.2172
    93 H(1)   Bbb     0.0000     0.000     0.000     0.000  0.5962  0.6838  0.4207
              Bcc     0.0000     0.000     0.000     0.000 -0.0880 -0.4652  0.8808
 
              Baa    -0.0000    -0.000    -0.000    -0.000  0.5784  0.7719 -0.2639
    94 H(1)   Bbb    -0.0000    -0.000    -0.000    -0.000  0.0120  0.3155  0.9489
              Bcc     0.0000     0.000     0.000     0.000  0.8157 -0.5519  0.1732
 
              Baa    -0.0000    -0.000    -0.000    -0.000 -0.4630  0.8165 -0.3449
    95 H(1)   Bbb    -0.0000    -0.000    -0.000    -0.000  0.8864  0.4268 -0.1795
              Bcc     0.0000     0.000     0.000     0.000 -0.0006  0.3888  0.9213
 
              Baa    -0.0000    -0.000    -0.000    -0.000  0.5394  0.8059 -0.2441
    96 H(1)   Bbb    -0.0000    -0.000    -0.000    -0.000 -0.0820  0.3388  0.9373
              Bcc     0.0000     0.000     0.000     0.000  0.8380 -0.4856  0.2489
 
              Baa    -0.0000    -0.000    -0.000    -0.000  0.5385  0.8153  0.2128
    97 H(1)   Bbb     0.0000     0.000     0.000     0.000  0.8380 -0.5447 -0.0335
              Bcc     0.0000     0.000     0.000     0.000 -0.0886 -0.1964  0.9765
 
              Baa    -0.0000    -0.000    -0.000    -0.000 -0.5360  0.8335  0.1344
    98 H(1)   Bbb    -0.0000    -0.000    -0.000    -0.000  0.8325  0.4953  0.2484
              Bcc     0.0000     0.000     0.000     0.000 -0.1405 -0.2451  0.9593
 
              Baa    -0.0000    -0.000    -0.000    -0.000  0.6262  0.7674  0.1377
    99 H(1)   Bbb    -0.0000    -0.000    -0.000    -0.000  0.0821 -0.2406  0.9672
              Bcc     0.0000     0.000     0.000     0.000  0.7753 -0.5943 -0.2136
 
              Baa    -0.0000    -0.000    -0.000    -0.000  0.9156  0.3530  0.1926
   100 H(1)   Bbb     0.0000     0.000     0.000     0.000 -0.1626 -0.1130  0.9802
              Bcc     0.0000     0.000     0.000     0.000 -0.3678  0.9288  0.0461
 

 ---------------------------------------------------------------------------------

 No NMR shielding tensors so no spin-rotation constants.
 Leave Link  601 at Fri Jul 24 04:00:32 2020, MaxMem=  4026531840 cpu:              15.0 elap:               2.0
 (Enter /opt/ohpc/pub/libs/gaussian/g16-A.03/sandybridge/g16/l9999.exe)

 Test job not archived.
 1\1\GINC-SKYLAKE038\FOpt\ULC-wPBE\CC-pVDZ\C49H23N21S7\RDU230\24-Jul-20
 20\0\\#P uLC-wPBE/cc-pVDZ iop(3/107=0096100000, 3/108=0096100000) opt\
 \H23 C49 S7 N21\\0,1\C,26.3469491533,1.4265402261,0.8453769668\C,25.75
 89311069,2.2731902885,-0.1050293393\N,24.459180637,2.2096020079,-0.437
 8435847\C,23.746754471,1.2640208218,0.2102586091\N,24.1984881644,0.392
 1659465,1.1419444428\C,25.5010560143,0.4864163522,1.4492841502\C,22.31
 2560903,1.1444428494,-0.1107952565\N,21.6455690138,1.8729700768,-0.982
 6165306\C,20.3371656206,1.4909549316,-1.0207248303\C,19.9584884623,0.4
 511577951,-0.172439904\S,21.3585810057,-0.0772497103,0.7346994912\C,18
 .6377055169,-0.1528813539,-0.018747838\C,18.4361138534,-1.4645767429,0
 .4724424693\N,17.2330407036,-2.0312442335,0.6094806375\C,16.1837007969
 ,-1.2699651304,0.2325266384\N,16.2356794982,-0.004308872,-0.246255879\
 C,17.4506913166,0.539209761,-0.3569393012\C,14.8347481981,-1.845299774
 2,0.3459073754\N,14.5368090024,-3.0526663312,0.7828017548\C,13.1889593
 201,-3.2526671149,0.7492545707\C,12.4053754645,-2.1979663863,0.2815690
 531\S,13.4519518532,-0.861619202,-0.1447208053\C,10.9521484023,-2.1425
 597801,0.1500009355\C,10.160678663,-3.3109888219,0.0326730266\N,8.8274
 574876,-3.2969675039,-0.0626379674\C,8.2534028029,-2.0743136368,-0.063
 2637005\N,8.8918631354,-0.8835113487,0.0186658791\C,10.2219829255,-0.9
 315887235,0.1304601304\C,6.788143345,-1.9980733943,-0.1657613893\N,5.9
 599804444,-3.0191237853,-0.263014605\C,4.6712582661,-2.5815532158,-0.3
 362222678\C,4.4690830733,-1.2021422752,-0.2961538515\S,6.021486603,-0.
 4068707362,-0.155946404\C,3.2061659223,-0.4722272675,-0.3635602902\C,1
 .9730806801,-1.0686570842,-0.0081832022\N,0.805158923,-0.4257449196,-0
 .0872816165\C,0.8526750781,0.8592864687,-0.5122333459\N,1.9587807742,1
 .5509161467,-0.8604143863\C,3.1095187289,0.8746209483,-0.7870012891\C,
 -0.4453346959,1.5469171188,-0.5853728852\N,-0.6478610965,2.7887980265,
 -0.9780476849\C,-1.9742191381,3.0970725785,-0.9192995247\C,-2.83669865
 62,2.0947276898,-0.4757881531\S,-1.8988516771,0.6637113083,-0.10801855
 52\C,-4.2879897107,2.1541677044,-0.325685727\C,-4.979110009,3.37898365
 52,-0.1597430548\N,-6.307718728,3.4711919134,-0.0462893259\C,-6.980842
 4254,2.3003868601,-0.0769951111\N,-6.4434133395,1.0645811458,-0.206060
 9897\C,-5.1152557413,1.0072442081,-0.3348577031\C,-8.4459856899,2.3416
 214189,0.0430445349\N,-9.1854718643,3.4238669928,0.1837294753\C,-10.50
 52171778,3.0921399977,0.260833974\C,-10.821758138,1.7361780042,0.18015
 92462\S,-9.3424795386,0.8204353321,-0.0065364625\C,-12.1402880862,1.11
 14530832,0.2414997121\C,-12.3449915017,-0.2338437706,0.6296996334\N,-1
 3.5471172416,-0.8142643531,0.697646319\C,-14.5955058885,-0.0241075891,
 0.3803668196\N,-14.53908874,1.2717962743,-0.0098476128\C,-13.322512539
 8,1.8174291042,-0.0844543016\C,-15.9451309187,-0.6034179991,0.44981637
 66\N,-16.2458064043,-1.8348825061,0.8117387284\C,-17.5938731158,-2.030
 3857042,0.7613795352\C,-18.3749982797,-0.9485749887,0.3555031765\S,-17
 .3256080253,0.4090722438,0.0139841069\C,-19.8279766708,-0.8829527725,0
 .2208838841\C,-20.5608218228,0.3250820619,0.2895023281\N,-21.890670220
 4,0.3967162132,0.1764362072\C,-22.5275298573,-0.7818348146,0.000391043
 8\N,-21.9478852903,-2.0033817009,-0.087489921\C,-20.6167831289,-2.0387
 735284,0.0127507351\C,-23.9939094989,-0.7659458006,-0.1156589868\N,-24
 .7654804037,0.2997202044,-0.0549629921\C,-26.0803202822,-0.0547559716,
 -0.2001089544\C,-26.3312459887,-1.4037943482,-0.3745078832\S,-24.84962
 75071,-2.2954995117,-0.3591253293\H,27.412226498,1.4957413138,1.102799
 5151\H,26.354417539,3.0411716603,-0.6272305383\H,25.8765666381,-0.2202
 299046,2.2080878455\H,19.657235791,1.9914520459,-1.7234379481\H,19.301
 5600337,-2.0864958018,0.7617783462\H,17.4891563568,1.5806810631,-0.717
 1621488\H,12.7836373627,-4.2079308751,1.1093018376\H,10.6369316716,-4.
 3054890143,0.000231056\H,10.7427602936,0.0378420164,0.216451135\H,3.86
 48394355,-3.3189766394,-0.4478881322\H,1.9361225878,-2.1042492376,0.36
 87887172\H,4.0172450605,1.4268787446,-1.0879983621\H,-2.3036893183,4.0
 939407377,-1.2419985672\H,-4.4221649198,4.3294710878,-0.1018956378\H,-
 4.6771176279,0.0017512828,-0.4593482725\H,-11.2465351534,3.8894628143,
 0.4066803231\H,-11.4835664958,-0.8673807785,0.9059231618\H,-13.2763402
 609,2.8624452119,-0.4335443505\H,-18.0020888482,-3.0048477587,1.061895
 2282\H,-20.0349745022,1.282637585,0.4527336325\H,-20.1451226016,-3.030
 3026381,-0.091589063\H,-26.853357285,0.7245968198,-0.1722990818\H,-27.
 2961195477,-1.9051737916,-0.5086369205\\Version=EM64L-G16RevA.03\State
 =1-A\HF=-5814.4823208\S2=0.\S2-1=0.\S2A=0.\RMSD=7.100e-09\RMSF=2.460e-
 06\Dipole=4.3938219,-0.1972816,0.217851\Quadrupole=103.6374956,-54.761
 8292,-48.8756665,29.7984015,24.9074794,2.2301677\PG=C01 [X(C49H23N21S7
 )]\\@


 TO ERR IS HUMAN - AND TO BLAME IT ON A COMPUTER IS EVEN MORE SO.
 Job cpu time:       1 days  9 hours 53 minutes 57.6 seconds.
 Elapsed time:       0 days  4 hours 19 minutes 34.1 seconds.
 File lengths (MBytes):  RWF=   1680 Int=      0 D2E=      0 Chk=    152 Scr=      8
 Normal termination of Gaussian 16 at Fri Jul 24 04:00:32 2020.
