 Entering Gaussian System, Link 0=g16
 Input=mols_65_1_06_c-n-CF_opt_0.gjf
 Output=mols_65_1_06_c-n-CF_opt_0.log
 Initial command:
 /opt/ohpc/pub/libs/gaussian/g16-A.03/sandybridge/g16/l1.exe "/mnt/gpfs2_4m/scratch/rdu230/ondemand/projects/dihedral_energies/7trial/wtuning/mols_65_1_06_c-n-CF/Gau-359923.inp" -scrdir="/mnt/gpfs2_4m/scratch/rdu230/ondemand/projects/dihedral_energies/7trial/wtuning/mols_65_1_06_c-n-CF/"
 Entering Link 1 = /opt/ohpc/pub/libs/gaussian/g16-A.03/sandybridge/g16/l1.exe PID=    359926.
  
 Copyright (c) 1988,1990,1992,1993,1995,1998,2003,2009,2016,
            Gaussian, Inc.  All Rights Reserved.
  
 This is part of the Gaussian(R) 16 program.  It is based on
 the Gaussian(R) 09 system (copyright 2009, Gaussian, Inc.),
 the Gaussian(R) 03 system (copyright 2003, Gaussian, Inc.),
 the Gaussian(R) 98 system (copyright 1998, Gaussian, Inc.),
 the Gaussian(R) 94 system (copyright 1995, Gaussian, Inc.),
 the Gaussian 92(TM) system (copyright 1992, Gaussian, Inc.),
 the Gaussian 90(TM) system (copyright 1990, Gaussian, Inc.),
 the Gaussian 88(TM) system (copyright 1988, Gaussian, Inc.),
 the Gaussian 86(TM) system (copyright 1986, Carnegie Mellon
 University), and the Gaussian 82(TM) system (copyright 1983,
 Carnegie Mellon University). Gaussian is a federally registered
 trademark of Gaussian, Inc.
  
 This software contains proprietary and confidential information,
 including trade secrets, belonging to Gaussian, Inc.
  
 This software is provided under written license and may be
 used, copied, transmitted, or stored only in accord with that
 written license.
  
 The following legend is applicable only to US Government
 contracts under FAR:
  
                    RESTRICTED RIGHTS LEGEND
  
 Use, reproduction and disclosure by the US Government is
 subject to restrictions as set forth in subparagraphs (a)
 and (c) of the Commercial Computer Software - Restricted
 Rights clause in FAR 52.227-19.
  
 Gaussian, Inc.
 340 Quinnipiac St., Bldg. 40, Wallingford CT 06492
  
  
 ---------------------------------------------------------------
 Warning -- This program may not be used in any manner that
 competes with the business of Gaussian, Inc. or will provide
 assistance to any competitor of Gaussian, Inc.  The licensee
 of this program is prohibited from giving any competitor of
 Gaussian, Inc. access to this program.  By using this program,
 the user acknowledges that Gaussian, Inc. is engaged in the
 business of creating and licensing software in the field of
 computational chemistry and represents and warrants to the
 licensee that it is not a competitor of Gaussian, Inc. and that
 it will not use this program in any manner prohibited above.
 ---------------------------------------------------------------
  

 Cite this work as:
 Gaussian 16, Revision A.03,
 M. J. Frisch, G. W. Trucks, H. B. Schlegel, G. E. Scuseria, 
 M. A. Robb, J. R. Cheeseman, G. Scalmani, V. Barone, 
 G. A. Petersson, H. Nakatsuji, X. Li, M. Caricato, A. V. Marenich, 
 J. Bloino, B. G. Janesko, R. Gomperts, B. Mennucci, H. P. Hratchian, 
 J. V. Ortiz, A. F. Izmaylov, J. L. Sonnenberg, D. Williams-Young, 
 F. Ding, F. Lipparini, F. Egidi, J. Goings, B. Peng, A. Petrone, 
 T. Henderson, D. Ranasinghe, V. G. Zakrzewski, J. Gao, N. Rega, 
 G. Zheng, W. Liang, M. Hada, M. Ehara, K. Toyota, R. Fukuda, 
 J. Hasegawa, M. Ishida, T. Nakajima, Y. Honda, O. Kitao, H. Nakai, 
 T. Vreven, K. Throssell, J. A. Montgomery, Jr., J. E. Peralta, 
 F. Ogliaro, M. J. Bearpark, J. J. Heyd, E. N. Brothers, K. N. Kudin, 
 V. N. Staroverov, T. A. Keith, R. Kobayashi, J. Normand, 
 K. Raghavachari, A. P. Rendell, J. C. Burant, S. S. Iyengar, 
 J. Tomasi, M. Cossi, J. M. Millam, M. Klene, C. Adamo, R. Cammi, 
 J. W. Ochterski, R. L. Martin, K. Morokuma, O. Farkas, 
 J. B. Foresman, and D. J. Fox, Gaussian, Inc., Wallingford CT, 2016.
 
 ******************************************
 Gaussian 16:  EM64L-G16RevA.03 25-Dec-2016
                24-Jul-2020 
 ******************************************
 %mem=30GB
 %nproc=8
 Will use up to    8 processors via shared memory.
 ---------------------------------------------------------------
 #P uLC-wPBE/cc-pVDZ iop(3/107=0466300000, 3/108=0466300000) opt
 ---------------------------------------------------------------
 1/18=20,19=15,26=3,38=1/1,3;
 2/9=110,12=2,17=6,18=5,40=1/2;
 3/5=16,11=2,25=1,30=1,71=1,74=-41,107=466300000,108=466300000,116=2/1,2,3;
 4//1;
 5/5=2,38=5/2;
 6/7=2,8=2,9=2,10=2,28=1/1;
 7//1,2,3,16;
 1/18=20,19=15,26=3/3(2);
 2/9=110/2;
 99//99;
 2/9=110/2;
 3/5=16,11=2,25=1,30=1,71=1,74=-41,107=466300000,108=466300000,116=2/1,2,3;
 4/5=5,16=3,69=1/1;
 5/5=2,38=5/2;
 7//1,2,3,16;
 1/18=20,19=15,26=3/3(-5);
 2/9=110/2;
 6/7=2,8=2,9=2,10=2,19=2,28=1/1;
 99/9=1/99;
 Leave Link    1 at Fri Jul 24 14:40:47 2020, MaxMem=  4026531840 cpu:               1.9 elap:               0.3
 (Enter /opt/ohpc/pub/libs/gaussian/g16-A.03/sandybridge/g16/l101.exe)
 --------------
 H6 C9 S1 N1 F1
 --------------
 Symbolic Z-matrix:
 Charge =  0 Multiplicity = 1
 C                     3.52752   0.01789   0.0321 
 C                     2.97541  -1.21458   0.04287 
 C                     1.52345  -1.26723  -0.02543 
 C                     0.79085  -0.15992  -0.01681 
 N                     1.37673   1.1113    0.03793 
 C                     2.74869   1.19084  -0.02199 
 C                    -0.67651  -0.08367   0.04583 
 C                    -1.49954   0.98215  -0.01549 
 F                    -1.06974   2.33662  -0.03548 
 C                    -2.91066   0.75403  -0.02697 
 C                    -3.12194  -0.61073  -0.03042 
 S                    -1.6041   -1.49045  -0.04419 
 H                     4.65603   0.07962  -0.0284 
 H                     3.52155  -2.08844  -0.02127 
 H                     1.05943  -2.2572    0.03896 
 H                     3.17766   2.18726   0.0275 
 H                    -3.65536   1.41619   0.01725 
 H                    -4.06215  -1.17545  -0.04136 
 
 ITRead=  0  0  0  0  0  0  0  0  0  0  0  0  0  0  0  0  0  0
 MicOpt= -1 -1 -1 -1 -1 -1 -1 -1 -1 -1 -1 -1 -1 -1 -1 -1 -1 -1
 NAtoms=     18 NQM=       18 NQMF=       0 NMMI=      0 NMMIF=      0
                NMic=       0 NMicF=      0.
                    Isotopes and Nuclear Properties:
 (Nuclear quadrupole moments (NQMom) in fm**2, nuclear magnetic moments (NMagM)
  in nuclear magnetons)

  Atom         1           2           3           4           5           6           7           8           9          10
 IAtWgt=          12          12          12          12          14          12          12          12          19          12
 AtmWgt=  12.0000000  12.0000000  12.0000000  12.0000000  14.0030740  12.0000000  12.0000000  12.0000000  18.9984033  12.0000000
 NucSpn=           0           0           0           0           2           0           0           0           1           0
 AtZEff=  -0.0000000  -0.0000000  -0.0000000  -0.0000000  -0.0000000  -0.0000000  -0.0000000  -0.0000000  -0.0000000  -0.0000000
 NQMom=    0.0000000   0.0000000   0.0000000   0.0000000   2.0440000   0.0000000   0.0000000   0.0000000   0.0000000   0.0000000
 NMagM=    0.0000000   0.0000000   0.0000000   0.0000000   0.4037610   0.0000000   0.0000000   0.0000000   2.6288670   0.0000000
 AtZNuc=   6.0000000   6.0000000   6.0000000   6.0000000   7.0000000   6.0000000   6.0000000   6.0000000   9.0000000   6.0000000

  Atom        11          12          13          14          15          16          17          18
 IAtWgt=          12          32           1           1           1           1           1           1
 AtmWgt=  12.0000000  31.9720718   1.0078250   1.0078250   1.0078250   1.0078250   1.0078250   1.0078250
 NucSpn=           0           0           1           1           1           1           1           1
 AtZEff=  -0.0000000  -0.0000000  -0.0000000  -0.0000000  -0.0000000  -0.0000000  -0.0000000  -0.0000000
 NQMom=    0.0000000   0.0000000   0.0000000   0.0000000   0.0000000   0.0000000   0.0000000   0.0000000
 NMagM=    0.0000000   0.0000000   2.7928460   2.7928460   2.7928460   2.7928460   2.7928460   2.7928460
 AtZNuc=   6.0000000  16.0000000   1.0000000   1.0000000   1.0000000   1.0000000   1.0000000   1.0000000
 Leave Link  101 at Fri Jul 24 14:40:47 2020, MaxMem=  4026531840 cpu:               3.2 elap:               0.4
 (Enter /opt/ohpc/pub/libs/gaussian/g16-A.03/sandybridge/g16/l103.exe)

 GradGradGradGradGradGradGradGradGradGradGradGradGradGradGradGradGradGrad
 Berny optimization.
 Initialization pass.
                           ----------------------------
                           !    Initial Parameters    !
                           ! (Angstroms and Degrees)  !
 --------------------------                            --------------------------
 ! Name  Definition              Value          Derivative Info.                !
 --------------------------------------------------------------------------------
 ! R1    R(1,2)                  1.3505         estimate D2E/DX2                !
 ! R2    R(1,6)                  1.409          estimate D2E/DX2                !
 ! R3    R(1,13)                 1.1318         estimate D2E/DX2                !
 ! R4    R(2,3)                  1.4545         estimate D2E/DX2                !
 ! R5    R(2,14)                 1.0325         estimate D2E/DX2                !
 ! R6    R(3,4)                  1.3277         estimate D2E/DX2                !
 ! R7    R(3,15)                 1.0952         estimate D2E/DX2                !
 ! R8    R(4,5)                  1.4008         estimate D2E/DX2                !
 ! R9    R(4,7)                  1.4707         estimate D2E/DX2                !
 ! R10   R(5,6)                  1.3756         estimate D2E/DX2                !
 ! R11   R(6,16)                 1.086          estimate D2E/DX2                !
 ! R12   R(7,8)                  1.348          estimate D2E/DX2                !
 ! R13   R(7,12)                 1.6875         estimate D2E/DX2                !
 ! R14   R(8,9)                  1.4212         estimate D2E/DX2                !
 ! R15   R(8,10)                 1.4295         estimate D2E/DX2                !
 ! R16   R(10,11)                1.381          estimate D2E/DX2                !
 ! R17   R(10,17)                0.9975         estimate D2E/DX2                !
 ! R18   R(11,12)                1.7544         estimate D2E/DX2                !
 ! R19   R(11,18)                1.0968         estimate D2E/DX2                !
 ! A1    A(2,1,6)              122.2779         estimate D2E/DX2                !
 ! A2    A(2,1,13)             117.2466         estimate D2E/DX2                !
 ! A3    A(6,1,13)             120.2436         estimate D2E/DX2                !
 ! A4    A(1,2,3)              116.1518         estimate D2E/DX2                !
 ! A5    A(1,2,14)             123.7549         estimate D2E/DX2                !
 ! A6    A(3,2,14)             119.6354         estimate D2E/DX2                !
 ! A7    A(2,3,4)              121.3523         estimate D2E/DX2                !
 ! A8    A(2,3,15)             116.929          estimate D2E/DX2                !
 ! A9    A(4,3,15)             121.3113         estimate D2E/DX2                !
 ! A10   A(3,4,5)              121.7564         estimate D2E/DX2                !
 ! A11   A(3,4,7)              126.4439         estimate D2E/DX2                !
 ! A12   A(5,4,7)              111.6286         estimate D2E/DX2                !
 ! A13   A(4,5,6)              117.8994         estimate D2E/DX2                !
 ! A14   A(1,6,5)              120.0989         estimate D2E/DX2                !
 ! A15   A(1,6,16)             122.9379         estimate D2E/DX2                !
 ! A16   A(5,6,16)             116.4262         estimate D2E/DX2                !
 ! A17   A(4,7,8)              130.409          estimate D2E/DX2                !
 ! A18   A(4,7,12)             120.1956         estimate D2E/DX2                !
 ! A19   A(8,7,12)             108.7298         estimate D2E/DX2                !
 ! A20   A(7,8,9)              124.7187         estimate D2E/DX2                !
 ! A21   A(7,8,10)             118.4833         estimate D2E/DX2                !
 ! A22   A(9,8,10)             116.7771         estimate D2E/DX2                !
 ! A23   A(8,10,11)            107.9833         estimate D2E/DX2                !
 ! A24   A(8,10,17)            129.1007         estimate D2E/DX2                !
 ! A25   A(11,10,17)           122.8139         estimate D2E/DX2                !
 ! A26   A(10,11,12)           111.2966         estimate D2E/DX2                !
 ! A27   A(10,11,18)           129.7892         estimate D2E/DX2                !
 ! A28   A(12,11,18)           118.9062         estimate D2E/DX2                !
 ! A29   A(7,12,11)             93.2746         estimate D2E/DX2                !
 ! D1    D(6,1,2,3)              0.9099         estimate D2E/DX2                !
 ! D2    D(6,1,2,14)           173.0949         estimate D2E/DX2                !
 ! D3    D(13,1,2,3)          -173.5651         estimate D2E/DX2                !
 ! D4    D(13,1,2,14)           -1.3802         estimate D2E/DX2                !
 ! D5    D(2,1,6,5)              5.0155         estimate D2E/DX2                !
 ! D6    D(2,1,6,16)           176.3057         estimate D2E/DX2                !
 ! D7    D(13,1,6,5)           179.3292         estimate D2E/DX2                !
 ! D8    D(13,1,6,16)           -9.3806         estimate D2E/DX2                !
 ! D9    D(1,2,3,4)             -3.9101         estimate D2E/DX2                !
 ! D10   D(1,2,3,15)          -176.6748         estimate D2E/DX2                !
 ! D11   D(14,2,3,4)          -176.4365         estimate D2E/DX2                !
 ! D12   D(14,2,3,15)           10.7987         estimate D2E/DX2                !
 ! D13   D(2,3,4,5)              0.9759         estimate D2E/DX2                !
 ! D14   D(2,3,4,7)           -173.8608         estimate D2E/DX2                !
 ! D15   D(15,3,4,5)           173.4237         estimate D2E/DX2                !
 ! D16   D(15,3,4,7)            -1.413          estimate D2E/DX2                !
 ! D17   D(3,4,5,6)              4.9642         estimate D2E/DX2                !
 ! D18   D(7,4,5,6)           -179.5024         estimate D2E/DX2                !
 ! D19   D(3,4,7,8)           -175.8265         estimate D2E/DX2                !
 ! D20   D(3,4,7,12)            -6.308          estimate D2E/DX2                !
 ! D21   D(5,4,7,8)              8.8952         estimate D2E/DX2                !
 ! D22   D(5,4,7,12)           178.4138         estimate D2E/DX2                !
 ! D23   D(4,5,6,1)             -7.8567         estimate D2E/DX2                !
 ! D24   D(4,5,6,16)          -179.6978         estimate D2E/DX2                !
 ! D25   D(4,7,8,9)             -6.2646         estimate D2E/DX2                !
 ! D26   D(4,7,8,10)           175.4541         estimate D2E/DX2                !
 ! D27   D(12,7,8,9)          -176.7078         estimate D2E/DX2                !
 ! D28   D(12,7,8,10)            5.011          estimate D2E/DX2                !
 ! D29   D(4,7,12,11)         -176.0127         estimate D2E/DX2                !
 ! D30   D(8,7,12,11)           -4.4232         estimate D2E/DX2                !
 ! D31   D(7,8,10,11)           -2.7182         estimate D2E/DX2                !
 ! D32   D(7,8,10,17)          173.6335         estimate D2E/DX2                !
 ! D33   D(9,8,10,11)          178.8642         estimate D2E/DX2                !
 ! D34   D(9,8,10,17)           -4.7841         estimate D2E/DX2                !
 ! D35   D(8,10,11,12)          -0.8641         estimate D2E/DX2                !
 ! D36   D(8,10,11,18)        -179.8124         estimate D2E/DX2                !
 ! D37   D(17,10,11,12)       -177.4957         estimate D2E/DX2                !
 ! D38   D(17,10,11,18)          3.556          estimate D2E/DX2                !
 ! D39   D(10,11,12,7)           3.1106         estimate D2E/DX2                !
 ! D40   D(18,11,12,7)        -177.8125         estimate D2E/DX2                !
 --------------------------------------------------------------------------------
 Trust Radius=3.00D-01 FncErr=1.00D-07 GrdErr=1.00D-06 EigMax=2.50D+02 EigMin=1.00D-04
 Number of steps in this run=     98 maximum allowed number of steps=    108.
 GradGradGradGradGradGradGradGradGradGradGradGradGradGradGradGradGradGrad

 Leave Link  103 at Fri Jul 24 14:40:47 2020, MaxMem=  4026531840 cpu:               0.2 elap:               0.0
 (Enter /opt/ohpc/pub/libs/gaussian/g16-A.03/sandybridge/g16/l202.exe)
                          Input orientation:                          
 ---------------------------------------------------------------------
 Center     Atomic      Atomic             Coordinates (Angstroms)
 Number     Number       Type             X           Y           Z
 ---------------------------------------------------------------------
      1          6           0        3.527520    0.017887    0.032101
      2          6           0        2.975406   -1.214583    0.042870
      3          6           0        1.523447   -1.267230   -0.025431
      4          6           0        0.790848   -0.159919   -0.016808
      5          7           0        1.376731    1.111299    0.037926
      6          6           0        2.748690    1.190836   -0.021986
      7          6           0       -0.676509   -0.083666    0.045831
      8          6           0       -1.499538    0.982146   -0.015494
      9          9           0       -1.069737    2.336621   -0.035478
     10          6           0       -2.910664    0.754025   -0.026970
     11          6           0       -3.121936   -0.610733   -0.030418
     12         16           0       -1.604095   -1.490454   -0.044190
     13          1           0        4.656030    0.079621   -0.028399
     14          1           0        3.521547   -2.088441   -0.021273
     15          1           0        1.059432   -2.257201    0.038960
     16          1           0        3.177662    2.187262    0.027497
     17          1           0       -3.655359    1.416189    0.017250
     18          1           0       -4.062154   -1.175451   -0.041360
 ---------------------------------------------------------------------
                    Distance matrix (angstroms):
                    1          2          3          4          5
     1  C    0.000000
     2  C    1.350529   0.000000
     3  C    2.381416   1.454518   0.000000
     4  C    2.742878   2.426555   1.327747   0.000000
     5  N    2.412774   2.822324   2.383892   1.400803   0.000000
     6  C    1.409011   2.416950   2.746511   2.378594   1.375568
     7  C    4.205278   3.823018   2.499142   1.470672   2.375668
     8  C    5.118923   4.985394   3.768054   2.559332   2.879663
     9  F    5.149356   5.383342   4.439870   3.113653   2.737153
    10  C    6.480401   6.206941   4.873070   3.812688   4.302745
    11  C    6.679396   6.127608   4.691545   3.938692   4.817475
    12  S    5.349242   4.588629   3.135554   2.739859   3.957422
    13  H    1.131815   2.122390   3.409852   3.872615   3.438395
    14  H    2.107013   1.032479   2.160280   3.343043   3.852542
    15  H    3.356714   2.181290   1.095216   2.115145   3.383411
    16  H    2.197410   3.407887   3.830502   3.347850   2.097894
    17  H    7.317733   7.133629   5.832889   4.717418   5.041360
    18  H    7.683268   7.038173   5.586378   4.958179   5.900592
                    6          7          8          9         10
     6  C    0.000000
     7  C    3.655262   0.000000
     8  C    4.253356   1.347996   0.000000
     9  F    3.986651   2.453371   1.421172   0.000000
    10  C    5.676189   2.387148   1.429492   2.427693   0.000000
    11  C    6.140845   2.502744   2.273689   3.591440   1.381019
    12  S    5.112391   1.687475   2.474976   3.864210   2.597134
    13  H    2.207439   5.335555   6.221393   6.154552   7.596689
    14  H    3.369119   4.652666   5.885561   6.376619   7.032282
    15  H    3.840087   2.781689   4.128518   5.063803   4.983321
    16  H    1.085970   4.473487   4.830150   4.250491   6.254986
    17  H    6.408133   3.335255   2.199325   2.745071   0.997490
    18  H    7.210221   3.558397   3.350059   4.614027   2.247001
                   11         12         13         14         15
    11  C    0.000000
    12  S    1.754406   0.000000
    13  H    7.808543   6.454034   0.000000
    14  H    6.805848   5.160457   2.446956   0.000000
    15  H    4.494386   2.772939   4.289614   2.468627   0.000000
    16  H    6.893262   6.032904   2.575043   4.289787   4.923442
    17  H    2.096479   3.558094   8.418295   7.986983   5.976916
    18  H    1.096830   2.478162   8.808071   7.638486   5.235196
                   16         17         18
    16  H    0.000000
    17  H    6.876397   0.000000
    18  H    7.982952   2.624027   0.000000
 Stoichiometry    C9H6FNS
 Framework group  C1[X(C9H6FNS)]
 Deg. of freedom    48
 Full point group                 C1      NOp   1
 Largest Abelian subgroup         C1      NOp   1
 Largest concise Abelian subgroup C1      NOp   1
                         Standard orientation:                         
 ---------------------------------------------------------------------
 Center     Atomic      Atomic             Coordinates (Angstroms)
 Number     Number       Type             X           Y           Z
 ---------------------------------------------------------------------
      1          6           0        3.536576    0.016205    0.013388
      2          6           0        2.986909   -1.217277    0.031188
      3          6           0        1.534556   -1.272807   -0.025459
      4          6           0        0.799945   -0.166862   -0.013389
      5          7           0        1.383826    1.105573    0.033960
      6          6           0        2.755112    1.187565   -0.037024
      7          6           0       -0.667011   -0.093239    0.060746
      8          6           0       -1.492526    0.970886    0.003678
      9          9           0       -1.065473    2.326122   -0.022626
     10          6           0       -2.903262    0.740083    0.003906
     11          6           0       -3.111960   -0.625075    0.005065
     12         16           0       -1.592607   -1.501963   -0.018883
     13          1           0        4.664450    0.079934   -0.056211
     14          1           0        3.534183   -2.090241   -0.035419
     15          1           0        1.072950   -2.263509    0.044741
     16          1           0        3.182569    2.184902    0.006911
     17          1           0       -3.648840    1.400936    0.052623
     18          1           0       -4.051160   -1.191586    0.002806
 ---------------------------------------------------------------------
 Rotational constants (GHZ):           1.7607619           0.6024523           0.4489744
 Leave Link  202 at Fri Jul 24 14:40:47 2020, MaxMem=  4026531840 cpu:               0.3 elap:               0.1
 (Enter /opt/ohpc/pub/libs/gaussian/g16-A.03/sandybridge/g16/l301.exe)
 Standard basis: CC-pVDZ (5D, 7F)
 Ernie: Thresh=  0.10000D-02 Tol=  0.10000D-05 Strict=F.
 Ernie:  32 primitive shells out of 322 were deleted.
 There are   214 symmetry adapted cartesian basis functions of A   symmetry.
 There are   202 symmetry adapted basis functions of A   symmetry.
   202 basis functions,   476 primitive gaussians,   214 cartesian basis functions
    46 alpha electrons       46 beta electrons
       nuclear repulsion energy       729.3959692772 Hartrees.
 IExCor=32609 DFT=T Ex+Corr=LC-wPBE ExCW=0 ScaHFX=  1.000000
 ScaDFX=  1.000000  0.000000  1.000000  1.000000 ScalE2=  1.000000  1.000000
 IRadAn=      5 IRanWt=     -1 IRanGd=            0 ICorTp=0 IEmpDi=  4
 HFx  wShort=  0.000000 wLong=  0.466300 cFull=  0.000000 cShort=  0.000000 cLong=  1.000000
 DFx  wShort=  0.000000 wLong=  0.466300 cFull=  0.000000 cShort=  0.000000 cLong=  1.000000
 NAtoms=   18 NActive=   18 NUniq=   18 SFac= 1.00D+00 NAtFMM=   60 NAOKFM=F Big=F
 Integral buffers will be    131072 words long.
 Raffenetti 2 integral format.
 Two-electron integral symmetry is turned on.
 Leave Link  301 at Fri Jul 24 14:40:47 2020, MaxMem=  4026531840 cpu:               0.6 elap:               0.1
 (Enter /opt/ohpc/pub/libs/gaussian/g16-A.03/sandybridge/g16/l302.exe)
 NPDir=0 NMtPBC=     1 NCelOv=     1 NCel=       1 NClECP=     1 NCelD=      1
         NCelK=      1 NCelE2=     1 NClLst=     1 CellRange=     0.0.
 One-electron integrals computed using PRISM.
 One-electron integral symmetry used in STVInt
 NBasis=   202 RedAO= T EigKep=  4.72D-04  NBF=   202
 NBsUse=   202 1.00D-06 EigRej= -1.00D+00 NBFU=   202
 Precomputing XC quadrature grid using
 IXCGrd= 4 IRadAn=           5 IRanWt=          -1 IRanGd=           0 AccXCQ= 0.00D+00.
 Generated NRdTot=       0 NPtTot=           0 NUsed=           0 NTot=          32
 NSgBfM=   214   214   214   214   214 MxSgAt=    18 MxSgA2=    18.
 Leave Link  302 at Fri Jul 24 14:40:48 2020, MaxMem=  4026531840 cpu:               2.6 elap:               0.4
 (Enter /opt/ohpc/pub/libs/gaussian/g16-A.03/sandybridge/g16/l303.exe)
 DipDrv:  MaxL=1.
 Leave Link  303 at Fri Jul 24 14:40:48 2020, MaxMem=  4026531840 cpu:               0.8 elap:               0.2
 (Enter /opt/ohpc/pub/libs/gaussian/g16-A.03/sandybridge/g16/l401.exe)
 ExpMin= 1.22D-01 ExpMax= 1.11D+05 ExpMxC= 1.07D+03 IAcc=3 IRadAn=         5 AccDes= 0.00D+00
 Harris functional with IExCor=32609 and IRadAn=       5 diagonalized for initial guess.
 HarFok:  IExCor=32609 AccDes= 0.00D+00 IRadAn=         5 IDoV= 1 UseB2=F ITyADJ=14
 ICtDFT=  3500011 ScaDFX=  1.000000  1.000000  1.000000  1.000000
 FoFCou: FMM=F IPFlag=           0 FMFlag=      100000 FMFlg1=           0
         NFxFlg=           0 DoJE=T BraDBF=F KetDBF=T FulRan=T
         wScrn=  0.000000 ICntrl=       500 IOpCl=  0 I1Cent=   200000004 NGrid=           0
         NMat0=    1 NMatS0=      1 NMatT0=    0 NMatD0=    1 NMtDS0=    0 NMtDT0=    0
 Petite list used in FoFCou.
 Harris En= -898.737007007740    
 JPrj=0 DoOrth=F DoCkMO=F.
 Initial guess <Sx>= 0.0000 <Sy>= 0.0000 <Sz>= 0.0000 <S**2>=-0.0000 S=-0.0000
 Leave Link  401 at Fri Jul 24 14:40:50 2020, MaxMem=  4026531840 cpu:              13.8 elap:               1.8
 (Enter /opt/ohpc/pub/libs/gaussian/g16-A.03/sandybridge/g16/l502.exe)
 Integral symmetry usage will be decided dynamically.
 UHF open shell SCF:
 Using DIIS extrapolation, IDIIS=  1040.
 NGot=  4026531840 LenX=  4026436264 LenY=  4026390027
 Requested convergence on RMS density matrix=1.00D-08 within 128 cycles.
 Requested convergence on MAX density matrix=1.00D-06.
 Requested convergence on             energy=1.00D-06.
 No special actions if energy rises.
 Fock matrices will be formed incrementally for  20 cycles.
 Integral accuracy reduced to 1.0D-05 until final iterations.

 Cycle   1  Pass 0  IDiag  1:
 FoFJK:  IHMeth= 1 ICntrl=       0 DoSepK=T KAlg= 0 I1Cent=           0 FoldK=F
 IRaf=         1 NMat=       1 IRICut=       1 DoRegI=T DoRafI=F ISym2E= 0 IDoP0=0 IntGTp=1.
 FoFCou: FMM=F IPFlag=           0 FMFlag=      100000 FMFlg1=           0
         NFxFlg=           0 DoJE=T BraDBF=F KetDBF=F FulRan=T
         wScrn=  0.000000 ICntrl=       500 IOpCl=  0 I1Cent=           0 NGrid=           0
         NMat0=    1 NMatS0=      1 NMatT0=    0 NMatD0=    1 NMtDS0=    0 NMtDT0=    0
 Symmetry not used in FoFCou.
 E= -898.621617827714    
 DIIS: error= 2.32D-02 at cycle   1 NSaved=   1.
 NSaved= 1 IEnMin= 1 EnMin= -898.621617827714     IErMin= 1 ErrMin= 2.32D-02
 ErrMax= 2.32D-02  0.00D+00 EMaxC= 1.00D-01 BMatC= 8.38D-01 BMatP= 8.38D-01
 IDIUse=3 WtCom= 7.68D-01 WtEn= 2.32D-01
 Coeff-Com:  0.100D+01
 Coeff-En:   0.100D+01
 Coeff:      0.100D+01
 Gap=     0.476 Goal=   None    Shift=    0.000
 Gap=     0.476 Goal=   None    Shift=    0.000
 GapD=    0.476 DampG=2.000 DampE=0.500 DampFc=1.0000 IDamp=-1.
 RMSDP=4.40D-03 MaxDP=1.25D-01              OVMax= 1.75D-01

 Cycle   2  Pass 0  IDiag  1:
 RMSU=  4.36D-03    CP:  9.76D-01
 E= -898.754752715688     Delta-E=       -0.133134887974 Rises=F Damp=F
 DIIS: error= 1.55D-02 at cycle   2 NSaved=   2.
 NSaved= 2 IEnMin= 2 EnMin= -898.754752715688     IErMin= 2 ErrMin= 1.55D-02
 ErrMax= 1.55D-02  0.00D+00 EMaxC= 1.00D-01 BMatC= 4.18D-01 BMatP= 8.38D-01
 IDIUse=3 WtCom= 8.45D-01 WtEn= 1.55D-01
 Coeff-Com:  0.407D+00 0.593D+00
 Coeff-En:   0.233D+00 0.767D+00
 Coeff:      0.380D+00 0.620D+00
 Gap=     0.370 Goal=   None    Shift=    0.000
 Gap=     0.370 Goal=   None    Shift=    0.000
 RMSDP=1.83D-03 MaxDP=7.03D-02 DE=-1.33D-01 OVMax= 1.01D-01

 Cycle   3  Pass 0  IDiag  1:
 RMSU=  1.22D-03    CP:  9.78D-01  6.85D-01
 E= -898.862262389082     Delta-E=       -0.107509673394 Rises=F Damp=F
 DIIS: error= 3.15D-03 at cycle   3 NSaved=   3.
 NSaved= 3 IEnMin= 3 EnMin= -898.862262389082     IErMin= 3 ErrMin= 3.15D-03
 ErrMax= 3.15D-03  0.00D+00 EMaxC= 1.00D-01 BMatC= 9.53D-03 BMatP= 4.18D-01
 IDIUse=3 WtCom= 9.69D-01 WtEn= 3.15D-02
 Coeff-Com:  0.520D-01 0.146D+00 0.802D+00
 Coeff-En:   0.000D+00 0.000D+00 0.100D+01
 Coeff:      0.504D-01 0.141D+00 0.808D+00
 Gap=     0.364 Goal=   None    Shift=    0.000
 Gap=     0.364 Goal=   None    Shift=    0.000
 RMSDP=3.72D-04 MaxDP=1.46D-02 DE=-1.08D-01 OVMax= 3.23D-02

 Cycle   4  Pass 0  IDiag  1:
 RMSU=  3.14D-04    CP:  9.77D-01  7.26D-01  9.25D-01
 E= -898.864999869800     Delta-E=       -0.002737480718 Rises=F Damp=F
 DIIS: error= 1.42D-03 at cycle   4 NSaved=   4.
 NSaved= 4 IEnMin= 4 EnMin= -898.864999869800     IErMin= 4 ErrMin= 1.42D-03
 ErrMax= 1.42D-03  0.00D+00 EMaxC= 1.00D-01 BMatC= 2.30D-03 BMatP= 9.53D-03
 IDIUse=3 WtCom= 9.86D-01 WtEn= 1.42D-02
 Coeff-Com: -0.158D-01-0.506D-02 0.334D+00 0.687D+00
 Coeff-En:   0.000D+00 0.000D+00 0.000D+00 0.100D+01
 Coeff:     -0.155D-01-0.499D-02 0.329D+00 0.692D+00
 Gap=     0.364 Goal=   None    Shift=    0.000
 Gap=     0.364 Goal=   None    Shift=    0.000
 RMSDP=1.46D-04 MaxDP=5.09D-03 DE=-2.74D-03 OVMax= 9.92D-03

 Cycle   5  Pass 0  IDiag  1:
 RMSU=  1.14D-04    CP:  9.77D-01  7.25D-01  9.95D-01  9.01D-01
 E= -898.865732312310     Delta-E=       -0.000732442510 Rises=F Damp=F
 DIIS: error= 4.58D-04 at cycle   5 NSaved=   5.
 NSaved= 5 IEnMin= 5 EnMin= -898.865732312310     IErMin= 5 ErrMin= 4.58D-04
 ErrMax= 4.58D-04  0.00D+00 EMaxC= 1.00D-01 BMatC= 1.89D-04 BMatP= 2.30D-03
 IDIUse=3 WtCom= 9.95D-01 WtEn= 4.58D-03
 Coeff-Com: -0.107D-01-0.238D-01-0.751D-02 0.178D+00 0.864D+00
 Coeff-En:   0.000D+00 0.000D+00 0.000D+00 0.000D+00 0.100D+01
 Coeff:     -0.107D-01-0.236D-01-0.747D-02 0.177D+00 0.865D+00
 Gap=     0.365 Goal=   None    Shift=    0.000
 Gap=     0.365 Goal=   None    Shift=    0.000
 RMSDP=7.02D-05 MaxDP=2.51D-03 DE=-7.32D-04 OVMax= 6.04D-03

 Cycle   6  Pass 0  IDiag  1:
 RMSU=  4.51D-05    CP:  9.77D-01  7.26D-01  1.02D+00  1.03D+00  1.19D+00
 E= -898.865858101899     Delta-E=       -0.000125789589 Rises=F Damp=F
 DIIS: error= 2.00D-04 at cycle   6 NSaved=   6.
 NSaved= 6 IEnMin= 6 EnMin= -898.865858101899     IErMin= 6 ErrMin= 2.00D-04
 ErrMax= 2.00D-04  0.00D+00 EMaxC= 1.00D-01 BMatC= 3.38D-05 BMatP= 1.89D-04
 IDIUse=3 WtCom= 9.98D-01 WtEn= 2.00D-03
 Coeff-Com: -0.889D-03-0.715D-02-0.463D-01-0.606D-01 0.152D+00 0.963D+00
 Coeff-En:   0.000D+00 0.000D+00 0.000D+00 0.000D+00 0.000D+00 0.100D+01
 Coeff:     -0.887D-03-0.713D-02-0.462D-01-0.605D-01 0.151D+00 0.963D+00
 Gap=     0.365 Goal=   None    Shift=    0.000
 Gap=     0.365 Goal=   None    Shift=    0.000
 RMSDP=4.10D-05 MaxDP=1.57D-03 DE=-1.26D-04 OVMax= 4.37D-03

 Cycle   7  Pass 0  IDiag  1:
 RMSU=  1.89D-05    CP:  9.77D-01  7.26D-01  1.03D+00  1.08D+00  1.41D+00
                    CP:  1.35D+00
 E= -898.865894068849     Delta-E=       -0.000035966950 Rises=F Damp=F
 DIIS: error= 1.08D-04 at cycle   7 NSaved=   7.
 NSaved= 7 IEnMin= 7 EnMin= -898.865894068849     IErMin= 7 ErrMin= 1.08D-04
 ErrMax= 1.08D-04  0.00D+00 EMaxC= 1.00D-01 BMatC= 7.71D-06 BMatP= 3.38D-05
 IDIUse=3 WtCom= 9.99D-01 WtEn= 1.08D-03
 Coeff-Com:  0.224D-02 0.354D-02-0.593D-02-0.592D-01-0.207D+00 0.214D+00
 Coeff-Com:  0.105D+01
 Coeff-En:   0.000D+00 0.000D+00 0.000D+00 0.000D+00 0.000D+00 0.000D+00
 Coeff-En:   0.100D+01
 Coeff:      0.224D-02 0.353D-02-0.593D-02-0.591D-01-0.207D+00 0.214D+00
 Coeff:      0.105D+01
 Gap=     0.365 Goal=   None    Shift=    0.000
 Gap=     0.365 Goal=   None    Shift=    0.000
 RMSDP=2.68D-05 MaxDP=9.25D-04 DE=-3.60D-05 OVMax= 2.52D-03

 Cycle   8  Pass 0  IDiag  1:
 RMSU=  7.17D-06    CP:  9.77D-01  7.25D-01  1.03D+00  1.12D+00  1.54D+00
                    CP:  1.73D+00  1.32D+00
 E= -898.865902872207     Delta-E=       -0.000008803358 Rises=F Damp=F
 DIIS: error= 3.15D-05 at cycle   8 NSaved=   8.
 NSaved= 8 IEnMin= 8 EnMin= -898.865902872207     IErMin= 8 ErrMin= 3.15D-05
 ErrMax= 3.15D-05  0.00D+00 EMaxC= 1.00D-01 BMatC= 8.90D-07 BMatP= 7.71D-06
 IDIUse=1 WtCom= 1.00D+00 WtEn= 0.00D+00
 Coeff-Com:  0.755D-03 0.167D-02 0.354D-02-0.954D-02-0.694D-01-0.443D-01
 Coeff-Com:  0.290D+00 0.827D+00
 Coeff:      0.755D-03 0.167D-02 0.354D-02-0.954D-02-0.694D-01-0.443D-01
 Coeff:      0.290D+00 0.827D+00
 Gap=     0.365 Goal=   None    Shift=    0.000
 Gap=     0.365 Goal=   None    Shift=    0.000
 RMSDP=5.77D-06 MaxDP=1.80D-04 DE=-8.80D-06 OVMax= 5.59D-04

 Initial convergence to 1.0D-05 achieved.  Increase integral accuracy.
 Cycle   9  Pass 1  IDiag  1:
 E= -898.865732850619     Delta-E=        0.000170021588 Rises=F Damp=F
 DIIS: error= 3.59D-05 at cycle   1 NSaved=   1.
 NSaved= 1 IEnMin= 1 EnMin= -898.865732850619     IErMin= 1 ErrMin= 3.59D-05
 ErrMax= 3.59D-05  0.00D+00 EMaxC= 1.00D-01 BMatC= 1.04D-06 BMatP= 1.04D-06
 IDIUse=1 WtCom= 1.00D+00 WtEn= 0.00D+00
 Coeff-Com:  0.100D+01
 Coeff:      0.100D+01
 Gap=     0.365 Goal=   None    Shift=    0.000
 Gap=     0.365 Goal=   None    Shift=    0.000
 RMSDP=5.77D-06 MaxDP=1.80D-04 DE= 1.70D-04 OVMax= 1.31D-04

 Cycle  10  Pass 1  IDiag  1:
 RMSU=  2.69D-05    CP:  1.00D+00
 E= -898.865733087054     Delta-E=       -0.000000236434 Rises=F Damp=F
 DIIS: error= 1.43D-05 at cycle   2 NSaved=   2.
 NSaved= 2 IEnMin= 2 EnMin= -898.865733087054     IErMin= 2 ErrMin= 1.43D-05
 ErrMax= 1.43D-05  0.00D+00 EMaxC= 1.00D-01 BMatC= 1.93D-07 BMatP= 1.04D-06
 IDIUse=1 WtCom= 1.00D+00 WtEn= 0.00D+00
 Coeff-Com:  0.210D+00 0.790D+00
 Coeff:      0.210D+00 0.790D+00
 Gap=     0.365 Goal=   None    Shift=    0.000
 Gap=     0.365 Goal=   None    Shift=    0.000
 RMSDP=1.99D-06 MaxDP=5.23D-05 DE=-2.36D-07 OVMax= 7.74D-05

 Cycle  11  Pass 1  IDiag  1:
 RMSU=  1.68D-06    CP:  1.00D+00  1.04D+00
 E= -898.865733092689     Delta-E=       -0.000000005635 Rises=F Damp=F
 DIIS: error= 1.09D-05 at cycle   3 NSaved=   3.
 NSaved= 3 IEnMin= 3 EnMin= -898.865733092689     IErMin= 3 ErrMin= 1.09D-05
 ErrMax= 1.09D-05  0.00D+00 EMaxC= 1.00D-01 BMatC= 9.69D-08 BMatP= 1.93D-07
 IDIUse=1 WtCom= 1.00D+00 WtEn= 0.00D+00
 Coeff-Com: -0.318D-01 0.407D+00 0.625D+00
 Coeff:     -0.318D-01 0.407D+00 0.625D+00
 Gap=     0.365 Goal=   None    Shift=    0.000
 Gap=     0.365 Goal=   None    Shift=    0.000
 RMSDP=8.70D-07 MaxDP=1.85D-05 DE=-5.64D-09 OVMax= 4.26D-05

 Cycle  12  Pass 1  IDiag  1:
 RMSU=  5.85D-07    CP:  1.00D+00  1.06D+00  7.27D-01
 E= -898.865733117637     Delta-E=       -0.000000024948 Rises=F Damp=F
 DIIS: error= 2.86D-06 at cycle   4 NSaved=   4.
 NSaved= 4 IEnMin= 4 EnMin= -898.865733117637     IErMin= 4 ErrMin= 2.86D-06
 ErrMax= 2.86D-06  0.00D+00 EMaxC= 1.00D-01 BMatC= 2.72D-09 BMatP= 9.69D-08
 IDIUse=1 WtCom= 1.00D+00 WtEn= 0.00D+00
 Coeff-Com: -0.718D-02-0.570D-01-0.573D-01 0.112D+01
 Coeff:     -0.718D-02-0.570D-01-0.573D-01 0.112D+01
 Gap=     0.365 Goal=   None    Shift=    0.000
 Gap=     0.365 Goal=   None    Shift=    0.000
 RMSDP=3.71D-07 MaxDP=8.95D-06 DE=-2.49D-08 OVMax= 2.92D-05

 Cycle  13  Pass 1  IDiag  1:
 RMSU=  1.97D-07    CP:  1.00D+00  1.06D+00  7.91D-01  1.50D+00
 E= -898.865733121276     Delta-E=       -0.000000003638 Rises=F Damp=F
 DIIS: error= 1.67D-06 at cycle   5 NSaved=   5.
 NSaved= 5 IEnMin= 5 EnMin= -898.865733121276     IErMin= 5 ErrMin= 1.67D-06
 ErrMax= 1.67D-06  0.00D+00 EMaxC= 1.00D-01 BMatC= 1.17D-09 BMatP= 2.72D-09
 IDIUse=1 WtCom= 1.00D+00 WtEn= 0.00D+00
 Coeff-Com:  0.101D-01-0.189D+00-0.289D+00 0.444D+00 0.102D+01
 Coeff:      0.101D-01-0.189D+00-0.289D+00 0.444D+00 0.102D+01
 Gap=     0.365 Goal=   None    Shift=    0.000
 Gap=     0.365 Goal=   None    Shift=    0.000
 RMSDP=3.17D-07 MaxDP=7.14D-06 DE=-3.64D-09 OVMax= 2.55D-05

 Cycle  14  Pass 1  IDiag  1:
 RMSU=  1.14D-07    CP:  1.00D+00  1.06D+00  8.28D-01  1.97D+00  1.45D+00
 E= -898.865733122723     Delta-E=       -0.000000001447 Rises=F Damp=F
 DIIS: error= 4.34D-07 at cycle   6 NSaved=   6.
 NSaved= 6 IEnMin= 6 EnMin= -898.865733122723     IErMin= 6 ErrMin= 4.34D-07
 ErrMax= 4.34D-07  0.00D+00 EMaxC= 1.00D-01 BMatC= 1.11D-10 BMatP= 1.17D-09
 IDIUse=1 WtCom= 1.00D+00 WtEn= 0.00D+00
 Coeff-Com:  0.363D-02-0.499D-01-0.799D-01 0.245D-01 0.315D+00 0.787D+00
 Coeff:      0.363D-02-0.499D-01-0.799D-01 0.245D-01 0.315D+00 0.787D+00
 Gap=     0.365 Goal=   None    Shift=    0.000
 Gap=     0.365 Goal=   None    Shift=    0.000
 RMSDP=5.98D-08 MaxDP=1.38D-06 DE=-1.45D-09 OVMax= 4.95D-06

 Cycle  15  Pass 1  IDiag  1:
 RMSU=  3.42D-08    CP:  1.00D+00  1.06D+00  8.33D-01  2.02D+00  1.62D+00
                    CP:  1.12D+00
 E= -898.865733122813     Delta-E=       -0.000000000090 Rises=F Damp=F
 DIIS: error= 2.38D-07 at cycle   7 NSaved=   7.
 NSaved= 7 IEnMin= 7 EnMin= -898.865733122813     IErMin= 7 ErrMin= 2.38D-07
 ErrMax= 2.38D-07  0.00D+00 EMaxC= 1.00D-01 BMatC= 1.96D-11 BMatP= 1.11D-10
 IDIUse=1 WtCom= 1.00D+00 WtEn= 0.00D+00
 Coeff-Com: -0.179D-02 0.372D-01 0.563D-01-0.113D+00-0.190D+00 0.177D+00
 Coeff-Com:  0.103D+01
 Coeff:     -0.179D-02 0.372D-01 0.563D-01-0.113D+00-0.190D+00 0.177D+00
 Coeff:      0.103D+01
 Gap=     0.365 Goal=   None    Shift=    0.000
 Gap=     0.365 Goal=   None    Shift=    0.000
 RMSDP=3.61D-08 MaxDP=8.60D-07 DE=-9.03D-11 OVMax= 2.87D-06

 Cycle  16  Pass 1  IDiag  1:
 RMSU=  1.80D-08    CP:  1.00D+00  1.06D+00  8.34D-01  2.04D+00  1.71D+00
                    CP:  1.30D+00  1.27D+00
 E= -898.865733122817     Delta-E=       -0.000000000003 Rises=F Damp=F
 DIIS: error= 5.71D-08 at cycle   8 NSaved=   8.
 NSaved= 8 IEnMin= 8 EnMin= -898.865733122817     IErMin= 8 ErrMin= 5.71D-08
 ErrMax= 5.71D-08  0.00D+00 EMaxC= 1.00D-01 BMatC= 2.15D-12 BMatP= 1.96D-11
 IDIUse=1 WtCom= 1.00D+00 WtEn= 0.00D+00
 Coeff-Com: -0.734D-03 0.131D-01 0.204D-01-0.279D-01-0.702D-01-0.405D-01
 Coeff-Com:  0.221D+00 0.884D+00
 Coeff:     -0.734D-03 0.131D-01 0.204D-01-0.279D-01-0.702D-01-0.405D-01
 Coeff:      0.221D+00 0.884D+00
 Gap=     0.365 Goal=   None    Shift=    0.000
 Gap=     0.365 Goal=   None    Shift=    0.000
 RMSDP=9.27D-09 MaxDP=2.18D-07 DE=-3.18D-12 OVMax= 7.43D-07

 SCF Done:  E(ULC-wPBE) =  -898.865733123     A.U. after   16 cycles
            NFock= 16  Conv=0.93D-08     -V/T= 2.0048
 <Sx>= 0.0000 <Sy>= 0.0000 <Sz>= 0.0000 <S**2>=-0.0000 S=-0.0000
 <L.S>= 0.000000000000E+00
 KE= 8.946012128037D+02 PE=-3.574209016471D+03 EE= 1.051346101267D+03
 Annihilation of the first spin contaminant:
 S**2 before annihilation    -0.0000,   after     0.0000
 Leave Link  502 at Fri Jul 24 14:42:05 2020, MaxMem=  4026531840 cpu:             601.4 elap:              75.5
 (Enter /opt/ohpc/pub/libs/gaussian/g16-A.03/sandybridge/g16/l601.exe)
 Copying SCF densities to generalized density rwf, IOpCl= 1 IROHF=0.

 **********************************************************************

            Population analysis using the SCF density.

 **********************************************************************

 Orbital symmetries:
 Alpha Orbitals:
       Occupied  (A) (A) (A) (A) (A) (A) (A) (A) (A) (A) (A) (A)
                 (A) (A) (A) (A) (A) (A) (A) (A) (A) (A) (A) (A)
                 (A) (A) (A) (A) (A) (A) (A) (A) (A) (A) (A) (A)
                 (A) (A) (A) (A) (A) (A) (A) (A) (A) (A)
       Virtual   (A) (A) (A) (A) (A) (A) (A) (A) (A) (A) (A) (A)
                 (A) (A) (A) (A) (A) (A) (A) (A) (A) (A) (A) (A)
                 (A) (A) (A) (A) (A) (A) (A) (A) (A) (A) (A) (A)
                 (A) (A) (A) (A) (A) (A) (A) (A) (A) (A) (A) (A)
                 (A) (A) (A) (A) (A) (A) (A) (A) (A) (A) (A) (A)
                 (A) (A) (A) (A) (A) (A) (A) (A) (A) (A) (A) (A)
                 (A) (A) (A) (A) (A) (A) (A) (A) (A) (A) (A) (A)
                 (A) (A) (A) (A) (A) (A) (A) (A) (A) (A) (A) (A)
                 (A) (A) (A) (A) (A) (A) (A) (A) (A) (A) (A) (A)
                 (A) (A) (A) (A) (A) (A) (A) (A) (A) (A) (A) (A)
                 (A) (A) (A) (A) (A) (A) (A) (A) (A) (A) (A) (A)
                 (A) (A) (A) (A) (A) (A) (A) (A) (A) (A) (A) (A)
                 (A) (A) (A) (A) (A) (A) (A) (A) (A) (A) (A) (A)
 Beta  Orbitals:
       Occupied  (A) (A) (A) (A) (A) (A) (A) (A) (A) (A) (A) (A)
                 (A) (A) (A) (A) (A) (A) (A) (A) (A) (A) (A) (A)
                 (A) (A) (A) (A) (A) (A) (A) (A) (A) (A) (A) (A)
                 (A) (A) (A) (A) (A) (A) (A) (A) (A) (A)
       Virtual   (A) (A) (A) (A) (A) (A) (A) (A) (A) (A) (A) (A)
                 (A) (A) (A) (A) (A) (A) (A) (A) (A) (A) (A) (A)
                 (A) (A) (A) (A) (A) (A) (A) (A) (A) (A) (A) (A)
                 (A) (A) (A) (A) (A) (A) (A) (A) (A) (A) (A) (A)
                 (A) (A) (A) (A) (A) (A) (A) (A) (A) (A) (A) (A)
                 (A) (A) (A) (A) (A) (A) (A) (A) (A) (A) (A) (A)
                 (A) (A) (A) (A) (A) (A) (A) (A) (A) (A) (A) (A)
                 (A) (A) (A) (A) (A) (A) (A) (A) (A) (A) (A) (A)
                 (A) (A) (A) (A) (A) (A) (A) (A) (A) (A) (A) (A)
                 (A) (A) (A) (A) (A) (A) (A) (A) (A) (A) (A) (A)
                 (A) (A) (A) (A) (A) (A) (A) (A) (A) (A) (A) (A)
                 (A) (A) (A) (A) (A) (A) (A) (A) (A) (A) (A) (A)
                 (A) (A) (A) (A) (A) (A) (A) (A) (A) (A) (A) (A)
 The electronic state is 1-A.
 Alpha  occ. eigenvalues --  -88.36587 -24.50663 -14.25843 -10.24740 -10.21433
 Alpha  occ. eigenvalues --  -10.20871 -10.20804 -10.19672 -10.18489 -10.17671
 Alpha  occ. eigenvalues --  -10.17612 -10.17274  -7.97538  -5.98769  -5.98224
 Alpha  occ. eigenvalues --   -5.97784  -1.32782  -1.11852  -1.08315  -0.98293
 Alpha  occ. eigenvalues --   -0.97084  -0.91617  -0.89781  -0.80838  -0.79329
 Alpha  occ. eigenvalues --   -0.73719  -0.72191  -0.68486  -0.64919  -0.62975
 Alpha  occ. eigenvalues --   -0.61293  -0.59354  -0.58658  -0.57776  -0.55910
 Alpha  occ. eigenvalues --   -0.54822  -0.53858  -0.51401  -0.50290  -0.48786
 Alpha  occ. eigenvalues --   -0.47339  -0.42193  -0.39956  -0.38527  -0.36764
 Alpha  occ. eigenvalues --   -0.33529
 Alpha virt. eigenvalues --    0.03020   0.04601   0.10296   0.12230   0.16101
 Alpha virt. eigenvalues --    0.17226   0.17705   0.19122   0.19661   0.22242
 Alpha virt. eigenvalues --    0.22596   0.25176   0.26564   0.27089   0.31406
 Alpha virt. eigenvalues --    0.35111   0.36757   0.38894   0.41118   0.42375
 Alpha virt. eigenvalues --    0.45646   0.50072   0.52414   0.53173   0.54426
 Alpha virt. eigenvalues --    0.55545   0.57157   0.58215   0.58493   0.58672
 Alpha virt. eigenvalues --    0.59246   0.60064   0.60725   0.62095   0.62957
 Alpha virt. eigenvalues --    0.63662   0.63890   0.64061   0.65148   0.67274
 Alpha virt. eigenvalues --    0.68262   0.69487   0.69671   0.72667   0.73134
 Alpha virt. eigenvalues --    0.74451   0.74723   0.77401   0.79345   0.80271
 Alpha virt. eigenvalues --    0.80791   0.81913   0.83294   0.84263   0.86257
 Alpha virt. eigenvalues --    0.88395   0.91049   0.94751   0.96341   0.99061
 Alpha virt. eigenvalues --    1.00532   1.01339   1.03103   1.04108   1.04939
 Alpha virt. eigenvalues --    1.06149   1.06556   1.07756   1.08745   1.10216
 Alpha virt. eigenvalues --    1.12792   1.14361   1.15908   1.16416   1.19343
 Alpha virt. eigenvalues --    1.21075   1.21898   1.22345   1.26480   1.29640
 Alpha virt. eigenvalues --    1.29876   1.30968   1.37357   1.39525   1.41056
 Alpha virt. eigenvalues --    1.43804   1.47161   1.47766   1.52066   1.53044
 Alpha virt. eigenvalues --    1.54857   1.57510   1.58748   1.59902   1.62327
 Alpha virt. eigenvalues --    1.62813   1.65049   1.67909   1.69393   1.71131
 Alpha virt. eigenvalues --    1.72295   1.72988   1.74847   1.76938   1.77763
 Alpha virt. eigenvalues --    1.80276   1.81042   1.82289   1.84629   1.86397
 Alpha virt. eigenvalues --    1.87606   1.89794   1.90547   1.92255   1.93759
 Alpha virt. eigenvalues --    1.96075   1.97559   1.98940   2.00990   2.04056
 Alpha virt. eigenvalues --    2.06469   2.07438   2.10522   2.13200   2.13885
 Alpha virt. eigenvalues --    2.14778   2.19766   2.20324   2.22699   2.23933
 Alpha virt. eigenvalues --    2.25615   2.34386   2.44114   2.44823   2.46813
 Alpha virt. eigenvalues --    2.50628   2.54076   2.57583   2.59024   2.60489
 Alpha virt. eigenvalues --    2.64876   2.68455   2.70815   2.73492   2.83663
 Alpha virt. eigenvalues --    2.85986   2.97658   2.99734   3.05761   3.22377
 Alpha virt. eigenvalues --    3.61339   3.73159   3.75325   3.88062   4.05653
 Alpha virt. eigenvalues --    4.28750
  Beta  occ. eigenvalues --  -88.36587 -24.50663 -14.25843 -10.24740 -10.21433
  Beta  occ. eigenvalues --  -10.20871 -10.20804 -10.19672 -10.18489 -10.17671
  Beta  occ. eigenvalues --  -10.17612 -10.17274  -7.97538  -5.98769  -5.98224
  Beta  occ. eigenvalues --   -5.97784  -1.32782  -1.11852  -1.08315  -0.98293
  Beta  occ. eigenvalues --   -0.97084  -0.91617  -0.89781  -0.80838  -0.79329
  Beta  occ. eigenvalues --   -0.73719  -0.72191  -0.68486  -0.64919  -0.62975
  Beta  occ. eigenvalues --   -0.61293  -0.59354  -0.58658  -0.57776  -0.55910
  Beta  occ. eigenvalues --   -0.54822  -0.53858  -0.51401  -0.50290  -0.48786
  Beta  occ. eigenvalues --   -0.47339  -0.42193  -0.39956  -0.38527  -0.36764
  Beta  occ. eigenvalues --   -0.33529
  Beta virt. eigenvalues --    0.03020   0.04601   0.10296   0.12230   0.16101
  Beta virt. eigenvalues --    0.17226   0.17705   0.19122   0.19661   0.22242
  Beta virt. eigenvalues --    0.22596   0.25176   0.26564   0.27089   0.31406
  Beta virt. eigenvalues --    0.35111   0.36757   0.38894   0.41118   0.42375
  Beta virt. eigenvalues --    0.45646   0.50072   0.52414   0.53173   0.54426
  Beta virt. eigenvalues --    0.55545   0.57157   0.58215   0.58493   0.58672
  Beta virt. eigenvalues --    0.59246   0.60064   0.60725   0.62095   0.62957
  Beta virt. eigenvalues --    0.63662   0.63890   0.64061   0.65148   0.67274
  Beta virt. eigenvalues --    0.68262   0.69487   0.69671   0.72667   0.73134
  Beta virt. eigenvalues --    0.74451   0.74723   0.77401   0.79345   0.80271
  Beta virt. eigenvalues --    0.80791   0.81913   0.83294   0.84263   0.86257
  Beta virt. eigenvalues --    0.88395   0.91049   0.94751   0.96341   0.99061
  Beta virt. eigenvalues --    1.00532   1.01339   1.03103   1.04108   1.04939
  Beta virt. eigenvalues --    1.06149   1.06556   1.07756   1.08745   1.10216
  Beta virt. eigenvalues --    1.12792   1.14361   1.15908   1.16416   1.19343
  Beta virt. eigenvalues --    1.21075   1.21898   1.22345   1.26480   1.29640
  Beta virt. eigenvalues --    1.29876   1.30968   1.37357   1.39525   1.41056
  Beta virt. eigenvalues --    1.43804   1.47161   1.47766   1.52066   1.53044
  Beta virt. eigenvalues --    1.54857   1.57510   1.58748   1.59902   1.62327
  Beta virt. eigenvalues --    1.62813   1.65049   1.67909   1.69393   1.71131
  Beta virt. eigenvalues --    1.72295   1.72988   1.74847   1.76938   1.77763
  Beta virt. eigenvalues --    1.80276   1.81042   1.82289   1.84629   1.86397
  Beta virt. eigenvalues --    1.87606   1.89794   1.90547   1.92255   1.93759
  Beta virt. eigenvalues --    1.96075   1.97559   1.98940   2.00990   2.04056
  Beta virt. eigenvalues --    2.06469   2.07438   2.10522   2.13200   2.13885
  Beta virt. eigenvalues --    2.14778   2.19766   2.20324   2.22699   2.23933
  Beta virt. eigenvalues --    2.25615   2.34386   2.44114   2.44823   2.46813
  Beta virt. eigenvalues --    2.50628   2.54076   2.57583   2.59024   2.60489
  Beta virt. eigenvalues --    2.64876   2.68455   2.70815   2.73492   2.83663
  Beta virt. eigenvalues --    2.85986   2.97658   2.99734   3.05761   3.22377
  Beta virt. eigenvalues --    3.61339   3.73159   3.75325   3.88062   4.05653
  Beta virt. eigenvalues --    4.28750
          Condensed to atoms (all electrons):
               1          2          3          4          5          6
     1  C    4.879566   0.559363  -0.018218  -0.045273  -0.040227   0.457551
     2  C    0.559363   4.573187   0.523520  -0.044792  -0.033672  -0.038392
     3  C   -0.018218   0.523520   4.991160   0.454770  -0.072534  -0.051055
     4  C   -0.045273  -0.044792   0.454770   4.831785   0.569071  -0.077125
     5  N   -0.040227  -0.033672  -0.072534   0.569071   6.346129   0.561652
     6  C    0.457551  -0.038392  -0.051055  -0.077125   0.561652   4.654161
     7  C    0.000716   0.001275  -0.126821   0.310509  -0.080991   0.005027
     8  C    0.000146  -0.000309   0.012446  -0.061583   0.010856   0.000215
     9  F   -0.000010  -0.000003   0.000007  -0.002896  -0.003163  -0.000030
    10  C   -0.000001   0.000007   0.000037   0.007689   0.000681   0.000020
    11  C    0.000000  -0.000004  -0.000034   0.003920  -0.000050   0.000002
    12  S   -0.000008   0.000114  -0.009859  -0.060940   0.002360  -0.000147
    13  H    0.396211  -0.035045   0.007325   0.000992   0.003877  -0.038115
    14  H   -0.044939   0.417948  -0.035678   0.007107  -0.000417   0.007025
    15  H    0.007935  -0.032029   0.397647  -0.032692   0.004268   0.000307
    16  H   -0.049510   0.004307   0.000549   0.002187  -0.023402   0.416733
    17  H    0.000000   0.000000   0.000005  -0.000214   0.000015   0.000000
    18  H   -0.000000   0.000000   0.000004  -0.000180   0.000001  -0.000000
               7          8          9         10         11         12
     1  C    0.000716   0.000146  -0.000010  -0.000001   0.000000  -0.000008
     2  C    0.001275  -0.000309  -0.000003   0.000007  -0.000004   0.000114
     3  C   -0.126821   0.012446   0.000007   0.000037  -0.000034  -0.009859
     4  C    0.310509  -0.061583  -0.002896   0.007689   0.003920  -0.060940
     5  N   -0.080991   0.010856  -0.003163   0.000681  -0.000050   0.002360
     6  C    0.005027   0.000215  -0.000030   0.000020   0.000002  -0.000147
     7  C    5.665363   0.250644  -0.065173  -0.065036  -0.085548   0.330546
     8  C    0.250644   4.945364   0.423477   0.439259  -0.028795  -0.069121
     9  F   -0.065173   0.423477   8.870870  -0.049971   0.003570   0.002559
    10  C   -0.065036   0.439259  -0.049971   4.724048   0.512239  -0.100860
    11  C   -0.085548  -0.028795   0.003570   0.512239   5.030202   0.382605
    12  S    0.330546  -0.069121   0.002559  -0.100860   0.382605  15.394651
    13  H    0.000074  -0.000003   0.000000  -0.000000   0.000000  -0.000000
    14  H   -0.000357   0.000004  -0.000000   0.000000  -0.000000   0.000000
    15  H   -0.015859   0.000545   0.000001  -0.000042   0.000083   0.006883
    16  H   -0.000581  -0.000045   0.000083   0.000000  -0.000000   0.000006
    17  H    0.010800  -0.033975  -0.000154   0.418744  -0.048460   0.005931
    18  H    0.001349   0.005315  -0.000023  -0.017333   0.407339  -0.033874
              13         14         15         16         17         18
     1  C    0.396211  -0.044939   0.007935  -0.049510   0.000000  -0.000000
     2  C   -0.035045   0.417948  -0.032029   0.004307   0.000000   0.000000
     3  C    0.007325  -0.035678   0.397647   0.000549   0.000005   0.000004
     4  C    0.000992   0.007107  -0.032692   0.002187  -0.000214  -0.000180
     5  N    0.003877  -0.000417   0.004268  -0.023402   0.000015   0.000001
     6  C   -0.038115   0.007025   0.000307   0.416733   0.000000  -0.000000
     7  C    0.000074  -0.000357  -0.015859  -0.000581   0.010800   0.001349
     8  C   -0.000003   0.000004   0.000545  -0.000045  -0.033975   0.005315
     9  F    0.000000  -0.000000   0.000001   0.000083  -0.000154  -0.000023
    10  C   -0.000000   0.000000  -0.000042   0.000000   0.418744  -0.017333
    11  C    0.000000  -0.000000   0.000083  -0.000000  -0.048460   0.407339
    12  S   -0.000000   0.000000   0.006883   0.000006   0.005931  -0.033874
    13  H    0.643792  -0.012488  -0.000187  -0.006181  -0.000000  -0.000000
    14  H   -0.012488   0.667219  -0.010495  -0.000136   0.000000   0.000000
    15  H   -0.000187  -0.010495   0.640450   0.000061  -0.000000  -0.000005
    16  H   -0.006181  -0.000136   0.000061   0.608714  -0.000000   0.000000
    17  H   -0.000000   0.000000  -0.000000  -0.000000   0.662543  -0.006337
    18  H   -0.000000   0.000000  -0.000005   0.000000  -0.006337   0.576547
          Atomic-Atomic Spin Densities.
               1          2          3          4          5          6
     1  C    0.000000  -0.000000   0.000000  -0.000000   0.000000  -0.000000
     2  C   -0.000000   0.000000  -0.000000   0.000000   0.000000   0.000000
     3  C    0.000000  -0.000000  -0.000000  -0.000000  -0.000000   0.000000
     4  C   -0.000000   0.000000  -0.000000   0.000000   0.000000   0.000000
     5  N    0.000000   0.000000  -0.000000   0.000000  -0.000000  -0.000000
     6  C   -0.000000   0.000000   0.000000   0.000000  -0.000000  -0.000000
     7  C   -0.000000   0.000000  -0.000000  -0.000000  -0.000000  -0.000000
     8  C   -0.000000  -0.000000   0.000000   0.000000   0.000000   0.000000
     9  F   -0.000000   0.000000  -0.000000   0.000000  -0.000000   0.000000
    10  C    0.000000  -0.000000  -0.000000   0.000000   0.000000   0.000000
    11  C    0.000000  -0.000000   0.000000   0.000000  -0.000000  -0.000000
    12  S   -0.000000   0.000000   0.000000   0.000000  -0.000000  -0.000000
    13  H    0.000000  -0.000000  -0.000000  -0.000000   0.000000  -0.000000
    14  H   -0.000000   0.000000  -0.000000   0.000000  -0.000000   0.000000
    15  H    0.000000  -0.000000   0.000000  -0.000000   0.000000  -0.000000
    16  H   -0.000000   0.000000  -0.000000  -0.000000  -0.000000   0.000000
    17  H    0.000000   0.000000   0.000000  -0.000000  -0.000000  -0.000000
    18  H   -0.000000   0.000000   0.000000  -0.000000  -0.000000  -0.000000
               7          8          9         10         11         12
     1  C   -0.000000  -0.000000  -0.000000   0.000000   0.000000  -0.000000
     2  C    0.000000  -0.000000   0.000000  -0.000000  -0.000000   0.000000
     3  C   -0.000000   0.000000  -0.000000  -0.000000   0.000000   0.000000
     4  C   -0.000000   0.000000   0.000000   0.000000   0.000000   0.000000
     5  N   -0.000000   0.000000  -0.000000   0.000000  -0.000000  -0.000000
     6  C   -0.000000   0.000000   0.000000   0.000000  -0.000000  -0.000000
     7  C    0.000000   0.000000  -0.000000  -0.000000  -0.000000   0.000000
     8  C    0.000000  -0.000000   0.000000   0.000000  -0.000000  -0.000000
     9  F   -0.000000   0.000000   0.000000  -0.000000   0.000000  -0.000000
    10  C   -0.000000   0.000000  -0.000000   0.000000  -0.000000  -0.000000
    11  C   -0.000000  -0.000000   0.000000  -0.000000  -0.000000   0.000000
    12  S    0.000000  -0.000000  -0.000000  -0.000000   0.000000  -0.000000
    13  H    0.000000  -0.000000  -0.000000   0.000000   0.000000  -0.000000
    14  H   -0.000000   0.000000   0.000000   0.000000  -0.000000   0.000000
    15  H    0.000000   0.000000   0.000000  -0.000000   0.000000  -0.000000
    16  H    0.000000   0.000000   0.000000  -0.000000   0.000000   0.000000
    17  H   -0.000000   0.000000  -0.000000  -0.000000   0.000000  -0.000000
    18  H    0.000000  -0.000000   0.000000   0.000000  -0.000000   0.000000
              13         14         15         16         17         18
     1  C    0.000000  -0.000000   0.000000  -0.000000   0.000000  -0.000000
     2  C   -0.000000   0.000000  -0.000000   0.000000   0.000000   0.000000
     3  C   -0.000000  -0.000000   0.000000  -0.000000   0.000000   0.000000
     4  C   -0.000000   0.000000  -0.000000  -0.000000  -0.000000  -0.000000
     5  N    0.000000  -0.000000   0.000000  -0.000000  -0.000000  -0.000000
     6  C   -0.000000   0.000000  -0.000000   0.000000  -0.000000  -0.000000
     7  C    0.000000  -0.000000   0.000000   0.000000  -0.000000   0.000000
     8  C   -0.000000   0.000000   0.000000   0.000000   0.000000  -0.000000
     9  F   -0.000000   0.000000   0.000000   0.000000  -0.000000   0.000000
    10  C    0.000000   0.000000  -0.000000  -0.000000  -0.000000   0.000000
    11  C    0.000000  -0.000000   0.000000   0.000000   0.000000  -0.000000
    12  S   -0.000000   0.000000  -0.000000   0.000000  -0.000000   0.000000
    13  H    0.000000  -0.000000   0.000000  -0.000000   0.000000  -0.000000
    14  H   -0.000000   0.000000  -0.000000   0.000000  -0.000000   0.000000
    15  H    0.000000  -0.000000   0.000000  -0.000000  -0.000000   0.000000
    16  H   -0.000000   0.000000  -0.000000   0.000000  -0.000000   0.000000
    17  H    0.000000  -0.000000  -0.000000  -0.000000  -0.000000   0.000000
    18  H   -0.000000   0.000000   0.000000   0.000000   0.000000  -0.000000
 Mulliken charges and spin densities:
               1          2
     1  C   -0.103305   0.000000
     2  C    0.104526   0.000000
     3  C   -0.073273  -0.000000
     4  C    0.137663   0.000000
     5  N   -0.244456  -0.000000
     6  C    0.102170  -0.000000
     7  C   -0.135938  -0.000000
     8  C    0.105559  -0.000000
     9  F   -0.179145   0.000000
    10  C    0.130519   0.000000
    11  C   -0.177070  -0.000000
    12  S    0.149153  -0.000000
    13  H    0.039748   0.000000
    14  H    0.005206   0.000000
    15  H    0.033131   0.000000
    16  H    0.047213   0.000000
    17  H   -0.008898   0.000000
    18  H    0.067198  -0.000000
 Sum of Mulliken charges =  -0.00000   0.00000
 Mulliken charges and spin densities with hydrogens summed into heavy atoms:
               1          2
     1  C   -0.063557   0.000000
     2  C    0.109732   0.000000
     3  C   -0.040142  -0.000000
     4  C    0.137663   0.000000
     5  N   -0.244456  -0.000000
     6  C    0.149383  -0.000000
     7  C   -0.135938  -0.000000
     8  C    0.105559  -0.000000
     9  F   -0.179145   0.000000
    10  C    0.121621   0.000000
    11  C   -0.109872  -0.000000
    12  S    0.149153  -0.000000
 Electronic spatial extent (au):  <R**2>=           2316.1686
 Charge=             -0.0000 electrons
 Dipole moment (field-independent basis, Debye):
    X=              0.5680    Y=             -2.5182    Z=             -0.0751  Tot=              2.5825
 Quadrupole moment (field-independent basis, Debye-Ang):
   XX=            -53.3476   YY=            -73.4214   ZZ=            -78.2384
   XY=             -0.0412   XZ=             -0.4194   YZ=              0.0586
 Traceless Quadrupole moment (field-independent basis, Debye-Ang):
   XX=             14.9882   YY=             -5.0856   ZZ=             -9.9026
   XY=             -0.0412   XZ=             -0.4194   YZ=              0.0586
 Octapole moment (field-independent basis, Debye-Ang**2):
  XXX=             -7.1244  YYY=              1.4801  ZZZ=             -0.3221  XYY=              7.2315
  XXY=              3.4883  XXZ=             -1.0307  XZZ=             -3.3386  YZZ=              7.7312
  YYZ=             -0.0415  XYZ=             -0.4596
 Hexadecapole moment (field-independent basis, Debye-Ang**3):
 XXXX=          -1906.3573 YYYY=           -704.9331 ZZZZ=            -83.8365 XXXY=              2.9332
 XXXZ=             -8.7062 YYYX=             -8.4804 YYYZ=              0.4948 ZZZX=              0.1840
 ZZZY=             -0.2774 XXYY=           -424.5410 XXZZ=           -432.5183 YYZZ=           -137.7540
 XXYZ=              2.2536 YYXZ=             -0.1660 ZZXY=             -4.9848
 N-N= 7.293959692772D+02 E-N=-3.574209017005D+03  KE= 8.946012128037D+02
                          Isotropic Fermi Contact Couplings
        Atom                 a.u.       MegaHertz       Gauss      10(-4) cm-1
     1  C(13)              0.00000       0.00000       0.00000       0.00000
     2  C(13)             -0.00000      -0.00000      -0.00000      -0.00000
     3  C(13)              0.00000       0.00000       0.00000       0.00000
     4  C(13)              0.00000       0.00000       0.00000       0.00000
     5  N(14)              0.00000       0.00000       0.00000       0.00000
     6  C(13)             -0.00000      -0.00000      -0.00000      -0.00000
     7  C(13)             -0.00000      -0.00000      -0.00000      -0.00000
     8  C(13)             -0.00000      -0.00000      -0.00000      -0.00000
     9  F(19)              0.00000       0.00000       0.00000       0.00000
    10  C(13)             -0.00000      -0.00000      -0.00000      -0.00000
    11  C(13)              0.00000       0.00000       0.00000       0.00000
    12  S(33)              0.00000       0.00000       0.00000       0.00000
    13  H(1)              -0.00000      -0.00000      -0.00000      -0.00000
    14  H(1)               0.00000       0.00000       0.00000       0.00000
    15  H(1)               0.00000       0.00000       0.00000       0.00000
    16  H(1)               0.00000       0.00000       0.00000       0.00000
    17  H(1)              -0.00000      -0.00000      -0.00000      -0.00000
    18  H(1)               0.00000       0.00000       0.00000       0.00000
 --------------------------------------------------------
       Center         ----  Spin Dipole Couplings  ----
                      3XX-RR        3YY-RR        3ZZ-RR
 --------------------------------------------------------
     1   Atom        0.000000     -0.000000      0.000000
     2   Atom        0.000000     -0.000000      0.000000
     3   Atom       -0.000000      0.000000     -0.000000
     4   Atom        0.000000      0.000000     -0.000000
     5   Atom       -0.000000      0.000000      0.000000
     6   Atom        0.000000     -0.000000      0.000000
     7   Atom        0.000000      0.000000     -0.000000
     8   Atom        0.000000     -0.000000      0.000000
     9   Atom        0.000000      0.000000     -0.000000
    10   Atom       -0.000000      0.000000     -0.000000
    11   Atom        0.000000      0.000000     -0.000000
    12   Atom        0.000000     -0.000000     -0.000000
    13   Atom       -0.000000      0.000000      0.000000
    14   Atom        0.000000      0.000000     -0.000000
    15   Atom        0.000000      0.000000     -0.000000
    16   Atom        0.000000     -0.000000      0.000000
    17   Atom        0.000000     -0.000000      0.000000
    18   Atom        0.000000     -0.000000     -0.000000
 --------------------------------------------------------
                        XY            XZ            YZ
 --------------------------------------------------------
     1   Atom        0.000000     -0.000000     -0.000000
     2   Atom       -0.000000     -0.000000      0.000000
     3   Atom       -0.000000      0.000000      0.000000
     4   Atom       -0.000000     -0.000000     -0.000000
     5   Atom       -0.000000     -0.000000     -0.000000
     6   Atom        0.000000      0.000000      0.000000
     7   Atom       -0.000000      0.000000      0.000000
     8   Atom       -0.000000     -0.000000      0.000000
     9   Atom       -0.000000     -0.000000      0.000000
    10   Atom       -0.000000      0.000000      0.000000
    11   Atom       -0.000000      0.000000     -0.000000
    12   Atom       -0.000000      0.000000     -0.000000
    13   Atom        0.000000      0.000000     -0.000000
    14   Atom        0.000000      0.000000     -0.000000
    15   Atom        0.000000     -0.000000     -0.000000
    16   Atom        0.000000      0.000000     -0.000000
    17   Atom        0.000000     -0.000000     -0.000000
    18   Atom       -0.000000     -0.000000     -0.000000
 --------------------------------------------------------


 ---------------------------------------------------------------------------------
              Anisotropic Spin Dipole Couplings in Principal Axis System
 ---------------------------------------------------------------------------------

       Atom             a.u.   MegaHertz   Gauss  10(-4) cm-1        Axes

              Baa    -0.0000    -0.000    -0.000    -0.000 -0.0221  0.9983  0.0546
     1 C(13)  Bbb     0.0000     0.000     0.000     0.000  0.3377 -0.0439  0.9402
              Bcc     0.0000     0.000     0.000     0.000  0.9410  0.0392 -0.3362
 
              Baa    -0.0000    -0.000    -0.000    -0.000  0.4314  0.9020 -0.0159
     2 C(13)  Bbb     0.0000     0.000     0.000     0.000  0.1688 -0.0633  0.9836
              Bcc     0.0000     0.000     0.000     0.000  0.8862 -0.4270 -0.1795
 
              Baa    -0.0000    -0.000    -0.000    -0.000  0.9700  0.2302 -0.0778
     3 C(13)  Bbb    -0.0000    -0.000    -0.000    -0.000  0.0813 -0.0059  0.9967
              Bcc     0.0000     0.000     0.000     0.000 -0.2290  0.9731  0.0244
 
              Baa    -0.0000    -0.000    -0.000    -0.000  0.0721  0.0180  0.9972
     4 C(13)  Bbb     0.0000     0.000     0.000     0.000  0.0494  0.9985 -0.0216
              Bcc     0.0000     0.000     0.000     0.000  0.9962 -0.0508 -0.0711
 
              Baa    -0.0000    -0.000    -0.000    -0.000  0.8102  0.5854  0.0295
     5 N(14)  Bbb     0.0000     0.000     0.000     0.000 -0.0546  0.0252  0.9982
              Bcc     0.0000     0.000     0.000     0.000 -0.5836  0.8103 -0.0524
 
              Baa    -0.0000    -0.000    -0.000    -0.000 -0.1597  0.9871 -0.0125
     6 C(13)  Bbb     0.0000     0.000     0.000     0.000 -0.0861 -0.0013  0.9963
              Bcc     0.0000     0.000     0.000     0.000  0.9834  0.1602  0.0852
 
              Baa    -0.0000    -0.000    -0.000    -0.000 -0.0125 -0.0428  0.9990
     7 C(13)  Bbb     0.0000     0.000     0.000     0.000  0.3610  0.9315  0.0444
              Bcc     0.0000     0.000     0.000     0.000  0.9325 -0.3612 -0.0038
 
              Baa    -0.0000    -0.000    -0.000    -0.000  0.2479  0.9654 -0.0812
     8 C(13)  Bbb     0.0000     0.000     0.000     0.000  0.9363 -0.2172  0.2761
              Bcc     0.0000     0.000     0.000     0.000 -0.2489  0.1445  0.9577
 
              Baa    -0.0000    -0.000    -0.000    -0.000  0.7231  0.6627  0.1951
     9 F(19)  Bbb    -0.0000    -0.000    -0.000    -0.000 -0.0916 -0.1880  0.9779
              Bcc     0.0000     0.000     0.000     0.000 -0.6847  0.7249  0.0752
 
              Baa    -0.0000    -0.000    -0.000    -0.000  0.9240  0.2400 -0.2975
    10 C(13)  Bbb    -0.0000    -0.000    -0.000    -0.000  0.2901  0.0666  0.9547
              Bcc     0.0000     0.000     0.000     0.000 -0.2490  0.9685  0.0081
 
              Baa    -0.0000    -0.000    -0.000    -0.000  0.7064  0.6753 -0.2119
    11 C(13)  Bbb    -0.0000    -0.000    -0.000    -0.000  0.0996  0.2015  0.9744
              Bcc     0.0000     0.000     0.000     0.000 -0.7007  0.7095 -0.0750
 
              Baa    -0.0000    -0.000    -0.000    -0.000  0.4101  0.9115  0.0306
    12 S(33)  Bbb    -0.0000    -0.000    -0.000    -0.000 -0.0843  0.0045  0.9964
              Bcc     0.0000     0.000     0.000     0.000  0.9081 -0.4112  0.0787
 
              Baa    -0.0000    -0.000    -0.000    -0.000  0.9444 -0.3198 -0.0768
    13 H(1)   Bbb     0.0000     0.000     0.000     0.000  0.0494 -0.0929  0.9944
              Bcc     0.0000     0.000     0.000     0.000  0.3251  0.9429  0.0720
 
              Baa    -0.0000    -0.000    -0.000    -0.000 -0.3386  0.2942  0.8937
    14 H(1)   Bbb    -0.0000    -0.000    -0.000    -0.000  0.6658 -0.5963  0.4486
              Bcc     0.0000     0.000     0.000     0.000  0.6649  0.7469  0.0060
 
              Baa    -0.0000    -0.000    -0.000    -0.000 -0.2000  0.2818  0.9384
    15 H(1)   Bbb    -0.0000    -0.000    -0.000    -0.000  0.7330 -0.5925  0.3341
              Bcc     0.0000     0.000     0.000     0.000  0.6502  0.7547 -0.0880
 
              Baa    -0.0000    -0.000    -0.000    -0.000 -0.1658  0.9809  0.1016
    16 H(1)   Bbb     0.0000     0.000     0.000     0.000  0.0671 -0.0915  0.9935
              Bcc     0.0000     0.000     0.000     0.000  0.9839  0.1716 -0.0507
 
              Baa    -0.0000    -0.000    -0.000    -0.000 -0.4589  0.8883  0.0205
    17 H(1)   Bbb     0.0000     0.000     0.000     0.000  0.0654  0.0108  0.9978
              Bcc     0.0000     0.000     0.000     0.000  0.8861  0.4592 -0.0630
 
              Baa    -0.0000    -0.000    -0.000    -0.000  0.1386  0.9873  0.0770
    18 H(1)   Bbb    -0.0000    -0.000    -0.000    -0.000  0.0353 -0.0826  0.9960
              Bcc     0.0000     0.000     0.000     0.000  0.9897 -0.1353 -0.0463
 

 ---------------------------------------------------------------------------------

 No NMR shielding tensors so no spin-rotation constants.
 Leave Link  601 at Fri Jul 24 14:42:07 2020, MaxMem=  4026531840 cpu:               6.8 elap:               1.3
 (Enter /opt/ohpc/pub/libs/gaussian/g16-A.03/sandybridge/g16/l701.exe)
 ... and contract with generalized density number  0.
 Compute integral first derivatives.
 Leave Link  701 at Fri Jul 24 14:42:07 2020, MaxMem=  4026531840 cpu:               3.2 elap:               0.6
 (Enter /opt/ohpc/pub/libs/gaussian/g16-A.03/sandybridge/g16/l702.exe)
 L702 exits ... SP integral derivatives will be done elsewhere.
 Leave Link  702 at Fri Jul 24 14:42:07 2020, MaxMem=  4026531840 cpu:               0.3 elap:               0.1
 (Enter /opt/ohpc/pub/libs/gaussian/g16-A.03/sandybridge/g16/l703.exe)
 Integral derivatives from FoFJK, PRISM(SPDF).
 Compute integral first derivatives, UseDBF=F ICtDFT=           0.
 Calling FoFJK, ICntrl=      2127 FMM=F ISym2X=0 I1Cent= 0 IOpClX= 1 NMat=1 NMatS=1 NMatT=0.
 FoFJK:  IHMeth= 1 ICntrl=    2127 DoSepK=T KAlg= 0 I1Cent=           0 FoldK=F
 IRaf=         1 NMat=       1 IRICut=       1 DoRegI=T DoRafI=F ISym2E= 0 IDoP0=0 IntGTp=1.
 FoFCou: FMM=F IPFlag=           0 FMFlag=      100000 FMFlg1=         800
         NFxFlg=           0 DoJE=F BraDBF=F KetDBF=F FulRan=T
         wScrn=  0.000000 ICntrl=      2527 IOpCl=  0 I1Cent=           0 NGrid=           0
         NMat0=    1 NMatS0=      1 NMatT0=    0 NMatD0=    1 NMtDS0=    0 NMtDT0=    0
 Symmetry not used in FoFCou.
 Leave Link  703 at Fri Jul 24 14:42:24 2020, MaxMem=  4026531840 cpu:             133.6 elap:              16.8
 (Enter /opt/ohpc/pub/libs/gaussian/g16-A.03/sandybridge/g16/l716.exe)
 Dipole        = 2.23465305D-01-9.90726451D-01-2.95331841D-02
 ***** Axes restored to original set *****
 -------------------------------------------------------------------
 Center     Atomic                   Forces (Hartrees/Bohr)
 Number     Number              X              Y              Z
 -------------------------------------------------------------------
      1        6           0.050269561    0.021671361   -0.012070529
      2        6          -0.087314985    0.034878276   -0.011618835
      3        6           0.059770976   -0.057046391    0.011857632
      4        6           0.001181657    0.096361544    0.013804262
      5        7           0.049750921   -0.023031880   -0.014328469
      6        6          -0.071198913   -0.032401598    0.018943802
      7        6           0.012409537   -0.000700073   -0.014785852
      8        6           0.000418830    0.083249678    0.004979966
      9        9          -0.017687765   -0.058257541    0.001216043
     10        6           0.069117819   -0.098882337   -0.000037730
     11        6           0.019610425    0.007253968   -0.003422423
     12       16          -0.037040511   -0.010225785    0.004569811
     13        1          -0.025564642    0.003564779    0.004742843
     14        1           0.025584303   -0.038101166    0.002788802
     15        1          -0.000383558    0.003555867   -0.004994187
     16        1           0.000560886    0.001782822   -0.003246900
     17        1          -0.055733035    0.060471428    0.001096797
     18        1           0.006248493    0.005857048    0.000504965
 -------------------------------------------------------------------
 Cartesian Forces:  Max     0.098882337 RMS     0.037387416
 Leave Link  716 at Fri Jul 24 14:42:24 2020, MaxMem=  4026531840 cpu:               0.3 elap:               0.1
 (Enter /opt/ohpc/pub/libs/gaussian/g16-A.03/sandybridge/g16/l103.exe)

 GradGradGradGradGradGradGradGradGradGradGradGradGradGradGradGradGradGrad
 Berny optimization.
 FormGI is forming the generalized inverse of G from B-inverse, IUseBI=4.
 Internal  Forces:  Max     0.081800242 RMS     0.017810887
 Search for a local minimum.
 Step number   1 out of a maximum of   98
 All quantities printed in internal units (Hartrees-Bohrs-Radians)
 RMS Force = .17811D-01 SwitMx=.10000D-02 MixMth= 1
 Mixed Optimization -- RFO/linear search
 Second derivative matrix not updated -- first step.
 ITU=  0
     Eigenvalues ---    0.01154   0.01679   0.01747   0.01855   0.01960
     Eigenvalues ---    0.01995   0.02013   0.02061   0.02104   0.02204
     Eigenvalues ---    0.02257   0.02281   0.02437   0.02448   0.02658
     Eigenvalues ---    0.15809   0.15877   0.15911   0.15950   0.15954
     Eigenvalues ---    0.15998   0.21991   0.22438   0.22556   0.24307
     Eigenvalues ---    0.24654   0.24718   0.24944   0.24990   0.29540
     Eigenvalues ---    0.30395   0.34035   0.34217   0.35283   0.35660
     Eigenvalues ---    0.36111   0.36589   0.40001   0.42164   0.42284
     Eigenvalues ---    0.42405   0.44344   0.46744   0.48132   0.48570
     Eigenvalues ---    0.53357   0.53427   0.58330
 RFO step:  Lambda=-5.99826885D-02 EMin= 1.15390704D-02
 Linear search not attempted -- first point.
 Maximum step size (   0.300) exceeded in Quadratic search.
    -- Step size scaled by   0.847
 Iteration  1 RMS(Cart)=  0.03780357 RMS(Int)=  0.00090966
 Iteration  2 RMS(Cart)=  0.00138883 RMS(Int)=  0.00033468
 Iteration  3 RMS(Cart)=  0.00000095 RMS(Int)=  0.00033468
 ITry= 1 IFail=0 DXMaxC= 1.19D-01 DCOld= 1.00D+10 DXMaxT= 3.00D-01 DXLimC= 3.00D+00 Rises=F
 Variable       Old X    -DE/DX   Delta X   Delta X   Delta X     New X
                                 (Linear)    (Quad)   (Total)
    R1        2.55213   0.01495   0.00000   0.02181   0.02200   2.57413
    R2        2.66264  -0.00896   0.00000  -0.01799  -0.01780   2.64485
    R3        2.13882  -0.02555   0.00000  -0.05943  -0.05943   2.07939
    R4        2.74864  -0.04568   0.00000  -0.08364  -0.08365   2.66499
    R5        1.95110   0.04561   0.00000   0.07977   0.07977   2.03087
    R6        2.50908   0.04728   0.00000   0.06280   0.06262   2.57170
    R7        2.06966  -0.00334   0.00000  -0.00704  -0.00704   2.06262
    R8        2.64713  -0.03952   0.00000  -0.06621  -0.06640   2.58074
    R9        2.77917   0.00182   0.00000   0.00369   0.00369   2.78286
   R10        2.59945  -0.06308   0.00000  -0.09938  -0.09939   2.50006
   R11        2.05219   0.00171   0.00000   0.00350   0.00350   2.05569
   R12        2.54734   0.00787   0.00000   0.01268   0.01266   2.56000
   R13        3.18887   0.02371   0.00000   0.04975   0.04960   3.23846
   R14        2.68563  -0.06089   0.00000  -0.10676  -0.10676   2.57886
   R15        2.70135  -0.01307   0.00000  -0.02467  -0.02452   2.67683
   R16        2.60975  -0.02266   0.00000  -0.03800  -0.03787   2.57188
   R17        1.88498   0.08180   0.00000   0.12793   0.12793   2.01292
   R18        3.31535  -0.02503   0.00000  -0.06038  -0.06043   3.25492
   R19        2.07271  -0.00838   0.00000  -0.01772  -0.01772   2.05499
    A1        2.13415  -0.01286   0.00000  -0.03999  -0.03970   2.09446
    A2        2.04634   0.01160   0.00000   0.04087   0.04063   2.08697
    A3        2.09865   0.00147   0.00000   0.00135   0.00099   2.09964
    A4        2.02723   0.00137   0.00000   0.01615   0.01615   2.04338
    A5        2.15993  -0.00197   0.00000  -0.01186  -0.01225   2.14768
    A6        2.08803   0.00100   0.00000   0.00018  -0.00005   2.08798
    A7        2.11800  -0.01202   0.00000  -0.02211  -0.02257   2.09542
    A8        2.04080   0.00828   0.00000   0.02125   0.02116   2.06196
    A9        2.11728   0.00416   0.00000   0.00522   0.00508   2.12236
   A10        2.12505   0.00311   0.00000   0.01239   0.01192   2.13697
   A11        2.20686  -0.01730   0.00000  -0.04859  -0.04852   2.15834
   A12        1.94829   0.01437   0.00000   0.03802   0.03815   1.98643
   A13        2.05773   0.00130   0.00000  -0.00933  -0.00967   2.04807
   A14        2.09612   0.01969   0.00000   0.04885   0.04869   2.14481
   A15        2.14567  -0.00902   0.00000  -0.01923  -0.01976   2.12591
   A16        2.03202  -0.01000   0.00000  -0.02290  -0.02342   2.00860
   A17        2.27607   0.00250   0.00000   0.00439   0.00433   2.28040
   A18        2.09781   0.00195   0.00000   0.00265   0.00253   2.10034
   A19        1.89769  -0.00395   0.00000  -0.00183  -0.00225   1.89544
   A20        2.17675   0.00513   0.00000   0.01368   0.01363   2.19038
   A21        2.06792  -0.01230   0.00000  -0.03265  -0.03262   2.03531
   A22        2.03815   0.00720   0.00000   0.01929   0.01924   2.05738
   A23        1.88466   0.01442   0.00000   0.03446   0.03467   1.91934
   A24        2.25323  -0.01478   0.00000  -0.04622  -0.04636   2.20687
   A25        2.14351   0.00043   0.00000   0.01237   0.01224   2.15574
   A26        1.94249   0.00628   0.00000   0.00994   0.00997   1.95246
   A27        2.26525  -0.00499   0.00000  -0.01201  -0.01206   2.25318
   A28        2.07531  -0.00127   0.00000   0.00229   0.00223   2.07754
   A29        1.62795  -0.00419   0.00000  -0.00688  -0.00731   1.62064
    D1        0.01588   0.00067   0.00000  -0.00157  -0.00237   0.01351
    D2        3.02108   0.00418   0.00000   0.03647   0.03581   3.05689
    D3       -3.02928  -0.00204   0.00000  -0.02833  -0.02907  -3.05836
    D4       -0.02409   0.00147   0.00000   0.00972   0.00911  -0.01498
    D5        0.08754  -0.00289   0.00000  -0.03342  -0.03388   0.05365
    D6        3.07712   0.00174   0.00000   0.01894   0.01916   3.09628
    D7        3.12988   0.00040   0.00000  -0.00386  -0.00487   3.12501
    D8       -0.16372   0.00503   0.00000   0.04850   0.04818  -0.11555
    D9       -0.06824   0.00329   0.00000   0.02767   0.02724  -0.04100
   D10       -3.08356  -0.00075   0.00000  -0.01136  -0.01143  -3.09499
   D11       -3.07940   0.00018   0.00000  -0.00764  -0.00850  -3.08789
   D12        0.18847  -0.00386   0.00000  -0.04668  -0.04717   0.14130
   D13        0.01703  -0.00107   0.00000  -0.01189  -0.01176   0.00527
   D14       -3.03444  -0.00443   0.00000  -0.04134  -0.04067  -3.07511
   D15        3.02681   0.00336   0.00000   0.02988   0.02935   3.05616
   D16       -0.02466   0.00000   0.00000   0.00043   0.00044  -0.02423
   D17        0.08664  -0.00271   0.00000  -0.02784  -0.02755   0.05909
   D18       -3.13291  -0.00125   0.00000  -0.00636  -0.00527  -3.13818
   D19       -3.06875  -0.00013   0.00000  -0.00420  -0.00438  -3.07313
   D20       -0.11010   0.00337   0.00000   0.03628   0.03611  -0.07398
   D21        0.15525  -0.00289   0.00000  -0.03050  -0.03033   0.12492
   D22        3.11391   0.00061   0.00000   0.00998   0.01016   3.12407
   D23       -0.13713   0.00405   0.00000   0.04799   0.04855  -0.08857
   D24       -3.13632  -0.00016   0.00000  -0.00086  -0.00100  -3.13732
   D25       -0.10934   0.00172   0.00000   0.01897   0.01908  -0.09026
   D26        3.06225   0.00034   0.00000   0.00548   0.00567   3.06792
[...]
    14  H   -0.000370   0.000005  -0.000000   0.000000  -0.000000  -0.000008
    15  H   -0.013067   0.000749   0.000001  -0.000068   0.000086   0.006226
    16  H   -0.000677  -0.000064   0.000050  -0.000000  -0.000000   0.000007
    17  H    0.011219  -0.029139   0.000935   0.405252  -0.046124   0.005911
    18  H    0.001186   0.005798  -0.000027  -0.016629   0.407137  -0.036222
              13         14         15         16         17         18
     1  C    0.407859  -0.048513   0.007511  -0.056572   0.000000  -0.000000
     2  C   -0.039793   0.417523  -0.030376   0.005249   0.000000   0.000000
     3  C    0.007481  -0.039672   0.404740   0.000739   0.000006   0.000006
     4  C    0.000701   0.006968  -0.038936   0.001671  -0.000222  -0.000191
     5  N    0.004354  -0.000527   0.004174  -0.025867   0.000009   0.000001
     6  C   -0.035836   0.007218   0.000139   0.414741   0.000000  -0.000000
     7  C    0.000079  -0.000370  -0.013067  -0.000677   0.011219   0.001186
     8  C   -0.000002   0.000005   0.000749  -0.000064  -0.029139   0.005798
     9  F    0.000000  -0.000000   0.000001   0.000050   0.000935  -0.000027
    10  C   -0.000000   0.000000  -0.000068  -0.000000   0.405252  -0.016629
    11  C    0.000000  -0.000000   0.000086  -0.000000  -0.046124   0.407137
    12  S   -0.000000  -0.000008   0.006226   0.000007   0.005911  -0.036222
    13  H    0.652143  -0.011342  -0.000146  -0.007835  -0.000000  -0.000000
    14  H   -0.011342   0.654432  -0.011398  -0.000180   0.000000  -0.000000
    15  H   -0.000146  -0.011398   0.641594   0.000079  -0.000001  -0.000006
    16  H   -0.007835  -0.000180   0.000079   0.637306  -0.000000   0.000000
    17  H   -0.000000   0.000000  -0.000001  -0.000000   0.625885  -0.006561
    18  H   -0.000000  -0.000000  -0.000006   0.000000  -0.006561   0.587380
          Atomic-Atomic Spin Densities.
               1          2          3          4          5          6
     1  C    0.000000   0.000000  -0.000000  -0.000000  -0.000000   0.000000
     2  C    0.000000  -0.000000   0.000000   0.000000   0.000000  -0.000000
     3  C   -0.000000   0.000000  -0.000000   0.000000  -0.000000   0.000000
     4  C   -0.000000   0.000000   0.000000  -0.000000   0.000000   0.000000
     5  N   -0.000000   0.000000  -0.000000   0.000000   0.000000  -0.000000
     6  C    0.000000  -0.000000   0.000000   0.000000  -0.000000  -0.000000
     7  C   -0.000000   0.000000  -0.000000   0.000000   0.000000   0.000000
     8  C   -0.000000  -0.000000  -0.000000   0.000000  -0.000000   0.000000
     9  F   -0.000000   0.000000  -0.000000  -0.000000   0.000000   0.000000
    10  C    0.000000  -0.000000   0.000000  -0.000000  -0.000000  -0.000000
    11  C    0.000000  -0.000000  -0.000000   0.000000  -0.000000   0.000000
    12  S   -0.000000   0.000000   0.000000  -0.000000   0.000000   0.000000
    13  H   -0.000000   0.000000  -0.000000   0.000000  -0.000000   0.000000
    14  H    0.000000  -0.000000   0.000000  -0.000000   0.000000  -0.000000
    15  H   -0.000000   0.000000  -0.000000   0.000000  -0.000000   0.000000
    16  H   -0.000000   0.000000   0.000000  -0.000000  -0.000000   0.000000
    17  H   -0.000000   0.000000   0.000000   0.000000   0.000000  -0.000000
    18  H   -0.000000   0.000000  -0.000000   0.000000  -0.000000   0.000000
               7          8          9         10         11         12
     1  C   -0.000000  -0.000000  -0.000000   0.000000   0.000000  -0.000000
     2  C    0.000000  -0.000000   0.000000  -0.000000  -0.000000   0.000000
     3  C   -0.000000  -0.000000  -0.000000   0.000000  -0.000000   0.000000
     4  C    0.000000   0.000000  -0.000000  -0.000000   0.000000  -0.000000
     5  N    0.000000  -0.000000   0.000000  -0.000000  -0.000000   0.000000
     6  C    0.000000   0.000000   0.000000  -0.000000   0.000000   0.000000
     7  C   -0.000000  -0.000000   0.000000   0.000000  -0.000000   0.000000
     8  C   -0.000000   0.000000  -0.000000  -0.000000   0.000000  -0.000000
     9  F    0.000000  -0.000000   0.000000   0.000000   0.000000   0.000000
    10  C    0.000000  -0.000000   0.000000  -0.000000   0.000000   0.000000
    11  C   -0.000000   0.000000   0.000000   0.000000  -0.000000   0.000000
    12  S    0.000000  -0.000000   0.000000   0.000000   0.000000  -0.000000
    13  H   -0.000000   0.000000  -0.000000   0.000000  -0.000000  -0.000000
    14  H    0.000000   0.000000   0.000000  -0.000000   0.000000  -0.000000
    15  H    0.000000  -0.000000  -0.000000   0.000000   0.000000  -0.000000
    16  H    0.000000   0.000000  -0.000000  -0.000000  -0.000000   0.000000
    17  H    0.000000  -0.000000   0.000000   0.000000  -0.000000   0.000000
    18  H   -0.000000  -0.000000   0.000000   0.000000  -0.000000   0.000000
              13         14         15         16         17         18
     1  C   -0.000000   0.000000  -0.000000  -0.000000  -0.000000  -0.000000
     2  C    0.000000  -0.000000   0.000000   0.000000   0.000000   0.000000
     3  C   -0.000000   0.000000  -0.000000   0.000000   0.000000  -0.000000
     4  C    0.000000  -0.000000   0.000000  -0.000000   0.000000   0.000000
     5  N   -0.000000   0.000000  -0.000000  -0.000000   0.000000  -0.000000
     6  C    0.000000  -0.000000   0.000000   0.000000  -0.000000   0.000000
     7  C   -0.000000   0.000000   0.000000   0.000000   0.000000  -0.000000
     8  C    0.000000   0.000000  -0.000000   0.000000  -0.000000  -0.000000
     9  F   -0.000000   0.000000  -0.000000  -0.000000   0.000000   0.000000
    10  C    0.000000  -0.000000   0.000000  -0.000000   0.000000   0.000000
    11  C   -0.000000   0.000000   0.000000  -0.000000  -0.000000  -0.000000
    12  S   -0.000000  -0.000000  -0.000000   0.000000   0.000000   0.000000
    13  H   -0.000000   0.000000  -0.000000   0.000000  -0.000000  -0.000000
    14  H    0.000000  -0.000000   0.000000  -0.000000   0.000000   0.000000
    15  H   -0.000000   0.000000  -0.000000  -0.000000  -0.000000   0.000000
    16  H    0.000000  -0.000000  -0.000000   0.000000   0.000000   0.000000
    17  H   -0.000000   0.000000  -0.000000   0.000000   0.000000  -0.000000
    18  H   -0.000000   0.000000   0.000000   0.000000  -0.000000  -0.000000
 Mulliken charges and spin densities:
               1          2
     1  C   -0.074973  -0.000000
     2  C    0.050703   0.000000
     3  C   -0.042929  -0.000000
     4  C    0.119139   0.000000
     5  N   -0.203086  -0.000000
     6  C    0.081646  -0.000000
     7  C   -0.208494  -0.000000
     8  C    0.140120   0.000000
     9  F   -0.108167   0.000000
    10  C    0.024212  -0.000000
    11  C   -0.139284   0.000000
    12  S    0.161900  -0.000000
    13  H    0.022338  -0.000000
    14  H    0.025866  -0.000000
    15  H    0.028698  -0.000000
    16  H    0.031354   0.000000
    17  H    0.032829   0.000000
    18  H    0.058128  -0.000000
 Sum of Mulliken charges =  -0.00000   0.00000
 Mulliken charges and spin densities with hydrogens summed into heavy atoms:
               1          2
     1  C   -0.052635  -0.000000
     2  C    0.076569   0.000000
     3  C   -0.014231  -0.000000
     4  C    0.119139   0.000000
     5  N   -0.203086  -0.000000
     6  C    0.113000  -0.000000
     7  C   -0.208494  -0.000000
     8  C    0.140120   0.000000
     9  F   -0.108167   0.000000
    10  C    0.057041  -0.000000
    11  C   -0.081156  -0.000000
    12  S    0.161900  -0.000000
 Electronic spatial extent (au):  <R**2>=           2288.7185
 Charge=              0.0000 electrons
 Dipole moment (field-independent basis, Debye):
    X=              0.2480    Y=             -2.0668    Z=             -0.3318  Tot=              2.1079
 Quadrupole moment (field-independent basis, Debye-Ang):
   XX=            -55.2593   YY=            -72.9838   ZZ=            -77.8053
   XY=             -0.6151   XZ=             -0.3949   YZ=              0.8621
 Traceless Quadrupole moment (field-independent basis, Debye-Ang):
   XX=             13.4235   YY=             -4.3010   ZZ=             -9.1225
   XY=             -0.6151   XZ=             -0.3949   YZ=              0.8621
 Octapole moment (field-independent basis, Debye-Ang**2):
  XXX=             -6.3278  YYY=              4.6360  ZZZ=             -1.4901  XYY=              1.9488
  XXY=              2.7945  XXZ=              0.4047  XZZ=             -2.6297  YZZ=              7.0907
  YYZ=             -1.9581  XYZ=              4.8945
 Hexadecapole moment (field-independent basis, Debye-Ang**3):
 XXXX=          -1900.8971 YYYY=           -679.4837 ZZZZ=           -102.8643 XXXY=              3.1287
 XXXZ=              1.3939 YYYX=            -13.2742 YYYZ=              3.1039 ZZZX=              3.8519
 ZZZY=             -5.4100 XXYY=           -426.6772 XXZZ=           -425.8157 YYZZ=           -134.0513
 XXYZ=              6.4579 YYXZ=             -3.0636 ZZXY=             -4.6628
 N-N= 7.347783172773D+02 E-N=-3.585125525631D+03  KE= 8.949465260098D+02
                          Isotropic Fermi Contact Couplings
        Atom                 a.u.       MegaHertz       Gauss      10(-4) cm-1
     1  C(13)              0.00000       0.00000       0.00000       0.00000
     2  C(13)             -0.00000      -0.00000      -0.00000      -0.00000
     3  C(13)             -0.00000      -0.00000      -0.00000      -0.00000
     4  C(13)              0.00000       0.00000       0.00000       0.00000
     5  N(14)              0.00000       0.00000       0.00000       0.00000
     6  C(13)              0.00000       0.00000       0.00000       0.00000
     7  C(13)             -0.00000      -0.00000      -0.00000      -0.00000
     8  C(13)              0.00000       0.00000       0.00000       0.00000
     9  F(19)              0.00000       0.00000       0.00000       0.00000
    10  C(13)              0.00000       0.00000       0.00000       0.00000
    11  C(13)              0.00000       0.00000       0.00000       0.00000
    12  S(33)              0.00000       0.00000       0.00000       0.00000
    13  H(1)              -0.00000      -0.00000      -0.00000      -0.00000
    14  H(1)              -0.00000      -0.00000      -0.00000      -0.00000
    15  H(1)              -0.00000      -0.00000      -0.00000      -0.00000
    16  H(1)              -0.00000      -0.00000      -0.00000      -0.00000
    17  H(1)               0.00000       0.00000       0.00000       0.00000
    18  H(1)               0.00000       0.00000       0.00000       0.00000
 --------------------------------------------------------
       Center         ----  Spin Dipole Couplings  ----
                      3XX-RR        3YY-RR        3ZZ-RR
 --------------------------------------------------------
     1   Atom       -0.000000      0.000000      0.000000
     2   Atom       -0.000000      0.000000      0.000000
     3   Atom       -0.000000     -0.000000      0.000000
     4   Atom       -0.000000      0.000000     -0.000000
     5   Atom        0.000000      0.000000     -0.000000
     6   Atom        0.000000     -0.000000     -0.000000
     7   Atom       -0.000000      0.000000      0.000000
     8   Atom        0.000000      0.000000     -0.000000
     9   Atom       -0.000000      0.000000      0.000000
    10   Atom        0.000000     -0.000000     -0.000000
    11   Atom       -0.000000      0.000000      0.000000
    12   Atom        0.000000      0.000000     -0.000000
    13   Atom       -0.000000      0.000000      0.000000
    14   Atom        0.000000     -0.000000      0.000000
    15   Atom        0.000000     -0.000000      0.000000
    16   Atom        0.000000      0.000000     -0.000000
    17   Atom        0.000000      0.000000     -0.000000
    18   Atom       -0.000000      0.000000      0.000000
 --------------------------------------------------------
                        XY            XZ            YZ
 --------------------------------------------------------
     1   Atom        0.000000     -0.000000      0.000000
     2   Atom        0.000000      0.000000     -0.000000
     3   Atom       -0.000000     -0.000000     -0.000000
     4   Atom       -0.000000      0.000000      0.000000
     5   Atom        0.000000      0.000000     -0.000000
     6   Atom       -0.000000     -0.000000     -0.000000
     7   Atom       -0.000000     -0.000000      0.000000
     8   Atom        0.000000     -0.000000     -0.000000
     9   Atom        0.000000     -0.000000     -0.000000
    10   Atom        0.000000     -0.000000     -0.000000
    11   Atom       -0.000000     -0.000000      0.000000
    12   Atom        0.000000     -0.000000     -0.000000
    13   Atom       -0.000000     -0.000000     -0.000000
    14   Atom       -0.000000     -0.000000     -0.000000
    15   Atom       -0.000000     -0.000000     -0.000000
    16   Atom        0.000000      0.000000     -0.000000
    17   Atom       -0.000000      0.000000     -0.000000
    18   Atom       -0.000000      0.000000      0.000000
 --------------------------------------------------------


 ---------------------------------------------------------------------------------
              Anisotropic Spin Dipole Couplings in Principal Axis System
 ---------------------------------------------------------------------------------

       Atom             a.u.   MegaHertz   Gauss  10(-4) cm-1        Axes

              Baa    -0.0000    -0.000    -0.000    -0.000  0.9663 -0.2564  0.0231
     1 C(13)  Bbb     0.0000     0.000     0.000     0.000 -0.0655 -0.1582  0.9852
              Bcc     0.0000     0.000     0.000     0.000  0.2490  0.9535  0.1697
 
              Baa    -0.0000    -0.000    -0.000    -0.000  0.9050 -0.4075 -0.1219
     2 C(13)  Bbb     0.0000     0.000     0.000     0.000  0.2617  0.7594 -0.5957
              Bcc     0.0000     0.000     0.000     0.000  0.3353  0.5072  0.7939
 
              Baa    -0.0000    -0.000    -0.000    -0.000  0.8477  0.4867  0.2113
     3 C(13)  Bbb    -0.0000    -0.000    -0.000    -0.000 -0.5301  0.7607  0.3747
              Bcc     0.0000     0.000     0.000     0.000  0.0216 -0.4296  0.9028
 
              Baa    -0.0000    -0.000    -0.000    -0.000 -0.2064 -0.2387  0.9489
     4 C(13)  Bbb    -0.0000    -0.000    -0.000    -0.000  0.9653  0.1087  0.2373
              Bcc     0.0000     0.000     0.000     0.000 -0.1598  0.9650  0.2080
 
              Baa    -0.0000    -0.000    -0.000    -0.000  0.6144 -0.5242 -0.5897
     5 N(14)  Bbb     0.0000     0.000     0.000     0.000  0.2087 -0.6128  0.7622
              Bcc     0.0000     0.000     0.000     0.000  0.7609  0.5914  0.2671
 
              Baa    -0.0000    -0.000    -0.000    -0.000  0.1939  0.9745  0.1129
     6 C(13)  Bbb    -0.0000    -0.000    -0.000    -0.000  0.0315 -0.1212  0.9921
              Bcc     0.0000     0.000     0.000     0.000  0.9805 -0.1888 -0.0542
 
              Baa    -0.0000    -0.000    -0.000    -0.000  0.9960  0.0743  0.0496
     7 C(13)  Bbb     0.0000     0.000     0.000     0.000 -0.0171 -0.3865  0.9221
              Bcc     0.0000     0.000     0.000     0.000 -0.0877  0.9193  0.3837
 
              Baa    -0.0000    -0.000    -0.000    -0.000  0.0428  0.1345  0.9900
     8 C(13)  Bbb     0.0000     0.000     0.000     0.000 -0.0637  0.9892 -0.1316
              Bcc     0.0000     0.000     0.000     0.000  0.9970  0.0575 -0.0509
 
              Baa    -0.0000    -0.000    -0.000    -0.000  0.9359 -0.3510 -0.0302
     9 F(19)  Bbb     0.0000     0.000     0.000     0.000  0.1512  0.3229  0.9343
              Bcc     0.0000     0.000     0.000     0.000  0.3182  0.8789 -0.3553
 
              Baa    -0.0000    -0.000    -0.000    -0.000 -0.1807  0.9759  0.1220
    10 C(13)  Bbb    -0.0000    -0.000    -0.000    -0.000  0.0572 -0.1134  0.9919
              Bcc     0.0000     0.000     0.000     0.000  0.9819  0.1862 -0.0354
 
              Baa    -0.0000    -0.000    -0.000    -0.000  0.9778  0.0669  0.1986
    11 C(13)  Bbb    -0.0000    -0.000    -0.000    -0.000 -0.1410 -0.4907  0.8598
              Bcc     0.0000     0.000     0.000     0.000 -0.1550  0.8687  0.4704
 
              Baa    -0.0000    -0.000    -0.000    -0.000  0.5917 -0.0518  0.8045
    12 S(33)  Bbb    -0.0000    -0.000    -0.000    -0.000 -0.2675  0.9287  0.2566
              Bcc     0.0000     0.000     0.000     0.000  0.7604  0.3671 -0.5357
 
              Baa    -0.0000    -0.000    -0.000    -0.000  0.9999  0.0084  0.0080
    13 H(1)   Bbb     0.0000     0.000     0.000     0.000 -0.0114  0.5627  0.8266
              Bcc     0.0000     0.000     0.000     0.000 -0.0024  0.8266 -0.5628
 
              Baa    -0.0000    -0.000    -0.000    -0.000  0.1325  0.9480  0.2892
    14 H(1)   Bbb     0.0000     0.000     0.000     0.000  0.9550 -0.0440 -0.2935
              Bcc     0.0000     0.000     0.000     0.000  0.2655 -0.3151  0.9112
 
              Baa    -0.0000    -0.000    -0.000    -0.000  0.5047  0.8572  0.1030
    15 H(1)   Bbb     0.0000     0.000     0.000     0.000  0.8461 -0.5148  0.1385
              Bcc     0.0000     0.000     0.000     0.000 -0.1718 -0.0173  0.9850
 
              Baa    -0.0000    -0.000    -0.000    -0.000  0.7048 -0.6598 -0.2606
    16 H(1)   Bbb    -0.0000    -0.000    -0.000    -0.000  0.1478 -0.2227  0.9636
              Bcc     0.0000     0.000     0.000     0.000  0.6939  0.7177  0.0595
 
              Baa    -0.0000    -0.000    -0.000    -0.000  0.4299  0.5129  0.7430
    17 H(1)   Bbb    -0.0000    -0.000    -0.000    -0.000 -0.5891 -0.4642  0.6613
              Bcc     0.0000     0.000     0.000     0.000 -0.6842  0.7221 -0.1026
 
              Baa    -0.0000    -0.000    -0.000    -0.000  0.9486  0.2620 -0.1777
    18 H(1)   Bbb     0.0000     0.000     0.000     0.000 -0.3164  0.7705 -0.5534
              Bcc     0.0000     0.000     0.000     0.000 -0.0081  0.5812  0.8138
 

 ---------------------------------------------------------------------------------

 No NMR shielding tensors so no spin-rotation constants.
 Leave Link  601 at Fri Jul 24 15:51:55 2020, MaxMem=  4026531840 cpu:               2.1 elap:               0.3
 (Enter /opt/ohpc/pub/libs/gaussian/g16-A.03/sandybridge/g16/l9999.exe)

 Test job not archived.
 1\1\GINC-SKYLAKE051\FOpt\ULC-wPBE\CC-pVDZ\C9H6F1N1S1\RDU230\24-Jul-202
 0\0\\#P uLC-wPBE/cc-pVDZ iop(3/107=0466300000, 3/108=0466300000) opt\\
 H6 C9 S1 N1 F1\\0,1\C,3.5356812764,0.0167577869,0.0518937033\C,2.90342
 92857,-1.2019291879,-0.1256848378\C,1.5226838502,-1.2428542531,-0.1402
 252947\C,0.813283323,-0.055890381,0.0365924627\N,1.4174791403,1.117068
 3023,0.2083515708\C,2.7415099645,1.1408217475,0.208488023\C,-0.6571878
 879,-0.0426668897,0.0391230008\C,-1.5011123178,1.0040458983,-0.1797294
 083\F,-1.1114316965,2.2381782637,-0.464578316\C,-2.8808065813,0.680563
 022,-0.1081472625\C,-3.0630633309,-0.6315541365,0.1724281459\S,-1.5843
 767758,-1.4639591045,0.3495536283\H,4.6200294968,0.09919932,0.06692681
 33\H,3.4806660176,-2.115449365,-0.2596038452\H,0.9982462113,-2.1833346
 598,-0.2976588575\H,3.1983188994,2.1224132506,0.3476895423\H,-3.672726
 4636,1.4063729405,-0.263970522\H,-4.0033014115,-1.1595745543,0.2931794
 537\\Version=EM64L-G16RevA.03\State=1-A\HF=-898.9070651\S2=0.\S2-1=0.\
 S2A=0.\RMSD=5.653e-09\RMSF=3.611e-05\Dipole=0.098907,-0.8218058,-0.050
 806\Quadrupole=9.9808312,-3.1090337,-6.8717975,-0.4604657,-0.2762021,0
 .2812879\PG=C01 [X(C9H6F1N1S1)]\\@


 ALMOST ALL THE CHEMICAL PROCESSES WHICH OCCUR IN NATURE,
 WHETHER IN ANIMAL OR VEGETABLE ORGANISMS,
 OR IN THE NON-LIVING SURFACE OF THE EARTH ... 
 TAKE PLACE BETWEEN SUBSTANCES IN SOLUTION

                                    -- W. OSTWALD, 1890
 Job cpu time:       0 days  9 hours 20 minutes 34.0 seconds.
 Elapsed time:       0 days  1 hours 11 minutes  5.0 seconds.
 File lengths (MBytes):  RWF=    100 Int=      0 D2E=      0 Chk=     12 Scr=      8
 Normal termination of Gaussian 16 at Fri Jul 24 15:51:55 2020.
