 Entering Gaussian System, Link 0=g16
 Input=mols_66_1_17_n-n-cOC-cOC_opt_0.gjf
 Output=mols_66_1_17_n-n-cOC-cOC_opt_0.log
 Initial command:
 /opt/ohpc/pub/libs/gaussian/g16-A.03/sandybridge/g16/l1.exe "/mnt/gpfs2_4m/scratch/rdu230/ondemand/projects/dihedral_energies/7trial/wtuning/redos_512cycles/mols_66_1_17_n-n-cOC-cOC/Gau-50217.inp" -scrdir="/mnt/gpfs2_4m/scratch/rdu230/ondemand/projects/dihedral_energies/7trial/wtuning/redos_512cycles/mols_66_1_17_n-n-cOC-cOC/"
 Entering Link 1 = /opt/ohpc/pub/libs/gaussian/g16-A.03/sandybridge/g16/l1.exe PID=     50219.
  
 Copyright (c) 1988,1990,1992,1993,1995,1998,2003,2009,2016,
            Gaussian, Inc.  All Rights Reserved.
  
 This is part of the Gaussian(R) 16 program.  It is based on
 the Gaussian(R) 09 system (copyright 2009, Gaussian, Inc.),
 the Gaussian(R) 03 system (copyright 2003, Gaussian, Inc.),
 the Gaussian(R) 98 system (copyright 1998, Gaussian, Inc.),
 the Gaussian(R) 94 system (copyright 1995, Gaussian, Inc.),
 the Gaussian 92(TM) system (copyright 1992, Gaussian, Inc.),
 the Gaussian 90(TM) system (copyright 1990, Gaussian, Inc.),
 the Gaussian 88(TM) system (copyright 1988, Gaussian, Inc.),
 the Gaussian 86(TM) system (copyright 1986, Carnegie Mellon
 University), and the Gaussian 82(TM) system (copyright 1983,
 Carnegie Mellon University). Gaussian is a federally registered
 trademark of Gaussian, Inc.
  
 This software contains proprietary and confidential information,
 including trade secrets, belonging to Gaussian, Inc.
  
 This software is provided under written license and may be
 used, copied, transmitted, or stored only in accord with that
 written license.
  
 The following legend is applicable only to US Government
 contracts under FAR:
  
                    RESTRICTED RIGHTS LEGEND
  
 Use, reproduction and disclosure by the US Government is
 subject to restrictions as set forth in subparagraphs (a)
 and (c) of the Commercial Computer Software - Restricted
 Rights clause in FAR 52.227-19.
  
 Gaussian, Inc.
 340 Quinnipiac St., Bldg. 40, Wallingford CT 06492
  
  
 ---------------------------------------------------------------
 Warning -- This program may not be used in any manner that
 competes with the business of Gaussian, Inc. or will provide
 assistance to any competitor of Gaussian, Inc.  The licensee
 of this program is prohibited from giving any competitor of
 Gaussian, Inc. access to this program.  By using this program,
 the user acknowledges that Gaussian, Inc. is engaged in the
 business of creating and licensing software in the field of
 computational chemistry and represents and warrants to the
 licensee that it is not a competitor of Gaussian, Inc. and that
 it will not use this program in any manner prohibited above.
 ---------------------------------------------------------------
  

 Cite this work as:
 Gaussian 16, Revision A.03,
 M. J. Frisch, G. W. Trucks, H. B. Schlegel, G. E. Scuseria, 
 M. A. Robb, J. R. Cheeseman, G. Scalmani, V. Barone, 
 G. A. Petersson, H. Nakatsuji, X. Li, M. Caricato, A. V. Marenich, 
 J. Bloino, B. G. Janesko, R. Gomperts, B. Mennucci, H. P. Hratchian, 
 J. V. Ortiz, A. F. Izmaylov, J. L. Sonnenberg, D. Williams-Young, 
 F. Ding, F. Lipparini, F. Egidi, J. Goings, B. Peng, A. Petrone, 
 T. Henderson, D. Ranasinghe, V. G. Zakrzewski, J. Gao, N. Rega, 
 G. Zheng, W. Liang, M. Hada, M. Ehara, K. Toyota, R. Fukuda, 
 J. Hasegawa, M. Ishida, T. Nakajima, Y. Honda, O. Kitao, H. Nakai, 
 T. Vreven, K. Throssell, J. A. Montgomery, Jr., J. E. Peralta, 
 F. Ogliaro, M. J. Bearpark, J. J. Heyd, E. N. Brothers, K. N. Kudin, 
 V. N. Staroverov, T. A. Keith, R. Kobayashi, J. Normand, 
 K. Raghavachari, A. P. Rendell, J. C. Burant, S. S. Iyengar, 
 J. Tomasi, M. Cossi, J. M. Millam, M. Klene, C. Adamo, R. Cammi, 
 J. W. Ochterski, R. L. Martin, K. Morokuma, O. Farkas, 
 J. B. Foresman, and D. J. Fox, Gaussian, Inc., Wallingford CT, 2016.
 
 ******************************************
 Gaussian 16:  EM64L-G16RevA.03 25-Dec-2016
                26-Jul-2020 
 ******************************************
 %mem=30GB
 %nproc=8
 Will use up to    8 processors via shared memory.
 ---------------------------------------------------------------
 #P uLC-wPBE/cc-pVDZ iop(3/107=0459100000, 3/108=0459100000) opt
 ---------------------------------------------------------------
 1/18=20,19=15,26=3,38=1/1,3;
 2/9=110,12=2,17=6,18=5,40=1/2;
 3/5=16,11=2,25=1,30=1,71=1,74=-41,107=459100000,108=459100000,116=2/1,2,3;
 4//1;
 5/5=2,38=5/2;
 6/7=2,8=2,9=2,10=2,28=1/1;
 7//1,2,3,16;
 1/18=20,19=15,26=3/3(2);
 2/9=110/2;
 99//99;
 2/9=110/2;
 3/5=16,11=2,25=1,30=1,71=1,74=-41,107=459100000,108=459100000,116=2/1,2,3;
 4/5=5,16=3,69=1/1;
 5/5=2,38=5/2;
 7//1,2,3,16;
 1/18=20,19=15,26=3/3(-5);
 2/9=110/2;
 6/7=2,8=2,9=2,10=2,19=2,28=1/1;
 99/9=1/99;
 Leave Link    1 at Sun Jul 26 12:21:38 2020, MaxMem=  4026531840 cpu:               1.6 elap:               0.2
 (Enter /opt/ohpc/pub/libs/gaussian/g16-A.03/sandybridge/g16/l101.exe)
 -------------
 H12 C12 N2 O2
 -------------
 Symbolic Z-matrix:
 Charge =  0 Multiplicity = 1
 C                     3.33831  -0.7867    0.79397 
 C                     2.98167   0.19235  -0.04958 
 C                     1.62391   0.24513  -0.4487 
 O                     1.0806    1.20056  -1.33034 
 C                     1.98964   2.16652  -1.88987 
 C                     0.68323  -0.67868   0.15782 
 N                     1.14309  -1.62444   1.05911 
 C                     2.47493  -1.71819   1.30603 
 C                    -0.67339  -0.64215  -0.14701 
 N                    -1.16717  -1.6441   -1.04823 
 C                    -2.40606  -1.66526  -1.2968 
 C                    -3.37097  -0.75917  -0.8213 
 C                    -2.95922   0.21598   0.13655 
 C                    -1.59868   0.33427   0.42121 
 O                    -1.05241   1.24344   1.24639 
 C                    -1.98454   2.10103   1.93999 
 H                     4.45207  -0.85774   1.10305 
 H                     3.70191   0.84314  -0.51447 
 H                     2.71692   1.59027  -2.56617 
 H                     2.46614   2.80602  -1.13557 
 H                     1.41074   2.76565  -2.59827 
 H                     2.73071  -2.49345   1.95237 
 H                    -2.75285  -2.43332  -1.94869 
 H                    -4.43275  -0.92575  -1.05565 
 H                    -3.68102   0.89756   0.44266 
 H                    -1.3938    2.73906   2.59366 
 H                    -2.66332   1.5783    2.49461 
 H                    -2.43996   2.80372   1.18926 
 
 ITRead=  0  0  0  0  0  0  0  0  0  0  0  0  0  0  0  0  0  0  0  0
 ITRead=  0  0  0  0  0  0  0  0
 MicOpt= -1 -1 -1 -1 -1 -1 -1 -1 -1 -1 -1 -1 -1 -1 -1 -1 -1 -1 -1 -1
 MicOpt= -1 -1 -1 -1 -1 -1 -1 -1
 NAtoms=     28 NQM=       28 NQMF=       0 NMMI=      0 NMMIF=      0
                NMic=       0 NMicF=      0.
                    Isotopes and Nuclear Properties:
 (Nuclear quadrupole moments (NQMom) in fm**2, nuclear magnetic moments (NMagM)
  in nuclear magnetons)

  Atom         1           2           3           4           5           6           7           8           9          10
 IAtWgt=          12          12          12          16          12          12          14          12          12          14
 AtmWgt=  12.0000000  12.0000000  12.0000000  15.9949146  12.0000000  12.0000000  14.0030740  12.0000000  12.0000000  14.0030740
 NucSpn=           0           0           0           0           0           0           2           0           0           2
 AtZEff=  -0.0000000  -0.0000000  -0.0000000  -0.0000000  -0.0000000  -0.0000000  -0.0000000  -0.0000000  -0.0000000  -0.0000000
 NQMom=    0.0000000   0.0000000   0.0000000   0.0000000   0.0000000   0.0000000   2.0440000   0.0000000   0.0000000   2.0440000
 NMagM=    0.0000000   0.0000000   0.0000000   0.0000000   0.0000000   0.0000000   0.4037610   0.0000000   0.0000000   0.4037610
 AtZNuc=   6.0000000   6.0000000   6.0000000   8.0000000   6.0000000   6.0000000   7.0000000   6.0000000   6.0000000   7.0000000

  Atom        11          12          13          14          15          16          17          18          19          20
 IAtWgt=          12          12          12          12          16          12           1           1           1           1
 AtmWgt=  12.0000000  12.0000000  12.0000000  12.0000000  15.9949146  12.0000000   1.0078250   1.0078250   1.0078250   1.0078250
 NucSpn=           0           0           0           0           0           0           1           1           1           1
 AtZEff=  -0.0000000  -0.0000000  -0.0000000  -0.0000000  -0.0000000  -0.0000000  -0.0000000  -0.0000000  -0.0000000  -0.0000000
 NQMom=    0.0000000   0.0000000   0.0000000   0.0000000   0.0000000   0.0000000   0.0000000   0.0000000   0.0000000   0.0000000
 NMagM=    0.0000000   0.0000000   0.0000000   0.0000000   0.0000000   0.0000000   2.7928460   2.7928460   2.7928460   2.7928460
 AtZNuc=   6.0000000   6.0000000   6.0000000   6.0000000   8.0000000   6.0000000   1.0000000   1.0000000   1.0000000   1.0000000

  Atom        21          22          23          24          25          26          27          28
 IAtWgt=           1           1           1           1           1           1           1           1
 AtmWgt=   1.0078250   1.0078250   1.0078250   1.0078250   1.0078250   1.0078250   1.0078250   1.0078250
 NucSpn=           1           1           1           1           1           1           1           1
 AtZEff=  -0.0000000  -0.0000000  -0.0000000  -0.0000000  -0.0000000  -0.0000000  -0.0000000  -0.0000000
 NQMom=    0.0000000   0.0000000   0.0000000   0.0000000   0.0000000   0.0000000   0.0000000   0.0000000
 NMagM=    2.7928460   2.7928460   2.7928460   2.7928460   2.7928460   2.7928460   2.7928460   2.7928460
 AtZNuc=   1.0000000   1.0000000   1.0000000   1.0000000   1.0000000   1.0000000   1.0000000   1.0000000
 Leave Link  101 at Sun Jul 26 12:21:38 2020, MaxMem=  4026531840 cpu:               2.8 elap:               0.4
 (Enter /opt/ohpc/pub/libs/gaussian/g16-A.03/sandybridge/g16/l103.exe)

 GradGradGradGradGradGradGradGradGradGradGradGradGradGradGradGradGradGrad
 Berny optimization.
 Initialization pass.
                           ----------------------------
                           !    Initial Parameters    !
                           ! (Angstroms and Degrees)  !
 --------------------------                            --------------------------
 ! Name  Definition              Value          Derivative Info.                !
 --------------------------------------------------------------------------------
 ! R1    R(1,2)                  1.3406         estimate D2E/DX2                !
 ! R2    R(1,8)                  1.3694         estimate D2E/DX2                !
 ! R3    R(1,17)                 1.158          estimate D2E/DX2                !
 ! R4    R(2,3)                  1.4162         estimate D2E/DX2                !
 ! R5    R(2,18)                 1.0763         estimate D2E/DX2                !
 ! R6    R(3,4)                  1.409          estimate D2E/DX2                !
 ! R7    R(3,6)                  1.4513         estimate D2E/DX2                !
 ! R8    R(4,5)                  1.4396         estimate D2E/DX2                !
 ! R9    R(5,19)                 1.1482         estimate D2E/DX2                !
 ! R10   R(5,20)                 1.0977         estimate D2E/DX2                !
 ! R11   R(5,21)                 1.0936         estimate D2E/DX2                !
 ! R12   R(6,7)                  1.385          estimate D2E/DX2                !
 ! R13   R(6,9)                  1.3909         estimate D2E/DX2                !
 ! R14   R(7,8)                  1.3578         estimate D2E/DX2                !
 ! R15   R(8,22)                 1.0413         estimate D2E/DX2                !
 ! R16   R(9,10)                 1.4352         estimate D2E/DX2                !
 ! R17   R(9,14)                 1.4603         estimate D2E/DX2                !
 ! R18   R(10,11)                1.2638         estimate D2E/DX2                !
 ! R19   R(11,12)                1.4065         estimate D2E/DX2                !
 ! R20   R(11,23)                1.0654         estimate D2E/DX2                !
 ! R21   R(12,13)                1.4276         estimate D2E/DX2                !
 ! R22   R(12,24)                1.1            estimate D2E/DX2                !
 ! R23   R(13,14)                1.395          estimate D2E/DX2                !
 ! R24   R(13,25)                1.0389         estimate D2E/DX2                !
 ! R25   R(14,15)                1.3439         estimate D2E/DX2                !
 ! R26   R(15,16)                1.4441         estimate D2E/DX2                !
 ! R27   R(16,26)                1.0878         estimate D2E/DX2                !
 ! R28   R(16,27)                1.0206         estimate D2E/DX2                !
 ! R29   R(16,28)                1.1246         estimate D2E/DX2                !
 ! A1    A(2,1,8)              124.3541         estimate D2E/DX2                !
 ! A2    A(2,1,17)             117.9429         estimate D2E/DX2                !
 ! A3    A(8,1,17)             117.7            estimate D2E/DX2                !
 ! A4    A(1,2,3)              117.361          estimate D2E/DX2                !
 ! A5    A(1,2,18)             122.3665         estimate D2E/DX2                !
 ! A6    A(3,2,18)             119.8226         estimate D2E/DX2                !
 ! A7    A(2,3,4)              124.841          estimate D2E/DX2                !
 ! A8    A(2,3,6)              118.6807         estimate D2E/DX2                !
 ! A9    A(4,3,6)              116.3086         estimate D2E/DX2                !
 ! A10   A(3,4,5)              117.0452         estimate D2E/DX2                !
 ! A11   A(4,5,19)             106.9861         estimate D2E/DX2                !
 ! A12   A(4,5,20)             113.4485         estimate D2E/DX2                !
 ! A13   A(4,5,21)             106.5655         estimate D2E/DX2                !
 ! A14   A(19,5,20)            114.9708         estimate D2E/DX2                !
 ! A15   A(19,5,21)            103.2211         estimate D2E/DX2                !
 ! A16   A(20,5,21)            110.8394         estimate D2E/DX2                !
 ! A17   A(3,6,7)              119.4344         estimate D2E/DX2                !
 ! A18   A(3,6,9)              121.5932         estimate D2E/DX2                !
 ! A19   A(7,6,9)              118.9721         estimate D2E/DX2                !
 ! A20   A(6,7,8)              119.4177         estimate D2E/DX2                !
 ! A21   A(1,8,7)              120.2294         estimate D2E/DX2                !
 ! A22   A(1,8,22)             125.7094         estimate D2E/DX2                !
 ! A23   A(7,8,22)             113.907          estimate D2E/DX2                !
 ! A24   A(6,9,10)             117.0541         estimate D2E/DX2                !
 ! A25   A(6,9,14)             123.3871         estimate D2E/DX2                !
 ! A26   A(10,9,14)            119.5463         estimate D2E/DX2                !
 ! A27   A(9,10,11)            118.1945         estimate D2E/DX2                !
 ! A28   A(10,11,12)           126.5313         estimate D2E/DX2                !
 ! A29   A(10,11,23)           116.8401         estimate D2E/DX2                !
 ! A30   A(12,11,23)           116.6144         estimate D2E/DX2                !
 ! A31   A(11,12,13)           117.9721         estimate D2E/DX2                !
 ! A32   A(11,12,24)           119.5128         estimate D2E/DX2                !
 ! A33   A(13,12,24)           121.6536         estimate D2E/DX2                !
 ! A34   A(12,13,14)           118.4328         estimate D2E/DX2                !
 ! A35   A(12,13,25)           116.4535         estimate D2E/DX2                !
 ! A36   A(14,13,25)           124.1849         estimate D2E/DX2                !
 ! A37   A(9,14,13)            118.8082         estimate D2E/DX2                !
 ! A38   A(9,14,15)            115.7045         estimate D2E/DX2                !
 ! A39   A(13,14,15)           125.3882         estimate D2E/DX2                !
 ! A40   A(14,15,16)           115.7411         estimate D2E/DX2                !
 ! A41   A(15,16,26)           106.6422         estimate D2E/DX2                !
 ! A42   A(15,16,27)           112.7152         estimate D2E/DX2                !
 ! A43   A(15,16,28)           108.1694         estimate D2E/DX2                !
 ! A44   A(26,16,27)           109.5743         estimate D2E/DX2                !
 ! A45   A(26,16,28)           104.7476         estimate D2E/DX2                !
 ! A46   A(27,16,28)           114.4227         estimate D2E/DX2                !
 ! D1    D(8,1,2,3)             -1.0731         estimate D2E/DX2                !
 ! D2    D(8,1,2,18)          -173.3549         estimate D2E/DX2                !
 ! D3    D(17,1,2,3)           178.2781         estimate D2E/DX2                !
 ! D4    D(17,1,2,18)            5.9962         estimate D2E/DX2                !
 ! D5    D(2,1,8,7)             -5.5984         estimate D2E/DX2                !
 ! D6    D(2,1,8,22)           179.2            estimate D2E/DX2                !
 ! D7    D(17,1,8,7)           175.049          estimate D2E/DX2                !
 ! D8    D(17,1,8,22)           -0.1526         estimate D2E/DX2                !
 ! D9    D(1,2,3,4)           -179.7361         estimate D2E/DX2                !
 ! D10   D(1,2,3,6)              5.1833         estimate D2E/DX2                !
 ! D11   D(18,2,3,4)            -7.2491         estimate D2E/DX2                !
 ! D12   D(18,2,3,6)           177.6702         estimate D2E/DX2                !
 ! D13   D(2,3,4,5)              1.8365         estimate D2E/DX2                !
 ! D14   D(6,3,4,5)            177.0222         estimate D2E/DX2                !
 ! D15   D(2,3,6,7)             -2.9914         estimate D2E/DX2                !
 ! D16   D(2,3,6,9)            177.2341         estimate D2E/DX2                !
 ! D17   D(4,3,6,7)           -178.4882         estimate D2E/DX2                !
 ! D18   D(4,3,6,9)              1.7372         estimate D2E/DX2                !
 ! D19   D(3,4,5,19)            65.825          estimate D2E/DX2                !
 ! D20   D(3,4,5,20)           -62.0282         estimate D2E/DX2                !
 ! D21   D(3,4,5,21)           175.7238         estimate D2E/DX2                !
 ! D22   D(3,6,7,8)             -3.4892         estimate D2E/DX2                !
 ! D23   D(9,6,7,8)            176.2913         estimate D2E/DX2                !
 ! D24   D(3,6,9,10)           102.693          estimate D2E/DX2                !
 ! D25   D(3,6,9,14)           -78.5989         estimate D2E/DX2                !
 ! D26   D(7,6,9,10)           -77.0825         estimate D2E/DX2                !
 ! D27   D(7,6,9,14)           101.6255         estimate D2E/DX2                !
 ! D28   D(6,7,8,1)              7.7326         estimate D2E/DX2                !
 ! D29   D(6,7,8,22)          -176.5282         estimate D2E/DX2                !
 ! D30   D(6,9,10,11)          177.12           estimate D2E/DX2                !
 ! D31   D(14,9,10,11)          -1.64           estimate D2E/DX2                !
 ! D32   D(6,9,14,13)         -174.7334         estimate D2E/DX2                !
 ! D33   D(6,9,14,15)            1.8432         estimate D2E/DX2                !
 ! D34   D(10,9,14,13)           3.944          estimate D2E/DX2                !
 ! D35   D(10,9,14,15)        -179.4794         estimate D2E/DX2                !
 ! D36   D(9,10,11,12)           2.9583         estimate D2E/DX2                !
 ! D37   D(9,10,11,23)        -178.4671         estimate D2E/DX2                !
 ! D38   D(10,11,12,13)         -6.3073         estimate D2E/DX2                !
 ! D39   D(10,11,12,24)       -175.8607         estimate D2E/DX2                !
 ! D40   D(23,11,12,13)        175.1153         estimate D2E/DX2                !
 ! D41   D(23,11,12,24)          5.5619         estimate D2E/DX2                !
 ! D42   D(11,12,13,14)          8.1492         estimate D2E/DX2                !
 ! D43   D(11,12,13,25)        177.5885         estimate D2E/DX2                !
 ! D44   D(24,12,13,14)        177.4666         estimate D2E/DX2                !
 ! D45   D(24,12,13,25)        -13.0941         estimate D2E/DX2                !
 ! D46   D(12,13,14,9)          -7.1725         estimate D2E/DX2                !
 ! D47   D(12,13,14,15)        176.6117         estimate D2E/DX2                !
 ! D48   D(25,13,14,9)        -175.7315         estimate D2E/DX2                !
 ! D49   D(25,13,14,15)          8.0526         estimate D2E/DX2                !
 ! D50   D(9,14,15,16)        -172.4569         estimate D2E/DX2                !
 ! D51   D(13,14,15,16)          3.8632         estimate D2E/DX2                !
 ! D52   D(14,15,16,26)        177.4152         estimate D2E/DX2                !
 ! D53   D(14,15,16,27)         57.1362         estimate D2E/DX2                !
 ! D54   D(14,15,16,28)        -70.3913         estimate D2E/DX2                !
 --------------------------------------------------------------------------------
 Trust Radius=3.00D-01 FncErr=1.00D-07 GrdErr=1.00D-06 EigMax=2.50D+02 EigMin=1.00D-04
 Number of steps in this run=    139 maximum allowed number of steps=    168.
 GradGradGradGradGradGradGradGradGradGradGradGradGradGradGradGradGradGrad

 Leave Link  103 at Sun Jul 26 12:21:38 2020, MaxMem=  4026531840 cpu:               0.2 elap:               0.0
 (Enter /opt/ohpc/pub/libs/gaussian/g16-A.03/sandybridge/g16/l202.exe)
                          Input orientation:                          
 ---------------------------------------------------------------------
 Center     Atomic      Atomic             Coordinates (Angstroms)
 Number     Number       Type             X           Y           Z
 ---------------------------------------------------------------------
      1          6           0        3.338306   -0.786697    0.793972
      2          6           0        2.981665    0.192351   -0.049577
      3          6           0        1.623905    0.245132   -0.448699
      4          8           0        1.080596    1.200563   -1.330344
      5          6           0        1.989636    2.166523   -1.889870
      6          6           0        0.683232   -0.678676    0.157815
      7          7           0        1.143092   -1.624441    1.059109
      8          6           0        2.474925   -1.718188    1.306030
      9          6           0       -0.673394   -0.642147   -0.147014
     10          7           0       -1.167172   -1.644096   -1.048230
     11          6           0       -2.406064   -1.665257   -1.296804
     12          6           0       -3.370966   -0.759173   -0.821295
     13          6           0       -2.959222    0.215983    0.136550
     14          6           0       -1.598684    0.334267    0.421209
     15          8           0       -1.052407    1.243440    1.246391
     16          6           0       -1.984542    2.101027    1.939986
     17          1           0        4.452068   -0.857738    1.103050
     18          1           0        3.701914    0.843142   -0.514466
     19          1           0        2.716924    1.590270   -2.566173
     20          1           0        2.466141    2.806021   -1.135567
     21          1           0        1.410740    2.765649   -2.598269
     22          1           0        2.730714   -2.493449    1.952371
     23          1           0       -2.752849   -2.433323   -1.948693
     24          1           0       -4.432746   -0.925748   -1.055647
     25          1           0       -3.681025    0.897562    0.442664
     26          1           0       -1.393801    2.739058    2.593658
     27          1           0       -2.663319    1.578301    2.494614
     28          1           0       -2.439958    2.803715    1.189258
 ---------------------------------------------------------------------
                    Distance matrix (angstroms):
                    1          2          3          4          5
     1  C    0.000000
     2  C    1.340635   0.000000
     3  C    2.355435   1.416191   0.000000
     4  O    3.682279   2.504180   1.409018   0.000000
     5  C    4.212295   2.875440   2.429501   1.439619   0.000000
     6  C    2.732358   2.466677   1.451257   2.429826   3.740971
     7  N    2.364546   2.812520   2.449483   3.700546   4.876938
     8  C    1.369418   2.396793   2.767297   4.172976   5.053737
     9  C    4.123116   3.750378   2.481101   2.805767   4.244750
    10  N    4.942487   4.645718   3.423263   3.636500   5.019423
    11  C    6.175840   5.833859   4.539771   4.513407   5.861437
    12  C    6.901027   6.469688   5.108443   4.890409   6.199807
    13  C    6.410650   5.943849   4.620435   4.409230   5.692291
    14  C    5.076355   4.606667   3.339126   3.316165   4.644813
    15  O    4.858446   4.365554   3.321535   3.345311   4.465674
    16  C    6.163198   5.680195   4.708615   4.571757   5.519618
    17  H    1.158034   2.143203   3.409216   4.639486   4.916024
    18  H    2.121461   1.076294   2.163345   2.768522   2.564170
    19  H    4.162531   2.890938   2.736381   2.087274   1.148216
    20  H    4.170302   2.876875   2.781960   2.129593   1.097719
    21  H    5.276549   3.947847   3.319502   2.041108   1.093573
    22  H    2.150362   3.359210   3.806572   5.210070   6.085010
    23  H    6.880099   6.586764   5.346034   5.318156   6.607057
    24  H    7.989348   7.565435   6.198578   5.915539   7.176702
    25  H    7.227112   6.717966   5.418715   5.090030   6.261579
    26  H    6.169494   5.711139   4.958039   4.887474   5.646013
    27  H    6.671199   6.345046   5.368493   5.365621   6.420257
    28  H    6.814370   6.143934   5.073877   4.616578   5.432158
                    6          7          8          9         10
     6  C    0.000000
     7  N    1.385018   0.000000
     8  C    2.368364   1.357769   0.000000
     9  C    1.390931   2.391497   3.630580   0.000000
    10  N    2.410513   3.127073   4.337384   1.435238   0.000000
    11  C    3.554294   4.260106   5.531871   2.317524   1.263760
    12  C    4.171529   4.966017   6.294415   2.783028   2.385644
    13  C    3.750778   4.589908   5.885461   2.458008   2.841662
    14  C    2.510492   3.429401   4.646479   1.460282   2.501874
    15  O    2.809265   3.616633   4.606177   2.375009   3.690030
    16  C    4.244985   4.943395   5.905519   3.687775   4.860399
    17  H    3.889686   3.396923   2.165795   5.280104   6.068132
    18  H    3.446786   3.887502   3.373443   4.635129   5.493565
    19  H    4.087069   5.094505   5.098864   4.725492   5.277450
    20  H    4.122465   5.118208   5.141006   4.766947   5.745619
    21  H    4.470866   5.720222   6.039937   4.686719   5.337987
    22  H    3.272005   2.018325   1.041256   4.407118   4.991846
    23  H    4.395772   4.987937   6.199537   3.283061   1.986979
    24  H    5.263722   6.004193   7.343119   3.877985   3.343659
    25  H    4.648914   5.478376   6.744129   3.429908   3.873273
    26  H    4.682767   5.275490   6.040867   4.411668   5.703223
    27  H    4.664116   5.177547   6.219415   3.983515   5.017374
    28  H    4.790119   5.697697   6.679620   4.096381   5.139004
                   11         12         13         14         15
    11  C    0.000000
    12  C    1.406461   0.000000
    13  C    2.428899   1.427561   0.000000
    14  C    2.757087   2.424956   1.395022   0.000000
    15  O    4.093989   3.696147   2.433795   1.343852   0.000000
    16  C    4.983913   4.210414   2.784919   2.361570   1.444093
    17  H    7.310633   8.056841   7.550776   6.204626   5.893619
    18  H    6.649174   7.258594   6.722193   5.406550   5.085708
    19  H    6.201190   6.754768   6.435216   5.396894   5.372503
    20  H    6.614885   6.846984   6.145010   5.005589   4.527203
    21  H    5.991221   6.200542   5.751226   4.907698   4.813068
    22  H    6.134291   6.923253   6.558475   5.392970   5.364210
    23  H    1.065432   2.110894   3.377817   3.822053   5.159327
    24  H    2.170822   1.100020   2.212726   3.435207   4.629411
    25  H    3.349525   2.106775   1.038872   2.157291   2.770423
    26  H    5.963083   5.273396   3.854067   3.247234   2.041703
    27  H    4.996168   4.118228   2.739331   2.641983   2.065243
    28  H    5.114036   4.195625   2.841511   2.719525   2.088784
                   16         17         18         19         20
    16  C    0.000000
    17  H    7.133351   0.000000
    18  H    6.319999   2.464159   0.000000
    19  H    6.532237   4.739901   2.395393   0.000000
    20  H    5.455696   4.730586   2.401207   1.894090   0.000000
    21  H    5.706612   6.006527   3.645236   1.757459   1.804161
    22  H    6.583540   2.521895   4.261614   6.090500   6.139197
    23  H    6.022661   7.981631   7.379444   6.818284   7.439742
    24  H    4.912116   9.143551   8.342334   7.728507   7.843923
    25  H    2.562880   8.346520   7.444921   7.103992   6.627268
    26  H    1.087817   7.023748   6.262687   6.696389   5.367565
    27  H    1.020585   7.648495   7.078927   7.386388   6.402880
    28  H    1.124618   7.804722   6.668517   6.493777   5.429054
                   21         22         23         24         25
    21  H    0.000000
    22  H    7.078755   0.000000
    23  H    6.692289   6.729887   0.000000
    24  H    7.081838   7.925971   2.427420   0.000000
    25  H    6.217965   7.408682   4.204152   2.476788   0.000000
    26  H    5.901039   6.693430   7.016658   5.998618   3.639956
    27  H    6.629118   6.780027   5.986996   4.691001   2.389483
    28  H    5.401360   7.441649   6.113199   4.787452   2.393965
                   26         27         28
    26  H    0.000000
    27  H    1.723033   0.000000
    28  H    1.752417   1.804296   0.000000
 Stoichiometry    C12H12N2O2
 Framework group  C1[X(C12H12N2O2)]
 Deg. of freedom    78
 Full point group                 C1      NOp   1
 Largest Abelian subgroup         C1      NOp   1
 Largest concise Abelian subgroup C1      NOp   1
                         Standard orientation:                         
 ---------------------------------------------------------------------
 Center     Atomic      Atomic             Coordinates (Angstroms)
 Number     Number       Type             X           Y           Z
 ---------------------------------------------------------------------
      1          6           0        3.335235   -0.781464    0.784178
      2          6           0        2.973897    0.209277   -0.043572
      3          6           0        1.616186    0.261140   -0.442982
      4          8           0        1.068343    1.227868   -1.309374
      5          6           0        1.972511    2.207811   -1.852230
      6          6           0        0.680116   -0.677599    0.147517
      7          7           0        1.144443   -1.635441    1.033639
      8          6           0        2.476573   -1.725917    1.280176
      9          6           0       -0.676446   -0.643522   -0.157878
     10          7           0       -1.163997   -1.633291   -1.075788
     11          6           0       -2.402555   -1.657170   -1.325774
     12          6           0       -3.372797   -0.764280   -0.836375
     13          6           0       -2.967177    0.197325    0.137646
     14          6           0       -1.607536    0.318389    0.425408
     15          8           0       -1.066918    1.216927    1.265824
     16          6           0       -2.004300    2.057942    1.972517
     17          1           0        4.449124   -0.851448    1.093042
     18          1           0        3.690932    0.871517   -0.497122
     19          1           0        2.703491    1.646684   -2.537216
     20          1           0        2.444896    2.837491   -1.087153
     21          1           0        1.390900    2.815259   -2.551255
     22          1           0        2.736100   -2.510229    1.913986
     23          1           0       -2.744598   -2.416363   -1.990437
     24          1           0       -4.433459   -0.932814   -1.074360
     25          1           0       -3.692955    0.869845    0.454219
     26          1           0       -1.417593    2.688426    2.637054
     27          1           0       -2.680639    1.522508    2.517924
     28          1           0       -2.462969    2.770305    1.232971
 ---------------------------------------------------------------------
 Rotational constants (GHZ):           0.7737883           0.4031981           0.3717202
 Leave Link  202 at Sun Jul 26 12:21:38 2020, MaxMem=  4026531840 cpu:               0.2 elap:               0.0
 (Enter /opt/ohpc/pub/libs/gaussian/g16-A.03/sandybridge/g16/l301.exe)
 Standard basis: CC-pVDZ (5D, 7F)
 Ernie: Thresh=  0.10000D-02 Tol=  0.10000D-05 Strict=F.
 Ernie:  32 primitive shells out of 412 were deleted.
 There are   300 symmetry adapted cartesian basis functions of A   symmetry.
 There are   284 symmetry adapted basis functions of A   symmetry.
   284 basis functions,   612 primitive gaussians,   300 cartesian basis functions
    57 alpha electrons       57 beta electrons
       nuclear repulsion energy      1064.7751974931 Hartrees.
 IExCor=32609 DFT=T Ex+Corr=LC-wPBE ExCW=0 ScaHFX=  1.000000
 ScaDFX=  1.000000  0.000000  1.000000  1.000000 ScalE2=  1.000000  1.000000
 IRadAn=      5 IRanWt=     -1 IRanGd=            0 ICorTp=0 IEmpDi=  4
 HFx  wShort=  0.000000 wLong=  0.459100 cFull=  0.000000 cShort=  0.000000 cLong=  1.000000
 DFx  wShort=  0.000000 wLong=  0.459100 cFull=  0.000000 cShort=  0.000000 cLong=  1.000000
 NAtoms=   28 NActive=   28 NUniq=   28 SFac= 1.00D+00 NAtFMM=   60 NAOKFM=F Big=F
 Integral buffers will be    131072 words long.
 Raffenetti 2 integral format.
 Two-electron integral symmetry is turned on.
 Leave Link  301 at Sun Jul 26 12:21:38 2020, MaxMem=  4026531840 cpu:               0.4 elap:               0.1
 (Enter /opt/ohpc/pub/libs/gaussian/g16-A.03/sandybridge/g16/l302.exe)
 NPDir=0 NMtPBC=     1 NCelOv=     1 NCel=       1 NClECP=     1 NCelD=      1
         NCelK=      1 NCelE2=     1 NClLst=     1 CellRange=     0.0.
 One-electron integrals computed using PRISM.
 One-electron integral symmetry used in STVInt
 NBasis=   284 RedAO= T EigKep=  6.21D-04  NBF=   284
 NBsUse=   284 1.00D-06 EigRej= -1.00D+00 NBFU=   284
 Precomputing XC quadrature grid using
 IXCGrd= 4 IRadAn=           5 IRanWt=          -1 IRanGd=           0 AccXCQ= 0.00D+00.
 Generated NRdTot=       0 NPtTot=           0 NUsed=           0 NTot=          32
 NSgBfM=   299   299   299   299   299 MxSgAt=    28 MxSgA2=    28.
 Leave Link  302 at Sun Jul 26 12:21:39 2020, MaxMem=  4026531840 cpu:               2.9 elap:               0.4
 (Enter /opt/ohpc/pub/libs/gaussian/g16-A.03/sandybridge/g16/l303.exe)
 DipDrv:  MaxL=1.
 Leave Link  303 at Sun Jul 26 12:21:39 2020, MaxMem=  4026531840 cpu:               0.4 elap:               0.1
 (Enter /opt/ohpc/pub/libs/gaussian/g16-A.03/sandybridge/g16/l401.exe)
 ExpMin= 1.22D-01 ExpMax= 1.17D+04 ExpMxC= 4.01D+02 IAcc=3 IRadAn=         5 AccDes= 0.00D+00
 Harris functional with IExCor=32609 and IRadAn=       5 diagonalized for initial guess.
 HarFok:  IExCor=32609 AccDes= 0.00D+00 IRadAn=         5 IDoV= 1 UseB2=F ITyADJ=14
 ICtDFT=  3500011 ScaDFX=  1.000000  1.000000  1.000000  1.000000
 FoFCou: FMM=F IPFlag=           0 FMFlag=      100000 FMFlg1=           0
         NFxFlg=           0 DoJE=T BraDBF=F KetDBF=T FulRan=T
         wScrn=  0.000000 ICntrl=       500 IOpCl=  0 I1Cent=   200000004 NGrid=           0
         NMat0=    1 NMatS0=      1 NMatT0=    0 NMatD0=    1 NMtDS0=    0 NMtDT0=    0
 Petite list used in FoFCou.
 Harris En= -723.791241340661    
 JPrj=0 DoOrth=F DoCkMO=F.
 Initial guess <Sx>= 0.0000 <Sy>= 0.0000 <Sz>= 0.0000 <S**2>= 0.0000 S= 0.0000
 Leave Link  401 at Sun Jul 26 12:21:41 2020, MaxMem=  4026531840 cpu:              16.4 elap:               2.1
 (Enter /opt/ohpc/pub/libs/gaussian/g16-A.03/sandybridge/g16/l502.exe)
 Integral symmetry usage will be decided dynamically.
 UHF open shell SCF:
 Using DIIS extrapolation, IDIIS=  1040.
 NGot=  4026531840 LenX=  4026346184 LenY=  4026255743
 Requested convergence on RMS density matrix=1.00D-08 within 128 cycles.
 Requested convergence on MAX density matrix=1.00D-06.
 Requested convergence on             energy=1.00D-06.
 No special actions if energy rises.
 Fock matrices will be formed incrementally for  20 cycles.
 Integral accuracy reduced to 1.0D-05 until final iterations.

 Cycle   1  Pass 0  IDiag  1:
 FoFJK:  IHMeth= 1 ICntrl=       0 DoSepK=T KAlg= 0 I1Cent=           0 FoldK=F
 IRaf=         1 NMat=       1 IRICut=       1 DoRegI=T DoRafI=F ISym2E= 0 IDoP0=0 IntGTp=1.
 FoFCou: FMM=F IPFlag=           0 FMFlag=      100000 FMFlg1=           0
         NFxFlg=           0 DoJE=T BraDBF=F KetDBF=F FulRan=T
         wScrn=  0.000000 ICntrl=       500 IOpCl=  0 I1Cent=           0 NGrid=           0
         NMat0=    1 NMatS0=      1 NMatT0=    0 NMatD0=    1 NMtDS0=    0 NMtDT0=    0
 Symmetry not used in FoFCou.
 E= -723.672272782864    
 DIIS: error= 1.88D-02 at cycle   1 NSaved=   1.
 NSaved= 1 IEnMin= 1 EnMin= -723.672272782864     IErMin= 1 ErrMin= 1.88D-02
 ErrMax= 1.88D-02  0.00D+00 EMaxC= 1.00D-01 BMatC= 8.40D-01 BMatP= 8.40D-01
 IDIUse=3 WtCom= 8.12D-01 WtEn= 1.88D-01
 Coeff-Com:  0.100D+01
 Coeff-En:   0.100D+01
 Coeff:      0.100D+01
 Gap=     0.384 Goal=   None    Shift=    0.000
 Gap=     0.384 Goal=   None    Shift=    0.000
 GapD=    0.384 DampG=1.000 DampE=0.500 DampFc=0.5000 IDamp=-1.
 Damping current iteration by 5.00D-01
 RMSDP=2.74D-03 MaxDP=7.20D-02              OVMax= 1.15D-01

 Cycle   2  Pass 0  IDiag  1:
 RMSU=  1.34D-03    CP:  9.86D-01
 E= -723.796142493022     Delta-E=       -0.123869710158 Rises=F Damp=T
 DIIS: error= 6.82D-03 at cycle   2 NSaved=   2.
 NSaved= 2 IEnMin= 2 EnMin= -723.796142493022     IErMin= 2 ErrMin= 6.82D-03
 ErrMax= 6.82D-03  0.00D+00 EMaxC= 1.00D-01 BMatC= 8.93D-02 BMatP= 8.40D-01
 IDIUse=3 WtCom= 9.32D-01 WtEn= 6.82D-02
 Coeff-Com: -0.273D+00 0.127D+01
 Coeff-En:   0.000D+00 0.100D+01
 Coeff:     -0.255D+00 0.125D+01
 Gap=     0.370 Goal=   None    Shift=    0.000
 Gap=     0.370 Goal=   None    Shift=    0.000
 RMSDP=1.19D-03 MaxDP=2.32D-02 DE=-1.24D-01 OVMax= 5.81D-02

 Cycle   3  Pass 0  IDiag  1:
 RMSU=  8.31D-04    CP:  9.73D-01  1.61D+00
 E= -723.901848123396     Delta-E=       -0.105705630375 Rises=F Damp=F
 DIIS: error= 2.82D-03 at cycle   3 NSaved=   3.
 NSaved= 3 IEnMin= 3 EnMin= -723.901848123396     IErMin= 3 ErrMin= 2.82D-03
 ErrMax= 2.82D-03  0.00D+00 EMaxC= 1.00D-01 BMatC= 2.24D-02 BMatP= 8.93D-02
 IDIUse=3 WtCom= 9.72D-01 WtEn= 2.82D-02
 Coeff-Com: -0.149D+00 0.496D+00 0.652D+00
 Coeff-En:   0.000D+00 0.000D+00 0.100D+01
 Coeff:     -0.145D+00 0.482D+00 0.662D+00
 Gap=     0.364 Goal=   None    Shift=    0.000
 Gap=     0.364 Goal=   None    Shift=    0.000
 RMSDP=3.16D-04 MaxDP=1.21D-02 DE=-1.06D-01 OVMax= 2.91D-02

 Cycle   4  Pass 0  IDiag  1:
 RMSU=  2.57D-04    CP:  9.73D-01  1.63D+00  7.81D-01
 E= -723.907139819920     Delta-E=       -0.005291696523 Rises=F Damp=F
 DIIS: error= 1.32D-03 at cycle   4 NSaved=   4.
 NSaved= 4 IEnMin= 4 EnMin= -723.907139819920     IErMin= 4 ErrMin= 1.32D-03
 ErrMax= 1.32D-03  0.00D+00 EMaxC= 1.00D-01 BMatC= 2.48D-03 BMatP= 2.24D-02
 IDIUse=3 WtCom= 9.87D-01 WtEn= 1.32D-02
 Coeff-Com: -0.116D-01 0.187D-01 0.246D+00 0.747D+00
 Coeff-En:   0.000D+00 0.000D+00 0.000D+00 0.100D+01
 Coeff:     -0.114D-01 0.184D-01 0.243D+00 0.750D+00
 Gap=     0.364 Goal=   None    Shift=    0.000
 Gap=     0.364 Goal=   None    Shift=    0.000
 RMSDP=1.13D-04 MaxDP=3.74D-03 DE=-5.29D-03 OVMax= 6.06D-03

 Cycle   5  Pass 0  IDiag  1:
 RMSU=  6.38D-05    CP:  9.73D-01  1.65D+00  8.82D-01  8.69D-01
 E= -723.907793323946     Delta-E=       -0.000653504026 Rises=F Damp=F
 DIIS: error= 2.21D-04 at cycle   5 NSaved=   5.
 NSaved= 5 IEnMin= 5 EnMin= -723.907793323946     IErMin= 5 ErrMin= 2.21D-04
 ErrMax= 2.21D-04  0.00D+00 EMaxC= 1.00D-01 BMatC= 1.35D-04 BMatP= 2.48D-03
 IDIUse=3 WtCom= 9.98D-01 WtEn= 2.21D-03
 Coeff-Com:  0.884D-02-0.313D-01 0.263D-01 0.215D+00 0.781D+00
 Coeff-En:   0.000D+00 0.000D+00 0.000D+00 0.000D+00 0.100D+01
 Coeff:      0.882D-02-0.312D-01 0.262D-01 0.215D+00 0.781D+00
 Gap=     0.364 Goal=   None    Shift=    0.000
 Gap=     0.364 Goal=   None    Shift=    0.000
 RMSDP=3.00D-05 MaxDP=8.36D-04 DE=-6.54D-04 OVMax= 2.79D-03

 Cycle   6  Pass 0  IDiag  1:
 RMSU=  2.30D-05    CP:  9.73D-01  1.65D+00  8.95D-01  9.26D-01  1.09D+00
 E= -723.907840342357     Delta-E=       -0.000047018411 Rises=F Damp=F
 DIIS: error= 6.23D-05 at cycle   6 NSaved=   6.
 NSaved= 6 IEnMin= 6 EnMin= -723.907840342357     IErMin= 6 ErrMin= 6.23D-05
 ErrMax= 6.23D-05  0.00D+00 EMaxC= 1.00D-01 BMatC= 2.12D-05 BMatP= 1.35D-04
 IDIUse=1 WtCom= 1.00D+00 WtEn= 0.00D+00
 Coeff-Com:  0.466D-02-0.133D-01-0.205D-01-0.301D-01 0.230D+00 0.829D+00
 Coeff:      0.466D-02-0.133D-01-0.205D-01-0.301D-01 0.230D+00 0.829D+00
 Gap=     0.364 Goal=   None    Shift=    0.000
 Gap=     0.364 Goal=   None    Shift=    0.000
 RMSDP=1.54D-05 MaxDP=3.35D-04 DE=-4.70D-05 OVMax= 1.54D-03

 Cycle   7  Pass 0  IDiag  1:
 RMSU=  9.09D-06    CP:  9.73D-01  1.65D+00  9.01D-01  9.45D-01  1.24D+00
                    CP:  1.11D+00
 E= -723.907850517220     Delta-E=       -0.000010174863 Rises=F Damp=F
 DIIS: error= 4.25D-05 at cycle   7 NSaved=   7.
 NSaved= 7 IEnMin= 7 EnMin= -723.907850517220     IErMin= 7 ErrMin= 4.25D-05
 ErrMax= 4.25D-05  0.00D+00 EMaxC= 1.00D-01 BMatC= 2.83D-06 BMatP= 2.12D-05
 IDIUse=1 WtCom= 1.00D+00 WtEn= 0.00D+00
 Coeff-Com: -0.310D-03 0.212D-02-0.530D-02-0.392D-01-0.797D-01 0.141D+00
 Coeff-Com:  0.981D+00
 Coeff:     -0.310D-03 0.212D-02-0.530D-02-0.392D-01-0.797D-01 0.141D+00
 Coeff:      0.981D+00
 Gap=     0.364 Goal=   None    Shift=    0.000
 Gap=     0.364 Goal=   None    Shift=    0.000
 RMSDP=8.18D-06 MaxDP=1.58D-04 DE=-1.02D-05 OVMax= 9.74D-04

 Initial convergence to 1.0D-05 achieved.  Increase integral accuracy.
 Cycle   8  Pass 1  IDiag  1:
 E= -723.907671409622     Delta-E=        0.000179107598 Rises=F Damp=F
 DIIS: error= 6.40D-05 at cycle   1 NSaved=   1.
 NSaved= 1 IEnMin= 1 EnMin= -723.907671409622     IErMin= 1 ErrMin= 6.40D-05
 ErrMax= 6.40D-05  0.00D+00 EMaxC= 1.00D-01 BMatC= 4.37D-06 BMatP= 4.37D-06
 IDIUse=1 WtCom= 1.00D+00 WtEn= 0.00D+00
 Coeff-Com:  0.100D+01
 Coeff:      0.100D+01
 Gap=     0.364 Goal=   None    Shift=    0.000
 Gap=     0.364 Goal=   None    Shift=    0.000
 RMSDP=8.18D-06 MaxDP=1.58D-04 DE= 1.79D-04 OVMax= 3.25D-04

 Cycle   9  Pass 1  IDiag  1:
 RMSU=  3.30D-05    CP:  1.00D+00
 E= -723.907672444634     Delta-E=       -0.000001035012 Rises=F Damp=F
 DIIS: error= 2.83D-05 at cycle   2 NSaved=   2.
 NSaved= 2 IEnMin= 2 EnMin= -723.907672444634     IErMin= 2 ErrMin= 2.83D-05
 ErrMax= 2.83D-05  0.00D+00 EMaxC= 1.00D-01 BMatC= 6.25D-07 BMatP= 4.37D-06
 IDIUse=1 WtCom= 1.00D+00 WtEn= 0.00D+00
 Coeff-Com:  0.161D+00 0.839D+00
 Coeff:      0.161D+00 0.839D+00
 Gap=     0.364 Goal=   None    Shift=    0.000
 Gap=     0.364 Goal=   None    Shift=    0.000
 RMSDP=2.76D-06 MaxDP=9.38D-05 DE=-1.04D-06 OVMax= 2.47D-04

 Cycle  10  Pass 1  IDiag  1:
 RMSU=  2.36D-06    CP:  1.00D+00  1.04D+00
 E= -723.907672557616     Delta-E=       -0.000000112982 Rises=F Damp=F
 DIIS: error= 1.02D-05 at cycle   3 NSaved=   3.
 NSaved= 3 IEnMin= 3 EnMin= -723.907672557616     IErMin= 3 ErrMin= 1.02D-05
 ErrMax= 1.02D-05  0.00D+00 EMaxC= 1.00D-01 BMatC= 4.11D-07 BMatP= 6.25D-07
 IDIUse=1 WtCom= 1.00D+00 WtEn= 0.00D+00
 Coeff-Com: -0.367D-01 0.439D+00 0.598D+00
 Coeff:     -0.367D-01 0.439D+00 0.598D+00
 Gap=     0.364 Goal=   None    Shift=    0.000
 Gap=     0.364 Goal=   None    Shift=    0.000
 RMSDP=1.27D-06 MaxDP=3.76D-05 DE=-1.13D-07 OVMax= 1.15D-04

 Cycle  11  Pass 1  IDiag  1:
 RMSU=  1.04D-06    CP:  1.00D+00  1.06D+00  8.12D-01
 E= -723.907672761343     Delta-E=       -0.000000203727 Rises=F Damp=F
 DIIS: error= 4.08D-06 at cycle   4 NSaved=   4.
 NSaved= 4 IEnMin= 4 EnMin= -723.907672761343     IErMin= 4 ErrMin= 4.08D-06
 ErrMax= 4.08D-06  0.00D+00 EMaxC= 1.00D-01 BMatC= 2.37D-08 BMatP= 4.11D-07
 IDIUse=1 WtCom= 1.00D+00 WtEn= 0.00D+00
 Coeff-Com: -0.751D-02-0.164D+00-0.208D+00 0.138D+01
 Coeff:     -0.751D-02-0.164D+00-0.208D+00 0.138D+01
 Gap=     0.364 Goal=   None    Shift=    0.000
 Gap=     0.364 Goal=   None    Shift=    0.000
 RMSDP=9.63D-07 MaxDP=2.15D-05 DE=-2.04D-07 OVMax= 1.47D-04

 Cycle  12  Pass 1  IDiag  1:
 RMSU=  3.73D-07    CP:  1.00D+00  1.07D+00  9.95D-01  1.74D+00
 E= -723.907672803748     Delta-E=       -0.000000042405 Rises=F Damp=F
 DIIS: error= 2.54D-06 at cycle   5 NSaved=   5.
 NSaved= 5 IEnMin= 5 EnMin= -723.907672803748     IErMin= 5 ErrMin= 2.54D-06
 ErrMax= 2.54D-06  0.00D+00 EMaxC= 1.00D-01 BMatC= 1.22D-08 BMatP= 2.37D-08
 IDIUse=1 WtCom= 1.00D+00 WtEn= 0.00D+00
 Coeff-Com:  0.121D-01-0.273D+00-0.390D+00 0.757D+00 0.894D+00
 Coeff:      0.121D-01-0.273D+00-0.390D+00 0.757D+00 0.894D+00
 Gap=     0.364 Goal=   None    Shift=    0.000
 Gap=     0.364 Goal=   None    Shift=    0.000
 RMSDP=6.77D-07 MaxDP=1.45D-05 DE=-4.24D-08 OVMax= 9.27D-05

 Cycle  13  Pass 1  IDiag  1:
 RMSU=  1.91D-07    CP:  1.00D+00  1.07D+00  1.10D+00  2.31D+00  1.25D+00
 E= -723.907672819761     Delta-E=       -0.000000016014 Rises=F Damp=F
 DIIS: error= 4.38D-07 at cycle   6 NSaved=   6.
 NSaved= 6 IEnMin= 6 EnMin= -723.907672819761     IErMin= 6 ErrMin= 4.38D-07
 ErrMax= 4.38D-07  0.00D+00 EMaxC= 1.00D-01 BMatC= 4.19D-10 BMatP= 1.22D-08
 IDIUse=1 WtCom= 1.00D+00 WtEn= 0.00D+00
 Coeff-Com:  0.372D-02-0.679D-01-0.992D-01 0.161D+00 0.232D+00 0.770D+00
 Coeff:      0.372D-02-0.679D-01-0.992D-01 0.161D+00 0.232D+00 0.770D+00
 Gap=     0.364 Goal=   None    Shift=    0.000
 Gap=     0.364 Goal=   None    Shift=    0.000
 RMSDP=7.70D-08 MaxDP=2.34D-06 DE=-1.60D-08 OVMax= 9.84D-06

 Cycle  14  Pass 1  IDiag  1:
 RMSU=  5.50D-08    CP:  1.00D+00  1.07D+00  1.10D+00  2.33D+00  1.35D+00
                    CP:  1.09D+00
 E= -723.907672820056     Delta-E=       -0.000000000294 Rises=F Damp=F
 DIIS: error= 3.01D-07 at cycle   7 NSaved=   7.
 NSaved= 7 IEnMin= 7 EnMin= -723.907672820056     IErMin= 7 ErrMin= 3.01D-07
 ErrMax= 3.01D-07  0.00D+00 EMaxC= 1.00D-01 BMatC= 1.63D-10 BMatP= 4.19D-10
 IDIUse=1 WtCom= 1.00D+00 WtEn= 0.00D+00
 Coeff-Com: -0.211D-02 0.525D-01 0.742D-01-0.152D+00-0.192D+00 0.305D+00
 Coeff-Com:  0.915D+00
 Coeff:     -0.211D-02 0.525D-01 0.742D-01-0.152D+00-0.192D+00 0.305D+00
 Coeff:      0.915D+00
 Gap=     0.364 Goal=   None    Shift=    0.000
 Gap=     0.364 Goal=   None    Shift=    0.000
 RMSDP=5.67D-08 MaxDP=1.04D-06 DE=-2.94D-10 OVMax= 7.23D-06

 Cycle  15  Pass 1  IDiag  1:
 RMSU=  3.05D-08    CP:  1.00D+00  1.07D+00  1.11D+00  2.35D+00  1.40D+00
                    CP:  1.26D+00  1.25D+00
 E= -723.907672820157     Delta-E=       -0.000000000102 Rises=F Damp=F
 DIIS: error= 8.25D-08 at cycle   8 NSaved=   8.
 NSaved= 8 IEnMin= 8 EnMin= -723.907672820157     IErMin= 8 ErrMin= 8.25D-08
 ErrMax= 8.25D-08  0.00D+00 EMaxC= 1.00D-01 BMatC= 1.49D-11 BMatP= 1.63D-10
 IDIUse=1 WtCom= 1.00D+00 WtEn= 0.00D+00
 Coeff-Com: -0.710D-03 0.135D-01 0.202D-01-0.284D-01-0.577D-01-0.865D-01
 Coeff-Com:  0.720D-02 0.113D+01
 Coeff:     -0.710D-03 0.135D-01 0.202D-01-0.284D-01-0.577D-01-0.865D-01
 Coeff:      0.720D-02 0.113D+01
 Gap=     0.364 Goal=   None    Shift=    0.000
 Gap=     0.364 Goal=   None    Shift=    0.000
 RMSDP=2.42D-08 MaxDP=4.67D-07 DE=-1.02D-10 OVMax= 2.85D-06

 Cycle  16  Pass 1  IDiag  1:
 RMSU=  9.05D-09    CP:  1.00D+00  1.07D+00  1.11D+00  2.35D+00  1.41D+00
                    CP:  1.31D+00  1.51D+00  1.46D+00
 E= -723.907672820178     Delta-E=       -0.000000000021 Rises=F Damp=F
 DIIS: error= 3.51D-08 at cycle   9 NSaved=   9.
 NSaved= 9 IEnMin= 9 EnMin= -723.907672820178     IErMin= 9 ErrMin= 3.51D-08
 ErrMax= 3.51D-08  0.00D+00 EMaxC= 1.00D-01 BMatC= 3.12D-12 BMatP= 1.49D-11
 IDIUse=1 WtCom= 1.00D+00 WtEn= 0.00D+00
 Coeff-Com:  0.176D-03-0.566D-02-0.741D-02 0.202D-01 0.147D-01-0.700D-01
 Coeff-Com: -0.171D+00 0.357D+00 0.862D+00
 Coeff:      0.176D-03-0.566D-02-0.741D-02 0.202D-01 0.147D-01-0.700D-01
 Coeff:     -0.171D+00 0.357D+00 0.862D+00
 Gap=     0.364 Goal=   None    Shift=    0.000
 Gap=     0.364 Goal=   None    Shift=    0.000
 RMSDP=8.05D-09 MaxDP=1.63D-07 DE=-2.07D-11 OVMax= 1.06D-06

 SCF Done:  E(ULC-wPBE) =  -723.907672820     A.U. after   16 cycles
            NFock= 16  Conv=0.80D-08     -V/T= 2.0072
 <Sx>= 0.0000 <Sy>= 0.0000 <Sz>= 0.0000 <S**2>=-0.0000 S=-0.0000
 <L.S>= 0.000000000000E+00
 KE= 7.187052276853D+02 PE=-3.816450472058D+03 EE= 1.309062374060D+03
 Annihilation of the first spin contaminant:
 S**2 before annihilation    -0.0000,   after     0.0000
 Leave Link  502 at Sun Jul 26 12:23:33 2020, MaxMem=  4026531840 cpu:             893.2 elap:             112.0
 (Enter /opt/ohpc/pub/libs/gaussian/g16-A.03/sandybridge/g16/l601.exe)
 Copying SCF densities to generalized density rwf, IOpCl= 1 IROHF=0.

 **********************************************************************

            Population analysis using the SCF density.

 **********************************************************************

 Orbital symmetries:
 Alpha Orbitals:
       Occupied  (A) (A) (A) (A) (A) (A) (A) (A) (A) (A) (A) (A)
                 (A) (A) (A) (A) (A) (A) (A) (A) (A) (A) (A) (A)
                 (A) (A) (A) (A) (A) (A) (A) (A) (A) (A) (A) (A)
                 (A) (A) (A) (A) (A) (A) (A) (A) (A) (A) (A) (A)
                 (A) (A) (A) (A) (A) (A) (A) (A) (A)
       Virtual   (A) (A) (A) (A) (A) (A) (A) (A) (A) (A) (A) (A)
                 (A) (A) (A) (A) (A) (A) (A) (A) (A) (A) (A) (A)
                 (A) (A) (A) (A) (A) (A) (A) (A) (A) (A) (A) (A)
                 (A) (A) (A) (A) (A) (A) (A) (A) (A) (A) (A) (A)
                 (A) (A) (A) (A) (A) (A) (A) (A) (A) (A) (A) (A)
                 (A) (A) (A) (A) (A) (A) (A) (A) (A) (A) (A) (A)
                 (A) (A) (A) (A) (A) (A) (A) (A) (A) (A) (A) (A)
                 (A) (A) (A) (A) (A) (A) (A) (A) (A) (A) (A) (A)
                 (A) (A) (A) (A) (A) (A) (A) (A) (A) (A) (A) (A)
                 (A) (A) (A) (A) (A) (A) (A) (A) (A) (A) (A) (A)
                 (A) (A) (A) (A) (A) (A) (A) (A) (A) (A) (A) (A)
                 (A) (A) (A) (A) (A) (A) (A) (A) (A) (A) (A) (A)
                 (A) (A) (A) (A) (A) (A) (A) (A) (A) (A) (A) (A)
                 (A) (A) (A) (A) (A) (A) (A) (A) (A) (A) (A) (A)
                 (A) (A) (A) (A) (A) (A) (A) (A) (A) (A) (A) (A)
                 (A) (A) (A) (A) (A) (A) (A) (A) (A) (A) (A) (A)
                 (A) (A) (A) (A) (A) (A) (A) (A) (A) (A) (A) (A)
                 (A) (A) (A) (A) (A) (A) (A) (A) (A) (A) (A) (A)
                 (A) (A) (A) (A) (A) (A) (A) (A) (A) (A) (A)
 Beta  Orbitals:
       Occupied  (A) (A) (A) (A) (A) (A) (A) (A) (A) (A) (A) (A)
                 (A) (A) (A) (A) (A) (A) (A) (A) (A) (A) (A) (A)
                 (A) (A) (A) (A) (A) (A) (A) (A) (A) (A) (A) (A)
                 (A) (A) (A) (A) (A) (A) (A) (A) (A) (A) (A) (A)
                 (A) (A) (A) (A) (A) (A) (A) (A) (A)
       Virtual   (A) (A) (A) (A) (A) (A) (A) (A) (A) (A) (A) (A)
                 (A) (A) (A) (A) (A) (A) (A) (A) (A) (A) (A) (A)
                 (A) (A) (A) (A) (A) (A) (A) (A) (A) (A) (A) (A)
                 (A) (A) (A) (A) (A) (A) (A) (A) (A) (A) (A) (A)
                 (A) (A) (A) (A) (A) (A) (A) (A) (A) (A) (A) (A)
                 (A) (A) (A) (A) (A) (A) (A) (A) (A) (A) (A) (A)
                 (A) (A) (A) (A) (A) (A) (A) (A) (A) (A) (A) (A)
                 (A) (A) (A) (A) (A) (A) (A) (A) (A) (A) (A) (A)
                 (A) (A) (A) (A) (A) (A) (A) (A) (A) (A) (A) (A)
                 (A) (A) (A) (A) (A) (A) (A) (A) (A) (A) (A) (A)
                 (A) (A) (A) (A) (A) (A) (A) (A) (A) (A) (A) (A)
                 (A) (A) (A) (A) (A) (A) (A) (A) (A) (A) (A) (A)
                 (A) (A) (A) (A) (A) (A) (A) (A) (A) (A) (A) (A)
                 (A) (A) (A) (A) (A) (A) (A) (A) (A) (A) (A) (A)
                 (A) (A) (A) (A) (A) (A) (A) (A) (A) (A) (A) (A)
                 (A) (A) (A) (A) (A) (A) (A) (A) (A) (A) (A) (A)
                 (A) (A) (A) (A) (A) (A) (A) (A) (A) (A) (A) (A)
                 (A) (A) (A) (A) (A) (A) (A) (A) (A) (A) (A) (A)
                 (A) (A) (A) (A) (A) (A) (A) (A) (A) (A) (A)
 The electronic state is 1-A.
 Alpha  occ. eigenvalues --  -19.04573 -19.04173 -14.24367 -14.23843 -10.22769
 Alpha  occ. eigenvalues --  -10.22619 -10.21384 -10.20753 -10.18934 -10.18832
 Alpha  occ. eigenvalues --  -10.17042 -10.16655 -10.16564 -10.16413 -10.16373
 Alpha  occ. eigenvalues --  -10.16148  -1.23722  -1.21314  -1.11010  -1.09017
 Alpha  occ. eigenvalues --   -0.97582  -0.96503  -0.95850  -0.91039  -0.87446
 Alpha  occ. eigenvalues --   -0.85869  -0.81759  -0.76192  -0.75711  -0.74670
 Alpha  occ. eigenvalues --   -0.69211  -0.66561  -0.64919  -0.64415  -0.64078
 Alpha  occ. eigenvalues --   -0.62375  -0.61203  -0.60800  -0.57312  -0.56287
 Alpha  occ. eigenvalues --   -0.55993  -0.55133  -0.54926  -0.53114  -0.52773
 Alpha  occ. eigenvalues --   -0.51630  -0.50648  -0.47963  -0.46766  -0.46214
 Alpha  occ. eigenvalues --   -0.45341  -0.39331  -0.38293  -0.37552  -0.36902
 Alpha  occ. eigenvalues --   -0.33355  -0.31954
 Alpha virt. eigenvalues --    0.04477   0.06688   0.08616   0.10444   0.15621
 Alpha virt. eigenvalues --    0.16204   0.17524   0.18259   0.21007   0.21419
 Alpha virt. eigenvalues --    0.21551   0.21951   0.22967   0.23561   0.23579
 Alpha virt. eigenvalues --    0.23799   0.25322   0.25865   0.26351   0.27085
 Alpha virt. eigenvalues --    0.33602   0.34672   0.35200   0.35838   0.38562
 Alpha virt. eigenvalues --    0.39794   0.42644   0.43336   0.45271   0.47956
 Alpha virt. eigenvalues --    0.48726   0.51004   0.52987   0.53933   0.55258
 Alpha virt. eigenvalues --    0.56630   0.56876   0.57248   0.58135   0.59088
 Alpha virt. eigenvalues --    0.59271   0.60463   0.60845   0.61695   0.62218
 Alpha virt. eigenvalues --    0.62628   0.63178   0.64578   0.65034   0.65643
 Alpha virt. eigenvalues --    0.65978   0.66331   0.67372   0.68546   0.70605
 Alpha virt. eigenvalues --    0.71711   0.72163   0.73011   0.73801   0.74229
 Alpha virt. eigenvalues --    0.74529   0.76638   0.76964   0.77234   0.77547
 Alpha virt. eigenvalues --    0.78400   0.78643   0.81136   0.81525   0.82155
 Alpha virt. eigenvalues --    0.82922   0.83699   0.85321   0.85973   0.87909
 Alpha virt. eigenvalues --    0.88164   0.89900   0.95457   0.97605   0.98863
 Alpha virt. eigenvalues --    0.99268   1.00741   1.01764   1.02541   1.03335
 Alpha virt. eigenvalues --    1.04264   1.04628   1.05134   1.06714   1.07690
 Alpha virt. eigenvalues --    1.08298   1.09667   1.10603   1.11679   1.12903
 Alpha virt. eigenvalues --    1.13645   1.14257   1.16465   1.17053   1.19208
 Alpha virt. eigenvalues --    1.20439   1.20784   1.22083   1.23778   1.25568
 Alpha virt. eigenvalues --    1.26206   1.27750   1.30575   1.32106   1.34268
 Alpha virt. eigenvalues --    1.35157   1.37350   1.38916   1.39306   1.42875
 Alpha virt. eigenvalues --    1.45047   1.46629   1.49753   1.50550   1.51160
 Alpha virt. eigenvalues --    1.53035   1.53916   1.54449   1.56968   1.58627
 Alpha virt. eigenvalues --    1.59438   1.60812   1.62630   1.64195   1.65377
 Alpha virt. eigenvalues --    1.66341   1.66448   1.68439   1.68748   1.68925
 Alpha virt. eigenvalues --    1.70531   1.71918   1.72810   1.73396   1.74378
 Alpha virt. eigenvalues --    1.75706   1.76130   1.77310   1.78027   1.79247
 Alpha virt. eigenvalues --    1.80615   1.81120   1.82118   1.82409   1.83425
 Alpha virt. eigenvalues --    1.84164   1.85613   1.86202   1.87284   1.88979
 Alpha virt. eigenvalues --    1.89835   1.91265   1.93400   1.93756   1.95920
 Alpha virt. eigenvalues --    1.97068   1.97684   1.99695   2.01248   2.01855
 Alpha virt. eigenvalues --    2.04572   2.04993   2.05433   2.06348   2.07735
 Alpha virt. eigenvalues --    2.10198   2.12277   2.14365   2.15131   2.15888
 Alpha virt. eigenvalues --    2.16649   2.18226   2.19217   2.20848   2.21923
 Alpha virt. eigenvalues --    2.24737   2.25273   2.26497   2.29674   2.34375
 Alpha virt. eigenvalues --    2.35933   2.36755   2.39278   2.42506   2.44574
 Alpha virt. eigenvalues --    2.45252   2.48683   2.50066   2.53622   2.54118
 Alpha virt. eigenvalues --    2.55190   2.56528   2.59390   2.59752   2.61380
 Alpha virt. eigenvalues --    2.62911   2.65000   2.66043   2.67567   2.72103
 Alpha virt. eigenvalues --    2.74274   2.75396   2.80358   2.81565   2.93603
 Alpha virt. eigenvalues --    2.94835   2.97241   2.99007   3.01354   3.03644
 Alpha virt. eigenvalues --    3.05608   3.07902   3.13013   3.14291   3.16556
 Alpha virt. eigenvalues --    3.16864   3.38404   3.40853   3.45443   3.51832
 Alpha virt. eigenvalues --    3.66897   3.69356
  Beta  occ. eigenvalues --  -19.04573 -19.04173 -14.24367 -14.23843 -10.22769
  Beta  occ. eigenvalues --  -10.22619 -10.21384 -10.20753 -10.18934 -10.18832
  Beta  occ. eigenvalues --  -10.17042 -10.16655 -10.16564 -10.16413 -10.16373
  Beta  occ. eigenvalues --  -10.16148  -1.23722  -1.21314  -1.11010  -1.09017
  Beta  occ. eigenvalues --   -0.97582  -0.96503  -0.95850  -0.91039  -0.87446
  Beta  occ. eigenvalues --   -0.85869  -0.81759  -0.76192  -0.75711  -0.74670
  Beta  occ. eigenvalues --   -0.69211  -0.66561  -0.64919  -0.64415  -0.64078
  Beta  occ. eigenvalues --   -0.62375  -0.61203  -0.60800  -0.57312  -0.56287
  Beta  occ. eigenvalues --   -0.55993  -0.55133  -0.54926  -0.53114  -0.52773
  Beta  occ. eigenvalues --   -0.51630  -0.50648  -0.47963  -0.46766  -0.46214
  Beta  occ. eigenvalues --   -0.45341  -0.39331  -0.38293  -0.37552  -0.36902
  Beta  occ. eigenvalues --   -0.33355  -0.31954
  Beta virt. eigenvalues --    0.04477   0.06688   0.08616   0.10444   0.15621
  Beta virt. eigenvalues --    0.16204   0.17524   0.18259   0.21007   0.21419
  Beta virt. eigenvalues --    0.21551   0.21951   0.22967   0.23561   0.23579
  Beta virt. eigenvalues --    0.23799   0.25322   0.25865   0.26351   0.27085
  Beta virt. eigenvalues --    0.33602   0.34672   0.35200   0.35838   0.38562
  Beta virt. eigenvalues --    0.39794   0.42644   0.43336   0.45271   0.47956
  Beta virt. eigenvalues --    0.48726   0.51004   0.52987   0.53933   0.55258
  Beta virt. eigenvalues --    0.56630   0.56876   0.57248   0.58135   0.59088
  Beta virt. eigenvalues --    0.59271   0.60463   0.60845   0.61695   0.62218
  Beta virt. eigenvalues --    0.62628   0.63178   0.64578   0.65034   0.65643
  Beta virt. eigenvalues --    0.65978   0.66331   0.67372   0.68546   0.70605
  Beta virt. eigenvalues --    0.71711   0.72163   0.73011   0.73801   0.74229
  Beta virt. eigenvalues --    0.74529   0.76638   0.76964   0.77234   0.77547
  Beta virt. eigenvalues --    0.78400   0.78643   0.81136   0.81525   0.82155
  Beta virt. eigenvalues --    0.82922   0.83699   0.85321   0.85973   0.87909
  Beta virt. eigenvalues --    0.88164   0.89900   0.95457   0.97605   0.98863
  Beta virt. eigenvalues --    0.99268   1.00741   1.01764   1.02541   1.03335
  Beta virt. eigenvalues --    1.04264   1.04628   1.05134   1.06714   1.07690
  Beta virt. eigenvalues --    1.08298   1.09667   1.10603   1.11679   1.12903
  Beta virt. eigenvalues --    1.13645   1.14257   1.16465   1.17053   1.19208
  Beta virt. eigenvalues --    1.20439   1.20784   1.22083   1.23778   1.25568
  Beta virt. eigenvalues --    1.26206   1.27750   1.30575   1.32106   1.34268
  Beta virt. eigenvalues --    1.35157   1.37350   1.38916   1.39306   1.42875
  Beta virt. eigenvalues --    1.45047   1.46629   1.49753   1.50550   1.51160
  Beta virt. eigenvalues --    1.53035   1.53916   1.54449   1.56968   1.58627
  Beta virt. eigenvalues --    1.59438   1.60812   1.62630   1.64195   1.65377
  Beta virt. eigenvalues --    1.66341   1.66448   1.68439   1.68748   1.68925
  Beta virt. eigenvalues --    1.70531   1.71918   1.72810   1.73396   1.74378
  Beta virt. eigenvalues --    1.75706   1.76130   1.77310   1.78027   1.79247
  Beta virt. eigenvalues --    1.80615   1.81120   1.82118   1.82409   1.83425
  Beta virt. eigenvalues --    1.84164   1.85613   1.86202   1.87284   1.88979
  Beta virt. eigenvalues --    1.89835   1.91265   1.93400   1.93756   1.95920
  Beta virt. eigenvalues --    1.97068   1.97684   1.99695   2.01248   2.01855
  Beta virt. eigenvalues --    2.04572   2.04993   2.05433   2.06348   2.07735
  Beta virt. eigenvalues --    2.10198   2.12277   2.14365   2.15131   2.15888
  Beta virt. eigenvalues --    2.16649   2.18226   2.19217   2.20848   2.21923
  Beta virt. eigenvalues --    2.24737   2.25273   2.26497   2.29674   2.34375
  Beta virt. eigenvalues --    2.35933   2.36755   2.39278   2.42506   2.44574
  Beta virt. eigenvalues --    2.45252   2.48683   2.50066   2.53622   2.54118
  Beta virt. eigenvalues --    2.55190   2.56528   2.59390   2.59752   2.61380
  Beta virt. eigenvalues --    2.62911   2.65000   2.66043   2.67567   2.72103
  Beta virt. eigenvalues --    2.74274   2.75396   2.80358   2.81565   2.93603
  Beta virt. eigenvalues --    2.94835   2.97241   2.99007   3.01354   3.03644
  Beta virt. eigenvalues --    3.05608   3.07902   3.13013   3.14291   3.16556
  Beta virt. eigenvalues --    3.16864   3.38404   3.40853   3.45443   3.51832
  Beta virt. eigenvalues --    3.66897   3.69356
          Condensed to atoms (all electrons):
               1          2          3          4          5          6
     1  C    4.833940   0.514737  -0.001436   0.003935   0.000810  -0.033430
     2  C    0.514737   4.836701   0.433505  -0.059220  -0.000967  -0.068208
     3  C   -0.001436   0.433505   4.923162   0.410905  -0.075055   0.442907
     4  O    0.003935  -0.059220   0.410905   7.736554   0.329713  -0.054896
     5  C    0.000810  -0.000967  -0.075055   0.329713   4.520951   0.004569
     6  C   -0.033430  -0.068208   0.442907  -0.054896   0.004569   5.088316
     7  N   -0.034641  -0.043935  -0.047828   0.001067  -0.000109   0.569148
     8  C    0.514064  -0.046057  -0.039563   0.000204   0.000027  -0.098378
     9  C    0.002420   0.005141  -0.096314   0.006459  -0.000068   0.182275
    10  N   -0.000023   0.000025   0.001542  -0.000687   0.000004  -0.048997
    11  C   -0.000002   0.000020   0.000492   0.000029  -0.000003   0.001455
    12  C    0.000000  -0.000002  -0.000143  -0.000034   0.000000   0.002179
    13  C   -0.000003   0.000027   0.000725   0.000369  -0.000007   0.005083
    14  C   -0.000164   0.000865   0.004124   0.003279  -0.000087  -0.098404
    15  O   -0.000020   0.000127   0.002239  -0.000525  -0.000010   0.011586
    16  C    0.000001  -0.000002  -0.000047  -0.000042   0.000002  -0.000313
    17  H    0.387312  -0.036335   0.007142  -0.000054  -0.000031   0.000824
    18  H   -0.035070   0.411483  -0.047871  -0.006357   0.006016   0.004937
    19  H    0.000013   0.003369  -0.006502  -0.032759   0.392519   0.000059
    20  H    0.000193   0.006853  -0.006521  -0.026603   0.393919   0.000106
    21  H   -0.000013   0.000053   0.002979  -0.016069   0.405929  -0.000114
    22  H   -0.050397   0.006053   0.001026   0.000006   0.000000   0.002327
    23  H    0.000000  -0.000001   0.000001   0.000003   0.000000  -0.001017
    24  H    0.000000  -0.000000  -0.000002  -0.000000   0.000000   0.000069
    25  H    0.000000   0.000000   0.000017   0.000013  -0.000000  -0.000414
    26  H   -0.000000  -0.000000   0.000006  -0.000003  -0.000001  -0.000054
    27  H   -0.000000   0.000001  -0.000004  -0.000001  -0.000000   0.000030
    28  H    0.000000   0.000001   0.000017   0.000008   0.000001   0.000118
               7          8          9         10         11         12
     1  C   -0.034641   0.514064   0.002420  -0.000023  -0.000002   0.000000
     2  C   -0.043935  -0.046057   0.005141   0.000025   0.000020  -0.000002
     3  C   -0.047828  -0.039563  -0.096314   0.001542   0.000492  -0.000143
     4  O    0.001067   0.000204   0.006459  -0.000687   0.000029  -0.000034
     5  C   -0.000109   0.000027  -0.000068   0.000004  -0.000003   0.000000
     6  C    0.569148  -0.098378   0.182275  -0.048997   0.001455   0.002179
     7  N    6.290065   0.553325  -0.044419  -0.003002   0.000170  -0.000009
     8  C    0.553325   4.607669   0.003463   0.000115   0.000020  -0.000002
     9  C   -0.044419   0.003463   5.177292   0.538680  -0.108328  -0.044454
    10  N   -0.003002   0.000115   0.538680   6.213177   0.621505  -0.044576
    11  C    0.000170   0.000020  -0.108328   0.621505   4.575934   0.507436
    12  C   -0.000009  -0.000002  -0.044454  -0.044576   0.507436   4.870025
    13  C   -0.000052   0.000018  -0.061505  -0.030259  -0.046834   0.515730
    14  C    0.001025   0.000231   0.450318  -0.050701  -0.031450  -0.006500
    15  O   -0.000792   0.000003  -0.067372   0.000970   0.000144   0.002951
    16  C    0.000011  -0.000003   0.005655  -0.000122   0.000039   0.000788
    17  H    0.004989  -0.037939   0.000062  -0.000000  -0.000000   0.000000
    18  H   -0.000531   0.007512  -0.000398   0.000000   0.000000  -0.000000
    19  H   -0.000001  -0.000036  -0.000039  -0.000003   0.000001  -0.000000
    20  H   -0.000011  -0.000032   0.000106  -0.000002   0.000000  -0.000000
    21  H    0.000003   0.000002  -0.000023   0.000004  -0.000001   0.000000
    22  H   -0.023561   0.416146  -0.001079   0.000004  -0.000001   0.000000
    23  H    0.000003  -0.000001   0.004602  -0.023878   0.405877  -0.061729
    24  H   -0.000000  -0.000000   0.001244   0.004783  -0.028508   0.393292
    25  H   -0.000001   0.000000   0.004597  -0.000322   0.007065  -0.032560
    26  H    0.000005  -0.000001  -0.000116   0.000003   0.000003  -0.000027
    27  H   -0.000002   0.000002   0.000581  -0.000014  -0.000032   0.000221
    28  H   -0.000002  -0.000000  -0.000286   0.000001  -0.000052   0.000232
              13         14         15         16         17         18
     1  C   -0.000003  -0.000164  -0.000020   0.000001   0.387312  -0.035070
     2  C    0.000027   0.000865   0.000127  -0.000002  -0.036335   0.411483
     3  C    0.000725   0.004124   0.002239  -0.000047   0.007142  -0.047871
     4  O    0.000369   0.003279  -0.000525  -0.000042  -0.000054  -0.006357
     5  C   -0.000007  -0.000087  -0.000010   0.000002  -0.000031   0.006016
     6  C    0.005083  -0.098404   0.011586  -0.000313   0.000824   0.004937
     7  N   -0.000052   0.001025  -0.000792   0.000011   0.004989  -0.000531
     8  C    0.000018   0.000231   0.000003  -0.000003  -0.037939   0.007512
     9  C   -0.061505   0.450318  -0.067372   0.005655   0.000062  -0.000398
    10  N   -0.030259  -0.050701   0.000970  -0.000122  -0.000000   0.000000
    11  C   -0.046834  -0.031450   0.000144   0.000039  -0.000000   0.000000
    12  C    0.515730  -0.006500   0.002951   0.000788   0.000000  -0.000000
    13  C    4.866415   0.412038  -0.067605  -0.000276   0.000000   0.000000
    14  C    0.412038   4.873286   0.449233  -0.081041  -0.000002   0.000015
    15  O   -0.067605   0.449233   7.674564   0.334869  -0.000000   0.000006
    16  C   -0.000276  -0.081041   0.334869   4.468918   0.000000  -0.000000
    17  H    0.000000  -0.000002  -0.000000   0.000000   0.657892  -0.013223
    18  H    0.000000   0.000015   0.000006  -0.000000  -0.013223   0.651576
    19  H    0.000002   0.000009  -0.000001  -0.000000   0.000017   0.000957
    20  H    0.000000   0.000006   0.000027   0.000001   0.000019   0.001084
    21  H   -0.000003  -0.000003  -0.000004   0.000000  -0.000000  -0.000257
    22  H   -0.000000   0.000007   0.000003  -0.000000  -0.008348  -0.000133
    23  H    0.006182   0.001057   0.000008  -0.000000  -0.000000   0.000000
    24  H   -0.033334   0.005553  -0.000048  -0.000030   0.000000  -0.000000
    25  H    0.409775  -0.045937  -0.006077   0.005757  -0.000000   0.000000
    26  H   -0.000046   0.002787  -0.015722   0.406824   0.000000  -0.000000
    27  H    0.009654  -0.007440  -0.025274   0.403246  -0.000000   0.000000
    28  H    0.004657  -0.006257  -0.030848   0.398613  -0.000000  -0.000000
              19         20         21         22         23         24
     1  C    0.000013   0.000193  -0.000013  -0.050397   0.000000   0.000000
     2  C    0.003369   0.006853   0.000053   0.006053  -0.000001  -0.000000
     3  C   -0.006502  -0.006521   0.002979   0.001026   0.000001  -0.000002
     4  O   -0.032759  -0.026603  -0.016069   0.000006   0.000003  -0.000000
     5  C    0.392519   0.393919   0.405929   0.000000   0.000000   0.000000
     6  C    0.000059   0.000106  -0.000114   0.002327  -0.001017   0.000069
     7  N   -0.000001  -0.000011   0.000003  -0.023561   0.000003  -0.000000
     8  C   -0.000036  -0.000032   0.000002   0.416146  -0.000001  -0.000000
     9  C   -0.000039   0.000106  -0.000023  -0.001079   0.004602   0.001244
    10  N   -0.000003  -0.000002   0.000004   0.000004  -0.023878   0.004783
    11  C    0.000001   0.000000  -0.000001  -0.000001   0.405877  -0.028508
    12  C   -0.000000  -0.000000   0.000000   0.000000  -0.061729   0.393292
    13  C    0.000002   0.000000  -0.000003  -0.000000   0.006182  -0.033334
    14  C    0.000009   0.000006  -0.000003   0.000007   0.001057   0.005553
    15  O   -0.000001   0.000027  -0.000004   0.000003   0.000008  -0.000048
    16  C   -0.000000   0.000001   0.000000  -0.000000  -0.000000  -0.000030
    17  H    0.000017   0.000019  -0.000000  -0.008348  -0.000000   0.000000
    18  H    0.000957   0.001084  -0.000257  -0.000133   0.000000  -0.000000
    19  H    0.638039  -0.034906  -0.023525   0.000000  -0.000000  -0.000000
    20  H   -0.034906   0.625062  -0.024291  -0.000000   0.000000  -0.000000
    21  H   -0.023525  -0.024291   0.585339   0.000000  -0.000000   0.000000
    22  H    0.000000  -0.000000   0.000000   0.652387  -0.000000   0.000000
    23  H   -0.000000   0.000000  -0.000000  -0.000000   0.671989  -0.008006
    24  H   -0.000000  -0.000000   0.000000   0.000000  -0.008006   0.645884
    25  H    0.000000  -0.000000  -0.000000  -0.000000  -0.000241  -0.010353
    26  H   -0.000000   0.000002  -0.000000  -0.000000   0.000000  -0.000000
    27  H   -0.000000   0.000000  -0.000000  -0.000000   0.000000   0.000004
    28  H    0.000000  -0.000002   0.000002   0.000000  -0.000000   0.000022
              25         26         27         28
     1  C    0.000000  -0.000000  -0.000000   0.000000
     2  C    0.000000  -0.000000   0.000001   0.000001
     3  C    0.000017   0.000006  -0.000004   0.000017
     4  O    0.000013  -0.000003  -0.000001   0.000008
     5  C   -0.000000  -0.000001  -0.000000   0.000001
     6  C   -0.000414  -0.000054   0.000030   0.000118
     7  N   -0.000001   0.000005  -0.000002  -0.000002
     8  C    0.000000  -0.000001   0.000002  -0.000000
     9  C    0.004597  -0.000116   0.000581  -0.000286
    10  N   -0.000322   0.000003  -0.000014   0.000001
    11  C    0.007065   0.000003  -0.000032  -0.000052
    12  C   -0.032560  -0.000027   0.000221   0.000232
    13  C    0.409775  -0.000046   0.009654   0.004657
    14  C   -0.045937   0.002787  -0.007440  -0.006257
    15  O   -0.006077  -0.015722  -0.025274  -0.030848
    16  C    0.005757   0.406824   0.403246   0.398613
    17  H   -0.000000   0.000000  -0.000000  -0.000000
    18  H    0.000000  -0.000000   0.000000  -0.000000
    19  H    0.000000  -0.000000  -0.000000   0.000000
    20  H   -0.000000   0.000002   0.000000  -0.000002
    21  H   -0.000000  -0.000000  -0.000000   0.000002
    22  H   -0.000000  -0.000000  -0.000000   0.000000
    23  H   -0.000241   0.000000   0.000000  -0.000000
    24  H   -0.010353  -0.000000   0.000004   0.000022
    25  H    0.660791  -0.000129   0.000722  -0.000037
    26  H   -0.000129   0.587817  -0.023848  -0.023502
    27  H    0.000722  -0.023848   0.627502  -0.036039
    28  H   -0.000037  -0.023502  -0.036039   0.634002
          Atomic-Atomic Spin Densities.
               1          2          3          4          5          6
     1  C    0.000000   0.000000   0.000000  -0.000000  -0.000000  -0.000000
     2  C    0.000000  -0.000000   0.000000  -0.000000  -0.000000  -0.000000
     3  C    0.000000   0.000000   0.000000   0.000000   0.000000  -0.000000
     4  O   -0.000000  -0.000000   0.000000  -0.000000  -0.000000   0.000000
     5  C   -0.000000  -0.000000   0.000000  -0.000000  -0.000000   0.000000
     6  C   -0.000000  -0.000000  -0.000000   0.000000   0.000000   0.000000
     7  N   -0.000000   0.000000  -0.000000   0.000000  -0.000000  -0.000000
     8  C    0.000000  -0.000000   0.000000   0.000000   0.000000   0.000000
     9  C   -0.000000   0.000000   0.000000  -0.000000   0.000000   0.000000
    10  N    0.000000   0.000000  -0.000000   0.000000   0.000000  -0.000000
    11  C    0.000000   0.000000   0.000000   0.000000  -0.000000  -0.000000
    12  C   -0.000000  -0.000000  -0.000000  -0.000000   0.000000   0.000000
    13  C    0.000000   0.000000   0.000000   0.000000  -0.000000  -0.000000
    14  C    0.000000  -0.000000   0.000000  -0.000000  -0.000000  -0.000000
    15  O   -0.000000   0.000000   0.000000  -0.000000  -0.000000  -0.000000
    16  C   -0.000000  -0.000000   0.000000  -0.000000   0.000000   0.000000
    17  H   -0.000000   0.000000  -0.000000  -0.000000   0.000000   0.000000
    18  H    0.000000  -0.000000  -0.000000   0.000000   0.000000  -0.000000
    19  H    0.000000   0.000000   0.000000  -0.000000   0.000000   0.000000
    20  H   -0.000000  -0.000000   0.000000  -0.000000  -0.000000  -0.000000
    21  H    0.000000   0.000000  -0.000000  -0.000000   0.000000  -0.000000
    22  H   -0.000000  -0.000000  -0.000000   0.000000  -0.000000   0.000000
    23  H   -0.000000   0.000000   0.000000   0.000000   0.000000  -0.000000
    24  H   -0.000000   0.000000  -0.000000  -0.000000   0.000000   0.000000
    25  H    0.000000  -0.000000  -0.000000   0.000000   0.000000  -0.000000
    26  H   -0.000000  -0.000000   0.000000   0.000000  -0.000000   0.000000
    27  H    0.000000  -0.000000   0.000000   0.000000  -0.000000  -0.000000
    28  H   -0.000000   0.000000   0.000000  -0.000000  -0.000000  -0.000000
               7          8          9         10         11         12
     1  C   -0.000000   0.000000  -0.000000   0.000000   0.000000  -0.000000
     2  C    0.000000  -0.000000   0.000000   0.000000   0.000000  -0.000000
     3  C   -0.000000   0.000000   0.000000  -0.000000   0.000000  -0.000000
     4  O    0.000000   0.000000  -0.000000   0.000000   0.000000  -0.000000
     5  C   -0.000000   0.000000   0.000000   0.000000  -0.000000   0.000000
     6  C   -0.000000   0.000000   0.000000  -0.000000  -0.000000   0.000000
     7  N    0.000000   0.000000   0.000000  -0.000000   0.000000  -0.000000
     8  C    0.000000  -0.000000  -0.000000  -0.000000  -0.000000  -0.000000
     9  C    0.000000  -0.000000  -0.000000   0.000000   0.000000   0.000000
    10  N   -0.000000  -0.000000   0.000000   0.000000  -0.000000   0.000000
    11  C    0.000000  -0.000000   0.000000  -0.000000   0.000000  -0.000000
    12  C   -0.000000  -0.000000   0.000000   0.000000  -0.000000  -0.000000
    13  C   -0.000000  -0.000000  -0.000000   0.000000   0.000000   0.000000
    14  C    0.000000  -0.000000  -0.000000  -0.000000  -0.000000   0.000000
    15  O   -0.000000   0.000000  -0.000000  -0.000000  -0.000000   0.000000
    16  C    0.000000  -0.000000  -0.000000  -0.000000   0.000000  -0.000000
    17  H   -0.000000   0.000000  -0.000000   0.000000   0.000000  -0.000000
    18  H    0.000000  -0.000000  -0.000000  -0.000000  -0.000000   0.000000
    19  H   -0.000000   0.000000  -0.000000  -0.000000   0.000000  -0.000000
    20  H    0.000000   0.000000  -0.000000   0.000000  -0.000000   0.000000
    21  H   -0.000000  -0.000000   0.000000   0.000000  -0.000000   0.000000
    22  H   -0.000000   0.000000   0.000000  -0.000000  -0.000000   0.000000
    23  H    0.000000   0.000000  -0.000000  -0.000000   0.000000  -0.000000
    24  H   -0.000000   0.000000   0.000000   0.000000  -0.000000   0.000000
    25  H    0.000000   0.000000   0.000000   0.000000   0.000000  -0.000000
    26  H    0.000000   0.000000  -0.000000  -0.000000   0.000000  -0.000000
    27  H   -0.000000  -0.000000  -0.000000   0.000000  -0.000000  -0.000000
    28  H   -0.000000   0.000000   0.000000   0.000000   0.000000  -0.000000
              13         14         15         16         17         18
     1  C    0.000000   0.000000  -0.000000  -0.000000  -0.000000   0.000000
     2  C    0.000000  -0.000000   0.000000  -0.000000   0.000000  -0.000000
     3  C    0.000000   0.000000   0.000000   0.000000  -0.000000  -0.000000
     4  O    0.000000  -0.000000  -0.000000  -0.000000  -0.000000   0.000000
     5  C   -0.000000  -0.000000  -0.000000   0.000000   0.000000   0.000000
     6  C   -0.000000  -0.000000  -0.000000   0.000000   0.000000  -0.000000
     7  N   -0.000000   0.000000  -0.000000   0.000000  -0.000000   0.000000
     8  C   -0.000000  -0.000000   0.000000  -0.000000   0.000000  -0.000000
     9  C   -0.000000  -0.000000  -0.000000  -0.000000  -0.000000  -0.000000
    10  N    0.000000  -0.000000  -0.000000  -0.000000   0.000000  -0.000000
    11  C    0.000000  -0.000000  -0.000000   0.000000   0.000000  -0.000000
    12  C    0.000000   0.000000   0.000000  -0.000000  -0.000000   0.000000
    13  C   -0.000000   0.000000   0.000000   0.000000   0.000000  -0.000000
    14  C    0.000000   0.000000  -0.000000   0.000000  -0.000000  -0.000000
    15  O    0.000000  -0.000000   0.000000   0.000000  -0.000000   0.000000
    16  C    0.000000   0.000000   0.000000  -0.000000   0.000000  -0.000000
    17  H    0.000000  -0.000000  -0.000000   0.000000  -0.000000   0.000000
    18  H   -0.000000  -0.000000   0.000000  -0.000000   0.000000  -0.000000
    19  H    0.000000  -0.000000  -0.000000  -0.000000  -0.000000   0.000000
    20  H   -0.000000   0.000000   0.000000  -0.000000  -0.000000   0.000000
    21  H   -0.000000   0.000000  -0.000000   0.000000   0.000000  -0.000000
    22  H   -0.000000  -0.000000   0.000000   0.000000   0.000000  -0.000000
    23  H    0.000000   0.000000  -0.000000   0.000000  -0.000000  -0.000000
    24  H    0.000000  -0.000000   0.000000  -0.000000  -0.000000   0.000000
    25  H   -0.000000   0.000000  -0.000000   0.000000   0.000000  -0.000000
    26  H    0.000000  -0.000000   0.000000  -0.000000  -0.000000   0.000000
    27  H   -0.000000   0.000000  -0.000000  -0.000000   0.000000  -0.000000
    28  H   -0.000000   0.000000  -0.000000   0.000000  -0.000000   0.000000
              19         20         21         22         23         24
     1  C    0.000000  -0.000000   0.000000  -0.000000  -0.000000  -0.000000
     2  C    0.000000  -0.000000   0.000000  -0.000000   0.000000   0.000000
     3  C    0.000000   0.000000  -0.000000  -0.000000   0.000000  -0.000000
     4  O   -0.000000  -0.000000  -0.000000   0.000000   0.000000  -0.000000
     5  C    0.000000  -0.000000   0.000000  -0.000000   0.000000   0.000000
     6  C    0.000000  -0.000000  -0.000000   0.000000  -0.000000   0.000000
     7  N   -0.000000   0.000000  -0.000000  -0.000000   0.000000  -0.000000
     8  C    0.000000   0.000000  -0.000000   0.000000   0.000000   0.000000
     9  C   -0.000000  -0.000000   0.000000   0.000000  -0.000000   0.000000
    10  N   -0.000000   0.000000   0.000000  -0.000000  -0.000000   0.000000
    11  C    0.000000  -0.000000  -0.000000  -0.000000   0.000000  -0.000000
    12  C   -0.000000   0.000000   0.000000   0.000000  -0.000000   0.000000
[...]
     9  C    0.000000   0.000000  -0.000000  -0.000000
    10  N   -0.000000  -0.000000   0.000000   0.000000
    11  C   -0.000000  -0.000000  -0.000000   0.000000
    12  C    0.000000  -0.000000   0.000000  -0.000000
    13  C   -0.000000   0.000000   0.000000  -0.000000
    14  C   -0.000000   0.000000   0.000000  -0.000000
    15  O    0.000000   0.000000  -0.000000  -0.000000
    16  C   -0.000000   0.000000   0.000000  -0.000000
    17  H    0.000000  -0.000000   0.000000   0.000000
    18  H   -0.000000   0.000000  -0.000000  -0.000000
    19  H   -0.000000   0.000000   0.000000  -0.000000
    20  H    0.000000  -0.000000   0.000000   0.000000
    21  H    0.000000  -0.000000   0.000000   0.000000
    22  H   -0.000000   0.000000  -0.000000  -0.000000
    23  H   -0.000000  -0.000000  -0.000000   0.000000
    24  H   -0.000000  -0.000000   0.000000   0.000000
    25  H   -0.000000   0.000000  -0.000000  -0.000000
    26  H    0.000000  -0.000000  -0.000000  -0.000000
    27  H   -0.000000  -0.000000  -0.000000   0.000000
    28  H   -0.000000  -0.000000   0.000000   0.000000
 Mulliken charges and spin densities:
               1          2
     1  C   -0.062241  -0.000000
     2  C   -0.018647   0.000000
     3  C    0.132057  -0.000000
     4  O   -0.253912   0.000000
     5  C    0.033340  -0.000000
     6  C    0.049836  -0.000000
     7  N   -0.177231  -0.000000
     8  C    0.066711   0.000000
     9  C    0.049834   0.000000
    10  N   -0.177229   0.000000
    11  C    0.066702  -0.000000
    12  C   -0.062236   0.000000
    13  C   -0.018613  -0.000000
    14  C    0.132047  -0.000000
    15  O   -0.253911   0.000000
    16  C    0.033352   0.000000
    17  H    0.016779  -0.000000
    18  H    0.020810  -0.000000
    19  H    0.053664  -0.000000
    20  H    0.050978  -0.000000
    21  H    0.066886   0.000000
    22  H    0.020960  -0.000000
    23  H    0.020953  -0.000000
    24  H    0.016778   0.000000
    25  H    0.020811  -0.000000
    26  H    0.066885  -0.000000
    27  H    0.053655  -0.000000
    28  H    0.050981   0.000000
 Sum of Mulliken charges =  -0.00000  -0.00000
 Mulliken charges and spin densities with hydrogens summed into heavy atoms:
               1          2
     1  C   -0.045463  -0.000000
     2  C    0.002163   0.000000
     3  C    0.132057  -0.000000
     4  O   -0.253912   0.000000
     5  C    0.204869  -0.000000
     6  C    0.049836  -0.000000
     7  N   -0.177231  -0.000000
     8  C    0.087672   0.000000
     9  C    0.049834   0.000000
    10  N   -0.177229   0.000000
    11  C    0.087656  -0.000000
    12  C   -0.045459   0.000000
    13  C    0.002198  -0.000000
    14  C    0.132047  -0.000000
    15  O   -0.253911   0.000000
    16  C    0.204873   0.000000
 Electronic spatial extent (au):  <R**2>=           3334.8882
 Charge=              0.0000 electrons
 Dipole moment (field-independent basis, Debye):
    X=              0.0002    Y=              4.8213    Z=             -0.0025  Tot=              4.8213
 Quadrupole moment (field-independent basis, Debye-Ang):
   XX=            -71.5497   YY=            -87.7605   ZZ=            -90.1354
   XY=             -0.0004   XZ=             -2.6942   YZ=             -0.0023
 Traceless Quadrupole moment (field-independent basis, Debye-Ang):
   XX=             11.5989   YY=             -4.6120   ZZ=             -6.9869
   XY=             -0.0004   XZ=             -2.6942   YZ=             -0.0023
 Octapole moment (field-independent basis, Debye-Ang**2):
  XXX=             -0.0015  YYY=             45.9848  ZZZ=             -0.0229  XYY=             -0.0001
  XXY=              8.6240  XXZ=              0.0013  XZZ=              0.0038  YZZ=             16.6368
  YYZ=              0.0024  XYZ=            -23.3074
 Hexadecapole moment (field-independent basis, Debye-Ang**3):
 XXXX=          -2359.4646 YYYY=          -1142.0393 ZZZZ=           -625.9861 XXXY=              0.0003
 XXXZ=             21.5481 YYYX=             -0.0184 YYYZ=              0.0124 ZZZX=            -31.5244
 ZZZY=             -0.0251 XXYY=           -581.5327 XXZZ=           -532.0247 YYZZ=           -263.8549
 XXYZ=              0.0076 YYXZ=             -4.3823 ZZXY=              0.0139
 N-N= 1.083906824061D+03 E-N=-3.855095724431D+03  KE= 7.192922325060D+02
                          Isotropic Fermi Contact Couplings
        Atom                 a.u.       MegaHertz       Gauss      10(-4) cm-1
     1  C(13)             -0.00000      -0.00000      -0.00000      -0.00000
     2  C(13)              0.00000       0.00000       0.00000       0.00000
     3  C(13)              0.00000       0.00000       0.00000       0.00000
     4  O(17)             -0.00000       0.00000       0.00000       0.00000
     5  C(13)              0.00000       0.00000       0.00000       0.00000
     6  C(13)             -0.00000      -0.00000      -0.00000      -0.00000
     7  N(14)              0.00000       0.00000       0.00000       0.00000
     8  C(13)             -0.00000      -0.00000      -0.00000      -0.00000
     9  C(13)              0.00000       0.00000       0.00000       0.00000
    10  N(14)             -0.00000      -0.00000      -0.00000      -0.00000
    11  C(13)             -0.00000      -0.00000      -0.00000      -0.00000
    12  C(13)             -0.00000      -0.00000      -0.00000      -0.00000
    13  C(13)             -0.00000      -0.00000      -0.00000      -0.00000
    14  C(13)             -0.00000      -0.00000      -0.00000      -0.00000
    15  O(17)              0.00000      -0.00000      -0.00000      -0.00000
    16  C(13)              0.00000       0.00000       0.00000       0.00000
    17  H(1)              -0.00000      -0.00000      -0.00000      -0.00000
    18  H(1)              -0.00000      -0.00000      -0.00000      -0.00000
    19  H(1)              -0.00000      -0.00000      -0.00000      -0.00000
    20  H(1)               0.00000       0.00000       0.00000       0.00000
    21  H(1)               0.00000       0.00000       0.00000       0.00000
    22  H(1)              -0.00000      -0.00000      -0.00000      -0.00000
    23  H(1)               0.00000       0.00000       0.00000       0.00000
    24  H(1)               0.00000       0.00000       0.00000       0.00000
    25  H(1)               0.00000       0.00000       0.00000       0.00000
    26  H(1)               0.00000       0.00000       0.00000       0.00000
    27  H(1)              -0.00000      -0.00000      -0.00000      -0.00000
    28  H(1)               0.00000       0.00000       0.00000       0.00000
 --------------------------------------------------------
       Center         ----  Spin Dipole Couplings  ----
                      3XX-RR        3YY-RR        3ZZ-RR
 --------------------------------------------------------
     1   Atom       -0.000000      0.000000      0.000000
     2   Atom        0.000000      0.000000     -0.000000
     3   Atom        0.000000     -0.000000     -0.000000
     4   Atom        0.000000     -0.000000      0.000000
     5   Atom        0.000000      0.000000     -0.000000
     6   Atom        0.000000     -0.000000     -0.000000
     7   Atom       -0.000000      0.000000      0.000000
     8   Atom       -0.000000      0.000000      0.000000
     9   Atom        0.000000     -0.000000     -0.000000
    10   Atom        0.000000      0.000000     -0.000000
    11   Atom        0.000000     -0.000000      0.000000
    12   Atom        0.000000     -0.000000      0.000000
    13   Atom        0.000000     -0.000000      0.000000
    14   Atom        0.000000     -0.000000      0.000000
    15   Atom       -0.000000     -0.000000      0.000000
    16   Atom        0.000000     -0.000000      0.000000
    17   Atom       -0.000000      0.000000      0.000000
    18   Atom       -0.000000      0.000000      0.000000
    19   Atom       -0.000000     -0.000000      0.000000
    20   Atom       -0.000000      0.000000     -0.000000
    21   Atom       -0.000000      0.000000      0.000000
    22   Atom       -0.000000     -0.000000      0.000000
    23   Atom        0.000000     -0.000000     -0.000000
    24   Atom        0.000000     -0.000000     -0.000000
    25   Atom        0.000000     -0.000000     -0.000000
    26   Atom        0.000000      0.000000     -0.000000
    27   Atom        0.000000     -0.000000     -0.000000
    28   Atom        0.000000      0.000000     -0.000000
 --------------------------------------------------------
                        XY            XZ            YZ
 --------------------------------------------------------
     1   Atom        0.000000     -0.000000     -0.000000
     2   Atom       -0.000000      0.000000     -0.000000
     3   Atom        0.000000      0.000000     -0.000000
     4   Atom        0.000000      0.000000     -0.000000
     5   Atom        0.000000     -0.000000     -0.000000
     6   Atom        0.000000     -0.000000      0.000000
     7   Atom        0.000000     -0.000000     -0.000000
     8   Atom        0.000000     -0.000000     -0.000000
     9   Atom        0.000000      0.000000      0.000000
    10   Atom        0.000000      0.000000     -0.000000
    11   Atom        0.000000      0.000000     -0.000000
    12   Atom       -0.000000     -0.000000     -0.000000
    13   Atom        0.000000     -0.000000     -0.000000
    14   Atom       -0.000000     -0.000000     -0.000000
    15   Atom       -0.000000     -0.000000      0.000000
    16   Atom        0.000000     -0.000000      0.000000
    17   Atom       -0.000000      0.000000     -0.000000
    18   Atom       -0.000000      0.000000     -0.000000
    19   Atom        0.000000     -0.000000      0.000000
    20   Atom       -0.000000     -0.000000      0.000000
    21   Atom        0.000000     -0.000000     -0.000000
    22   Atom       -0.000000      0.000000      0.000000
    23   Atom       -0.000000     -0.000000     -0.000000
    24   Atom       -0.000000     -0.000000      0.000000
    25   Atom       -0.000000      0.000000     -0.000000
    26   Atom        0.000000     -0.000000      0.000000
    27   Atom        0.000000     -0.000000      0.000000
    28   Atom        0.000000     -0.000000      0.000000
 --------------------------------------------------------


 ---------------------------------------------------------------------------------
              Anisotropic Spin Dipole Couplings in Principal Axis System
 ---------------------------------------------------------------------------------

       Atom             a.u.   MegaHertz   Gauss  10(-4) cm-1        Axes

              Baa    -0.0000    -0.000    -0.000    -0.000  0.9457 -0.3085  0.1027
     1 C(13)  Bbb     0.0000     0.000     0.000     0.000 -0.0597  0.1457  0.9875
              Bcc     0.0000     0.000     0.000     0.000  0.3196  0.9400 -0.1193
 
              Baa    -0.0000    -0.000    -0.000    -0.000 -0.3028  0.5363  0.7879
     2 C(13)  Bbb    -0.0000    -0.000    -0.000    -0.000  0.8360  0.5463 -0.0506
              Bcc     0.0000     0.000     0.000     0.000 -0.4576  0.6434 -0.6138
 
              Baa    -0.0000    -0.000    -0.000    -0.000 -0.1721  0.3562  0.9184
     3 C(13)  Bbb    -0.0000    -0.000    -0.000    -0.000 -0.3654  0.8427 -0.3954
              Bcc     0.0000     0.000     0.000     0.000  0.9148  0.4037  0.0149
 
              Baa    -0.0000     0.000     0.000     0.000 -0.5557  0.8232  0.1166
     4 O(17)  Bbb     0.0000    -0.000    -0.000    -0.000  0.0615 -0.0991  0.9932
              Bcc     0.0000    -0.000    -0.000    -0.000  0.8291  0.5590  0.0044
 
              Baa    -0.0000    -0.000    -0.000    -0.000  0.1736  0.1631  0.9712
     5 C(13)  Bbb    -0.0000    -0.000    -0.000    -0.000 -0.4994  0.8645 -0.0559
              Bcc     0.0000     0.000     0.000     0.000  0.8488  0.4753 -0.2315
 
              Baa    -0.0000    -0.000    -0.000    -0.000 -0.3377  0.6840 -0.6466
     6 C(13)  Bbb     0.0000     0.000     0.000     0.000  0.6381  0.6713  0.3770
              Bcc     0.0000     0.000     0.000     0.000  0.6920 -0.2853 -0.6632
 
              Baa    -0.0000    -0.000    -0.000    -0.000  0.8396 -0.5305  0.1171
     7 N(14)  Bbb    -0.0000    -0.000    -0.000    -0.000  0.1907  0.4896  0.8509
              Bcc     0.0000     0.000     0.000     0.000  0.5087  0.6920 -0.5122
 
              Baa    -0.0000    -0.000    -0.000    -0.000  0.7727 -0.5127  0.3743
     8 C(13)  Bbb    -0.0000    -0.000    -0.000    -0.000  0.0600  0.6460  0.7610
              Bcc     0.0000     0.000     0.000     0.000  0.6319  0.5656 -0.5299
 
              Baa    -0.0000    -0.000    -0.000    -0.000 -0.4814  0.8596 -0.1715
     9 C(13)  Bbb    -0.0000    -0.000    -0.000    -0.000 -0.2582  0.0479  0.9649
              Bcc     0.0000     0.000     0.000     0.000  0.8376  0.5087  0.1989
 
              Baa    -0.0000    -0.000    -0.000    -0.000 -0.5957  0.6380  0.4880
    10 N(14)  Bbb    -0.0000    -0.000    -0.000    -0.000  0.2746 -0.4093  0.8701
              Bcc     0.0000     0.000     0.000     0.000  0.7548  0.6523  0.0686
 
              Baa    -0.0000    -0.000    -0.000    -0.000 -0.1408  0.8949  0.4234
    11 C(13)  Bbb     0.0000     0.000     0.000     0.000 -0.1955 -0.4444  0.8742
              Bcc     0.0000     0.000     0.000     0.000  0.9705  0.0404  0.2375
 
              Baa    -0.0000    -0.000    -0.000    -0.000  0.3912  0.7976  0.4591
    12 C(13)  Bbb     0.0000     0.000     0.000     0.000 -0.6689 -0.0961  0.7371
              Bcc     0.0000     0.000     0.000     0.000  0.6321 -0.5954  0.4960
 
              Baa    -0.0000    -0.000    -0.000    -0.000 -0.0608  0.8793  0.4725
    13 C(13)  Bbb     0.0000     0.000     0.000     0.000  0.9879 -0.0145  0.1542
              Bcc     0.0000     0.000     0.000     0.000 -0.1424 -0.4761  0.8678
 
              Baa    -0.0000    -0.000    -0.000    -0.000  0.5624  0.6956  0.4470
    14 C(13)  Bbb     0.0000     0.000     0.000     0.000  0.0306 -0.5577  0.8295
              Bcc     0.0000     0.000     0.000     0.000  0.8263 -0.4528 -0.3350
 
              Baa    -0.0000     0.000     0.000     0.000  0.6263  0.7676 -0.1362
    15 O(17)  Bbb     0.0000    -0.000    -0.000    -0.000  0.5701 -0.3318  0.7516
              Bcc     0.0000    -0.000    -0.000    -0.000 -0.5317  0.5483  0.6454
 
              Baa    -0.0000    -0.000    -0.000    -0.000 -0.5145  0.8477 -0.1291
    16 C(13)  Bbb     0.0000     0.000     0.000     0.000  0.6914  0.4992  0.5224
              Bcc     0.0000     0.000     0.000     0.000 -0.5072 -0.1795  0.8429
 
              Baa    -0.0000    -0.000    -0.000    -0.000  0.8007  0.5985  0.0281
    17 H(1)   Bbb    -0.0000    -0.000    -0.000    -0.000 -0.2075  0.2330  0.9501
              Bcc     0.0000     0.000     0.000     0.000 -0.5620  0.7665 -0.3108
 
              Baa    -0.0000    -0.000    -0.000    -0.000  0.8746  0.3690 -0.3144
    18 H(1)   Bbb     0.0000     0.000     0.000     0.000  0.0837  0.5238  0.8477
              Bcc     0.0000     0.000     0.000     0.000 -0.4775  0.7677 -0.4273
 
              Baa    -0.0000    -0.000    -0.000    -0.000  0.8957 -0.4024  0.1892
    19 H(1)   Bbb    -0.0000    -0.000    -0.000    -0.000  0.4439  0.8348 -0.3257
              Bcc     0.0000     0.000     0.000     0.000 -0.0269  0.3757  0.9264
 
              Baa    -0.0000    -0.000    -0.000    -0.000  0.5890 -0.3887  0.7085
    20 H(1)   Bbb    -0.0000    -0.000    -0.000    -0.000  0.7725  0.5282 -0.3525
              Bcc     0.0000     0.000     0.000     0.000 -0.2372  0.7549  0.6114
 
              Baa    -0.0000    -0.000    -0.000    -0.000  0.7859 -0.6002  0.1488
    21 H(1)   Bbb     0.0000     0.000     0.000     0.000  0.1930  0.4667  0.8631
              Bcc     0.0000     0.000     0.000     0.000  0.5875  0.6496 -0.4826
 
              Baa    -0.0000    -0.000    -0.000    -0.000  0.7225  0.5653 -0.3980
    22 H(1)   Bbb     0.0000     0.000     0.000     0.000 -0.0993  0.6546  0.7494
              Bcc     0.0000     0.000     0.000     0.000  0.6842 -0.5020  0.5291
 
              Baa    -0.0000    -0.000    -0.000    -0.000  0.1222  0.7136  0.6898
    23 H(1)   Bbb     0.0000     0.000     0.000     0.000 -0.3603  0.6795 -0.6391
              Bcc     0.0000     0.000     0.000     0.000  0.9248  0.1705 -0.3401
 
              Baa    -0.0000    -0.000    -0.000    -0.000  0.3700 -0.0947  0.9242
    24 H(1)   Bbb    -0.0000    -0.000    -0.000    -0.000  0.0881  0.9939  0.0666
              Bcc     0.0000     0.000     0.000     0.000  0.9248 -0.0568 -0.3761
 
              Baa    -0.0000    -0.000    -0.000    -0.000  0.0188  0.8803  0.4741
    25 H(1)   Bbb     0.0000     0.000     0.000     0.000 -0.1359 -0.4675  0.8735
              Bcc     0.0000     0.000     0.000     0.000  0.9905 -0.0809  0.1108
 
              Baa    -0.0000    -0.000    -0.000    -0.000  0.7127 -0.5909  0.3779
    26 H(1)   Bbb    -0.0000    -0.000    -0.000    -0.000 -0.2977  0.2331  0.9258
              Bcc     0.0000     0.000     0.000     0.000  0.6351  0.7723  0.0098
 
              Baa    -0.0000    -0.000    -0.000    -0.000 -0.4101  0.8247 -0.3895
    27 H(1)   Bbb    -0.0000    -0.000    -0.000    -0.000  0.1781  0.4912  0.8526
              Bcc     0.0000     0.000     0.000     0.000  0.8945  0.2802 -0.3483
 
              Baa    -0.0000    -0.000    -0.000    -0.000  0.1904 -0.4988  0.8456
    28 H(1)   Bbb     0.0000     0.000     0.000     0.000  0.9085 -0.2369 -0.3443
              Bcc     0.0000     0.000     0.000     0.000  0.3721  0.8337  0.4080
 

 ---------------------------------------------------------------------------------

 No NMR shielding tensors so no spin-rotation constants.
 Leave Link  601 at Sun Jul 26 12:47:57 2020, MaxMem=  4026531840 cpu:               2.0 elap:               0.3
 (Enter /opt/ohpc/pub/libs/gaussian/g16-A.03/sandybridge/g16/l9999.exe)

 Test job not archived.
 1\1\GINC-SKYLAKE048\FOpt\ULC-wPBE\CC-pVDZ\C12H12N2O2\RDU230\26-Jul-202
 0\0\\#P uLC-wPBE/cc-pVDZ iop(3/107=0459100000, 3/108=0459100000) opt\\
 H12 C12 N2 O2\\0,1\C,3.3771773749,-0.8420256976,0.7543860973\C,2.92142
 67219,0.2036231617,-0.0386070204\C,1.573862403,0.2558591294,-0.3454234
 367\O,0.9884695608,1.1944918263,-1.1172456173\C,1.7963752007,2.2197404
 28,-1.6292093502\C,0.7339220054,-0.7468562514,0.1622129348\N,1.1783248
 572,-1.7383869569,0.9083040604\C,2.4761534935,-1.7853507105,1.20028424
 62\C,-0.7229107581,-0.7433114198,-0.1652853998\N,-1.1714221341,-1.7306
 13595,-0.9145082114\C,-2.469405137,-1.7711609011,-1.2067300159\C,-3.36
 64755988,-0.8254458041,-0.7579057682\C,-2.906413012,0.2157604252,0.038
 3719045\C,-1.5586426914,0.2613180076,0.3454371984\O,-0.9693460057,1.19
 48615549,1.1204769452\C,-1.772154562,2.2241230462,1.6324417815\H,4.431
 0095444,-0.9163967894,1.0161588715\H,3.6172036273,0.9532061022,-0.4073
 974623\H,2.5839947258,1.8250769527,-2.2872953461\H,2.25950479,2.809753
 2358,-0.8249986342\H,1.1387850122,2.8682911943,-2.2138074069\H,2.80097
 24032,-2.6208243362,1.8218223585\H,-2.7976741874,-2.6033034251,-1.8308
 974665\H,-4.4205974285,-0.8946022273,-1.0199334559\H,-3.599040473,0.96
 71005003,0.4095142142\H,-1.1115177349,2.8688869366,2.2177963162\H,-2.5
 622556935,1.8333432526,2.2898813743\H,-2.231617304,2.8169133605,0.8281
 852887\\Version=EM64L-G16RevA.03\State=1-A\HF=-723.9709467\S2=0.\S2-1=
 0.\S2A=0.\RMSD=3.365e-09\RMSF=7.770e-06\Dipole=0.0042705,1.8968432,0.0
 014664\Quadrupole=8.7748663,-3.4288286,-5.3460377,-0.0250995,-1.37718,
 0.0038199\PG=C01 [X(C12H12N2O2)]\\@


 Just remember, when you're over the hill, you begin to pick up speed.
 -- Charles Schulz
 Job cpu time:       0 days  3 hours 27 minutes  2.6 seconds.
 Elapsed time:       0 days  0 hours 26 minutes 19.1 seconds.
 File lengths (MBytes):  RWF=    152 Int=      0 D2E=      0 Chk=     16 Scr=      8
 Normal termination of Gaussian 16 at Sun Jul 26 12:47:57 2020.
