 Entering Gaussian System, Link 0=g16
 Input=mols_65_7_24_n-cOC-C_opt_0.gjf
 Output=mols_65_7_24_n-cOC-C_opt_0.log
 Initial command:
 /opt/ohpc/pub/libs/gaussian/g16-A.03/sandybridge/g16/l1.exe "/mnt/gpfs2_4m/scratch/rdu230/ondemand/projects/dihedral_energies/7trial/wtuning/mols_65_7_24_n-cOC-C/Gau-342200.inp" -scrdir="/mnt/gpfs2_4m/scratch/rdu230/ondemand/projects/dihedral_energies/7trial/wtuning/mols_65_7_24_n-cOC-C/"
 Entering Link 1 = /opt/ohpc/pub/libs/gaussian/g16-A.03/sandybridge/g16/l1.exe PID=    342201.
  
 Copyright (c) 1988,1990,1992,1993,1995,1998,2003,2009,2016,
            Gaussian, Inc.  All Rights Reserved.
  
 This is part of the Gaussian(R) 16 program.  It is based on
 the Gaussian(R) 09 system (copyright 2009, Gaussian, Inc.),
 the Gaussian(R) 03 system (copyright 2003, Gaussian, Inc.),
 the Gaussian(R) 98 system (copyright 1998, Gaussian, Inc.),
 the Gaussian(R) 94 system (copyright 1995, Gaussian, Inc.),
 the Gaussian 92(TM) system (copyright 1992, Gaussian, Inc.),
 the Gaussian 90(TM) system (copyright 1990, Gaussian, Inc.),
 the Gaussian 88(TM) system (copyright 1988, Gaussian, Inc.),
 the Gaussian 86(TM) system (copyright 1986, Carnegie Mellon
 University), and the Gaussian 82(TM) system (copyright 1983,
 Carnegie Mellon University). Gaussian is a federally registered
 trademark of Gaussian, Inc.
  
 This software contains proprietary and confidential information,
 including trade secrets, belonging to Gaussian, Inc.
  
 This software is provided under written license and may be
 used, copied, transmitted, or stored only in accord with that
 written license.
  
 The following legend is applicable only to US Government
 contracts under FAR:
  
                    RESTRICTED RIGHTS LEGEND
  
 Use, reproduction and disclosure by the US Government is
 subject to restrictions as set forth in subparagraphs (a)
 and (c) of the Commercial Computer Software - Restricted
 Rights clause in FAR 52.227-19.
  
 Gaussian, Inc.
 340 Quinnipiac St., Bldg. 40, Wallingford CT 06492
  
  
 ---------------------------------------------------------------
 Warning -- This program may not be used in any manner that
 competes with the business of Gaussian, Inc. or will provide
 assistance to any competitor of Gaussian, Inc.  The licensee
 of this program is prohibited from giving any competitor of
 Gaussian, Inc. access to this program.  By using this program,
 the user acknowledges that Gaussian, Inc. is engaged in the
 business of creating and licensing software in the field of
 computational chemistry and represents and warrants to the
 licensee that it is not a competitor of Gaussian, Inc. and that
 it will not use this program in any manner prohibited above.
 ---------------------------------------------------------------
  

 Cite this work as:
 Gaussian 16, Revision A.03,
 M. J. Frisch, G. W. Trucks, H. B. Schlegel, G. E. Scuseria, 
 M. A. Robb, J. R. Cheeseman, G. Scalmani, V. Barone, 
 G. A. Petersson, H. Nakatsuji, X. Li, M. Caricato, A. V. Marenich, 
 J. Bloino, B. G. Janesko, R. Gomperts, B. Mennucci, H. P. Hratchian, 
 J. V. Ortiz, A. F. Izmaylov, J. L. Sonnenberg, D. Williams-Young, 
 F. Ding, F. Lipparini, F. Egidi, J. Goings, B. Peng, A. Petrone, 
 T. Henderson, D. Ranasinghe, V. G. Zakrzewski, J. Gao, N. Rega, 
 G. Zheng, W. Liang, M. Hada, M. Ehara, K. Toyota, R. Fukuda, 
 J. Hasegawa, M. Ishida, T. Nakajima, Y. Honda, O. Kitao, H. Nakai, 
 T. Vreven, K. Throssell, J. A. Montgomery, Jr., J. E. Peralta, 
 F. Ogliaro, M. J. Bearpark, J. J. Heyd, E. N. Brothers, K. N. Kudin, 
 V. N. Staroverov, T. A. Keith, R. Kobayashi, J. Normand, 
 K. Raghavachari, A. P. Rendell, J. C. Burant, S. S. Iyengar, 
 J. Tomasi, M. Cossi, J. M. Millam, M. Klene, C. Adamo, R. Cammi, 
 J. W. Ochterski, R. L. Martin, K. Morokuma, O. Farkas, 
 J. B. Foresman, and D. J. Fox, Gaussian, Inc., Wallingford CT, 2016.
 
 ******************************************
 Gaussian 16:  EM64L-G16RevA.03 25-Dec-2016
                25-Jul-2020 
 ******************************************
 %mem=30GB
 %nproc=8
 Will use up to    8 processors via shared memory.
 ---------------------------------------------------------------
 #P uLC-wPBE/cc-pVDZ iop(3/107=0215000000, 3/108=0215000000) opt
 ---------------------------------------------------------------
 1/18=20,19=15,26=3,38=1/1,3;
 2/9=110,12=2,17=6,18=5,40=1/2;
 3/5=16,11=2,25=1,30=1,71=1,74=-41,107=215000000,108=215000000,116=2/1,2,3;
 4//1;
 5/5=2,38=5/2;
 6/7=2,8=2,9=2,10=2,28=1/1;
 7//1,2,3,16;
 1/18=20,19=15,26=3/3(2);
 2/9=110/2;
 99//99;
 2/9=110/2;
 3/5=16,11=2,25=1,30=1,71=1,74=-41,107=215000000,108=215000000,116=2/1,2,3;
 4/5=5,16=3,69=1/1;
 5/5=2,38=5/2;
 7//1,2,3,16;
 1/18=20,19=15,26=3/3(-5);
 2/9=110/2;
 6/7=2,8=2,9=2,10=2,19=2,28=1/1;
 99/9=1/99;
 Leave Link    1 at Sat Jul 25 11:20:53 2020, MaxMem=  4026531840 cpu:               3.1 elap:               0.4
 (Enter /opt/ohpc/pub/libs/gaussian/g16-A.03/sandybridge/g16/l101.exe)
 ----------------
 H51 C70 S7 N7 O7
 ----------------
 Symbolic Z-matrix:
 Charge =  0 Multiplicity = 1
 C                     23.61016  -5.2334   -2.54876 
 C                     23.2305  -4.06053  -3.12111 
 N                     22.49007  -3.10032  -2.42704 
 C                     22.13838  -3.42692  -1.18662 
 C                     22.46111  -4.63976  -0.45156 
 O                     22.0137  -4.78085   0.76963 
 C                     22.13624  -6.07036   1.32336 
 C                     23.24153  -5.58569  -1.24718 
 C                     21.3396  -2.38943  -0.46901 
 C                     21.55009  -1.74155   0.67791 
 C                     20.59656  -0.79531   0.98411 
 C                     19.62366  -0.65818  -0.00852 
 S                     19.99698  -1.76007  -1.26439 
 C                     18.35405   0.11189  -0.03668 
 C                     17.92637   0.77433  -1.14529 
 N                     16.83388   1.48603  -1.23664 
 C                     16.02671   1.60326  -0.10048 
 C                     16.49076   1.12827   1.08957 
 O                     15.73602   1.3824    2.19772 
 C                     16.03403   0.80584   3.49459 
 C                     17.68787   0.33777   1.15668 
 C                     14.78875   2.41895  -0.31082 
 C                     14.71768   3.54649  -1.08669 
 C                     13.33914   4.01931  -1.15533 
 C                     12.42496   3.15195  -0.44883 
 S                     13.35315   1.8977    0.2534 
 C                     10.99269   3.29282  -0.16737 
 C                     10.13375   2.20024  -0.11228 
 N                     8.87627   2.26189   0.1199 
 C                     8.28528   3.5622    0.21564 
 C                     9.05561   4.70762   0.0926 
 O                     8.33484   5.93349   0.11762 
 C                     9.08884   7.07463   0.03024 
 C                     10.37112   4.60187  -0.13227 
 C                     6.80717   3.52808   0.55695 
 C                     6.08818   4.37394   1.2367 
 C                     4.679     3.95778   1.46934 
 C                     4.47233   2.74987   0.86394 
 S                     5.85663   2.23766  -0.00897 
 C                     3.18906   1.93971   0.83424 
 C                     2.01182   2.5106    0.64238 
 N                     0.77148   1.89524   0.73946 
 C                     0.86192   0.57183   0.88761 
 C                     2.02847  -0.16244   1.05588 
 O                     1.95083  -1.53882   1.3282 
 C                     3.18286  -2.27728   1.16736 
 C                     3.27191   0.616     1.03219 
 C                    -0.44072  -0.1202    1.06609 
 C                    -0.93191  -1.0044    2.0259 
 C                    -2.29786  -1.30948   1.74299 
 C                    -2.85678  -0.73698   0.59965 
 S                    -1.67981   0.24364  -0.17572 
 C                    -4.21054  -0.83795   0.12632 
 C                    -5.02755  -1.92167   0.4843 
 N                    -6.32238  -2.13833   0.0886 
 C                    -6.81284  -1.24011  -0.80496 
 C                    -6.04261  -0.11907  -1.31463 
 O                    -6.63182   0.69847  -2.18689 
 C                    -5.99344   1.91387  -2.51995 
 C                    -4.77074   0.05641  -0.84849 
 C                    -8.19339  -1.43832  -1.10979 
 C                    -8.75909  -1.71597  -2.41364 
 C                    -10.11981  -1.80942  -2.39185 
 C                    -10.66521  -1.69279  -1.05805 
 S                    -9.43785  -1.3989    0.02049 
 C                    -12.03899  -1.76301  -0.68796 
 C                    -13.09768  -1.16658  -1.48804 
 N                    -14.38964  -1.17495  -1.19856 
 C                    -14.77202  -1.78331  -0.0316 
 C                    -13.90685  -2.46941   0.85828 
 O                    -14.39552  -3.06226   1.97072 
 C                    -13.45747  -3.70452   2.82767 
 C                    -12.52575  -2.47218   0.4692 
 C                    -16.24556  -1.82457   0.1487 
 C                    -17.0037  -2.91585   0.58619 
 C                    -18.38117  -2.5755    0.60183 
 C                    -18.60251  -1.26929   0.19098 
 S                    -17.20562  -0.48001  -0.12565 
 C                    -19.94686  -0.5341   -0.00263 
 C                    -20.27248   0.19195  -1.08717 
 N                    -21.39058   0.79952  -1.25976 
 C                    -22.33517   0.66853  -0.32603 
 C                    -22.14905  -0.08081   0.8509 
 O                    -23.24559  -0.16106   1.66783 
 C                    -23.05757  -0.99824   2.9128 
 C                    -20.98106  -0.72138   0.96459 
 C                    -23.63847   1.37414  -0.61219 
 C                    -24.47785   2.13309   0.12937 
 C                    -25.61196   2.59111  -0.43718 
 C                    -25.66815   2.12814  -1.81977 
 S                    -24.31725   1.25889  -2.24079 
 H                     24.18974  -5.98131  -3.04634 
 H                     23.57454  -3.78844  -4.1039 
 H                     21.63536  -6.86277   0.70615 
 H                     23.2609  -6.36628   1.46063 
 H                     21.65382  -6.08084   2.34025 
 H                     23.49966  -6.4643   -0.77634 
 H                     22.42891  -1.98604   1.39215 
 H                     20.59241  -0.20195   1.90328 
 H                     18.45917   0.68573  -2.11719 
 H                     17.0332   1.12222   3.86918 
 H                     16.05357  -0.27734   3.35208 
 H                     15.32669   1.1034    4.20033 
 H                     17.97265  -0.04287   2.08564 
 H                     15.52977   4.02324  -1.59209 
 H                     13.02092   4.91873  -1.6081 
 H                     10.49122   1.1819   -0.14389 
 H                     9.83413   7.22691   0.8213 
 H                     9.63851   7.0933   -1.00684 
 H                     8.38492   7.9248    0.04717 
 H                     11.0497   5.40838  -0.22605 
 H                     6.46843   5.22285   1.76635 
 H                     3.94498   4.5015    2.05344 
 H                     1.88238   3.65905   0.4379 
 H                     3.68621  -2.04664   0.26409 
 H                     3.92381  -2.01157   2.03779 
 H                     2.95618  -3.32236   1.23343 
 H                     4.18743   0.03608   1.2007 
 H                    -0.3671   -1.32231   2.78235 
 H                    -2.80645  -2.01737   2.37081 
 H                    -4.70518  -2.66396   1.18686 
 H                    -6.73083   2.47692  -3.1379 
 H                    -5.05887   1.75382  -3.03201 
 H                    -5.8207    2.5328   -1.53897 
 H                    -4.15264   0.78852  -1.17154 
 H                    -8.11062  -1.68658  -3.28234 
 H                    -10.79365  -2.03975  -3.22568 
 H                    -12.84704  -0.66102  -2.36549 
 H                    -12.7127  -3.00471   3.1904 
 H                    -14.0036  -4.16837   3.62377 
 H                    -12.9201  -4.58744   2.25648 
 H                    -11.73395  -2.96505   1.09 
 H                    -16.66072  -3.87397   0.94554 
 H                    -19.18482  -3.23489   0.93497 
 H                    -19.45842   0.35914  -1.85993 
 H                    -22.30093  -0.56458   3.48173 
 H                    -23.9424  -0.95259   3.4628 
 H                    -22.80654  -2.01146   2.65558 
 H                    -20.75596  -1.27232   1.90289 
 H                    -24.20578   2.28331   1.23629 
 H                    -26.35357   3.17353   0.01025 
 H                    -26.45     2.32109  -2.4715 
 
 ITRead=  0  0  0  0  0  0  0  0  0  0  0  0  0  0  0  0  0  0  0  0
 ITRead=  0  0  0  0  0  0  0  0  0  0  0  0  0  0  0  0  0  0  0  0
 ITRead=  0  0  0  0  0  0  0  0  0  0  0  0  0  0  0  0  0  0  0  0
 ITRead=  0  0  0  0  0  0  0  0  0  0  0  0  0  0  0  0  0  0  0  0
 ITRead=  0  0  0  0  0  0  0  0  0  0  0  0  0  0  0  0  0  0  0  0
 ITRead=  0  0  0  0  0  0  0  0  0  0  0  0  0  0  0  0  0  0  0  0
 ITRead=  0  0  0  0  0  0  0  0  0  0  0  0  0  0  0  0  0  0  0  0
 ITRead=  0  0
 MicOpt= -1 -1 -1 -1 -1 -1 -1 -1 -1 -1 -1 -1 -1 -1 -1 -1 -1 -1 -1 -1
 MicOpt= -1 -1 -1 -1 -1 -1 -1 -1 -1 -1 -1 -1 -1 -1 -1 -1 -1 -1 -1 -1
 MicOpt= -1 -1 -1 -1 -1 -1 -1 -1 -1 -1 -1 -1 -1 -1 -1 -1 -1 -1 -1 -1
 MicOpt= -1 -1 -1 -1 -1 -1 -1 -1 -1 -1 -1 -1 -1 -1 -1 -1 -1 -1 -1 -1
 MicOpt= -1 -1 -1 -1 -1 -1 -1 -1 -1 -1 -1 -1 -1 -1 -1 -1 -1 -1 -1 -1
 MicOpt= -1 -1 -1 -1 -1 -1 -1 -1 -1 -1 -1 -1 -1 -1 -1 -1 -1 -1 -1 -1
 MicOpt= -1 -1 -1 -1 -1 -1 -1 -1 -1 -1 -1 -1 -1 -1 -1 -1 -1 -1 -1 -1
 MicOpt= -1 -1
 NAtoms=    142 NQM=      142 NQMF=       0 NMMI=      0 NMMIF=      0
                NMic=       0 NMicF=      0.
                    Isotopes and Nuclear Properties:
 (Nuclear quadrupole moments (NQMom) in fm**2, nuclear magnetic moments (NMagM)
  in nuclear magnetons)

  Atom         1           2           3           4           5           6           7           8           9          10
 IAtWgt=          12          12          14          12          12          16          12          12          12          12
 AtmWgt=  12.0000000  12.0000000  14.0030740  12.0000000  12.0000000  15.9949146  12.0000000  12.0000000  12.0000000  12.0000000
 NucSpn=           0           0           2           0           0           0           0           0           0           0
 AtZEff=  -0.0000000  -0.0000000  -0.0000000  -0.0000000  -0.0000000  -0.0000000  -0.0000000  -0.0000000  -0.0000000  -0.0000000
 NQMom=    0.0000000   0.0000000   2.0440000   0.0000000   0.0000000   0.0000000   0.0000000   0.0000000   0.0000000   0.0000000
 NMagM=    0.0000000   0.0000000   0.4037610   0.0000000   0.0000000   0.0000000   0.0000000   0.0000000   0.0000000   0.0000000
 AtZNuc=   6.0000000   6.0000000   7.0000000   6.0000000   6.0000000   8.0000000   6.0000000   6.0000000   6.0000000   6.0000000

  Atom        11          12          13          14          15          16          17          18          19          20
 IAtWgt=          12          12          32          12          12          14          12          12          16          12
 AtmWgt=  12.0000000  12.0000000  31.9720718  12.0000000  12.0000000  14.0030740  12.0000000  12.0000000  15.9949146  12.0000000
 NucSpn=           0           0           0           0           0           2           0           0           0           0
 AtZEff=  -0.0000000  -0.0000000  -0.0000000  -0.0000000  -0.0000000  -0.0000000  -0.0000000  -0.0000000  -0.0000000  -0.0000000
 NQMom=    0.0000000   0.0000000   0.0000000   0.0000000   0.0000000   2.0440000   0.0000000   0.0000000   0.0000000   0.0000000
 NMagM=    0.0000000   0.0000000   0.0000000   0.0000000   0.0000000   0.4037610   0.0000000   0.0000000   0.0000000   0.0000000
 AtZNuc=   6.0000000   6.0000000  16.0000000   6.0000000   6.0000000   7.0000000   6.0000000   6.0000000   8.0000000   6.0000000

  Atom        21          22          23          24          25          26          27          28          29          30
 IAtWgt=          12          12          12          12          12          32          12          12          14          12
 AtmWgt=  12.0000000  12.0000000  12.0000000  12.0000000  12.0000000  31.9720718  12.0000000  12.0000000  14.0030740  12.0000000
 NucSpn=           0           0           0           0           0           0           0           0           2           0
 AtZEff=  -0.0000000  -0.0000000  -0.0000000  -0.0000000  -0.0000000  -0.0000000  -0.0000000  -0.0000000  -0.0000000  -0.0000000
 NQMom=    0.0000000   0.0000000   0.0000000   0.0000000   0.0000000   0.0000000   0.0000000   0.0000000   2.0440000   0.0000000
 NMagM=    0.0000000   0.0000000   0.0000000   0.0000000   0.0000000   0.0000000   0.0000000   0.0000000   0.4037610   0.0000000
 AtZNuc=   6.0000000   6.0000000   6.0000000   6.0000000   6.0000000  16.0000000   6.0000000   6.0000000   7.0000000   6.0000000

  Atom        31          32          33          34          35          36          37          38          39          40
 IAtWgt=          12          16          12          12          12          12          12          12          32          12
 AtmWgt=  12.0000000  15.9949146  12.0000000  12.0000000  12.0000000  12.0000000  12.0000000  12.0000000  31.9720718  12.0000000
 NucSpn=           0           0           0           0           0           0           0           0           0           0
 AtZEff=  -0.0000000  -0.0000000  -0.0000000  -0.0000000  -0.0000000  -0.0000000  -0.0000000  -0.0000000  -0.0000000  -0.0000000
 NQMom=    0.0000000   0.0000000   0.0000000   0.0000000   0.0000000   0.0000000   0.0000000   0.0000000   0.0000000   0.0000000
 NMagM=    0.0000000   0.0000000   0.0000000   0.0000000   0.0000000   0.0000000   0.0000000   0.0000000   0.0000000   0.0000000
 AtZNuc=   6.0000000   8.0000000   6.0000000   6.0000000   6.0000000   6.0000000   6.0000000   6.0000000  16.0000000   6.0000000

  Atom        41          42          43          44          45          46          47          48          49          50
 IAtWgt=          12          14          12          12          16          12          12          12          12          12
 AtmWgt=  12.0000000  14.0030740  12.0000000  12.0000000  15.9949146  12.0000000  12.0000000  12.0000000  12.0000000  12.0000000
 NucSpn=           0           2           0           0           0           0           0           0           0           0
 AtZEff=  -0.0000000  -0.0000000  -0.0000000  -0.0000000  -0.0000000  -0.0000000  -0.0000000  -0.0000000  -0.0000000  -0.0000000
 NQMom=    0.0000000   2.0440000   0.0000000   0.0000000   0.0000000   0.0000000   0.0000000   0.0000000   0.0000000   0.0000000
 NMagM=    0.0000000   0.4037610   0.0000000   0.0000000   0.0000000   0.0000000   0.0000000   0.0000000   0.0000000   0.0000000
 AtZNuc=   6.0000000   7.0000000   6.0000000   6.0000000   8.0000000   6.0000000   6.0000000   6.0000000   6.0000000   6.0000000

  Atom        51          52          53          54          55          56          57          58          59          60
 IAtWgt=          12          32          12          12          14          12          12          16          12          12
 AtmWgt=  12.0000000  31.9720718  12.0000000  12.0000000  14.0030740  12.0000000  12.0000000  15.9949146  12.0000000  12.0000000
 NucSpn=           0           0           0           0           2           0           0           0           0           0
 AtZEff=  -0.0000000  -0.0000000  -0.0000000  -0.0000000  -0.0000000  -0.0000000  -0.0000000  -0.0000000  -0.0000000  -0.0000000
 NQMom=    0.0000000   0.0000000   0.0000000   0.0000000   2.0440000   0.0000000   0.0000000   0.0000000   0.0000000   0.0000000
 NMagM=    0.0000000   0.0000000   0.0000000   0.0000000   0.4037610   0.0000000   0.0000000   0.0000000   0.0000000   0.0000000
 AtZNuc=   6.0000000  16.0000000   6.0000000   6.0000000   7.0000000   6.0000000   6.0000000   8.0000000   6.0000000   6.0000000

  Atom        61          62          63          64          65          66          67          68          69          70
 IAtWgt=          12          12          12          12          32          12          12          14          12          12
 AtmWgt=  12.0000000  12.0000000  12.0000000  12.0000000  31.9720718  12.0000000  12.0000000  14.0030740  12.0000000  12.0000000
 NucSpn=           0           0           0           0           0           0           0           2           0           0
 AtZEff=  -0.0000000  -0.0000000  -0.0000000  -0.0000000  -0.0000000  -0.0000000  -0.0000000  -0.0000000  -0.0000000  -0.0000000
 NQMom=    0.0000000   0.0000000   0.0000000   0.0000000   0.0000000   0.0000000   0.0000000   2.0440000   0.0000000   0.0000000
 NMagM=    0.0000000   0.0000000   0.0000000   0.0000000   0.0000000   0.0000000   0.0000000   0.4037610   0.0000000   0.0000000
 AtZNuc=   6.0000000   6.0000000   6.0000000   6.0000000  16.0000000   6.0000000   6.0000000   7.0000000   6.0000000   6.0000000

  Atom        71          72          73          74          75          76          77          78          79          80
 IAtWgt=          16          12          12          12          12          12          12          32          12          12
 AtmWgt=  15.9949146  12.0000000  12.0000000  12.0000000  12.0000000  12.0000000  12.0000000  31.9720718  12.0000000  12.0000000
 NucSpn=           0           0           0           0           0           0           0           0           0           0
 AtZEff=  -0.0000000  -0.0000000  -0.0000000  -0.0000000  -0.0000000  -0.0000000  -0.0000000  -0.0000000  -0.0000000  -0.0000000
 NQMom=    0.0000000   0.0000000   0.0000000   0.0000000   0.0000000   0.0000000   0.0000000   0.0000000   0.0000000   0.0000000
 NMagM=    0.0000000   0.0000000   0.0000000   0.0000000   0.0000000   0.0000000   0.0000000   0.0000000   0.0000000   0.0000000
 AtZNuc=   8.0000000   6.0000000   6.0000000   6.0000000   6.0000000   6.0000000   6.0000000  16.0000000   6.0000000   6.0000000

  Atom        81          82          83          84          85          86          87          88          89          90
 IAtWgt=          14          12          12          16          12          12          12          12          12          12
 AtmWgt=  14.0030740  12.0000000  12.0000000  15.9949146  12.0000000  12.0000000  12.0000000  12.0000000  12.0000000  12.0000000
 NucSpn=           2           0           0           0           0           0           0           0           0           0
 AtZEff=  -0.0000000  -0.0000000  -0.0000000  -0.0000000  -0.0000000  -0.0000000  -0.0000000  -0.0000000  -0.0000000  -0.0000000
 NQMom=    2.0440000   0.0000000   0.0000000   0.0000000   0.0000000   0.0000000   0.0000000   0.0000000   0.0000000   0.0000000
 NMagM=    0.4037610   0.0000000   0.0000000   0.0000000   0.0000000   0.0000000   0.0000000   0.0000000   0.0000000   0.0000000
 AtZNuc=   7.0000000   6.0000000   6.0000000   8.0000000   6.0000000   6.0000000   6.0000000   6.0000000   6.0000000   6.0000000

  Atom        91          92          93          94          95          96          97          98          99         100
 IAtWgt=          32           1           1           1           1           1           1           1           1           1
 AtmWgt=  31.9720718   1.0078250   1.0078250   1.0078250   1.0078250   1.0078250   1.0078250   1.0078250   1.0078250   1.0078250
 NucSpn=           0           1           1           1           1           1           1           1           1           1
 AtZEff=  -0.0000000  -0.0000000  -0.0000000  -0.0000000  -0.0000000  -0.0000000  -0.0000000  -0.0000000  -0.0000000  -0.0000000
 NQMom=    0.0000000   0.0000000   0.0000000   0.0000000   0.0000000   0.0000000   0.0000000   0.0000000   0.0000000   0.0000000
 NMagM=    0.0000000   2.7928460   2.7928460   2.7928460   2.7928460   2.7928460   2.7928460   2.7928460   2.7928460   2.7928460
 AtZNuc=  16.0000000   1.0000000   1.0000000   1.0000000   1.0000000   1.0000000   1.0000000   1.0000000   1.0000000   1.0000000

  Atom       101         102         103         104         105         106         107         108         109         110
 IAtWgt=           1           1           1           1           1           1           1           1           1           1
 AtmWgt=   1.0078250   1.0078250   1.0078250   1.0078250   1.0078250   1.0078250   1.0078250   1.0078250   1.0078250   1.0078250
 NucSpn=           1           1           1           1           1           1           1           1           1           1
 AtZEff=  -0.0000000  -0.0000000  -0.0000000  -0.0000000  -0.0000000  -0.0000000  -0.0000000  -0.0000000  -0.0000000  -0.0000000
 NQMom=    0.0000000   0.0000000   0.0000000   0.0000000   0.0000000   0.0000000   0.0000000   0.0000000   0.0000000   0.0000000
 NMagM=    2.7928460   2.7928460   2.7928460   2.7928460   2.7928460   2.7928460   2.7928460   2.7928460   2.7928460   2.7928460
 AtZNuc=   1.0000000   1.0000000   1.0000000   1.0000000   1.0000000   1.0000000   1.0000000   1.0000000   1.0000000   1.0000000

  Atom       111         112         113         114         115         116         117         118         119         120
 IAtWgt=           1           1           1           1           1           1           1           1           1           1
 AtmWgt=   1.0078250   1.0078250   1.0078250   1.0078250   1.0078250   1.0078250   1.0078250   1.0078250   1.0078250   1.0078250
 NucSpn=           1           1           1           1           1           1           1           1           1           1
 AtZEff=  -0.0000000  -0.0000000  -0.0000000  -0.0000000  -0.0000000  -0.0000000  -0.0000000  -0.0000000  -0.0000000  -0.0000000
 NQMom=    0.0000000   0.0000000   0.0000000   0.0000000   0.0000000   0.0000000   0.0000000   0.0000000   0.0000000   0.0000000
 NMagM=    2.7928460   2.7928460   2.7928460   2.7928460   2.7928460   2.7928460   2.7928460   2.7928460   2.7928460   2.7928460
 AtZNuc=   1.0000000   1.0000000   1.0000000   1.0000000   1.0000000   1.0000000   1.0000000   1.0000000   1.0000000   1.0000000

  Atom       121         122         123         124         125         126         127         128         129         130
 IAtWgt=           1           1           1           1           1           1           1           1           1           1
 AtmWgt=   1.0078250   1.0078250   1.0078250   1.0078250   1.0078250   1.0078250   1.0078250   1.0078250   1.0078250   1.0078250
 NucSpn=           1           1           1           1           1           1           1           1           1           1
 AtZEff=  -0.0000000  -0.0000000  -0.0000000  -0.0000000  -0.0000000  -0.0000000  -0.0000000  -0.0000000  -0.0000000  -0.0000000
 NQMom=    0.0000000   0.0000000   0.0000000   0.0000000   0.0000000   0.0000000   0.0000000   0.0000000   0.0000000   0.0000000
 NMagM=    2.7928460   2.7928460   2.7928460   2.7928460   2.7928460   2.7928460   2.7928460   2.7928460   2.7928460   2.7928460
 AtZNuc=   1.0000000   1.0000000   1.0000000   1.0000000   1.0000000   1.0000000   1.0000000   1.0000000   1.0000000   1.0000000

  Atom       131         132         133         134         135         136         137         138         139         140
 IAtWgt=           1           1           1           1           1           1           1           1           1           1
 AtmWgt=   1.0078250   1.0078250   1.0078250   1.0078250   1.0078250   1.0078250   1.0078250   1.0078250   1.0078250   1.0078250
 NucSpn=           1           1           1           1           1           1           1           1           1           1
 AtZEff=  -0.0000000  -0.0000000  -0.0000000  -0.0000000  -0.0000000  -0.0000000  -0.0000000  -0.0000000  -0.0000000  -0.0000000
 NQMom=    0.0000000   0.0000000   0.0000000   0.0000000   0.0000000   0.0000000   0.0000000   0.0000000   0.0000000   0.0000000
 NMagM=    2.7928460   2.7928460   2.7928460   2.7928460   2.7928460   2.7928460   2.7928460   2.7928460   2.7928460   2.7928460
 AtZNuc=   1.0000000   1.0000000   1.0000000   1.0000000   1.0000000   1.0000000   1.0000000   1.0000000   1.0000000   1.0000000

  Atom       141         142
 IAtWgt=           1           1
 AtmWgt=   1.0078250   1.0078250
 NucSpn=           1           1
 AtZEff=  -0.0000000  -0.0000000
 NQMom=    0.0000000   0.0000000
 NMagM=    2.7928460   2.7928460
 AtZNuc=   1.0000000   1.0000000
 Leave Link  101 at Sat Jul 25 11:20:54 2020, MaxMem=  4026531840 cpu:               3.3 elap:               0.4
 (Enter /opt/ohpc/pub/libs/gaussian/g16-A.03/sandybridge/g16/l103.exe)

 GradGradGradGradGradGradGradGradGradGradGradGradGradGradGradGradGradGrad
 Berny optimization.
 Initialization pass.
                           ----------------------------
                           !    Initial Parameters    !
                           ! (Angstroms and Degrees)  !
 --------------------------                            --------------------------
 ! Name  Definition              Value          Derivative Info.                !
 --------------------------------------------------------------------------------
 ! R1    R(1,2)                  1.3592         estimate D2E/DX2                !
 ! R2    R(1,8)                  1.3979         estimate D2E/DX2                !
 ! R3    R(1,92)                 1.069          estimate D2E/DX2                !
 ! R4    R(2,3)                  1.3971         estimate D2E/DX2                !
 ! R5    R(2,93)                 1.0762         estimate D2E/DX2                !
 ! R6    R(3,4)                  1.33           estimate D2E/DX2                !
 ! R7    R(4,5)                  1.4545         estimate D2E/DX2                !
 ! R8    R(4,9)                  1.4931         estimate D2E/DX2                !
 ! R9    R(5,6)                  1.3082         estimate D2E/DX2                !
 ! R10   R(5,8)                  1.4618         estimate D2E/DX2                !
 ! R11   R(6,7)                  1.4087         estimate D2E/DX2                !
 ! R12   R(7,94)                 1.1224         estimate D2E/DX2                !
 ! R13   R(7,95)                 1.171          estimate D2E/DX2                !
 ! R14   R(7,96)                 1.1256         estimate D2E/DX2                !
 ! R15   R(8,97)                 1.0297         estimate D2E/DX2                !
 ! R16   R(9,10)                 1.334          estimate D2E/DX2                !
 ! R17   R(9,13)                 1.6827         estimate D2E/DX2                !
 ! R18   R(10,11)                1.3778         estimate D2E/DX2                !
 ! R19   R(10,98)                1.1586         estimate D2E/DX2                !
 ! R20   R(11,12)                1.3967         estimate D2E/DX2                !
 ! R21   R(11,99)                1.0941         estimate D2E/DX2                !
 ! R22   R(12,13)                1.7119         estimate D2E/DX2                !
 ! R23   R(12,14)                1.4852         estimate D2E/DX2                !
 ! R24   R(14,15)                1.3604         estimate D2E/DX2                !
 ! R25   R(14,21)                1.3853         estimate D2E/DX2                !
 ! R26   R(15,16)                1.3071         estimate D2E/DX2                !
 ! R27   R(15,100)               1.1119         estimate D2E/DX2                !
 ! R28   R(16,17)                1.3986         estimate D2E/DX2                !
 ! R29   R(17,18)                1.3628         estimate D2E/DX2                !
 ! R30   R(17,22)                1.4974         estimate D2E/DX2                !
 ! R31   R(18,19)                1.3646         estimate D2E/DX2                !
 ! R32   R(18,21)                1.4361         estimate D2E/DX2                !
 ! R33   R(19,20)                1.4502         estimate D2E/DX2                !
 ! R34   R(20,101)               1.113          estimate D2E/DX2                !
 ! R35   R(20,102)               1.0927         estimate D2E/DX2                !
 ! R36   R(20,103)               1.0426         estimate D2E/DX2                !
 ! R37   R(21,104)               1.0435         estimate D2E/DX2                !
 ! R38   R(22,23)                1.3705         estimate D2E/DX2                !
 ! R39   R(22,26)                1.6282         estimate D2E/DX2                !
 ! R40   R(23,24)                1.459          estimate D2E/DX2                !
 ! R41   R(23,105)               1.0687         estimate D2E/DX2                !
 ! R42   R(24,25)                1.4447         estimate D2E/DX2                !
 ! R43   R(24,106)               1.056          estimate D2E/DX2                !
 ! R44   R(25,26)                1.7111         estimate D2E/DX2                !
 ! R45   R(25,27)                1.4664         estimate D2E/DX2                !
 ! R46   R(27,28)                1.3909         estimate D2E/DX2                !
 ! R47   R(27,34)                1.4496         estimate D2E/DX2                !
 ! R48   R(28,29)                1.2802         estimate D2E/DX2                !
 ! R49   R(28,107)               1.0797         estimate D2E/DX2                !
 ! R50   R(29,30)                1.4315         estimate D2E/DX2                !
 ! R51   R(30,31)                1.3858         estimate D2E/DX2                !
 ! R52   R(30,35)                1.5174         estimate D2E/DX2                !
 ! R53   R(31,32)                1.4223         estimate D2E/DX2                !
 ! R54   R(31,34)                1.3388         estimate D2E/DX2                !
 ! R55   R(32,33)                1.3705         estimate D2E/DX2                !
 ! R56   R(33,108)               1.0975         estimate D2E/DX2                !
 ! R57   R(33,109)               1.1739         estimate D2E/DX2                !
 ! R58   R(33,110)               1.1039         estimate D2E/DX2                !
 ! R59   R(34,111)               1.0582         estimate D2E/DX2                !
 ! R60   R(35,36)                1.3017         estimate D2E/DX2                !
 ! R61   R(35,39)                1.6997         estimate D2E/DX2                !
 ! R62   R(36,37)                1.4877         estimate D2E/DX2                !
 ! R63   R(36,112)               1.0704         estimate D2E/DX2                !
 ! R64   R(37,38)                1.3668         estimate D2E/DX2                !
 ! R65   R(37,113)               1.0842         estimate D2E/DX2                !
 ! R66   R(38,39)                1.7148         estimate D2E/DX2                !
 ! R67   R(38,40)                1.5179         estimate D2E/DX2                !
 ! R68   R(40,41)                1.3224         estimate D2E/DX2                !
 ! R69   R(40,47)                1.341          estimate D2E/DX2                !
 ! R70   R(41,42)                1.388          estimate D2E/DX2                !
 ! R71   R(41,114)               1.1737         estimate D2E/DX2                !
 ! R72   R(42,43)                1.3347         estimate D2E/DX2                !
 ! R73   R(43,44)                1.3886         estimate D2E/DX2                !
 ! R74   R(43,48)                1.4858         estimate D2E/DX2                !
 ! R75   R(44,45)                1.4052         estimate D2E/DX2                !
 ! R76   R(44,47)                1.4672         estimate D2E/DX2                !
 ! R77   R(45,46)                1.4454         estimate D2E/DX2                !
 ! R78   R(46,115)               1.0595         estimate D2E/DX2                !
 ! R79   R(46,116)               1.1736         estimate D2E/DX2                !
 ! R80   R(46,117)               1.0714         estimate D2E/DX2                !
 ! R81   R(47,118)               1.0968         estimate D2E/DX2                !
 ! R82   R(48,49)                1.3944         estimate D2E/DX2                !
 ! R83   R(48,52)                1.7916         estimate D2E/DX2                !
 ! R84   R(49,50)                1.4279         estimate D2E/DX2                !
 ! R85   R(49,119)               0.9961         estimate D2E/DX2                !
 ! R86   R(50,51)                1.3955         estimate D2E/DX2                !
 ! R87   R(50,120)               1.0742         estimate D2E/DX2                !
 ! R88   R(51,52)                1.717          estimate D2E/DX2                !
 ! R89   R(51,53)                1.4377         estimate D2E/DX2                !
 ! R90   R(53,54)                1.4036         estimate D2E/DX2                !
 ! R91   R(53,60)                1.4366         estimate D2E/DX2                !
 ! R92   R(54,55)                1.3712         estimate D2E/DX2                !
 ! R93   R(54,121)               1.0717         estimate D2E/DX2                !
 ! R94   R(55,56)                1.3586         estimate D2E/DX2                !
 ! R95   R(56,57)                1.4525         estimate D2E/DX2                !
 ! R96   R(56,61)                1.4276         estimate D2E/DX2                !
 ! R97   R(57,58)                1.3328         estimate D2E/DX2                !
 ! R98   R(57,60)                1.3659         estimate D2E/DX2                !
 ! R99   R(58,59)                1.4127         estimate D2E/DX2                !
 ! R100  R(59,122)               1.1147         estimate D2E/DX2                !
 ! R101  R(59,123)               1.0776         estimate D2E/DX2                !
 ! R102  R(59,124)               1.1727         estimate D2E/DX2                !
 ! R103  R(60,125)               1.0111         estimate D2E/DX2                !
 ! R104  R(61,62)                1.4482         estimate D2E/DX2                !
 ! R105  R(61,65)                1.6816         estimate D2E/DX2                !
 ! R106  R(62,63)                1.3641         estimate D2E/DX2                !
 ! R107  R(62,126)               1.0844         estimate D2E/DX2                !
 ! R108  R(63,64)                1.4457         estimate D2E/DX2                !
 ! R109  R(63,127)               1.0965         estimate D2E/DX2                !
 ! R110  R(64,65)                1.6601         estimate D2E/DX2                !
 ! R111  R(64,66)                1.4245         estimate D2E/DX2                !
 ! R112  R(66,67)                1.4549         estimate D2E/DX2                !
 ! R113  R(66,73)                1.4418         estimate D2E/DX2                !
 ! R114  R(67,68)                1.324          estimate D2E/DX2                !
 ! R115  R(67,128)               1.0432         estimate D2E/DX2                !
 ! R116  R(68,69)                1.3704         estimate D2E/DX2                !
 ! R117  R(69,70)                1.4181         estimate D2E/DX2                !
 ! R118  R(69,74)                1.4851         estimate D2E/DX2                !
 ! R119  R(70,71)                1.352          estimate D2E/DX2                !
 ! R120  R(70,73)                1.4349         estimate D2E/DX2                !
 ! R121  R(71,72)                1.4237         estimate D2E/DX2                !
 ! R122  R(72,129)               1.0844         estimate D2E/DX2                !
 ! R123  R(72,130)               1.0711         estimate D2E/DX2                !
 ! R124  R(72,131)               1.1809         estimate D2E/DX2                !
 ! R125  R(73,132)               1.1204         estimate D2E/DX2                !
 ! R126  R(74,75)                1.399          estimate D2E/DX2                !
 ! R127  R(74,78)                1.6748         estimate D2E/DX2                !
 ! R128  R(75,76)                1.419          estimate D2E/DX2                !
 ! R129  R(75,133)               1.0792         estimate D2E/DX2                !
 ! R130  R(76,77)                1.3871         estimate D2E/DX2                !
 ! R131  R(76,134)               1.0916         estimate D2E/DX2                !
 ! R132  R(77,78)                1.6354         estimate D2E/DX2                !
 ! R133  R(77,79)                1.5444         estimate D2E/DX2                !
 ! R134  R(79,80)                1.3451         estimate D2E/DX2                !
 ! R135  R(79,86)                1.4283         estimate D2E/DX2                !
 ! R136  R(80,81)                1.2842         estimate D2E/DX2                !
 ! R137  R(80,135)               1.1348         estimate D2E/DX2                !
 ! R138  R(81,82)                1.3346         estimate D2E/DX2                !
 ! R139  R(82,83)                1.4076         estimate D2E/DX2                !
 ! R140  R(82,87)                1.5094         estimate D2E/DX2                !
 ! R141  R(83,84)                1.3697         estimate D2E/DX2                !
 ! R142  R(83,86)                1.337          estimate D2E/DX2                !
 ! R143  R(84,85)                1.512          estimate D2E/DX2                !
 ! R144  R(85,136)               1.0413         estimate D2E/DX2                !
 ! R145  R(85,137)               1.0428         estimate D2E/DX2                !
 ! R146  R(85,138)               1.0751         estimate D2E/DX2                !
 ! R147  R(86,139)               1.1111         estimate D2E/DX2                !
 ! R148  R(87,88)                1.3529         estimate D2E/DX2                !
 ! R149  R(87,91)                1.7682         estimate D2E/DX2                !
 ! R150  R(88,89)                1.3479         estimate D2E/DX2                !
 ! R151  R(88,140)               1.1497         estimate D2E/DX2                !
 ! R152  R(89,90)                1.4591         estimate D2E/DX2                !
 ! R153  R(89,141)               1.0437         estimate D2E/DX2                !
 ! R154  R(90,91)                1.6607         estimate D2E/DX2                !
 ! R155  R(90,142)               1.036          estimate D2E/DX2                !
 ! A1    A(2,1,8)              122.4047         estimate D2E/DX2                !
 ! A2    A(2,1,92)             123.9966         estimate D2E/DX2                !
 ! A3    A(8,1,92)             113.5804         estimate D2E/DX2                !
 ! A4    A(1,2,3)              122.1345         estimate D2E/DX2                !
 ! A5    A(1,2,93)             120.8917         estimate D2E/DX2                !
 ! A6    A(3,2,93)             116.6989         estimate D2E/DX2                !
 ! A7    A(2,3,4)              115.7648         estimate D2E/DX2                !
 ! A8    A(3,4,5)              128.1284         estimate D2E/DX2                !
 ! A9    A(3,4,9)              114.7753         estimate D2E/DX2                !
 ! A10   A(5,4,9)              117.0798         estimate D2E/DX2                !
 ! A11   A(4,5,6)              119.0661         estimate D2E/DX2                !
 ! A12   A(4,5,8)              112.5194         estimate D2E/DX2                !
 ! A13   A(6,5,8)              128.3798         estimate D2E/DX2                !
 ! A14   A(5,6,7)              115.8428         estimate D2E/DX2                !
 ! A15   A(6,7,94)             113.0347         estimate D2E/DX2                !
 ! A16   A(6,7,95)             111.1583         estimate D2E/DX2                !
 ! A17   A(6,7,96)             109.0478         estimate D2E/DX2                !
 ! A18   A(94,7,95)            108.3398         estimate D2E/DX2                !
 ! A19   A(94,7,96)            107.3954         estimate D2E/DX2                !
 ! A20   A(95,7,96)            107.6611         estimate D2E/DX2                !
 ! A21   A(1,8,5)              118.9787         estimate D2E/DX2                !
 ! A22   A(1,8,97)             125.0776         estimate D2E/DX2                !
 ! A23   A(5,8,97)             115.9196         estimate D2E/DX2                !
 ! A24   A(4,9,10)             131.7801         estimate D2E/DX2                !
 ! A25   A(4,9,13)             117.3597         estimate D2E/DX2                !
 ! A26   A(10,9,13)            110.5279         estimate D2E/DX2                !
 ! A27   A(9,10,11)            114.5457         estimate D2E/DX2                !
 ! A28   A(9,10,98)            123.1786         estimate D2E/DX2                !
 ! A29   A(11,10,98)           122.2009         estimate D2E/DX2                !
 ! A30   A(10,11,12)           113.0519         estimate D2E/DX2                !
 ! A31   A(10,11,99)           124.1806         estimate D2E/DX2                !
 ! A32   A(12,11,99)           122.7669         estimate D2E/DX2                !
 ! A33   A(11,12,13)           107.8351         estimate D2E/DX2                !
 ! A34   A(11,12,14)           131.2901         estimate D2E/DX2                !
 ! A35   A(13,12,14)           120.4144         estimate D2E/DX2                !
 ! A36   A(9,13,12)             93.898          estimate D2E/DX2                !
 ! A37   A(12,14,15)           122.4578         estimate D2E/DX2                !
 ! A38   A(12,14,21)           118.6415         estimate D2E/DX2                !
 ! A39   A(15,14,21)           118.127          estimate D2E/DX2                !
 ! A40   A(14,15,16)           125.7931         estimate D2E/DX2                !
 ! A41   A(14,15,100)          121.5242         estimate D2E/DX2                !
 ! A42   A(16,15,100)          112.5079         estimate D2E/DX2                !
 ! A43   A(15,16,17)           118.1149         estimate D2E/DX2                !
 ! A44   A(16,17,18)           118.9241         estimate D2E/DX2                !
 ! A45   A(16,17,22)           114.122          estimate D2E/DX2                !
 ! A46   A(18,17,22)           126.4455         estimate D2E/DX2                !
 ! A47   A(17,18,19)           117.122          estimate D2E/DX2                !
 ! A48   A(17,18,21)           121.0979         estimate D2E/DX2                !
 ! A49   A(19,18,21)           121.7075         estimate D2E/DX2                !
 ! A50   A(18,19,20)           122.5814         estimate D2E/DX2                !
 ! A51   A(19,20,101)          111.8662         estimate D2E/DX2                !
 ! A52   A(19,20,102)          106.3289         estimate D2E/DX2                !
 ! A53   A(19,20,103)          110.6375         estimate D2E/DX2                !
 ! A54   A(101,20,102)         108.0371         estimate D2E/DX2                !
 ! A55   A(101,20,103)         107.4653         estimate D2E/DX2                !
 ! A56   A(102,20,103)         112.5408         estimate D2E/DX2                !
 ! A57   A(14,21,18)           116.7675         estimate D2E/DX2                !
 ! A58   A(14,21,104)          125.1818         estimate D2E/DX2                !
 ! A59   A(18,21,104)          118.0251         estimate D2E/DX2                !
 ! A60   A(17,22,23)           124.789          estimate D2E/DX2                !
 ! A61   A(17,22,26)           120.3905         estimate D2E/DX2                !
 ! A62   A(23,22,26)           114.4456         estimate D2E/DX2                !
 ! A63   A(22,23,24)           110.0138         estimate D2E/DX2                !
 ! A64   A(22,23,105)          126.5337         estimate D2E/DX2                !
 ! A65   A(24,23,105)          123.4457         estimate D2E/DX2                !
 ! A66   A(23,24,25)           112.3532         estimate D2E/DX2                !
 ! A67   A(23,24,106)          125.5137         estimate D2E/DX2                !
 ! A68   A(25,24,106)          122.0273         estimate D2E/DX2                !
 ! A69   A(24,25,26)           107.3089         estimate D2E/DX2                !
 ! A70   A(24,25,27)           130.8607         estimate D2E/DX2                !
 ! A71   A(26,25,27)           121.43           estimate D2E/DX2                !
 ! A72   A(22,26,25)            95.8205         estimate D2E/DX2                !
 ! A73   A(25,27,28)           122.3644         estimate D2E/DX2                !
 ! A74   A(25,27,34)           120.6772         estimate D2E/DX2                !
 ! A75   A(28,27,34)           116.3359         estimate D2E/DX2                !
 ! A76   A(27,28,29)           125.1652         estimate D2E/DX2                !
 ! A77   A(27,28,107)          122.3613         estimate D2E/DX2                !
 ! A78   A(29,28,107)          112.0816         estimate D2E/DX2                !
 ! A79   A(28,29,30)           117.4764         estimate D2E/DX2                !
 ! A80   A(29,30,31)           121.0204         estimate D2E/DX2                !
 ! A81   A(29,30,35)           113.3771         estimate D2E/DX2                !
 ! A82   A(31,30,35)           125.4522         estimate D2E/DX2                !
 ! A83   A(30,31,32)           115.4118         estimate D2E/DX2                !
 ! A84   A(30,31,34)           119.7244         estimate D2E/DX2                !
 ! A85   A(32,31,34)           124.6806         estimate D2E/DX2                !
 ! A86   A(31,32,33)           115.9585         estimate D2E/DX2                !
 ! A87   A(32,33,108)          116.3072         estimate D2E/DX2                !
 ! A88   A(32,33,109)          109.0975         estimate D2E/DX2                !
 ! A89   A(32,33,110)          106.826          estimate D2E/DX2                !
 ! A90   A(108,33,109)         108.4577         estimate D2E/DX2                !
 ! A91   A(108,33,110)         108.3683         estimate D2E/DX2                !
 ! A92   A(109,33,110)         107.4507         estimate D2E/DX2                !
 ! A93   A(27,34,31)           119.7849         estimate D2E/DX2                !
 ! A94   A(27,34,111)          114.2789         estimate D2E/DX2                !
 ! A95   A(31,34,111)          125.7899         estimate D2E/DX2                !
 ! A96   A(30,35,36)           129.858          estimate D2E/DX2                !
 ! A97   A(30,35,39)           119.1399         estimate D2E/DX2                !
 ! A98   A(36,35,39)           110.9962         estimate D2E/DX2                !
 ! A99   A(35,36,37)           115.0294         estimate D2E/DX2                !
 ! A100  A(35,36,112)          125.2761         estimate D2E/DX2                !
 ! A101  A(37,36,112)          118.7494         estimate D2E/DX2                !
 ! A102  A(36,37,38)           108.7343         estimate D2E/DX2                !
 ! A103  A(36,37,113)          125.8193         estimate D2E/DX2                !
 ! A104  A(38,37,113)          125.4092         estimate D2E/DX2                !
 ! A105  A(37,38,39)           111.5533         estimate D2E/DX2                !
 ! A106  A(37,38,40)           127.4574         estimate D2E/DX2                !
 ! A107  A(39,38,40)           120.8697         estimate D2E/DX2                !
 ! A108  A(35,39,38)            93.1641         estimate D2E/DX2                !
 ! A109  A(38,40,41)           121.6722         estimate D2E/DX2                !
 ! A110  A(38,40,47)           118.1473         estimate D2E/DX2                !
 ! A111  A(41,40,47)           120.1708         estimate D2E/DX2                !
 ! A112  A(40,41,42)           126.4415         estimate D2E/DX2                !
 ! A113  A(40,41,114)          123.0866         estimate D2E/DX2                !
 ! A114  A(42,41,114)          110.3315         estimate D2E/DX2                !
 ! A115  A(41,42,43)           112.755          estimate D2E/DX2                !
 ! A116  A(42,43,44)           126.488          estimate D2E/DX2                !
 ! A117  A(42,43,48)           114.5651         estimate D2E/DX2                !
 ! A118  A(44,43,48)           118.4033         estimate D2E/DX2                !
 ! A119  A(43,44,45)           119.669          estimate D2E/DX2                !
 ! A120  A(43,44,47)           115.4324         estimate D2E/DX2                !
 ! A121  A(45,44,47)           124.725          estimate D2E/DX2                !
 ! A122  A(44,45,46)           115.5799         estimate D2E/DX2                !
 ! A123  A(45,46,115)          112.8692         estimate D2E/DX2                !
 ! A124  A(45,46,116)          109.8744         estimate D2E/DX2                !
 ! A125  A(45,46,117)          108.1286         estimate D2E/DX2                !
 ! A126  A(115,46,116)         106.4452         estimate D2E/DX2                !
 ! A127  A(115,46,117)         111.4343         estimate D2E/DX2                !
 ! A128  A(116,46,117)         107.9804         estimate D2E/DX2                !
 ! A129  A(40,47,44)           118.2783         estimate D2E/DX2                !
 ! A130  A(40,47,118)          126.5979         estimate D2E/DX2                !
 ! A131  A(44,47,118)          115.1141         estimate D2E/DX2                !
 ! A132  A(43,48,49)           133.3823         estimate D2E/DX2                !
 ! A133  A(43,48,52)           115.3726         estimate D2E/DX2                !
 ! A134  A(49,48,52)           111.239          estimate D2E/DX2                !
 ! A135  A(48,49,50)           109.6384         estimate D2E/DX2                !
 ! A136  A(48,49,119)          121.6919         estimate D2E/DX2                !
 ! A137  A(50,49,119)          128.6574         estimate D2E/DX2                !
 ! A138  A(49,50,51)           117.2462         estimate D2E/DX2                !
 ! A139  A(49,50,120)          118.5492         estimate D2E/DX2                !
 ! A140  A(51,50,120)          124.0259         estimate D2E/DX2                !
 ! A141  A(50,51,52)           109.2533         estimate D2E/DX2                !
 ! A142  A(50,51,53)           128.1762         estimate D2E/DX2                !
 ! A143  A(52,51,53)           122.473          estimate D2E/DX2                !
 ! A144  A(48,52,51)            92.5845         estimate D2E/DX2                !
 ! A145  A(51,53,54)           121.2221         estimate D2E/DX2                !
 ! A146  A(51,53,60)           123.1515         estimate D2E/DX2                !
 ! A147  A(54,53,60)           115.2607         estimate D2E/DX2                !
 ! A148  A(53,54,55)           126.7323         estimate D2E/DX2                !
 ! A149  A(53,54,121)          121.7956         estimate D2E/DX2                !
 ! A150  A(55,54,121)          111.3334         estimate D2E/DX2                !
 ! A151  A(54,55,56)           115.2288         estimate D2E/DX2                !
 ! A152  A(55,56,57)           123.3405         estimate D2E/DX2                !
 ! A153  A(55,56,61)           113.437          estimate D2E/DX2                !
 ! A154  A(57,56,61)           123.0267         estimate D2E/DX2                !
 ! A155  A(56,57,58)           117.9457         estimate D2E/DX2                !
 ! A156  A(56,57,60)           118.2409         estimate D2E/DX2                !
 ! A157  A(58,57,60)           123.7919         estimate D2E/DX2                !
 ! A158  A(57,58,59)           118.8333         estimate D2E/DX2                !
 ! A159  A(58,59,122)          105.4464         estimate D2E/DX2                !
 ! A160  A(58,59,123)          112.0955         estimate D2E/DX2                !
 ! A161  A(58,59,124)          108.8699         estimate D2E/DX2                !
 ! A162  A(122,59,123)         112.6616         estimate D2E/DX2                !
 ! A163  A(122,59,124)         107.1325         estimate D2E/DX2                !
 ! A164  A(123,59,124)         110.3733         estimate D2E/DX2                !
 ! A165  A(53,60,57)           120.9752         estimate D2E/DX2                !
 ! A166  A(53,60,125)          115.4145         estimate D2E/DX2                !
 ! A167  A(57,60,125)          123.5863         estimate D2E/DX2                !
 ! A168  A(56,61,62)           126.6283         estimate D2E/DX2                !
 ! A169  A(56,61,65)           124.6716         estimate D2E/DX2                !
 ! A170  A(62,61,65)           108.6975         estimate D2E/DX2                !
 ! A171  A(61,62,63)           112.8562         estimate D2E/DX2                !
 ! A172  A(61,62,126)          118.8454         estimate D2E/DX2                !
 ! A173  A(63,62,126)          127.6728         estimate D2E/DX2                !
 ! A174  A(62,63,64)           112.6769         estimate D2E/DX2                !
 ! A175  A(62,63,127)          127.9691         estimate D2E/DX2                !
 ! A176  A(64,63,127)          119.1222         estimate D2E/DX2                !
 ! A177  A(63,64,65)           109.5574         estimate D2E/DX2                !
 ! A178  A(63,64,66)           126.8372         estimate D2E/DX2                !
 ! A179  A(65,64,66)           123.5686         estimate D2E/DX2                !
 ! A180  A(61,65,64)            96.1026         estimate D2E/DX2                !
 ! A181  A(64,66,67)           122.5949         estimate D2E/DX2                !
 ! A182  A(64,66,73)           123.941          estimate D2E/DX2                !
 ! A183  A(67,66,73)           113.4107         estimate D2E/DX2                !
 ! A184  A(66,67,68)           125.9611         estimate D2E/DX2                !
 ! A185  A(66,67,128)          119.103          estimate D2E/DX2                !
 ! A186  A(68,67,128)          114.9222         estimate D2E/DX2                !
 ! A187  A(67,68,69)           117.4672         estimate D2E/DX2                !
 ! A188  A(68,69,70)           125.3714         estimate D2E/DX2                !
 ! A189  A(68,69,74)           113.1132         estimate D2E/DX2                !
 ! A190  A(70,69,74)           121.0446         estimate D2E/DX2                !
 ! A191  A(69,70,71)           120.5287         estimate D2E/DX2                !
 ! A192  A(69,70,73)           114.7079         estimate D2E/DX2                !
 ! A193  A(71,70,73)           124.763          estimate D2E/DX2                !
 ! A194  A(70,71,72)           117.0625         estimate D2E/DX2                !
 ! A195  A(71,72,129)          111.268          estimate D2E/DX2                !
 ! A196  A(71,72,130)          107.8666         estimate D2E/DX2                !
 ! A197  A(71,72,131)          110.241          estimate D2E/DX2                !
 ! A198  A(129,72,130)         112.3989         estimate D2E/DX2                !
 ! A199  A(129,72,131)         109.3755         estimate D2E/DX2                !
 ! A200  A(130,72,131)         105.5298         estimate D2E/DX2                !
 ! A201  A(66,73,70)           122.7944         estimate D2E/DX2                !
 ! A202  A(66,73,132)          114.9911         estimate D2E/DX2                !
 ! A203  A(70,73,132)          122.0625         estimate D2E/DX2                !
 ! A204  A(69,74,75)           126.6801         estimate D2E/DX2                !
 ! A205  A(69,74,78)           121.7762         estimate D2E/DX2                !
 ! A206  A(75,74,78)           111.5204         estimate D2E/DX2                !
 ! A207  A(74,75,76)           110.0247         estimate D2E/DX2                !
 ! A208  A(74,75,133)          128.6401         estimate D2E/DX2                !
 ! A209  A(76,75,133)          121.1824         estimate D2E/DX2                !
 ! A210  A(75,76,77)           112.1792         estimate D2E/DX2                !
 ! A211  A(75,76,134)          124.9698         estimate D2E/DX2                !
 ! A212  A(77,76,134)          122.8032         estimate D2E/DX2                !
 ! A213  A(76,77,78)           112.0577         estimate D2E/DX2                !
 ! A214  A(76,77,79)           128.6309         estimate D2E/DX2                !
 ! A215  A(78,77,79)           119.3072         estimate D2E/DX2                !
 ! A216  A(74,78,77)            94.0407         estimate D2E/DX2                !
 ! A217  A(77,79,80)           124.661          estimate D2E/DX2                !
 ! A218  A(77,79,86)           118.8783         estimate D2E/DX2                !
 ! A219  A(80,79,86)           116.1981         estimate D2E/DX2                !
 ! A220  A(79,80,81)           125.0644         estimate D2E/DX2                !
 ! A221  A(79,80,135)          117.059          estimate D2E/DX2                !
 ! A222  A(81,80,135)          117.6042         estimate D2E/DX2                !
 ! A223  A(80,81,82)           118.4089         estimate D2E/DX2                !
 ! A224  A(81,82,83)           122.9314         estimate D2E/DX2                !
 ! A225  A(81,82,87)           115.6312         estimate D2E/DX2                !
 ! A226  A(83,82,87)           121.4364         estimate D2E/DX2                !
 ! A227  A(82,83,84)           115.0879         estimate D2E/DX2                !
 ! A228  A(82,83,86)           116.2112         estimate D2E/DX2                !
 ! A229  A(84,83,86)           128.3586         estimate D2E/DX2                !
 ! A230  A(83,84,85)           115.0851         estimate D2E/DX2                !
 ! A231  A(84,85,136)          108.0382         estimate D2E/DX2                !
 ! A232  A(84,85,137)          107.729          estimate D2E/DX2                !
 ! A233  A(84,85,138)          110.724          estimate D2E/DX2                !
 ! A234  A(136,85,137)         108.0677         estimate D2E/DX2                !
 ! A235  A(136,85,138)         110.7051         estimate D2E/DX2                !
 ! A236  A(137,85,138)         111.4427         estimate D2E/DX2                !
 ! A237  A(79,86,83)           120.8068         estimate D2E/DX2                !
 ! A238  A(79,86,139)          119.3514         estimate D2E/DX2                !
 ! A239  A(83,86,139)          119.1014         estimate D2E/DX2                !
 ! A240  A(82,87,88)           133.9479         estimate D2E/DX2                !
 ! A241  A(82,87,91)           118.3999         estimate D2E/DX2                !
 ! A242  A(88,87,91)           107.6521         estimate D2E/DX2                !
 ! A243  A(87,88,89)           118.8308         estimate D2E/DX2                !
 ! A244  A(87,88,140)          117.0122         estimate D2E/DX2                !
 ! A245  A(89,88,140)          124.0116         estimate D2E/DX2                !
 ! A246  A(88,89,90)           108.8352         estimate D2E/DX2                !
 ! A247  A(88,89,141)          127.3907         estimate D2E/DX2                !
 ! A248  A(90,89,141)          123.7714         estimate D2E/DX2                !
 ! A249  A(89,90,91)           112.0233         estimate D2E/DX2                !
 ! A250  A(89,90,142)          124.4763         estimate D2E/DX2                !
 ! A251  A(91,90,142)          123.4983         estimate D2E/DX2                !
 ! A252  A(87,91,90)            92.5591         estimate D2E/DX2                !
 ! D1    D(8,1,2,3)              2.6878         estimate D2E/DX2                !
 ! D2    D(8,1,2,93)           176.465          estimate D2E/DX2                !
 ! D3    D(92,1,2,3)          -178.9717         estimate D2E/DX2                !
 ! D4    D(92,1,2,93)           -5.1945         estimate D2E/DX2                !
 ! D5    D(2,1,8,5)             -2.3309         estimate D2E/DX2                !
 ! D6    D(2,1,8,97)           179.5335         estimate D2E/DX2                !
 ! D7    D(92,1,8,5)           179.1704         estimate D2E/DX2                !
 ! D8    D(92,1,8,97)            1.0347         estimate D2E/DX2                !
 ! D9    D(1,2,3,4)             -2.3524         estimate D2E/DX2                !
 ! D10   D(93,2,3,4)          -176.376          estimate D2E/DX2                !
 ! D11   D(2,3,4,5)              1.9659         estimate D2E/DX2                !
 ! D12   D(2,3,4,9)           -179.5712         estimate D2E/DX2                !
 ! D13   D(3,4,5,6)           -179.7028         estimate D2E/DX2                !
 ! D14   D(3,4,5,8)             -1.6657         estimate D2E/DX2                !
 ! D15   D(9,4,5,6)              1.8647         estimate D2E/DX2                !
 ! D16   D(9,4,5,8)            179.9018         estimate D2E/DX2                !
 ! D17   D(3,4,9,10)          -122.2856         estimate D2E/DX2                !
 ! D18   D(3,4,9,13)            50.3746         estimate D2E/DX2                !
 ! D19   D(5,4,9,10)            56.3564         estimate D2E/DX2                !
 ! D20   D(5,4,9,13)          -130.9834         estimate D2E/DX2                !
 ! D21   D(4,5,6,7)            168.0153         estimate D2E/DX2                !
 ! D22   D(8,5,6,7)             -9.6715         estimate D2E/DX2                !
 ! D23   D(4,5,8,1)              1.6694         estimate D2E/DX2                !
 ! D24   D(4,5,8,97)           179.973          estimate D2E/DX2                !
 ! D25   D(6,5,8,1)            179.4806         estimate D2E/DX2                !
 ! D26   D(6,5,8,97)            -2.2157         estimate D2E/DX2                !
 ! D27   D(5,6,7,94)           -56.6659         estimate D2E/DX2                !
 ! D28   D(5,6,7,95)            65.4204         estimate D2E/DX2                !
 ! D29   D(5,6,7,96)          -176.0384         estimate D2E/DX2                !
 ! D30   D(4,9,10,11)          177.1313         estimate D2E/DX2                !
 ! D31   D(4,9,10,98)           -5.9537         estimate D2E/DX2                !
 ! D32   D(13,9,10,11)           4.0901         estimate D2E/DX2                !
 ! D33   D(13,9,10,98)        -178.9949         estimate D2E/DX2                !
 ! D34   D(4,9,13,12)         -177.4884         estimate D2E/DX2                !
 ! D35   D(10,9,13,12)          -3.3269         estimate D2E/DX2                !
 ! D36   D(9,10,11,12)          -2.8521         estimate D2E/DX2                !
 ! D37   D(9,10,11,99)         177.4459         estimate D2E/DX2                !
 ! D38   D(98,10,11,12)       -179.8008         estimate D2E/DX2                !
 ! D39   D(98,10,11,99)          0.4973         estimate D2E/DX2                !
 ! D40   D(10,11,12,13)          0.2574         estimate D2E/DX2                !
 ! D41   D(10,11,12,14)        172.2844         estimate D2E/DX2                !
 ! D42   D(99,11,12,13)        179.9641         estimate D2E/DX2                !
 ! D43   D(99,11,12,14)         -8.0088         estimate D2E/DX2                !
 ! D44   D(11,12,13,9)           1.7157         estimate D2E/DX2                !
 ! D45   D(14,12,13,9)        -171.3431         estimate D2E/DX2                !
 ! D46   D(11,12,14,15)        140.8725         estimate D2E/DX2                !
 ! D47   D(11,12,14,21)        -28.8568         estimate D2E/DX2                !
 ! D48   D(13,12,14,15)        -47.9346         estimate D2E/DX2                !
 ! D49   D(13,12,14,21)        142.3361         estimate D2E/DX2                !
 ! D50   D(12,14,15,16)       -178.9184         estimate D2E/DX2                !
 ! D51   D(12,14,15,100)         6.2546         estimate D2E/DX2                !
 ! D52   D(21,14,15,16)         -9.1388         estimate D2E/DX2                !
 ! D53   D(21,14,15,100)       176.0341         estimate D2E/DX2                !
 ! D54   D(12,14,21,18)        177.7814         estimate D2E/DX2                !
 ! D55   D(12,14,21,104)        -4.1022         estimate D2E/DX2                !
 ! D56   D(15,14,21,18)          7.6037         estimate D2E/DX2                !
 ! D57   D(15,14,21,104)      -174.2799         estimate D2E/DX2                !
 ! D58   D(14,15,16,17)          0.8312         estimate D2E/DX2                !
 ! D59   D(100,15,16,17)       176.059          estimate D2E/DX2                !
 ! D60   D(15,16,17,18)          8.5779         estimate D2E/DX2                !
 ! D61   D(15,16,17,22)       -179.0753         estimate D2E/DX2                !
 ! D62   D(16,17,18,19)        173.4801         estimate D2E/DX2                !
 ! D63   D(16,17,18,21)         -9.5688         estimate D2E/DX2                !
 ! D64   D(22,17,18,19)          2.1707         estimate D2E/DX2                !
 ! D65   D(22,17,18,21)        179.1219         estimate D2E/DX2                !
 ! D66   D(16,17,22,23)        -37.5609         estimate D2E/DX2                !
 ! D67   D(16,17,22,26)        135.0097         estimate D2E/DX2                !
 ! D68   D(18,17,22,23)        134.1074         estimate D2E/DX2                !
 ! D69   D(18,17,22,26)        -53.3221         estimate D2E/DX2                !
 ! D70   D(17,18,19,20)        172.7465         estimate D2E/DX2                !
 ! D71   D(21,18,19,20)         -4.1848         estimate D2E/DX2                !
 ! D72   D(17,18,21,14)          1.3804         estimate D2E/DX2                !
 ! D73   D(17,18,21,104)      -176.8756         estimate D2E/DX2                !
 ! D74   D(19,18,21,14)        178.1906         estimate D2E/DX2                !
 ! D75   D(19,18,21,104)        -0.0654         estimate D2E/DX2                !
 ! D76   D(18,19,20,101)        61.6919         estimate D2E/DX2                !
 ! D77   D(18,19,20,102)       -56.0333         estimate D2E/DX2                !
 ! D78   D(18,19,20,103)      -178.5253         estimate D2E/DX2                !
 ! D79   D(17,22,23,24)        175.2766         estimate D2E/DX2                !
 ! D80   D(17,22,23,105)        -3.8014         estimate D2E/DX2                !
 ! D81   D(26,22,23,24)          2.3142         estimate D2E/DX2                !
 ! D82   D(26,22,23,105)      -176.7638         estimate D2E/DX2                !
 ! D83   D(17,22,26,25)       -174.4526         estimate D2E/DX2                !
 ! D84   D(23,22,26,25)         -1.1514         estimate D2E/DX2                !
 ! D85   D(22,23,24,25)         -2.5948         estimate D2E/DX2                !
 ! D86   D(22,23,24,106)       173.7101         estimate D2E/DX2                !
 ! D87   D(105,23,24,25)       176.5173         estimate D2E/DX2                !
 ! D88   D(105,23,24,106)       -7.1778         estimate D2E/DX2                !
 ! D89   D(23,24,25,26)          1.7582         estimate D2E/DX2                !
 ! D90   D(23,24,25,27)        174.3973         estimate D2E/DX2                !
 ! D91   D(106,24,25,26)      -174.6943         estimate D2E/DX2                !
 ! D92   D(106,24,25,27)        -2.0552         estimate D2E/DX2                !
 ! D93   D(24,25,26,22)         -0.4049         estimate D2E/DX2                !
 ! D94   D(27,25,26,22)       -173.8845         estimate D2E/DX2                !
 ! D95   D(24,25,27,28)        146.3126         estimate D2E/DX2                !
 ! D96   D(24,25,27,34)        -24.3088         estimate D2E/DX2                !
 ! D97   D(26,25,27,28)        -41.9291         estimate D2E/DX2                !
 ! D98   D(26,25,27,34)        147.4495         estimate D2E/DX2                !
 ! D99   D(25,27,28,29)       -179.5207         estimate D2E/DX2                !
 ! D100  D(25,27,28,107)         8.2426         estimate D2E/DX2                !
 ! D101  D(34,27,28,29)         -8.5178         estimate D2E/DX2                !
 ! D102  D(34,27,28,107)       179.2456         estimate D2E/DX2                !
 ! D103  D(25,27,34,31)        178.2978         estimate D2E/DX2                !
 ! D104  D(25,27,34,111)        -5.8459         estimate D2E/DX2                !
 ! D105  D(28,27,34,31)          7.1325         estimate D2E/DX2                !
 ! D106  D(28,27,34,111)      -177.0112         estimate D2E/DX2                !
 ! D107  D(27,28,29,30)          5.7294         estimate D2E/DX2                !
 ! D108  D(107,28,29,30)       178.6564         estimate D2E/DX2                !
 ! D109  D(28,29,30,31)         -1.5009         estimate D2E/DX2                !
 ! D110  D(28,29,30,35)       -177.2784         estimate D2E/DX2                !
 ! D111  D(29,30,31,32)        175.9662         estimate D2E/DX2                !
 ! D112  D(29,30,31,34)          0.6555         estimate D2E/DX2                !
 ! D113  D(35,30,31,32)         -8.793          estimate D2E/DX2                !
 ! D114  D(35,30,31,34)        175.8963         estimate D2E/DX2                !
 ! D115  D(29,30,35,36)        148.2075         estimate D2E/DX2                !
 ! D116  D(29,30,35,39)        -32.7595         estimate D2E/DX2                !
 ! D117  D(31,30,35,36)        -27.3499         estimate D2E/DX2                !
 ! D118  D(31,30,35,39)        151.6832         estimate D2E/DX2                !
 ! D119  D(30,31,32,33)        178.4356         estimate D2E/DX2                !
 ! D120  D(34,31,32,33)         -6.5171         estimate D2E/DX2                !
 ! D121  D(30,31,34,27)         -3.601          estimate D2E/DX2                !
 ! D122  D(30,31,34,111)      -178.9433         estimate D2E/DX2                !
 ! D123  D(32,31,34,27)       -178.4491         estimate D2E/DX2                !
 ! D124  D(32,31,34,111)         6.2085         estimate D2E/DX2                !
 ! D125  D(31,32,33,108)       -59.7635         estimate D2E/DX2                !
 ! D126  D(31,32,33,109)        63.2561         estimate D2E/DX2                !
 ! D127  D(31,32,33,110)       179.121          estimate D2E/DX2                !
 ! D128  D(30,35,36,37)       -175.1419         estimate D2E/DX2                !
 ! D129  D(30,35,36,112)        -6.4641         estimate D2E/DX2                !
 ! D130  D(39,35,36,37)          5.7628         estimate D2E/DX2                !
 ! D131  D(39,35,36,112)       174.4406         estimate D2E/DX2                !
 ! D132  D(30,35,39,38)        173.9629         estimate D2E/DX2                !
 ! D133  D(36,35,39,38)         -6.8322         estimate D2E/DX2                !
 ! D134  D(35,36,37,38)         -1.1826         estimate D2E/DX2                !
 ! D135  D(35,36,37,113)       176.691          estimate D2E/DX2                !
 ! D136  D(112,36,37,38)      -170.649          estimate D2E/DX2                !
 ! D137  D(112,36,37,113)        7.2246         estimate D2E/DX2                !
 ! D138  D(36,37,38,39)         -3.947          estimate D2E/DX2                !
 ! D139  D(36,37,38,40)       -179.9551         estimate D2E/DX2                !
 ! D140  D(113,37,38,39)       178.1685         estimate D2E/DX2                !
 ! D141  D(113,37,38,40)         2.1605         estimate D2E/DX2                !
 ! D142  D(37,38,39,35)          6.1982         estimate D2E/DX2                !
 ! D143  D(40,38,39,35)       -177.4932         estimate D2E/DX2                !
 ! D144  D(37,38,40,41)         42.0091         estimate D2E/DX2                !
 ! D145  D(37,38,40,47)       -136.858          estimate D2E/DX2                !
 ! D146  D(39,38,40,41)       -133.6647         estimate D2E/DX2                !
 ! D147  D(39,38,40,47)         47.4682         estimate D2E/DX2                !
 ! D148  D(38,40,41,42)       -172.5429         estimate D2E/DX2                !
 ! D149  D(38,40,41,114)         2.7275         estimate D2E/DX2                !
 ! D150  D(47,40,41,42)          6.3017         estimate D2E/DX2                !
 ! D151  D(47,40,41,114)      -178.428          estimate D2E/DX2                !
 ! D152  D(38,40,47,44)        177.6693         estimate D2E/DX2                !
 ! D153  D(38,40,47,118)        -1.1305         estimate D2E/DX2                !
 ! D154  D(41,40,47,44)         -1.2155         estimate D2E/DX2                !
 ! D155  D(41,40,47,118)       179.9847         estimate D2E/DX2                !
 ! D156  D(40,41,42,43)         -8.2126         estimate D2E/DX2                !
 ! D157  D(114,41,42,43)       176.0125         estimate D2E/DX2                !
 ! D158  D(41,42,43,44)          5.6483         estimate D2E/DX2                !
 ! D159  D(41,42,43,48)        176.9942         estimate D2E/DX2                !
 ! D160  D(42,43,44,45)        173.8713         estimate D2E/DX2                !
 ! D161  D(42,43,44,47)         -1.5655         estimate D2E/DX2                !
 ! D162  D(48,43,44,45)          2.8216         estimate D2E/DX2                !
 ! D163  D(48,43,44,47)       -172.6153         estimate D2E/DX2                !
 ! D164  D(42,43,48,49)       -126.7737         estimate D2E/DX2                !
 ! D165  D(42,43,48,52)         52.2322         estimate D2E/DX2                !
 ! D166  D(44,43,48,49)         45.3215         estimate D2E/DX2                !
 ! D167  D(44,43,48,52)       -135.6727         estimate D2E/DX2                !
 ! D168  D(43,44,45,46)        165.5748         estimate D2E/DX2                !
 ! D169  D(47,44,45,46)        -19.4402         estimate D2E/DX2                !
 ! D170  D(43,44,47,40)         -0.9901         estimate D2E/DX2                !
 ! D171  D(43,44,47,118)       177.9457         estimate D2E/DX2                !
 ! D172  D(45,44,47,40)       -176.1654         estimate D2E/DX2                !
 ! D173  D(45,44,47,118)         2.7704         estimate D2E/DX2                !
 ! D174  D(44,45,46,115)       -46.4596         estimate D2E/DX2                !
 ! D175  D(44,45,46,116)        72.1722         estimate D2E/DX2                !
 ! D176  D(44,45,46,117)      -170.1992         estimate D2E/DX2                !
 ! D177  D(43,48,49,50)        176.9617         estimate D2E/DX2                !
 ! D178  D(43,48,49,119)        -1.8629         estimate D2E/DX2                !
 ! D179  D(52,48,49,50)         -2.0746         estimate D2E/DX2                !
 ! D180  D(52,48,49,119)       179.1009         estimate D2E/DX2                !
 ! D181  D(43,48,52,51)       -177.7187         estimate D2E/DX2                !
 ! D182  D(49,48,52,51)          1.5061         estimate D2E/DX2                !
 ! D183  D(48,49,50,51)          1.8705         estimate D2E/DX2                !
 ! D184  D(48,49,50,120)       177.2104         estimate D2E/DX2                !
 ! D185  D(119,49,50,51)      -179.4103         estimate D2E/DX2                !
 ! D186  D(119,49,50,120)       -4.0704         estimate D2E/DX2                !
 ! D187  D(49,50,51,52)         -0.732          estimate D2E/DX2                !
 ! D188  D(49,50,51,53)       -177.1687         estimate D2E/DX2                !
 ! D189  D(120,50,51,52)      -175.7921         estimate D2E/DX2                !
 ! D190  D(120,50,51,53)         7.7712         estimate D2E/DX2                !
 ! D191  D(50,51,52,48)         -0.4369         estimate D2E/DX2                !
 ! D192  D(53,51,52,48)        176.2431         estimate D2E/DX2                !
 ! D193  D(50,51,53,54)        -24.2437         estimate D2E/DX2                !
 ! D194  D(50,51,53,60)        163.031          estimate D2E/DX2                !
 ! D195  D(52,51,53,54)        159.7444         estimate D2E/DX2                !
 ! D196  D(52,51,53,60)        -12.9809         estimate D2E/DX2                !
 ! D197  D(51,53,54,55)       -179.2244         estimate D2E/DX2                !
 ! D198  D(51,53,54,121)         5.4382         estimate D2E/DX2                !
 ! D199  D(60,53,54,55)         -5.9564         estimate D2E/DX2                !
 ! D200  D(60,53,54,121)       178.7062         estimate D2E/DX2                !
 ! D201  D(51,53,60,57)        176.8246         estimate D2E/DX2                !
 ! D202  D(51,53,60,125)        -1.4554         estimate D2E/DX2                !
 ! D203  D(54,53,60,57)          3.7015         estimate D2E/DX2                !
 ! D204  D(54,53,60,125)      -174.5784         estimate D2E/DX2                !
 ! D205  D(53,54,55,56)          4.2536         estimate D2E/DX2                !
 ! D206  D(121,54,55,56)       179.9999         estimate D2E/DX2                !
 ! D207  D(54,55,56,57)         -0.2711         estimate D2E/DX2                !
 ! D208  D(54,55,56,61)       -175.3183         estimate D2E/DX2                !
 ! D209  D(55,56,57,58)       -179.8689         estimate D2E/DX2                !
 ! D210  D(55,56,57,60)         -1.4916         estimate D2E/DX2                !
 ! D211  D(61,56,57,58)         -5.2902         estimate D2E/DX2                !
 ! D212  D(61,56,57,60)        173.0871         estimate D2E/DX2                !
 ! D213  D(55,56,61,62)       -120.0878         estimate D2E/DX2                !
[...]
  Beta virt. eigenvalues --    2.20527   2.20608   2.20828   2.21102   2.21359
  Beta virt. eigenvalues --    2.21509   2.22025   2.22659   2.24615   2.25124
  Beta virt. eigenvalues --    2.25631   2.26750   2.26971   2.27281   2.27567
  Beta virt. eigenvalues --    2.28222   2.28751   2.29070   2.29736   2.30381
  Beta virt. eigenvalues --    2.30863   2.30934   2.31337   2.31430   2.31651
  Beta virt. eigenvalues --    2.31738   2.31861   2.32087   2.32388   2.32567
  Beta virt. eigenvalues --    2.32983   2.33079   2.33377   2.33832   2.34101
  Beta virt. eigenvalues --    2.34481   2.36339   2.36665   2.36811   2.37629
  Beta virt. eigenvalues --    2.38052   2.38594   2.38887   2.39937   2.40050
  Beta virt. eigenvalues --    2.40217   2.40227   2.40279   2.40427   2.40508
  Beta virt. eigenvalues --    2.40773   2.40980   2.41063   2.41304   2.41413
  Beta virt. eigenvalues --    2.41487   2.41980   2.43849   2.44068   2.44673
  Beta virt. eigenvalues --    2.44893   2.45045   2.45419   2.46226   2.46590
  Beta virt. eigenvalues --    2.47151   2.47262   2.47369   2.47526   2.47676
  Beta virt. eigenvalues --    2.47679   2.48000   2.48233   2.48451   2.48682
  Beta virt. eigenvalues --    2.48701   2.49123   2.49491   2.49577   2.49599
  Beta virt. eigenvalues --    2.50438   2.50561   2.50918   2.51125   2.51147
  Beta virt. eigenvalues --    2.51707   2.52665   2.53107   2.53283   2.53472
  Beta virt. eigenvalues --    2.53626   2.53897   2.54267   2.55388   2.56006
  Beta virt. eigenvalues --    2.56530   2.57217   2.57277   2.57805   2.58106
  Beta virt. eigenvalues --    2.58601   2.59467   2.59538   2.59683   2.59782
  Beta virt. eigenvalues --    2.60709   2.61849   2.62017   2.62494   2.62660
  Beta virt. eigenvalues --    2.63776   2.64923   2.65390   2.66443   2.67140
  Beta virt. eigenvalues --    2.67994   2.69306   2.69795   2.70205   2.70619
  Beta virt. eigenvalues --    2.71490   2.72659   2.75359   2.75762   2.76357
  Beta virt. eigenvalues --    2.76779   2.77337   2.78018   2.79297   2.82250
  Beta virt. eigenvalues --    2.82719   2.82880   2.83136   2.83262   2.83629
  Beta virt. eigenvalues --    2.87961   2.88021   2.88066   2.88419   2.88473
  Beta virt. eigenvalues --    2.88646   2.88673   2.88857   2.88932   2.89098
  Beta virt. eigenvalues --    2.89176   2.89327   2.89390   2.89409   2.95680
  Beta virt. eigenvalues --    2.96478   2.96957   2.97382   2.97870   2.98194
  Beta virt. eigenvalues --    2.98619   3.01912   3.02271   3.02441   3.02466
  Beta virt. eigenvalues --    3.02702   3.02884   3.03239   3.04618   3.05315
  Beta virt. eigenvalues --    3.05818   3.06184   3.06512   3.06850   3.06972
  Beta virt. eigenvalues --    3.13731   3.15636   3.15857   3.16108   3.16928
  Beta virt. eigenvalues --    3.17844   3.20669   3.23864   3.25532   3.25627
  Beta virt. eigenvalues --    3.25870   3.26144   3.26842   3.27858   3.40036
  Beta virt. eigenvalues --    3.40469   3.41114   3.41391   3.41622   3.41782
  Beta virt. eigenvalues --    3.42043   3.53946   3.54297   3.54598   3.54904
  Beta virt. eigenvalues --    3.55235   3.55762   3.57872
          Condensed to atoms (all electrons):
          Atomic-Atomic Spin Densities.
 Mulliken charges and spin densities:
               1          2
     1  C   -0.028234   0.000000
     2  C    0.088302  -0.000000
     3  N   -0.210056   0.000000
     4  C    0.119920  -0.000000
     5  C    0.110137   0.000000
     6  O   -0.245694  -0.000000
     7  C    0.060369   0.000000
     8  C    0.019370  -0.000000
     9  C   -0.134844   0.000000
    10  C    0.015611   0.000000
    11  C    0.037385  -0.000000
    12  C   -0.164437  -0.000000
    13  S    0.196413   0.000000
    14  C   -0.002141   0.000000
    15  C    0.079975  -0.000000
    16  N   -0.191433   0.000000
    17  C    0.078791  -0.000000
    18  C    0.124436   0.000000
    19  O   -0.251575  -0.000000
    20  C    0.064091   0.000000
    21  C    0.023216   0.000000
    22  C   -0.147103  -0.000000
    23  C    0.082196  -0.000000
    24  C    0.034286   0.000000
    25  C   -0.166802  -0.000000
    26  S    0.161521   0.000000
    27  C    0.004698   0.000000
    28  C    0.081231   0.000000
    29  N   -0.209113   0.000000
    30  C    0.128314  -0.000000
    31  C    0.117799  -0.000000
    32  O   -0.247517   0.000000
    33  C    0.062783  -0.000000
    34  C    0.022134   0.000000
    35  C   -0.134760  -0.000000
    36  C    0.012563   0.000000
    37  C    0.040813  -0.000000
    38  C   -0.163729   0.000000
    39  S    0.179452  -0.000000
    40  C    0.002606   0.000000
    41  C    0.082378   0.000000
    42  N   -0.209474   0.000000
    43  C    0.126636  -0.000000
    44  C    0.117931  -0.000000
    45  O   -0.248094   0.000000
    46  C    0.061366   0.000000
    47  C    0.019526   0.000000
    48  C   -0.134746   0.000000
    49  C    0.012619   0.000000
    50  C    0.041303  -0.000000
    51  C   -0.164457   0.000000
    52  S    0.179469  -0.000000
    53  C    0.001744   0.000000
    54  C    0.082523  -0.000000
    55  N   -0.209534   0.000000
    56  C    0.126778  -0.000000
    57  C    0.117764   0.000000
    58  O   -0.247881   0.000000
    59  C    0.061346   0.000000
    60  C    0.020138  -0.000000
    61  C   -0.134729   0.000000
    62  C    0.012684  -0.000000
    63  C    0.041422   0.000000
    64  C   -0.164041  -0.000000
    65  S    0.178176  -0.000000
    66  C    0.001377  -0.000000
    67  C    0.083118   0.000000
    68  N   -0.208088  -0.000000
    69  C    0.126929  -0.000000
    70  C    0.116973   0.000000
    71  O   -0.248605  -0.000000
    72  C    0.061755   0.000000
    73  C    0.019793   0.000000
    74  C   -0.137328   0.000000
    75  C    0.011840  -0.000000
    76  C    0.037413  -0.000000
    77  C   -0.165293   0.000000
    78  S    0.195356  -0.000000
    79  C   -0.003504   0.000000
    80  C    0.082203   0.000000
    81  N   -0.208256  -0.000000
    82  C    0.138029   0.000000
    83  C    0.116448  -0.000000
    84  O   -0.246857   0.000000
    85  C    0.064175   0.000000
    86  C    0.020854  -0.000000
    87  C   -0.144604   0.000000
    88  C   -0.015656  -0.000000
    89  C    0.071604   0.000000
    90  C   -0.135236  -0.000000
    91  S    0.184736  -0.000000
    92  H   -0.008654  -0.000000
    93  H    0.003283  -0.000000
    94  H    0.049849  -0.000000
    95  H    0.050087   0.000000
    96  H    0.055041  -0.000000
    97  H   -0.003212   0.000000
    98  H   -0.021204   0.000000
    99  H   -0.024622   0.000000
   100  H    0.003133  -0.000000
   101  H    0.048019  -0.000000
   102  H    0.051903  -0.000000
   103  H    0.058486  -0.000000
   104  H   -0.014808   0.000000
   105  H   -0.013991   0.000000
   106  H   -0.021225   0.000000
   107  H    0.000785  -0.000000
   108  H    0.052354   0.000000
   109  H    0.049581   0.000000
   110  H    0.054695  -0.000000
   111  H   -0.012593  -0.000000
   112  H   -0.020622  -0.000000
   113  H   -0.018450  -0.000000
   114  H   -0.004445  -0.000000
   115  H    0.053119  -0.000000
   116  H    0.052470   0.000000
   117  H    0.053566  -0.000000
   118  H   -0.003436  -0.000000
   119  H   -0.020513  -0.000000
   120  H   -0.018364   0.000000
   121  H   -0.005006   0.000000
   122  H    0.053864   0.000000
   123  H    0.052835  -0.000000
   124  H    0.052671  -0.000000
   125  H   -0.003649   0.000000
   126  H   -0.020327  -0.000000
   127  H   -0.017618   0.000000
   128  H   -0.003544  -0.000000
   129  H    0.052422   0.000000
   130  H    0.052229   0.000000
   131  H    0.052696   0.000000
   132  H   -0.003919   0.000000
   133  H   -0.022543  -0.000000
   134  H   -0.026045  -0.000000
   135  H    0.004180   0.000000
   136  H    0.050753  -0.000000
   137  H    0.052569  -0.000000
   138  H    0.046683  -0.000000
   139  H   -0.015409   0.000000
   140  H   -0.020472  -0.000000
   141  H   -0.018983  -0.000000
   142  H    0.015383  -0.000000
 Sum of Mulliken charges =  -0.00000  -0.00000
 Mulliken charges and spin densities with hydrogens summed into heavy atoms:
               1          2
     1  C   -0.036887  -0.000000
     2  C    0.091586  -0.000000
     3  N   -0.210056   0.000000
     4  C    0.119920  -0.000000
     5  C    0.110137   0.000000
     6  O   -0.245694  -0.000000
     7  C    0.215346   0.000000
     8  C    0.016158  -0.000000
     9  C   -0.134844   0.000000
    10  C   -0.005593   0.000000
    11  C    0.012763  -0.000000
    12  C   -0.164437  -0.000000
    13  S    0.196413   0.000000
    14  C   -0.002141   0.000000
    15  C    0.083108  -0.000000
    16  N   -0.191433   0.000000
    17  C    0.078791  -0.000000
    18  C    0.124436   0.000000
    19  O   -0.251575  -0.000000
    20  C    0.222500  -0.000000
    21  C    0.008408   0.000000
    22  C   -0.147103  -0.000000
    23  C    0.068205  -0.000000
    24  C    0.013061   0.000000
    25  C   -0.166802  -0.000000
    26  S    0.161521   0.000000
    27  C    0.004698   0.000000
    28  C    0.082016   0.000000
    29  N   -0.209113   0.000000
    30  C    0.128314  -0.000000
    31  C    0.117799  -0.000000
    32  O   -0.247517   0.000000
    33  C    0.219414  -0.000000
    34  C    0.009542   0.000000
    35  C   -0.134760  -0.000000
    36  C   -0.008059   0.000000
    37  C    0.022364  -0.000000
    38  C   -0.163729   0.000000
    39  S    0.179452  -0.000000
    40  C    0.002606   0.000000
    41  C    0.077934  -0.000000
    42  N   -0.209474   0.000000
    43  C    0.126636  -0.000000
    44  C    0.117931  -0.000000
    45  O   -0.248094   0.000000
    46  C    0.220521  -0.000000
    47  C    0.016090   0.000000
    48  C   -0.134746   0.000000
    49  C   -0.007893   0.000000
    50  C    0.022939  -0.000000
    51  C   -0.164457   0.000000
    52  S    0.179469  -0.000000
    53  C    0.001744   0.000000
    54  C    0.077517   0.000000
    55  N   -0.209534   0.000000
    56  C    0.126778  -0.000000
    57  C    0.117764   0.000000
    58  O   -0.247881   0.000000
    59  C    0.220716   0.000000
    60  C    0.016488  -0.000000
    61  C   -0.134729   0.000000
    62  C   -0.007643  -0.000000
    63  C    0.023804   0.000000
    64  C   -0.164041  -0.000000
    65  S    0.178176  -0.000000
    66  C    0.001377  -0.000000
    67  C    0.079574   0.000000
    68  N   -0.208088  -0.000000
    69  C    0.126929  -0.000000
    70  C    0.116973   0.000000
    71  O   -0.248605  -0.000000
    72  C    0.219102   0.000000
    73  C    0.015874   0.000000
    74  C   -0.137328   0.000000
    75  C   -0.010703  -0.000000
    76  C    0.011368  -0.000000
    77  C   -0.165293   0.000000
    78  S    0.195356  -0.000000
    79  C   -0.003504   0.000000
    80  C    0.086384   0.000000
    81  N   -0.208256  -0.000000
    82  C    0.138029   0.000000
    83  C    0.116448  -0.000000
    84  O   -0.246857   0.000000
    85  C    0.214181   0.000000
    86  C    0.005446  -0.000000
    87  C   -0.144604   0.000000
    88  C   -0.036128  -0.000000
    89  C    0.052620   0.000000
    90  C   -0.119853  -0.000000
    91  S    0.184736  -0.000000
 Electronic spatial extent (au):  <R**2>=         612999.7059
 Charge=              0.0000 electrons
 Dipole moment (field-independent basis, Debye):
    X=             18.7029    Y=             -6.0424    Z=              3.7198  Tot=             20.0037
 Quadrupole moment (field-independent basis, Debye-Ang):
   XX=           -482.4555   YY=           -450.0519   ZZ=           -562.0992
   XY=             -5.9418   XZ=             61.0708   YZ=            -22.9660
 Traceless Quadrupole moment (field-independent basis, Debye-Ang):
   XX=             15.7467   YY=             48.1503   ZZ=            -63.8970
   XY=             -5.9418   XZ=             61.0708   YZ=            -22.9660
 Octapole moment (field-independent basis, Debye-Ang**2):
  XXX=          10941.8539  YYY=             50.0487  ZZZ=             36.0963  XYY=            176.2903
  XXY=          -4104.2583  XXZ=           1221.8569  XZZ=            298.4584  YZZ=            -70.8582
  YYZ=              2.9328  XYZ=           -401.3764
 Hexadecapole moment (field-independent basis, Debye-Ang**3):
 XXXX=        -667506.1990 YYYY=         -20202.3179 ZZZZ=          -3715.0956 XXXY=         -29954.7752
 XXXZ=          15041.2472 YYYX=           1837.4762 YYYZ=           -611.0921 ZZZX=            411.2885
 ZZZY=           -153.4460 XXYY=        -106899.3141 XXZZ=        -135474.8066 YYZZ=          -4488.8201
 XXYZ=          -6951.9649 YYXZ=           1050.8729 ZZXY=           -667.5549
 N-N= 1.330663547654D+04 E-N=-4.162821911351D+04  KE= 6.361208279256D+03
 Leave Link  601 at Sat Jul 25 20:13:31 2020, MaxMem=  4026531840 cpu:              13.1 elap:               1.8
 (Enter /opt/ohpc/pub/libs/gaussian/g16-A.03/sandybridge/g16/l9999.exe)

 Test job not archived.
 1\1\GINC-SKYLAKE018\FOpt\ULC-wPBE\CC-pVDZ\C70H51N7O7S7\RDU230\25-Jul-2
 020\0\\#P uLC-wPBE/cc-pVDZ iop(3/107=0215000000, 3/108=0215000000) opt
 \\H51 C70 S7 N7 O7\\0,1\C,25.2840340733,-4.574687393,-1.4184181427\C,2
 4.2822557254,-3.8831091975,-2.0971355761\N,23.161722667,-3.4592858767,
 -1.5015923909\C,22.9720535528,-3.7002222336,-0.1933348975\C,23.9411416
 419,-4.399277584,0.5777181394\O,23.6659841251,-4.5993417378,1.89680946
 12\C,24.6296664311,-5.2968800558,2.6751935767\C,25.1091310089,-4.83681
 22347,-0.0564226513\C,21.7040508261,-3.1904043797,0.3536939009\C,21.15
 0823588,-3.2298027426,1.6212530579\C,19.879623323,-2.5986356867,1.6907
 235098\C,19.4629373398,-2.0766166038,0.4800551625\S,20.6430234693,-2.3
 715429185,-0.7637299037\C,18.2128422198,-1.3567200922,0.1898963718\C,1
 8.1298843652,-0.3785376883,-0.8152744227\N,17.0175350056,0.2989063707,
 -1.1052921895\C,15.8952823021,0.0618851196,-0.4063557526\C,15.87776433
 58,-0.9012257959,0.6366604574\O,14.6926673937,-1.0697169174,1.28430422
 81\C,14.6246004058,-2.0327702765,2.3273333448\C,17.0419843386,-1.61463
 55712,0.9241479419\C,14.721042681,0.860321919,-0.8062873491\C,14.72698
 05052,1.7984940474,-1.8240901459\C,13.4741003169,2.4325448868,-2.01286
 39126\C,12.4989766056,1.9809523655,-1.1413425564\S,13.1417908685,0.767
 8331763,-0.0725587585\C,11.0937474212,2.4056207533,-1.0503252174\C,10.
 0778926186,1.5426527594,-0.6084417457\N,8.7954699005,1.8978911315,-0.5
 150364455\C,8.4146791397,3.1375264393,-0.8668987293\C,9.3644405625,4.0
 846359206,-1.3381122255\O,8.9005081463,5.3203464224,-1.6733333705\C,9.
 8408155066,6.2758300876,-2.1477820888\C,10.7064746815,3.7070330697,-1.
 4168692832\C,6.9779596494,3.4146370032,-0.7257325112\C,6.21679571,4.54
 53357023,-0.9639896105\C,4.8365812086,4.3560038698,-0.6832258275\C,4.5
 416695934,3.0830493852,-0.2318685827\S,5.9778687179,2.1018178125,-0.15
 74881586\C,3.2290550092,2.5416076339,0.152084957\C,2.0440294165,3.0402
 035412,-0.4137533558\N,0.8282715702,2.6001434383,-0.0863892211\C,0.690
 499148,1.6148992854,0.8176438702\C,1.8288419886,1.0277891967,1.4333823
 752\O,1.609108949,0.0298121876,2.3331072943\C,2.7436139239,-0.57321407
 4,2.9438872019\C,3.0960521696,1.507952302,1.095785476\C,-0.6949393663,
 1.2114976393,1.0974658984\C,-1.2379814087,0.2674375496,1.9509788235\C,
 -2.6571697632,0.2178564425,1.8948544952\C,-3.1991687735,1.1215236763,1
 .0000668843\S,-1.9490139241,2.0403651764,0.2102673549\C,-4.6197053672,
 1.3441655204,0.6899946821\C,-5.5598272375,0.307649127,0.8108140737\N,-
 6.8614246797,0.4596855984,0.5624509178\C,-7.3341434947,1.6513388738,0.
 1581123108\C,-6.4615411554,2.7597170146,-0.0151670413\O,-7.0137653759,
 3.931459059,-0.4341394949\C,-6.147189923,5.0450253443,-0.6154772645\C,
 -5.1029060298,2.593216967,0.2621004683\C,-8.7837254876,1.7015006017,-0
 .0797745152\C,-9.6272010593,2.7167548323,-0.4949777256\C,-10.985382769
 3,2.3087047106,-0.5877571439\C,-11.1812034382,0.9840818447,-0.24432270
 8\S,-9.678194309,0.2301796177,0.2070273898\C,-12.4451104949,0.23178471
 1,-0.2293332131\C,-13.671282775,0.8768096305,0.0014789283\N,-14.846674
 8813,0.2466555418,0.0047061823\C,-14.8995793412,-1.080118053,-0.203966
 4954\C,-13.7125673532,-1.8292801804,-0.4264429153\O,-13.8455088279,-3.
 1706236226,-0.6225166264\C,-12.6613440168,-3.9283495256,-0.8384784268\
 C,-12.4886542214,-1.1570268479,-0.4440589929\C,-16.2484413882,-1.66398
 06705,-0.1778345365\C,-16.7076573191,-2.9576612121,-0.3527579839\C,-18
 .1201817618,-3.063940377,-0.2412032749\C,-18.7402331755,-1.8552662715,
 0.0169369108\S,-17.5727574189,-0.5704197609,0.133138061\C,-20.17896384
 72,-1.596223583,0.1855936953\C,-20.7634091114,-0.3670756234,-0.1572365
 838\N,-22.0645893659,-0.1042612434,-0.0213705306\C,-22.894840326,-1.04
 55777944,0.4574885384\C,-22.4026688817,-2.3273737934,0.8271747209\O,-2
 3.3044968986,-3.2287179797,1.3092823154\C,-22.8214859871,-4.5093421,1.
 6903081497\C,-21.0377374288,-2.5878007014,0.6929456477\C,-24.306069031
 3,-0.6437896659,0.5639779526\C,-25.4351439342,-1.3145612731,0.99984930
 56\C,-26.6162020434,-0.520191214,0.9270814099\C,-26.3703119974,0.74108
 84096,0.4379820923\S,-24.7051966244,0.9810002242,0.0600689145\H,26.190
 4428484,-4.9066367601,-1.9390457293\H,24.376276406,-3.6544523942,-3.16
 87068298\H,24.792431454,-6.3268046109,2.2969085668\H,25.5993534962,-4.
 7590489194,2.7027785046\H,24.2150515409,-5.347506066,3.6953072163\H,25
 .8811501209,-5.378476691,0.5005920727\H,21.6548524362,-3.6933240254,2.
 4709403628\H,19.3010312001,-2.5029863858,2.6164492243\H,19.019480035,-
 0.1227095977,-1.4104407734\H,15.324567526,-1.7879006022,3.1520714741\H
 ,14.8408772487,-3.0537819822,1.952236947\H,13.5898233215,-1.9948323853
 ,2.7046565047\H,17.0491164015,-2.3880393918,1.6994635178\H,15.63288117
 48,1.9927855124,-2.4052971832\H,13.2823326104,3.1802473756,-2.79047543
 23\H,10.3139586029,0.5055388795,-0.3269347233\H,10.6078046938,6.509379
 3306,-1.3814614596\H,10.3420186069,5.9292237384,-3.0744549943\H,9.2604
 280608,7.1865085645,-2.3685705487\H,11.4700263635,4.4213015975,-1.7418
 794555\H,6.6487509251,5.4814478468,-1.3218988871\H,4.0840285314,5.1457
 535945,-0.7832160459\H,2.0828816892,3.8252880916,-1.182427781\H,3.4109
 575174,-1.0408607502,2.1917869225\H,3.3226690159,0.1593750595,3.542191
 6037\H,2.3463351409,-1.3540291682,3.6127801145\H,3.9934068955,1.097819
 363,1.5721852059\H,-0.6257278993,-0.3599874478,2.6009693606\H,-3.26587
 65808,-0.445383021,2.5190909344\H,-5.2391143672,-0.7008773045,1.108847
 1437\H,-6.787778517,5.8718789257,-0.9631383143\H,-5.3711533381,4.83743
 1544,-1.3799433367\H,-5.656179122,5.3387727326,0.3345361498\H,-4.40648
 46105,3.4336368234,0.1665926481\H,-9.26904284,3.7201347343,-0.73148355
 73\H,-11.7938441156,2.9652433398,-0.9274581731\H,-13.7011573048,1.9560
 32191,0.209204043\H,-11.9697174866,-3.8596407577,0.0256893538\H,-12.98
 98710809,-4.973661645,-0.9586352654\H,-12.1314710346,-3.6049929794,-1.
 7575457191\H,-11.5567898765,-1.6984625628,-0.6413506703\H,-16.04143924
 32,-3.7960385898,-0.5632842055\H,-18.6695569552,-4.0019857724,-0.37979
 46188\H,-20.1475902092,0.4434843469,-0.5749220487\H,-22.0831142396,-4.
 4395566277,2.5152265203\H,-23.7021448758,-5.0729164248,2.0397362968\H,
 -22.3627199712,-5.0449436345,0.8339146226\H,-20.6195064185,-3.55206440
 5,0.9999563021\H,-25.4062705244,-2.3447885299,1.3589730752\H,-27.60954
 29607,-0.8721591435,1.2264093587\H,-27.0877594245,1.5514415977,0.27775
 77511\\Version=EM64L-G16RevA.03\State=1-A\HF=-6391.4393483\S2=0.\S2-1=
 0.\S2A=0.\RMSD=5.630e-09\RMSF=4.353e-07\Dipole=7.3470501,-2.1514117,1.
 8248511\Quadrupole=12.6197203,26.2570309,-38.8767512,4.231289,44.54420
 72,-32.0655877\PG=C01 [X(C70H51N7O7S7)]\\@


 STEINBACH'S GUIDELINES FOR SYSTEMS PROGRAMMING:
 NEVER TEST FOR AN ERROR CONDITION YOU DON'T KNOW HOW
 TO HANDLE.
 Job cpu time:       2 days 21 hours 47 minutes  9.8 seconds.
 Elapsed time:       0 days  8 hours 52 minutes 34.5 seconds.
 File lengths (MBytes):  RWF=   2692 Int=      0 D2E=      0 Chk=    244 Scr=      8
 Normal termination of Gaussian 16 at Sat Jul 25 20:13:32 2020.
