 Entering Gaussian System, Link 0=g16
 Input=mols_65_3_14_c-cOC-CF_opt_0.gjf
 Output=mols_65_3_14_c-cOC-CF_opt_0.log
 Initial command:
 /opt/ohpc/pub/libs/gaussian/g16-A.03/sandybridge/g16/l1.exe "/mnt/gpfs2_4m/scratch/rdu230/ondemand/projects/dihedral_energies/7trial/wtuning/mols_65_3_14_c-cOC-CF/Gau-308814.inp" -scrdir="/mnt/gpfs2_4m/scratch/rdu230/ondemand/projects/dihedral_energies/7trial/wtuning/mols_65_3_14_c-cOC-CF/"
 Entering Link 1 = /opt/ohpc/pub/libs/gaussian/g16-A.03/sandybridge/g16/l1.exe PID=    308815.
  
 Copyright (c) 1988,1990,1992,1993,1995,1998,2003,2009,2016,
            Gaussian, Inc.  All Rights Reserved.
  
 This is part of the Gaussian(R) 16 program.  It is based on
 the Gaussian(R) 09 system (copyright 2009, Gaussian, Inc.),
 the Gaussian(R) 03 system (copyright 2003, Gaussian, Inc.),
 the Gaussian(R) 98 system (copyright 1998, Gaussian, Inc.),
 the Gaussian(R) 94 system (copyright 1995, Gaussian, Inc.),
 the Gaussian 92(TM) system (copyright 1992, Gaussian, Inc.),
 the Gaussian 90(TM) system (copyright 1990, Gaussian, Inc.),
 the Gaussian 88(TM) system (copyright 1988, Gaussian, Inc.),
 the Gaussian 86(TM) system (copyright 1986, Carnegie Mellon
 University), and the Gaussian 82(TM) system (copyright 1983,
 Carnegie Mellon University). Gaussian is a federally registered
 trademark of Gaussian, Inc.
  
 This software contains proprietary and confidential information,
 including trade secrets, belonging to Gaussian, Inc.
  
 This software is provided under written license and may be
 used, copied, transmitted, or stored only in accord with that
 written license.
  
 The following legend is applicable only to US Government
 contracts under FAR:
  
                    RESTRICTED RIGHTS LEGEND
  
 Use, reproduction and disclosure by the US Government is
 subject to restrictions as set forth in subparagraphs (a)
 and (c) of the Commercial Computer Software - Restricted
 Rights clause in FAR 52.227-19.
  
 Gaussian, Inc.
 340 Quinnipiac St., Bldg. 40, Wallingford CT 06492
  
  
 ---------------------------------------------------------------
 Warning -- This program may not be used in any manner that
 competes with the business of Gaussian, Inc. or will provide
 assistance to any competitor of Gaussian, Inc.  The licensee
 of this program is prohibited from giving any competitor of
 Gaussian, Inc. access to this program.  By using this program,
 the user acknowledges that Gaussian, Inc. is engaged in the
 business of creating and licensing software in the field of
 computational chemistry and represents and warrants to the
 licensee that it is not a competitor of Gaussian, Inc. and that
 it will not use this program in any manner prohibited above.
 ---------------------------------------------------------------
  

 Cite this work as:
 Gaussian 16, Revision A.03,
 M. J. Frisch, G. W. Trucks, H. B. Schlegel, G. E. Scuseria, 
 M. A. Robb, J. R. Cheeseman, G. Scalmani, V. Barone, 
 G. A. Petersson, H. Nakatsuji, X. Li, M. Caricato, A. V. Marenich, 
 J. Bloino, B. G. Janesko, R. Gomperts, B. Mennucci, H. P. Hratchian, 
 J. V. Ortiz, A. F. Izmaylov, J. L. Sonnenberg, D. Williams-Young, 
 F. Ding, F. Lipparini, F. Egidi, J. Goings, B. Peng, A. Petrone, 
 T. Henderson, D. Ranasinghe, V. G. Zakrzewski, J. Gao, N. Rega, 
 G. Zheng, W. Liang, M. Hada, M. Ehara, K. Toyota, R. Fukuda, 
 J. Hasegawa, M. Ishida, T. Nakajima, Y. Honda, O. Kitao, H. Nakai, 
 T. Vreven, K. Throssell, J. A. Montgomery, Jr., J. E. Peralta, 
 F. Ogliaro, M. J. Bearpark, J. J. Heyd, E. N. Brothers, K. N. Kudin, 
 V. N. Staroverov, T. A. Keith, R. Kobayashi, J. Normand, 
 K. Raghavachari, A. P. Rendell, J. C. Burant, S. S. Iyengar, 
 J. Tomasi, M. Cossi, J. M. Millam, M. Klene, C. Adamo, R. Cammi, 
 J. W. Ochterski, R. L. Martin, K. Morokuma, O. Farkas, 
 J. B. Foresman, and D. J. Fox, Gaussian, Inc., Wallingford CT, 2016.
 
 ******************************************
 Gaussian 16:  EM64L-G16RevA.03 25-Dec-2016
                25-Jul-2020 
 ******************************************
 %mem=30GB
 %nproc=8
 Will use up to    8 processors via shared memory.
 ---------------------------------------------------------------
 #P uLC-wPBE/cc-pVDZ iop(3/107=0431900000, 3/108=0431900000) opt
 ---------------------------------------------------------------
 1/18=20,19=15,26=3,38=1/1,3;
 2/9=110,12=2,17=6,18=5,40=1/2;
 3/5=16,11=2,25=1,30=1,71=1,74=-41,107=431900000,108=431900000,116=2/1,2,3;
 4//1;
 5/5=2,38=5/2;
 6/7=2,8=2,9=2,10=2,28=1/1;
 7//1,2,3,16;
 1/18=20,19=15,26=3/3(2);
 2/9=110/2;
 99//99;
 2/9=110/2;
 3/5=16,11=2,25=1,30=1,71=1,74=-41,107=431900000,108=431900000,116=2/1,2,3;
 4/5=5,16=3,69=1/1;
 5/5=2,38=5/2;
 7//1,2,3,16;
 1/18=20,19=15,26=3/3(-5);
 2/9=110/2;
 6/7=2,8=2,9=2,10=2,19=2,28=1/1;
 99/9=1/99;
 Leave Link    1 at Sat Jul 25 00:34:27 2020, MaxMem=  4026531840 cpu:               1.2 elap:               0.2
 (Enter /opt/ohpc/pub/libs/gaussian/g16-A.03/sandybridge/g16/l101.exe)
 ----------------
 H23 C33 S3 O3 F3
 ----------------
 Symbolic Z-matrix:
 Charge =  0 Multiplicity = 1
 C                    -11.25897  -1.14813  -0.06166 
 C                    -10.34029  -1.97868   0.63156 
 C                    -9.07162  -1.57615   0.79362 
 C                    -8.59416  -0.41666   0.28517 
 C                    -9.5124    0.42752  -0.437 
 O                    -9.0066    1.57944  -0.95035 
 C                    -9.84877   2.76608  -0.69932 
 C                    -10.80815  -0.02252  -0.58656 
 C                    -7.2223    0.03692   0.45862 
 C                    -6.63824   1.19088   1.02399 
 F                    -7.46325   2.16515   1.46134 
 C                    -5.27828   1.28355   0.98335 
 C                    -4.66826   0.14363   0.53017 
 S                    -5.93722  -1.04598   0.01375 
 C                    -3.28011  -0.23103   0.35187 
 C                    -2.73363  -1.43039   0.78797 
 C                    -1.35826  -1.70053   0.62978 
 C                    -0.50368  -0.78559  -0.11624 
 C                    -1.10271   0.37747  -0.56127 
 O                    -0.28076   1.30507  -1.28639 
 C                    -0.46657   2.59885  -0.99906 
 C                    -2.50162   0.70543  -0.3412 
 C                     0.87447  -1.16259  -0.34355 
 C                     1.40357  -2.20618  -0.90001 
 F                     0.60977  -3.25622  -1.46859 
 C                     2.8207   -2.2418   -0.91277 
 C                     3.38753  -1.19541  -0.29763 
 S                     2.11624  -0.10915   0.34295 
 C                     4.77226  -0.8641   -0.14667 
 C                     5.63348  -1.77188   0.46211 
 C                     6.95741  -1.37615   0.67654 
 C                     7.43192  -0.15917   0.19626 
 C                     6.63242   0.72294  -0.45493 
 O                     7.14371   1.8774   -0.91158 
 C                     6.26662   2.99778  -1.05499 
 C                     5.29761   0.41491  -0.56212 
 C                     8.88848   0.07923   0.41989 
 C                     10.01669  -0.57868  -0.03183 
 F                     9.93131  -1.67778  -0.82512 
 C                     11.23625   0.01308   0.38321 
 C                     11.09755   1.05788   1.1454 
 S                     9.35553   1.40692   1.41808 
 H                    -12.2647  -1.47906  -0.18739 
 H                    -10.68732  -2.98892   1.05968 
 H                    -8.36965  -2.1974    1.42371 
 H                    -10.22412   2.80779   0.31746 
 H                    -10.73783   2.74063  -1.33039 
 H                    -9.25187   3.64065  -0.88118 
 H                    -11.53484   0.64058  -1.19926 
 H                    -4.67516   2.07612   1.4245 
 H                    -3.35424  -2.12882   1.39223 
 H                    -0.97664  -2.64669   1.0097 
 H                    -0.53275   2.84561   0.03779 
 H                    -1.31238   3.02751  -1.49308 
 H                     0.44067   3.1977   -1.40439 
 H                    -2.89258   1.55914  -0.81474 
 H                     3.3435   -3.09765  -1.35168 
 H                     5.25292  -2.64668   0.87008 
 H                     7.62962  -2.1402    1.07371 
 H                     5.61479   3.11216  -0.23839 
 H                     5.68328   2.88872  -2.05783 
 H                     6.87875   3.86957  -1.23061 
 H                     4.5581    1.11624  -1.13119 
 H                     12.16773  -0.40764   0.07981 
 H                     11.84113   1.7533    1.6121 
 
 ITRead=  0  0  0  0  0  0  0  0  0  0  0  0  0  0  0  0  0  0  0  0
 ITRead=  0  0  0  0  0  0  0  0  0  0  0  0  0  0  0  0  0  0  0  0
 ITRead=  0  0  0  0  0  0  0  0  0  0  0  0  0  0  0  0  0  0  0  0
 ITRead=  0  0  0  0  0
 MicOpt= -1 -1 -1 -1 -1 -1 -1 -1 -1 -1 -1 -1 -1 -1 -1 -1 -1 -1 -1 -1
 MicOpt= -1 -1 -1 -1 -1 -1 -1 -1 -1 -1 -1 -1 -1 -1 -1 -1 -1 -1 -1 -1
 MicOpt= -1 -1 -1 -1 -1 -1 -1 -1 -1 -1 -1 -1 -1 -1 -1 -1 -1 -1 -1 -1
 MicOpt= -1 -1 -1 -1 -1
 NAtoms=     65 NQM=       65 NQMF=       0 NMMI=      0 NMMIF=      0
                NMic=       0 NMicF=      0.
                    Isotopes and Nuclear Properties:
 (Nuclear quadrupole moments (NQMom) in fm**2, nuclear magnetic moments (NMagM)
  in nuclear magnetons)

  Atom         1           2           3           4           5           6           7           8           9          10
 IAtWgt=          12          12          12          12          12          16          12          12          12          12
 AtmWgt=  12.0000000  12.0000000  12.0000000  12.0000000  12.0000000  15.9949146  12.0000000  12.0000000  12.0000000  12.0000000
 NucSpn=           0           0           0           0           0           0           0           0           0           0
 AtZEff=  -0.0000000  -0.0000000  -0.0000000  -0.0000000  -0.0000000  -0.0000000  -0.0000000  -0.0000000  -0.0000000  -0.0000000
 NQMom=    0.0000000   0.0000000   0.0000000   0.0000000   0.0000000   0.0000000   0.0000000   0.0000000   0.0000000   0.0000000
 NMagM=    0.0000000   0.0000000   0.0000000   0.0000000   0.0000000   0.0000000   0.0000000   0.0000000   0.0000000   0.0000000
 AtZNuc=   6.0000000   6.0000000   6.0000000   6.0000000   6.0000000   8.0000000   6.0000000   6.0000000   6.0000000   6.0000000

  Atom        11          12          13          14          15          16          17          18          19          20
 IAtWgt=          19          12          12          32          12          12          12          12          12          16
 AtmWgt=  18.9984033  12.0000000  12.0000000  31.9720718  12.0000000  12.0000000  12.0000000  12.0000000  12.0000000  15.9949146
 NucSpn=           1           0           0           0           0           0           0           0           0           0
 AtZEff=  -0.0000000  -0.0000000  -0.0000000  -0.0000000  -0.0000000  -0.0000000  -0.0000000  -0.0000000  -0.0000000  -0.0000000
 NQMom=    0.0000000   0.0000000   0.0000000   0.0000000   0.0000000   0.0000000   0.0000000   0.0000000   0.0000000   0.0000000
 NMagM=    2.6288670   0.0000000   0.0000000   0.0000000   0.0000000   0.0000000   0.0000000   0.0000000   0.0000000   0.0000000
 AtZNuc=   9.0000000   6.0000000   6.0000000  16.0000000   6.0000000   6.0000000   6.0000000   6.0000000   6.0000000   8.0000000

  Atom        21          22          23          24          25          26          27          28          29          30
 IAtWgt=          12          12          12          12          19          12          12          32          12          12
 AtmWgt=  12.0000000  12.0000000  12.0000000  12.0000000  18.9984033  12.0000000  12.0000000  31.9720718  12.0000000  12.0000000
 NucSpn=           0           0           0           0           1           0           0           0           0           0
 AtZEff=  -0.0000000  -0.0000000  -0.0000000  -0.0000000  -0.0000000  -0.0000000  -0.0000000  -0.0000000  -0.0000000  -0.0000000
 NQMom=    0.0000000   0.0000000   0.0000000   0.0000000   0.0000000   0.0000000   0.0000000   0.0000000   0.0000000   0.0000000
 NMagM=    0.0000000   0.0000000   0.0000000   0.0000000   2.6288670   0.0000000   0.0000000   0.0000000   0.0000000   0.0000000
 AtZNuc=   6.0000000   6.0000000   6.0000000   6.0000000   9.0000000   6.0000000   6.0000000  16.0000000   6.0000000   6.0000000

  Atom        31          32          33          34          35          36          37          38          39          40
 IAtWgt=          12          12          12          16          12          12          12          12          19          12
 AtmWgt=  12.0000000  12.0000000  12.0000000  15.9949146  12.0000000  12.0000000  12.0000000  12.0000000  18.9984033  12.0000000
 NucSpn=           0           0           0           0           0           0           0           0           1           0
 AtZEff=  -0.0000000  -0.0000000  -0.0000000  -0.0000000  -0.0000000  -0.0000000  -0.0000000  -0.0000000  -0.0000000  -0.0000000
 NQMom=    0.0000000   0.0000000   0.0000000   0.0000000   0.0000000   0.0000000   0.0000000   0.0000000   0.0000000   0.0000000
 NMagM=    0.0000000   0.0000000   0.0000000   0.0000000   0.0000000   0.0000000   0.0000000   0.0000000   2.6288670   0.0000000
 AtZNuc=   6.0000000   6.0000000   6.0000000   8.0000000   6.0000000   6.0000000   6.0000000   6.0000000   9.0000000   6.0000000

  Atom        41          42          43          44          45          46          47          48          49          50
 IAtWgt=          12          32           1           1           1           1           1           1           1           1
 AtmWgt=  12.0000000  31.9720718   1.0078250   1.0078250   1.0078250   1.0078250   1.0078250   1.0078250   1.0078250   1.0078250
 NucSpn=           0           0           1           1           1           1           1           1           1           1
 AtZEff=  -0.0000000  -0.0000000  -0.0000000  -0.0000000  -0.0000000  -0.0000000  -0.0000000  -0.0000000  -0.0000000  -0.0000000
 NQMom=    0.0000000   0.0000000   0.0000000   0.0000000   0.0000000   0.0000000   0.0000000   0.0000000   0.0000000   0.0000000
 NMagM=    0.0000000   0.0000000   2.7928460   2.7928460   2.7928460   2.7928460   2.7928460   2.7928460   2.7928460   2.7928460
 AtZNuc=   6.0000000  16.0000000   1.0000000   1.0000000   1.0000000   1.0000000   1.0000000   1.0000000   1.0000000   1.0000000

  Atom        51          52          53          54          55          56          57          58          59          60
 IAtWgt=           1           1           1           1           1           1           1           1           1           1
 AtmWgt=   1.0078250   1.0078250   1.0078250   1.0078250   1.0078250   1.0078250   1.0078250   1.0078250   1.0078250   1.0078250
 NucSpn=           1           1           1           1           1           1           1           1           1           1
 AtZEff=  -0.0000000  -0.0000000  -0.0000000  -0.0000000  -0.0000000  -0.0000000  -0.0000000  -0.0000000  -0.0000000  -0.0000000
 NQMom=    0.0000000   0.0000000   0.0000000   0.0000000   0.0000000   0.0000000   0.0000000   0.0000000   0.0000000   0.0000000
 NMagM=    2.7928460   2.7928460   2.7928460   2.7928460   2.7928460   2.7928460   2.7928460   2.7928460   2.7928460   2.7928460
 AtZNuc=   1.0000000   1.0000000   1.0000000   1.0000000   1.0000000   1.0000000   1.0000000   1.0000000   1.0000000   1.0000000

  Atom        61          62          63          64          65
 IAtWgt=           1           1           1           1           1
 AtmWgt=   1.0078250   1.0078250   1.0078250   1.0078250   1.0078250
 NucSpn=           1           1           1           1           1
 AtZEff=  -0.0000000  -0.0000000  -0.0000000  -0.0000000  -0.0000000
 NQMom=    0.0000000   0.0000000   0.0000000   0.0000000   0.0000000
 NMagM=    2.7928460   2.7928460   2.7928460   2.7928460   2.7928460
 AtZNuc=   1.0000000   1.0000000   1.0000000   1.0000000   1.0000000
 Leave Link  101 at Sat Jul 25 00:34:27 2020, MaxMem=  4026531840 cpu:               3.0 elap:               0.4
 (Enter /opt/ohpc/pub/libs/gaussian/g16-A.03/sandybridge/g16/l103.exe)

 GradGradGradGradGradGradGradGradGradGradGradGradGradGradGradGradGradGrad
 Berny optimization.
 Initialization pass.
                           ----------------------------
                           !    Initial Parameters    !
                           ! (Angstroms and Degrees)  !
 --------------------------                            --------------------------
 ! Name  Definition              Value          Derivative Info.                !
 --------------------------------------------------------------------------------
 ! R1    R(1,2)                  1.4193         estimate D2E/DX2                !
 ! R2    R(1,8)                  1.3213         estimate D2E/DX2                !
 ! R3    R(1,43)                 1.0662         estimate D2E/DX2                !
 ! R4    R(2,3)                  1.3408         estimate D2E/DX2                !
 ! R5    R(2,44)                 1.1508         estimate D2E/DX2                !
 ! R6    R(3,4)                  1.3531         estimate D2E/DX2                !
 ! R7    R(3,45)                 1.1295         estimate D2E/DX2                !
 ! R8    R(4,5)                  1.4413         estimate D2E/DX2                !
 ! R9    R(4,9)                  1.4553         estimate D2E/DX2                !
 ! R10   R(5,6)                  1.3588         estimate D2E/DX2                !
 ! R11   R(5,8)                  1.3798         estimate D2E/DX2                !
 ! R12   R(6,7)                  1.4766         estimate D2E/DX2                !
 ! R13   R(7,46)                 1.0847         estimate D2E/DX2                !
 ! R14   R(7,47)                 1.0906         estimate D2E/DX2                !
 ! R15   R(7,48)                 1.0744         estimate D2E/DX2                !
 ! R16   R(8,49)                 1.159          estimate D2E/DX2                !
 ! R17   R(9,10)                 1.4115         estimate D2E/DX2                !
 ! R18   R(9,14)                 1.7384         estimate D2E/DX2                !
 ! R19   R(10,11)                1.3495         estimate D2E/DX2                !
 ! R20   R(10,12)                1.3637         estimate D2E/DX2                !
 ! R21   R(12,13)                1.37           estimate D2E/DX2                !
 ! R22   R(12,50)                1.0893         estimate D2E/DX2                !
 ! R23   R(13,14)                1.8144         estimate D2E/DX2                !
 ! R24   R(13,15)                1.4488         estimate D2E/DX2                !
 ! R25   R(15,16)                1.3883         estimate D2E/DX2                !
 ! R26   R(15,22)                1.4012         estimate D2E/DX2                !
 ! R27   R(16,17)                1.4105         estimate D2E/DX2                !
 ! R28   R(16,51)                1.1127         estimate D2E/DX2                !
 ! R29   R(17,18)                1.4574         estimate D2E/DX2                !
 ! R30   R(17,52)                1.0887         estimate D2E/DX2                !
 ! R31   R(18,19)                1.3819         estimate D2E/DX2                !
 ! R32   R(18,23)                1.4468         estimate D2E/DX2                !
 ! R33   R(19,20)                1.4359         estimate D2E/DX2                !
 ! R34   R(19,22)                1.4536         estimate D2E/DX2                !
 ! R35   R(20,21)                1.3383         estimate D2E/DX2                !
 ! R36   R(21,53)                1.0679         estimate D2E/DX2                !
 ! R37   R(21,54)                1.0692         estimate D2E/DX2                !
 ! R38   R(21,55)                1.1602         estimate D2E/DX2                !
 ! R39   R(22,56)                1.0516         estimate D2E/DX2                !
 ! R40   R(23,24)                1.2956         estimate D2E/DX2                !
 ! R41   R(23,28)                1.7672         estimate D2E/DX2                !
 ! R42   R(24,25)                1.4339         estimate D2E/DX2                !
 ! R43   R(24,26)                1.4176         estimate D2E/DX2                !
 ! R44   R(26,27)                1.3396         estimate D2E/DX2                !
 ! R45   R(26,57)                1.0947         estimate D2E/DX2                !
 ! R46   R(27,28)                1.7907         estimate D2E/DX2                !
 ! R47   R(27,29)                1.4318         estimate D2E/DX2                !
 ! R48   R(29,30)                1.3915         estimate D2E/DX2                !
 ! R49   R(29,36)                1.4438         estimate D2E/DX2                !
 ! R50   R(30,31)                1.3984         estimate D2E/DX2                !
 ! R51   R(30,58)                1.0376         estimate D2E/DX2                !
 ! R52   R(31,32)                1.3917         estimate D2E/DX2                !
 ! R53   R(31,59)                1.0924         estimate D2E/DX2                !
 ! R54   R(32,33)                1.357          estimate D2E/DX2                !
 ! R55   R(32,37)                1.4928         estimate D2E/DX2                !
 ! R56   R(33,34)                1.3427         estimate D2E/DX2                !
 ! R57   R(33,36)                1.3741         estimate D2E/DX2                !
 ! R58   R(34,35)                1.4301         estimate D2E/DX2                !
 ! R59   R(35,60)                1.0511         estimate D2E/DX2                !
 ! R60   R(35,61)                1.1653         estimate D2E/DX2                !
 ! R61   R(35,62)                1.0796         estimate D2E/DX2                !
 ! R62   R(36,63)                1.1673         estimate D2E/DX2                !
 ! R63   R(37,38)                1.3819         estimate D2E/DX2                !
 ! R64   R(37,42)                1.7255         estimate D2E/DX2                !
 ! R65   R(38,39)                1.3582         estimate D2E/DX2                !
 ! R66   R(38,40)                1.4177         estimate D2E/DX2                !
 ! R67   R(40,41)                1.3007         estimate D2E/DX2                !
 ! R68   R(40,64)                1.0662         estimate D2E/DX2                !
 ! R69   R(41,42)                1.7974         estimate D2E/DX2                !
 ! R70   R(41,65)                1.12           estimate D2E/DX2                !
 ! A1    A(2,1,8)              118.1456         estimate D2E/DX2                !
 ! A2    A(2,1,43)             119.1135         estimate D2E/DX2                !
 ! A3    A(8,1,43)             122.6436         estimate D2E/DX2                !
 ! A4    A(1,2,3)              119.7231         estimate D2E/DX2                !
 ! A5    A(1,2,44)             120.0154         estimate D2E/DX2                !
 ! A6    A(3,2,44)             120.2594         estimate D2E/DX2                !
 ! A7    A(2,3,4)              123.0733         estimate D2E/DX2                !
 ! A8    A(2,3,45)             119.3637         estimate D2E/DX2                !
 ! A9    A(4,3,45)             117.4932         estimate D2E/DX2                !
 ! A10   A(3,4,5)              117.7341         estimate D2E/DX2                !
 ! A11   A(3,4,9)              123.7061         estimate D2E/DX2                !
 ! A12   A(5,4,9)              118.5381         estimate D2E/DX2                !
 ! A13   A(4,5,6)              116.659          estimate D2E/DX2                !
 ! A14   A(4,5,8)              117.4872         estimate D2E/DX2                !
 ! A15   A(6,5,8)              125.8126         estimate D2E/DX2                !
 ! A16   A(5,6,7)              113.8749         estimate D2E/DX2                !
 ! A17   A(6,7,46)             112.808          estimate D2E/DX2                !
 ! A18   A(6,7,47)             110.3548         estimate D2E/DX2                !
 ! A19   A(6,7,48)             107.9707         estimate D2E/DX2                !
 ! A20   A(46,7,47)            105.1437         estimate D2E/DX2                !
 ! A21   A(46,7,48)            108.641          estimate D2E/DX2                !
 ! A22   A(47,7,48)            111.9609         estimate D2E/DX2                !
 ! A23   A(1,8,5)              123.7261         estimate D2E/DX2                !
 ! A24   A(1,8,49)             118.915          estimate D2E/DX2                !
 ! A25   A(5,8,49)             117.3548         estimate D2E/DX2                !
 ! A26   A(4,9,10)             133.8371         estimate D2E/DX2                !
 ! A27   A(4,9,14)             118.1774         estimate D2E/DX2                !
 ! A28   A(10,9,14)            107.8116         estimate D2E/DX2                !
 ! A29   A(9,10,11)            117.8439         estimate D2E/DX2                !
 ! A30   A(9,10,12)            117.1457         estimate D2E/DX2                !
 ! A31   A(11,10,12)           124.7687         estimate D2E/DX2                !
 ! A32   A(10,12,13)           113.413          estimate D2E/DX2                !
 ! A33   A(10,12,50)           126.1243         estimate D2E/DX2                !
 ! A34   A(13,12,50)           119.5271         estimate D2E/DX2                !
 ! A35   A(12,13,14)           109.1641         estimate D2E/DX2                !
 ! A36   A(12,13,15)           133.0386         estimate D2E/DX2                !
 ! A37   A(14,13,15)           117.7429         estimate D2E/DX2                !
 ! A38   A(9,14,13)             92.0482         estimate D2E/DX2                !
 ! A39   A(13,15,16)           124.1875         estimate D2E/DX2                !
 ! A40   A(13,15,22)           114.8575         estimate D2E/DX2                !
 ! A41   A(16,15,22)           120.9347         estimate D2E/DX2                !
 ! A42   A(15,16,17)           120.9339         estimate D2E/DX2                !
 ! A43   A(15,16,51)           119.5587         estimate D2E/DX2                !
 ! A44   A(17,16,51)           118.9822         estimate D2E/DX2                !
 ! A45   A(16,17,18)           120.5929         estimate D2E/DX2                !
 ! A46   A(16,17,52)           117.976          estimate D2E/DX2                !
 ! A47   A(18,17,52)           121.2457         estimate D2E/DX2                !
 ! A48   A(17,18,19)           116.0431         estimate D2E/DX2                !
 ! A49   A(17,18,23)           118.3859         estimate D2E/DX2                !
 ! A50   A(19,18,23)           125.567          estimate D2E/DX2                !
 ! A51   A(18,19,20)           117.2708         estimate D2E/DX2                !
 ! A52   A(18,19,22)           123.9396         estimate D2E/DX2                !
 ! A53   A(20,19,22)           118.7893         estimate D2E/DX2                !
 ! A54   A(19,20,21)           115.8887         estimate D2E/DX2                !
 ! A55   A(20,21,53)           116.1337         estimate D2E/DX2                !
 ! A56   A(20,21,54)           113.4671         estimate D2E/DX2                !
 ! A57   A(20,21,55)           108.3866         estimate D2E/DX2                !
 ! A58   A(53,21,54)           107.8761         estimate D2E/DX2                !
 ! A59   A(53,21,55)           105.5698         estimate D2E/DX2                !
 ! A60   A(54,21,55)           104.4916         estimate D2E/DX2                !
 ! A61   A(15,22,19)           117.3086         estimate D2E/DX2                !
 ! A62   A(15,22,56)           123.9682         estimate D2E/DX2                !
 ! A63   A(19,22,56)           118.2139         estimate D2E/DX2                !
 ! A64   A(18,23,24)           131.7881         estimate D2E/DX2                !
 ! A65   A(18,23,28)           116.9353         estimate D2E/DX2                !
 ! A66   A(24,23,28)           111.1021         estimate D2E/DX2                !
 ! A67   A(23,24,25)           122.282          estimate D2E/DX2                !
 ! A68   A(23,24,26)           115.6156         estimate D2E/DX2                !
 ! A69   A(25,24,26)           122.1023         estimate D2E/DX2                !
 ! A70   A(24,26,27)           113.5287         estimate D2E/DX2                !
 ! A71   A(24,26,57)           120.0429         estimate D2E/DX2                !
 ! A72   A(27,26,57)           126.3478         estimate D2E/DX2                !
 ! A73   A(26,27,28)           109.7371         estimate D2E/DX2                !
 ! A74   A(26,27,29)           129.6703         estimate D2E/DX2                !
 ! A75   A(28,27,29)           120.566          estimate D2E/DX2                !
 ! A76   A(23,28,27)            89.9019         estimate D2E/DX2                !
 ! A77   A(27,29,30)           119.586          estimate D2E/DX2                !
 ! A78   A(27,29,36)           121.7736         estimate D2E/DX2                !
 ! A79   A(30,29,36)           118.594          estimate D2E/DX2                !
 ! A80   A(29,30,31)           117.9324         estimate D2E/DX2                !
 ! A81   A(29,30,58)           119.6727         estimate D2E/DX2                !
 ! A82   A(31,30,58)           121.7064         estimate D2E/DX2                !
 ! A83   A(30,31,32)           121.1549         estimate D2E/DX2                !
 ! A84   A(30,31,59)           116.1298         estimate D2E/DX2                !
 ! A85   A(32,31,59)           121.8212         estimate D2E/DX2                !
 ! A86   A(31,32,33)           122.2199         estimate D2E/DX2                !
 ! A87   A(31,32,37)           114.8738         estimate D2E/DX2                !
 ! A88   A(33,32,37)           122.8856         estimate D2E/DX2                !
 ! A89   A(32,33,34)           119.8543         estimate D2E/DX2                !
 ! A90   A(32,33,36)           117.6489         estimate D2E/DX2                !
 ! A91   A(34,33,36)           122.4212         estimate D2E/DX2                !
 ! A92   A(33,34,35)           118.3064         estimate D2E/DX2                !
 ! A93   A(34,35,60)           112.8107         estimate D2E/DX2                !
 ! A94   A(34,35,61)           108.6639         estimate D2E/DX2                !
 ! A95   A(34,35,62)           107.5298         estimate D2E/DX2                !
 ! A96   A(60,35,61)           111.6136         estimate D2E/DX2                !
 ! A97   A(60,35,62)           112.9619         estimate D2E/DX2                !
 ! A98   A(61,35,62)           102.6747         estimate D2E/DX2                !
 ! A99   A(29,36,33)           121.98           estimate D2E/DX2                !
 ! A100  A(29,36,63)           116.2322         estimate D2E/DX2                !
 ! A101  A(33,36,63)           121.2494         estimate D2E/DX2                !
 ! A102  A(32,37,38)           132.1897         estimate D2E/DX2                !
 ! A103  A(32,37,42)           118.2718         estimate D2E/DX2                !
 ! A104  A(38,37,42)           109.5385         estimate D2E/DX2                !
 ! A105  A(37,38,39)           121.6596         estimate D2E/DX2                !
 ! A106  A(37,38,40)           114.0725         estimate D2E/DX2                !
 ! A107  A(39,38,40)           124.2549         estimate D2E/DX2                !
 ! A108  A(38,40,41)           114.527          estimate D2E/DX2                !
 ! A109  A(38,40,64)           120.2356         estimate D2E/DX2                !
 ! A110  A(41,40,64)           125.2328         estimate D2E/DX2                !
 ! A111  A(40,41,42)           110.379          estimate D2E/DX2                !
 ! A112  A(40,41,65)           132.2339         estimate D2E/DX2                !
 ! A113  A(42,41,65)           117.3656         estimate D2E/DX2                !
 ! A114  A(37,42,41)            91.4413         estimate D2E/DX2                !
 ! D1    D(8,1,2,3)              3.3149         estimate D2E/DX2                !
 ! D2    D(8,1,2,44)          -177.2046         estimate D2E/DX2                !
 ! D3    D(43,1,2,3)           179.8237         estimate D2E/DX2                !
 ! D4    D(43,1,2,44)           -0.6958         estimate D2E/DX2                !
 ! D5    D(2,1,8,5)             -3.6909         estimate D2E/DX2                !
 ! D6    D(2,1,8,49)           177.0687         estimate D2E/DX2                !
 ! D7    D(43,1,8,5)           179.9316         estimate D2E/DX2                !
 ! D8    D(43,1,8,49)            0.6912         estimate D2E/DX2                !
 ! D9    D(1,2,3,4)             -2.269          estimate D2E/DX2                !
 ! D10   D(1,2,3,45)           174.614          estimate D2E/DX2                !
 ! D11   D(44,2,3,4)           178.2518         estimate D2E/DX2                !
 ! D12   D(44,2,3,45)           -4.8652         estimate D2E/DX2                !
 ! D13   D(2,3,4,5)              1.3839         estimate D2E/DX2                !
 ! D14   D(2,3,4,9)            179.6597         estimate D2E/DX2                !
 ! D15   D(45,3,4,5)          -175.5538         estimate D2E/DX2                !
 ! D16   D(45,3,4,9)             2.722          estimate D2E/DX2                !
 ! D17   D(3,4,5,6)           -179.3199         estimate D2E/DX2                !
 ! D18   D(3,4,5,8)             -1.5187         estimate D2E/DX2                !
 ! D19   D(9,4,5,6)              2.3129         estimate D2E/DX2                !
 ! D20   D(9,4,5,8)           -179.886          estimate D2E/DX2                !
 ! D21   D(3,4,9,10)          -121.2942         estimate D2E/DX2                !
 ! D22   D(3,4,9,14)            53.2431         estimate D2E/DX2                !
 ! D23   D(5,4,9,10)            56.9686         estimate D2E/DX2                !
 ! D24   D(5,4,9,14)          -128.4941         estimate D2E/DX2                !
 ! D25   D(4,5,6,7)           -133.9592         estimate D2E/DX2                !
 ! D26   D(8,5,6,7)             48.4462         estimate D2E/DX2                !
 ! D27   D(4,5,8,1)              2.8328         estimate D2E/DX2                !
 ! D28   D(4,5,8,49)          -177.9159         estimate D2E/DX2                !
 ! D29   D(6,5,8,1)           -179.5906         estimate D2E/DX2                !
 ! D30   D(6,5,8,49)            -0.3392         estimate D2E/DX2                !
 ! D31   D(5,6,7,46)            43.9107         estimate D2E/DX2                !
 ! D32   D(5,6,7,47)           -73.3661         estimate D2E/DX2                !
 ! D33   D(5,6,7,48)           163.9725         estimate D2E/DX2                !
 ! D34   D(4,9,10,11)           -4.1161         estimate D2E/DX2                !
 ! D35   D(4,9,10,12)         -178.7409         estimate D2E/DX2                !
 ! D36   D(14,9,10,11)        -179.0595         estimate D2E/DX2                !
 ! D37   D(14,9,10,12)           6.3157         estimate D2E/DX2                !
 ! D38   D(4,9,14,13)         -178.6576         estimate D2E/DX2                !
 ! D39   D(10,9,14,13)          -2.7936         estimate D2E/DX2                !
 ! D40   D(9,10,12,13)          -7.402          estimate D2E/DX2                !
 ! D41   D(9,10,12,50)        -176.1911         estimate D2E/DX2                !
 ! D42   D(11,10,12,13)        178.3852         estimate D2E/DX2                !
 ! D43   D(11,10,12,50)          9.5961         estimate D2E/DX2                !
 ! D44   D(10,12,13,14)          4.6493         estimate D2E/DX2                !
 ! D45   D(10,12,13,15)       -178.1778         estimate D2E/DX2                !
 ! D46   D(50,12,13,14)        174.2514         estimate D2E/DX2                !
 ! D47   D(50,12,13,15)         -8.5756         estimate D2E/DX2                !
 ! D48   D(12,13,14,9)          -0.9292         estimate D2E/DX2                !
 ! D49   D(15,13,14,9)        -178.5948         estimate D2E/DX2                !
 ! D50   D(12,13,15,16)        132.2745         estimate D2E/DX2                !
 ! D51   D(12,13,15,22)        -49.3543         estimate D2E/DX2                !
 ! D52   D(14,13,15,16)        -50.7429         estimate D2E/DX2                !
 ! D53   D(14,13,15,22)        127.6283         estimate D2E/DX2                !
 ! D54   D(13,15,16,17)       -177.2095         estimate D2E/DX2                !
 ! D55   D(13,15,16,51)         -5.6063         estimate D2E/DX2                !
 ! D56   D(22,15,16,17)          4.5135         estimate D2E/DX2                !
 ! D57   D(22,15,16,51)        176.1167         estimate D2E/DX2                !
 ! D58   D(13,15,22,19)       -179.4357         estimate D2E/DX2                !
 ! D59   D(13,15,22,56)         -7.7871         estimate D2E/DX2                !
 ! D60   D(16,15,22,19)         -1.0065         estimate D2E/DX2                !
 ! D61   D(16,15,22,56)        170.6421         estimate D2E/DX2                !
 ! D62   D(15,16,17,18)         -6.2599         estimate D2E/DX2                !
 ! D63   D(15,16,17,52)        178.6278         estimate D2E/DX2                !
 ! D64   D(51,16,17,18)       -177.9106         estimate D2E/DX2                !
 ! D65   D(51,16,17,52)          6.9771         estimate D2E/DX2                !
 ! D66   D(16,17,18,19)          4.3317         estimate D2E/DX2                !
 ! D67   D(16,17,18,23)       -174.9777         estimate D2E/DX2                !
 ! D68   D(52,17,18,19)        179.2825         estimate D2E/DX2                !
 ! D69   D(52,17,18,23)         -0.027          estimate D2E/DX2                !
 ! D70   D(17,18,19,20)        179.3138         estimate D2E/DX2                !
 ! D71   D(17,18,19,22)         -0.8809         estimate D2E/DX2                !
 ! D72   D(23,18,19,20)         -1.4331         estimate D2E/DX2                !
 ! D73   D(23,18,19,22)        178.3723         estimate D2E/DX2                !
 ! D74   D(17,18,23,24)         56.3834         estimate D2E/DX2                !
 ! D75   D(17,18,23,28)       -118.3187         estimate D2E/DX2                !
 ! D76   D(19,18,23,24)       -122.8538         estimate D2E/DX2                !
 ! D77   D(19,18,23,28)         62.4441         estimate D2E/DX2                !
 ! D78   D(18,19,20,21)       -139.1264         estimate D2E/DX2                !
 ! D79   D(22,19,20,21)         41.0579         estimate D2E/DX2                !
 ! D80   D(18,19,22,15)         -0.7694         estimate D2E/DX2                !
 ! D81   D(18,19,22,56)       -172.9125         estimate D2E/DX2                !
 ! D82   D(20,19,22,15)        179.0332         estimate D2E/DX2                !
 ! D83   D(20,19,22,56)          6.8901         estimate D2E/DX2                !
 ! D84   D(19,20,21,53)         45.2267         estimate D2E/DX2                !
 ! D85   D(19,20,21,54)        -80.6284         estimate D2E/DX2                !
 ! D86   D(19,20,21,55)        163.7909         estimate D2E/DX2                !
 ! D87   D(18,23,24,25)          1.5946         estimate D2E/DX2                !
 ! D88   D(18,23,24,26)       -178.5209         estimate D2E/DX2                !
 ! D89   D(28,23,24,25)        176.5325         estimate D2E/DX2                !
 ! D90   D(28,23,24,26)         -3.583          estimate D2E/DX2                !
 ! D91   D(18,23,28,27)        178.879          estimate D2E/DX2                !
 ! D92   D(24,23,28,27)          3.111          estimate D2E/DX2                !
 ! D93   D(23,24,26,27)          2.1508         estimate D2E/DX2                !
 ! D94   D(23,24,26,57)        179.0919         estimate D2E/DX2                !
 ! D95   D(25,24,26,27)       -177.9645         estimate D2E/DX2                !
 ! D96   D(25,24,26,57)         -1.0234         estimate D2E/DX2                !
 ! D97   D(24,26,27,28)          0.3701         estimate D2E/DX2                !
 ! D98   D(24,26,27,29)       -177.7256         estimate D2E/DX2                !
 ! D99   D(57,26,27,28)       -176.3421         estimate D2E/DX2                !
 ! D100  D(57,26,27,29)          5.5623         estimate D2E/DX2                !
 ! D101  D(26,27,28,23)         -1.8992         estimate D2E/DX2                !
 ! D102  D(29,27,28,23)        176.3985         estimate D2E/DX2                !
 ! D103  D(26,27,29,30)        -57.2626         estimate D2E/DX2                !
 ! D104  D(26,27,29,36)        125.2491         estimate D2E/DX2                !
 ! D105  D(28,27,29,30)        124.8192         estimate D2E/DX2                !
 ! D106  D(28,27,29,36)        -52.6691         estimate D2E/DX2                !
 ! D107  D(27,29,30,31)       -175.5941         estimate D2E/DX2                !
 ! D108  D(27,29,30,58)         -4.9372         estimate D2E/DX2                !
 ! D109  D(36,29,30,31)          1.974          estimate D2E/DX2                !
 ! D110  D(36,29,30,58)        172.631          estimate D2E/DX2                !
 ! D111  D(27,29,36,33)       -178.0801         estimate D2E/DX2                !
 ! D112  D(27,29,36,63)         -6.4015         estimate D2E/DX2                !
 ! D113  D(30,29,36,33)          4.4075         estimate D2E/DX2                !
 ! D114  D(30,29,36,63)        176.0861         estimate D2E/DX2                !
 ! D115  D(29,30,31,32)         -5.3663         estimate D2E/DX2                !
 ! D116  D(29,30,31,59)       -174.7319         estimate D2E/DX2                !
 ! D117  D(58,30,31,32)       -175.8225         estimate D2E/DX2                !
 ! D118  D(58,30,31,59)         14.8119         estimate D2E/DX2                !
 ! D119  D(30,31,32,33)          2.5287         estimate D2E/DX2                !
 ! D120  D(30,31,32,37)       -175.8611         estimate D2E/DX2                !
 ! D121  D(59,31,32,33)        171.2846         estimate D2E/DX2                !
 ! D122  D(59,31,32,37)         -7.1051         estimate D2E/DX2                !
 ! D123  D(31,32,33,34)       -179.2611         estimate D2E/DX2                !
 ! D124  D(31,32,33,36)          3.8235         estimate D2E/DX2                !
 ! D125  D(37,32,33,34)         -1.0008         estimate D2E/DX2                !
 ! D126  D(37,32,33,36)       -177.9162         estimate D2E/DX2                !
 ! D127  D(31,32,37,38)         62.7644         estimate D2E/DX2                !
 ! D128  D(31,32,37,42)       -117.2842         estimate D2E/DX2                !
 ! D129  D(33,32,37,38)       -115.6134         estimate D2E/DX2                !
 ! D130  D(33,32,37,42)         64.3381         estimate D2E/DX2                !
 ! D131  D(32,33,34,35)       -153.3921         estimate D2E/DX2                !
 ! D132  D(36,33,34,35)         23.3709         estimate D2E/DX2                !
 ! D133  D(32,33,36,29)         -7.2592         estimate D2E/DX2                !
 ! D134  D(32,33,36,63)       -178.5249         estimate D2E/DX2                !
 ! D135  D(34,33,36,29)        175.9101         estimate D2E/DX2                !
 ! D136  D(34,33,36,63)          4.6444         estimate D2E/DX2                !
 ! D137  D(33,34,35,60)         43.2983         estimate D2E/DX2                !
 ! D138  D(33,34,35,61)        -81.0235         estimate D2E/DX2                !
 ! D139  D(33,34,35,62)        168.5156         estimate D2E/DX2                !
 ! D140  D(32,37,38,39)         -0.9822         estimate D2E/DX2                !
 ! D141  D(32,37,38,40)        177.7574         estimate D2E/DX2                !
 ! D142  D(42,37,38,39)        179.0632         estimate D2E/DX2                !
 ! D143  D(42,37,38,40)         -2.1972         estimate D2E/DX2                !
 ! D144  D(32,37,42,41)       -178.1914         estimate D2E/DX2                !
 ! D145  D(38,37,42,41)          1.7704         estimate D2E/DX2                !
 ! D146  D(37,38,40,41)          1.527          estimate D2E/DX2                !
 ! D147  D(37,38,40,64)       -179.2153         estimate D2E/DX2                !
 ! D148  D(39,38,40,41)       -179.771          estimate D2E/DX2                !
 ! D149  D(39,38,40,64)         -0.5132         estimate D2E/DX2                !
 ! D150  D(38,40,41,42)         -0.1022         estimate D2E/DX2                !
 ! D151  D(38,40,41,65)       -178.3299         estimate D2E/DX2                !
 ! D152  D(64,40,41,42)       -179.3171         estimate D2E/DX2                !
 ! D153  D(64,40,41,65)          2.4553         estimate D2E/DX2                !
 ! D154  D(40,41,42,37)         -0.9791         estimate D2E/DX2                !
 ! D155  D(65,41,42,37)        177.5434         estimate D2E/DX2                !
 --------------------------------------------------------------------------------
 Trust Radius=3.00D-01 FncErr=1.00D-07 GrdErr=1.00D-06 EigMax=2.50D+02 EigMin=1.00D-04
 Number of steps in this run=    349 maximum allowed number of steps=    390.
 GradGradGradGradGradGradGradGradGradGradGradGradGradGradGradGradGradGrad

 Leave Link  103 at Sat Jul 25 00:34:27 2020, MaxMem=  4026531840 cpu:               0.1 elap:               0.0
 (Enter /opt/ohpc/pub/libs/gaussian/g16-A.03/sandybridge/g16/l202.exe)
 Stoichiometry    C33H23F3O3S3
 Framework group  C1[X(C33H23F3O3S3)]
 Deg. of freedom   189
 Full point group                 C1      NOp   1
 Largest Abelian subgroup         C1      NOp   1
 Largest concise Abelian subgroup C1      NOp   1
                         Standard orientation:                         
 ---------------------------------------------------------------------
 Center     Atomic      Atomic             Coordinates (Angstroms)
 Number     Number       Type             X           Y           Z
 ---------------------------------------------------------------------
      1          6           0      -11.261454   -1.140675   -0.044770
      2          6           0      -10.341471   -1.970767    0.647261
      3          6           0       -9.072674   -1.567822    0.807269
      4          6           0       -8.596325   -0.408342    0.297769
      5          6           0       -9.515921    0.435382   -0.423224
      6          8           0       -9.011233    1.587307   -0.937655
      7          6           0       -9.853361    2.773768   -0.685659
      8          6           0      -10.811761   -0.015079   -0.570670
      9          6           0       -7.224334    0.045682    0.468995
     10          6           0       -6.639741    1.199970    1.033162
     11          9           0       -7.464359    2.174117    1.471507
     12          6           0       -5.279875    1.293019    0.990413
     13          6           0       -4.670224    0.153149    0.536609
     14         16           0       -5.939628   -1.036973    0.022456
     15          6           0       -3.282240   -0.221163    0.356281
     16          6           0       -2.734743   -1.420246    0.791877
     17          6           0       -1.359536   -1.690032    0.631650
     18          6           0       -0.506364   -0.775048   -0.115923
     19          6           0       -1.106411    0.387717   -0.560351
     20          8           0       -0.285840    1.315357   -1.286988
     21          6           0       -0.471588    2.609163   -0.999730
     22          6           0       -2.505081    0.715336   -0.338230
     23          6           0        0.871542   -1.151715   -0.345246
     24          6           0        1.400085   -2.195301   -0.902223
     25          9           0        0.605721   -3.245731   -1.469301
     26          6           0        2.817205   -2.230522   -0.917142
     27          6           0        3.384674   -1.183796   -0.303167
     28         16           0        2.114061   -0.097730    0.339063
     29          6           0        4.769539   -0.852050   -0.154418
     30          6           0        5.631951   -1.759416    0.453289
     31          6           0        6.956100   -1.363238    0.665592
     32          6           0        7.429519   -0.146253    0.184245
     33          6           0        6.628773    0.735443   -0.465955
     34          8           0        7.139024    1.889928   -0.923703
     35          6           0        6.261394    3.010010   -1.066080
     36          6           0        5.293885    0.426995   -0.571018
     37          6           0        8.886354    0.092619    0.405584
     38          6           0       10.014061   -0.565090   -0.047688
     39          9           0        9.927787   -1.664424   -0.840538
     40          6           0       11.234089    0.027139    0.365321
     41          6           0       11.096253    1.072109    1.127443
     42         16           0        9.354549    1.420723    1.402690
     43          1           0      -12.267282   -1.471928   -0.168874
     44          1           0      -10.687558   -2.980988    1.076197
     45          1           0       -8.369557   -2.188697    1.436458
     46          1           0      -10.227164    2.815654    0.331682
     47          1           0      -10.743382    2.747893   -1.315364
     48          1           0       -9.256992    3.648464   -0.868674
     49          1           0      -11.539578    0.647650   -1.182441
     50          1           0       -4.676303    2.085879    1.430422
     51          1           0       -3.354225   -2.118686    1.397280
     52          1           0       -0.977063   -2.635981    1.011246
     53          1           0       -0.536252    2.856186    0.037156
     54          1           0       -1.318277    3.037442   -1.492572
     55          1           0        0.434856    3.208160   -1.406609
     56          1           0       -2.897007    1.568798   -0.811409
     57          1           0        3.339586   -3.086340   -1.356623
     58          1           0        5.252275   -2.634210    0.862083
     59          1           0        7.629131   -2.126988    1.061940
     60          1           0        5.610784    3.124425   -0.248513
     61          1           0        5.676552    2.900513   -2.067991
     62          1           0        6.873001    3.881933   -1.242874
     63          1           0        4.553300    1.127956   -1.139143
     64          1           0       12.165215   -0.393392    0.060614
     65          1           0       11.840348    1.767871    1.592810
 ---------------------------------------------------------------------
 Rotational constants (GHZ):           0.2720862           0.0168850           0.0163115
 Leave Link  202 at Sat Jul 25 00:34:27 2020, MaxMem=  4026531840 cpu:               0.1 elap:               0.0
 (Enter /opt/ohpc/pub/libs/gaussian/g16-A.03/sandybridge/g16/l301.exe)
 Standard basis: CC-pVDZ (5D, 7F)
 Ernie: Thresh=  0.10000D-02 Tol=  0.10000D-05 Strict=F.
 Ernie:  108 primitive shells out of 1123 were deleted.
 There are   757 symmetry adapted cartesian basis functions of A   symmetry.
 There are   715 symmetry adapted basis functions of A   symmetry.
   715 basis functions,  1661 primitive gaussians,   757 cartesian basis functions
   160 alpha electrons      160 beta electrons
       nuclear repulsion energy      4828.4886311379 Hartrees.
 IExCor=32609 DFT=T Ex+Corr=LC-wPBE ExCW=0 ScaHFX=  1.000000
 ScaDFX=  1.000000  0.000000  1.000000  1.000000 ScalE2=  1.000000  1.000000
 IRadAn=      5 IRanWt=     -1 IRanGd=            0 ICorTp=0 IEmpDi=  4
 HFx  wShort=  0.000000 wLong=  0.431900 cFull=  0.000000 cShort=  0.000000 cLong=  1.000000
 DFx  wShort=  0.000000 wLong=  0.431900 cFull=  0.000000 cShort=  0.000000 cLong=  1.000000
 NAtoms=   65 NActive=   65 NUniq=   65 SFac= 1.00D+00 NAtFMM=   60 NAOKFM=T Big=T
 Integral buffers will be    131072 words long.
 Raffenetti 2 integral format.
 Two-electron integral symmetry is turned on.
 Leave Link  301 at Sat Jul 25 00:34:28 2020, MaxMem=  4026531840 cpu:               0.4 elap:               0.1
 (Enter /opt/ohpc/pub/libs/gaussian/g16-A.03/sandybridge/g16/l302.exe)
 NPDir=0 NMtPBC=     1 NCelOv=     1 NCel=       1 NClECP=     1 NCelD=      1
         NCelK=      1 NCelE2=     1 NClLst=     1 CellRange=     0.0.
 One-electron integrals computed using PRISM.
 One-electron integral symmetry used in STVInt
 NBasis=   715 RedAO= T EigKep=  2.80D-04  NBF=   715
 NBsUse=   715 1.00D-06 EigRej= -1.00D+00 NBFU=   715
 Precomputing XC quadrature grid using
 IXCGrd= 4 IRadAn=           5 IRanWt=          -1 IRanGd=           0 AccXCQ= 0.00D+00.
 Generated NRdTot=       0 NPtTot=           0 NUsed=           0 NTot=          32
 NSgBfM=   674   673   673   674   674 MxSgAt=    65 MxSgA2=    65.
 Leave Link  302 at Sat Jul 25 00:34:29 2020, MaxMem=  4026531840 cpu:              14.8 elap:               1.9
 (Enter /opt/ohpc/pub/libs/gaussian/g16-A.03/sandybridge/g16/l303.exe)
 DipDrv:  MaxL=1.
 Leave Link  303 at Sat Jul 25 00:34:30 2020, MaxMem=  4026531840 cpu:               1.1 elap:               0.2
 (Enter /opt/ohpc/pub/libs/gaussian/g16-A.03/sandybridge/g16/l401.exe)
 ExpMin= 1.22D-01 ExpMax= 1.11D+05 ExpMxC= 1.07D+03 IAcc=3 IRadAn=         5 AccDes= 0.00D+00
 Harris functional with IExCor=32609 and IRadAn=       5 diagonalized for initial guess.
 HarFok:  IExCor=32609 AccDes= 0.00D+00 IRadAn=         5 IDoV= 1 UseB2=F ITyADJ=14
 ICtDFT=  3500011 ScaDFX=  1.000000  1.000000  1.000000  1.000000
 FoFCou: FMM=F IPFlag=           0 FMFlag=      100000 FMFlg1=        2001
         NFxFlg=           0 DoJE=T BraDBF=F KetDBF=T FulRan=T
         wScrn=  0.000000 ICntrl=       500 IOpCl=  0 I1Cent=   200000004 NGrid=           0
         NMat0=    1 NMatS0=      1 NMatT0=    0 NMatD0=    1 NMtDS0=    0 NMtDT0=    0
 Petite list used in FoFCou.
 Harris En= -2989.10197348151    
 JPrj=0 DoOrth=F DoCkMO=F.
 Initial guess <Sx>= 0.0000 <Sy>= 0.0000 <Sz>= 0.0000 <S**2>=-0.0000 S=-0.0000
 Leave Link  401 at Sat Jul 25 00:34:37 2020, MaxMem=  4026531840 cpu:              62.1 elap:               7.8
 (Enter /opt/ohpc/pub/libs/gaussian/g16-A.03/sandybridge/g16/l502.exe)
 Integral symmetry usage will be decided dynamically.
 UHF open shell SCF:
 Using DIIS extrapolation, IDIIS=  1040.
 NGot=  4026531840 LenX=  4025371915 LenY=  4024798109
 Requested convergence on RMS density matrix=1.00D-08 within 128 cycles.
 Requested convergence on MAX density matrix=1.00D-06.
 Requested convergence on             energy=1.00D-06.
 No special actions if energy rises.
 Fock matrices will be formed incrementally for  20 cycles.
 Integral accuracy reduced to 1.0D-05 until final iterations.

 Cycle   1  Pass 0  IDiag  1:
 FoFJK:  IHMeth= 1 ICntrl=       0 DoSepK=T KAlg= 0 I1Cent=           0 FoldK=F
 IRaf=         1 NMat=       1 IRICut=       1 DoRegI=T DoRafI=F ISym2E= 0 IDoP0=0 IntGTp=1.
 FoFCou: FMM=T IPFlag=           0 FMFlag=      100000 FMFlg1=        2001
         NFxFlg=           0 DoJE=T BraDBF=F KetDBF=F FulRan=T
         wScrn=  0.000000 ICntrl=       500 IOpCl=  0 I1Cent=           0 NGrid=           0
         NMat0=    1 NMatS0=      1 NMatT0=    0 NMatD0=    1 NMtDS0=    0 NMtDT0=    0
 Symmetry not used in FoFCou.
 FMM levels:  10  Number of levels for PrismC:   9
 E= -2988.63631497924    
 DIIS: error= 1.50D-02 at cycle   1 NSaved=   1.
 NSaved= 1 IEnMin= 1 EnMin= -2988.63631497924     IErMin= 1 ErrMin= 1.50D-02
 ErrMax= 1.50D-02  0.00D+00 EMaxC= 1.00D-01 BMatC= 3.01D+00 BMatP= 3.01D+00
 IDIUse=3 WtCom= 8.50D-01 WtEn= 1.50D-01
 Coeff-Com:  0.100D+01
 Coeff-En:   0.100D+01
 Coeff:      0.100D+01
 Gap=     0.379 Goal=   None    Shift=    0.000
 Gap=     0.379 Goal=   None    Shift=    0.000
 GapD=    0.379 DampG=1.000 DampE=0.500 DampFc=0.5000 IDamp=-1.
 Damping current iteration by 5.00D-01
 RMSDP=2.49D-03 MaxDP=1.27D-01              OVMax= 1.86D-01

 Cycle   2  Pass 0  IDiag  1:
 RMSU=  1.23D-03    CP:  9.87D-01
 E= -2989.09341704477     Delta-E=       -0.457102065535 Rises=F Damp=T
 DIIS: error= 5.19D-03 at cycle   2 NSaved=   2.
 NSaved= 2 IEnMin= 2 EnMin= -2989.09341704477     IErMin= 2 ErrMin= 5.19D-03
 ErrMax= 5.19D-03  0.00D+00 EMaxC= 1.00D-01 BMatC= 1.95D-01 BMatP= 3.01D+00
 IDIUse=3 WtCom= 9.48D-01 WtEn= 5.19D-02
 Coeff-Com: -0.168D+00 0.117D+01
 Coeff-En:   0.000D+00 0.100D+01
 Coeff:     -0.159D+00 0.116D+01
 Gap=     0.337 Goal=   None    Shift=    0.000
 Gap=     0.337 Goal=   None    Shift=    0.000
 RMSDP=8.51D-04 MaxDP=2.92D-02 DE=-4.57D-01 OVMax= 9.70D-02

 Cycle   3  Pass 0  IDiag  1:
 RMSU=  7.13D-04    CP:  9.77D-01  1.36D+00
 E= -2989.49448256837     Delta-E=       -0.401065523593 Rises=F Damp=F
 DIIS: error= 1.50D-03 at cycle   3 NSaved=   3.
 NSaved= 3 IEnMin= 3 EnMin= -2989.49448256837     IErMin= 3 ErrMin= 1.50D-03
 ErrMax= 1.50D-03  0.00D+00 EMaxC= 1.00D-01 BMatC= 2.92D-02 BMatP= 1.95D-01
 IDIUse=3 WtCom= 9.85D-01 WtEn= 1.50D-02
 Coeff-Com: -0.639D-01 0.307D+00 0.757D+00
 Coeff-En:   0.000D+00 0.000D+00 0.100D+01
 Coeff:     -0.629D-01 0.303D+00 0.760D+00
 Gap=     0.311 Goal=   None    Shift=    0.000
 Gap=     0.311 Goal=   None    Shift=    0.000
 RMSDP=2.03D-04 MaxDP=1.06D-02 DE=-4.01D-01 OVMax= 3.14D-02

 Cycle   4  Pass 0  IDiag  1:
 RMSU=  1.92D-04    CP:  9.77D-01  1.40D+00  9.38D-01
 E= -2989.50219819925     Delta-E=       -0.007715630882 Rises=F Damp=F
 DIIS: error= 9.15D-04 at cycle   4 NSaved=   4.
 NSaved= 4 IEnMin= 4 EnMin= -2989.50219819925     IErMin= 4 ErrMin= 9.15D-04
 ErrMax= 9.15D-04  0.00D+00 EMaxC= 1.00D-01 BMatC= 8.26D-03 BMatP= 2.92D-02
 IDIUse=3 WtCom= 9.91D-01 WtEn= 9.15D-03
 Coeff-Com: -0.133D-02-0.103D-01 0.324D+00 0.687D+00
 Coeff-En:   0.000D+00 0.000D+00 0.000D+00 0.100D+01
 Coeff:     -0.132D-02-0.102D-01 0.321D+00 0.690D+00
 Gap=     0.312 Goal=   None    Shift=    0.000
 Gap=     0.312 Goal=   None    Shift=    0.000
 RMSDP=9.07D-05 MaxDP=5.32D-03 DE=-7.72D-03 OVMax= 1.07D-02

 Cycle   5  Pass 0  IDiag  1:
 RMSU=  6.61D-05    CP:  9.76D-01  1.40D+00  1.02D+00  8.60D-01
 E= -2989.50474732735     Delta-E=       -0.002549128100 Rises=F Damp=F
 DIIS: error= 2.33D-04 at cycle   5 NSaved=   5.
 NSaved= 5 IEnMin= 5 EnMin= -2989.50474732735     IErMin= 5 ErrMin= 2.33D-04
 ErrMax= 2.33D-04  0.00D+00 EMaxC= 1.00D-01 BMatC= 8.01D-04 BMatP= 8.26D-03
 IDIUse=3 WtCom= 9.98D-01 WtEn= 2.33D-03
 Coeff-Com:  0.954D-02-0.430D-01 0.201D-01 0.218D+00 0.796D+00
 Coeff-En:   0.000D+00 0.000D+00 0.000D+00 0.000D+00 0.100D+01
 Coeff:      0.952D-02-0.429D-01 0.200D-01 0.217D+00 0.796D+00
 Gap=     0.314 Goal=   None    Shift=    0.000
 Gap=     0.314 Goal=   None    Shift=    0.000
 RMSDP=4.03D-05 MaxDP=2.12D-03 DE=-2.55D-03 OVMax= 6.32D-03

 Cycle   6  Pass 0  IDiag  1:
 RMSU=  3.11D-05    CP:  9.76D-01  1.40D+00  1.04D+00  9.57D-01  1.09D+00
 E= -2989.50517616888     Delta-E=       -0.000428841528 Rises=F Damp=F
 DIIS: error= 1.39D-04 at cycle   6 NSaved=   6.
 NSaved= 6 IEnMin= 6 EnMin= -2989.50517616888     IErMin= 6 ErrMin= 1.39D-04
 ErrMax= 1.39D-04  0.00D+00 EMaxC= 1.00D-01 BMatC= 1.79D-04 BMatP= 8.01D-04
 IDIUse=3 WtCom= 9.99D-01 WtEn= 1.39D-03
 Coeff-Com:  0.447D-02-0.151D-01-0.483D-01-0.527D-01 0.271D+00 0.841D+00
 Coeff-En:   0.000D+00 0.000D+00 0.000D+00 0.000D+00 0.000D+00 0.100D+01
 Coeff:      0.446D-02-0.151D-01-0.482D-01-0.526D-01 0.270D+00 0.841D+00
 Gap=     0.314 Goal=   None    Shift=    0.000
 Gap=     0.314 Goal=   None    Shift=    0.000
 RMSDP=2.37D-05 MaxDP=1.35D-03 DE=-4.29D-04 OVMax= 4.57D-03

 Cycle   7  Pass 0  IDiag  1:
 RMSU=  1.43D-05    CP:  9.76D-01  1.40D+00  1.05D+00  9.98D-01  1.32D+00
                    CP:  1.13D+00
 E= -2989.50531413998     Delta-E=       -0.000137971104 Rises=F Damp=F
 DIIS: error= 5.91D-05 at cycle   7 NSaved=   7.
 NSaved= 7 IEnMin= 7 EnMin= -2989.50531413998     IErMin= 7 ErrMin= 5.91D-05
 ErrMax= 5.91D-05  0.00D+00 EMaxC= 1.00D-01 BMatC= 3.74D-05 BMatP= 1.79D-04
 IDIUse=1 WtCom= 1.00D+00 WtEn= 0.00D+00
 Coeff-Com: -0.453D-03 0.400D-02-0.147D-01-0.615D-01-0.112D+00 0.250D+00
 Coeff-Com:  0.935D+00
 Coeff:     -0.453D-03 0.400D-02-0.147D-01-0.615D-01-0.112D+00 0.250D+00
 Coeff:      0.935D+00
 Gap=     0.315 Goal=   None    Shift=    0.000
 Gap=     0.315 Goal=   None    Shift=    0.000
 RMSDP=1.59D-05 MaxDP=7.49D-04 DE=-1.38D-04 OVMax= 2.42D-03

 Cycle   8  Pass 0  IDiag  1:
 RMSU=  9.03D-06    CP:  9.76D-01  1.40D+00  1.05D+00  1.02D+00  1.41D+00
                    CP:  1.44D+00  1.33D+00
 E= -2989.50534786858     Delta-E=       -0.000033728598 Rises=F Damp=F
 DIIS: error= 2.45D-05 at cycle   8 NSaved=   8.
 NSaved= 8 IEnMin= 8 EnMin= -2989.50534786858     IErMin= 8 ErrMin= 2.45D-05
 ErrMax= 2.45D-05  0.00D+00 EMaxC= 1.00D-01 BMatC= 7.24D-06 BMatP= 3.74D-05
 IDIUse=1 WtCom= 1.00D+00 WtEn= 0.00D+00
 Coeff-Com: -0.826D-03 0.397D-02 0.313D-02-0.147D-01-0.907D-01-0.471D-01
 Coeff-Com:  0.339D+00 0.807D+00
 Coeff:     -0.826D-03 0.397D-02 0.313D-02-0.147D-01-0.907D-01-0.471D-01
 Coeff:      0.339D+00 0.807D+00
 Gap=     0.315 Goal=   None    Shift=    0.000
 Gap=     0.315 Goal=   None    Shift=    0.000
 RMSDP=1.02D-05 MaxDP=2.98D-04 DE=-3.37D-05 OVMax= 8.97D-04

 Cycle   9  Pass 0  IDiag  1:
 RMSU=  6.89D-06    CP:  9.76D-01  1.40D+00  1.05D+00  1.02D+00  1.45D+00
                    CP:  1.54D+00  1.69D+00  1.41D+00
 E= -2989.50535516345     Delta-E=       -0.000007294875 Rises=F Damp=F
 DIIS: error= 2.12D-05 at cycle   9 NSaved=   9.
 NSaved= 9 IEnMin= 9 EnMin= -2989.50535516345     IErMin= 9 ErrMin= 2.12D-05
 ErrMax= 2.12D-05  0.00D+00 EMaxC= 1.00D-01 BMatC= 1.55D-06 BMatP= 7.24D-06
 IDIUse=1 WtCom= 1.00D+00 WtEn= 0.00D+00
 Coeff-Com: -0.185D-03 0.707D-03 0.311D-02 0.342D-02-0.148D-01-0.501D-01
 Coeff-Com: -0.158D-01 0.252D+00 0.821D+00
 Coeff:     -0.185D-03 0.707D-03 0.311D-02 0.342D-02-0.148D-01-0.501D-01
 Coeff:     -0.158D-01 0.252D+00 0.821D+00
 Gap=     0.315 Goal=   None    Shift=    0.000
 Gap=     0.315 Goal=   None    Shift=    0.000
 RMSDP=1.17D-05 MaxDP=3.19D-04 DE=-7.29D-06 OVMax= 2.93D-04

 Cycle  10  Pass 0  IDiag  1:
 RMSU=  7.14D-06    CP:  9.76D-01  1.40D+00  1.05D+00  1.02D+00  1.45D+00
                    CP:  1.59D+00  1.92D+00  2.13D+00  1.80D+00
 E= -2989.50536008236     Delta-E=       -0.000004918911 Rises=F Damp=F
 DIIS: error= 3.34D-05 at cycle  10 NSaved=  10.
 NSaved=10 IEnMin=10 EnMin= -2989.50536008236     IErMin= 9 ErrMin= 2.12D-05
 ErrMax= 3.34D-05  0.00D+00 EMaxC= 1.00D-01 BMatC= 1.63D-06 BMatP= 1.55D-06
 IDIUse=1 WtCom= 1.00D+00 WtEn= 0.00D+00
 Coeff-Com: -0.154D-03 0.594D-03 0.256D-02 0.274D-02-0.124D-01-0.414D-01
 Coeff-Com: -0.120D-01 0.209D+00 0.673D+00 0.177D+00
 Coeff:     -0.154D-03 0.594D-03 0.256D-02 0.274D-02-0.124D-01-0.414D-01
 Coeff:     -0.120D-01 0.209D+00 0.673D+00 0.177D+00
 Gap=     0.315 Goal=   None    Shift=    0.000
 Gap=     0.315 Goal=   None    Shift=    0.000
 RMSDP=3.15D-06 MaxDP=7.84D-05 DE=-4.92D-06 OVMax= 1.67D-05

 Initial convergence to 1.0D-05 achieved.  Increase integral accuracy.
 Cycle  11  Pass 1  IDiag  1:
 E= -2989.50472950884     Delta-E=        0.000630573528 Rises=F Damp=F
 DIIS: error= 2.06D-04 at cycle   1 NSaved=   1.
 NSaved= 1 IEnMin= 1 EnMin= -2989.50472950884     IErMin= 1 ErrMin= 2.06D-04
 ErrMax= 2.06D-04  0.00D+00 EMaxC= 1.00D-01 BMatC= 1.27D-04 BMatP= 1.27D-04
 IDIUse=3 WtCom= 9.98D-01 WtEn= 2.06D-03
 Coeff-Com:  0.100D+01
 Coeff-En:   0.100D+01
 Coeff:      0.100D+01
 Gap=     0.315 Goal=   None    Shift=    0.000
 Gap=     0.315 Goal=   None    Shift=    0.000
 RMSDP=3.15D-06 MaxDP=7.84D-05 DE= 6.31D-04 OVMax= 5.72D-04

 Cycle  12  Pass 1  IDiag  1:
 RMSU=  1.63D-04    CP:  1.00D+00
 E= -2989.50475576467     Delta-E=       -0.000026255831 Rises=F Damp=F
 DIIS: error= 1.14D-05 at cycle   2 NSaved=   2.
 NSaved= 2 IEnMin= 2 EnMin= -2989.50475576467     IErMin= 2 ErrMin= 1.14D-05
 ErrMax= 1.14D-05  0.00D+00 EMaxC= 1.00D-01 BMatC= 2.76D-07 BMatP= 1.27D-04
 IDIUse=1 WtCom= 1.00D+00 WtEn= 0.00D+00
 Coeff-Com: -0.369D-01 0.104D+01
 Coeff:     -0.369D-01 0.104D+01
 Gap=     0.315 Goal=   None    Shift=    0.000
 Gap=     0.315 Goal=   None    Shift=    0.000
 RMSDP=8.68D-06 MaxDP=5.32D-04 DE=-2.63D-05 OVMax= 6.06D-05

 Cycle  13  Pass 1  IDiag  1:
 RMSU=  2.64D-06    CP:  1.00D+00  1.05D+00
 E= -2989.50475583282     Delta-E=       -0.000000068156 Rises=F Damp=F
 DIIS: error= 1.98D-06 at cycle   3 NSaved=   3.
 NSaved= 3 IEnMin= 3 EnMin= -2989.50475583282     IErMin= 3 ErrMin= 1.98D-06
 ErrMax= 1.98D-06  0.00D+00 EMaxC= 1.00D-01 BMatC= 3.36D-08 BMatP= 2.76D-07
 IDIUse=1 WtCom= 1.00D+00 WtEn= 0.00D+00
 Coeff-Com: -0.104D-01 0.273D+00 0.738D+00
 Coeff:     -0.104D-01 0.273D+00 0.738D+00
 Gap=     0.315 Goal=   None    Shift=    0.000
 Gap=     0.315 Goal=   None    Shift=    0.000
 RMSDP=3.83D-07 MaxDP=2.47D-05 DE=-6.82D-08 OVMax= 2.37D-05

 Cycle  14  Pass 1  IDiag  1:
 RMSU=  2.50D-07    CP:  1.00D+00  1.05D+00  1.08D+00
 E= -2989.50475587360     Delta-E=       -0.000000040781 Rises=F Damp=F
 DIIS: error= 1.22D-06 at cycle   4 NSaved=   4.
 NSaved= 4 IEnMin= 4 EnMin= -2989.50475587360     IErMin= 4 ErrMin= 1.22D-06
 ErrMax= 1.22D-06  0.00D+00 EMaxC= 1.00D-01 BMatC= 1.18D-08 BMatP= 3.36D-08
 IDIUse=1 WtCom= 1.00D+00 WtEn= 0.00D+00
 Coeff-Com:  0.233D-02-0.753D-01 0.346D+00 0.727D+00
 Coeff:      0.233D-02-0.753D-01 0.346D+00 0.727D+00
 Gap=     0.315 Goal=   None    Shift=    0.000
 Gap=     0.315 Goal=   None    Shift=    0.000
 RMSDP=1.96D-07 MaxDP=1.15D-05 DE=-4.08D-08 OVMax= 2.22D-05

 Cycle  15  Pass 1  IDiag  1:
 RMSU=  1.13D-07    CP:  1.00D+00  1.05D+00  1.13D+00  9.50D-01
 E= -2989.50475587830     Delta-E=       -0.000000004700 Rises=F Damp=F
 DIIS: error= 4.48D-07 at cycle   5 NSaved=   5.
 NSaved= 5 IEnMin= 5 EnMin= -2989.50475587830     IErMin= 5 ErrMin= 4.48D-07
 ErrMax= 4.48D-07  0.00D+00 EMaxC= 1.00D-01 BMatC= 8.50D-10 BMatP= 1.18D-08
 IDIUse=1 WtCom= 1.00D+00 WtEn= 0.00D+00
 Coeff-Com:  0.837D-03-0.222D-01-0.545D-01 0.352D-01 0.104D+01
 Coeff:      0.837D-03-0.222D-01-0.545D-01 0.352D-01 0.104D+01
 Gap=     0.315 Goal=   None    Shift=    0.000
 Gap=     0.315 Goal=   None    Shift=    0.000
 RMSDP=6.72D-08 MaxDP=4.46D-06 DE=-4.70D-09 OVMax= 1.19D-05

 Cycle  16  Pass 1  IDiag  1:
 RMSU=  4.08D-08    CP:  1.00D+00  1.05D+00  1.13D+00  1.07D+00  1.36D+00
 E= -2989.50475588142     Delta-E=       -0.000000003110 Rises=F Damp=F
 DIIS: error= 3.07D-07 at cycle   6 NSaved=   6.
 NSaved= 6 IEnMin= 6 EnMin= -2989.50475588142     IErMin= 6 ErrMin= 3.07D-07
 ErrMax= 3.07D-07  0.00D+00 EMaxC= 1.00D-01 BMatC= 3.77D-10 BMatP= 8.50D-10
 IDIUse=1 WtCom= 1.00D+00 WtEn= 0.00D+00
 Coeff-Com: -0.558D-03 0.205D-01-0.173D+00-0.276D+00 0.505D+00 0.924D+00
 Coeff:     -0.558D-03 0.205D-01-0.173D+00-0.276D+00 0.505D+00 0.924D+00
 Gap=     0.315 Goal=   None    Shift=    0.000
 Gap=     0.315 Goal=   None    Shift=    0.000
 RMSDP=5.21D-08 MaxDP=3.61D-06 DE=-3.11D-09 OVMax= 1.29D-05

 Cycle  17  Pass 1  IDiag  1:
 RMSU=  2.32D-08    CP:  1.00D+00  1.05D+00  1.14D+00  1.15D+00  1.69D+00
                    CP:  1.38D+00
 E= -2989.50475588185     Delta-E=       -0.000000000436 Rises=F Damp=F
 DIIS: error= 7.99D-08 at cycle   7 NSaved=   7.
 NSaved= 7 IEnMin= 7 EnMin= -2989.50475588185     IErMin= 7 ErrMin= 7.99D-08
 ErrMax= 7.99D-08  0.00D+00 EMaxC= 1.00D-01 BMatC= 4.00D-11 BMatP= 3.77D-10
 IDIUse=1 WtCom= 1.00D+00 WtEn= 0.00D+00
 Coeff-Com: -0.298D-03 0.997D-02-0.581D-01-0.104D+00 0.549D-01 0.336D+00
 Coeff-Com:  0.761D+00
 Coeff:     -0.298D-03 0.997D-02-0.581D-01-0.104D+00 0.549D-01 0.336D+00
 Coeff:      0.761D+00
 Gap=     0.315 Goal=   None    Shift=    0.000
 Gap=     0.315 Goal=   None    Shift=    0.000
 RMSDP=1.29D-08 MaxDP=7.37D-07 DE=-4.36D-10 OVMax= 2.21D-06

 Cycle  18  Pass 1  IDiag  1:
 RMSU=  5.47D-09    CP:  1.00D+00  1.05D+00  1.14D+00  1.16D+00  1.74D+00
                    CP:  1.60D+00  1.14D+00
 E= -2989.50475588186     Delta-E=       -0.000000000008 Rises=F Damp=F
 DIIS: error= 3.56D-08 at cycle   8 NSaved=   8.
 NSaved= 8 IEnMin= 8 EnMin= -2989.50475588186     IErMin= 8 ErrMin= 3.56D-08
 ErrMax= 3.56D-08  0.00D+00 EMaxC= 1.00D-01 BMatC= 4.82D-12 BMatP= 4.00D-11
 IDIUse=1 WtCom= 1.00D+00 WtEn= 0.00D+00
 Coeff-Com:  0.425D-04-0.179D-02 0.211D-01 0.328D-01-0.892D-01-0.965D-01
 Coeff-Com:  0.179D+00 0.955D+00
 Coeff:      0.425D-04-0.179D-02 0.211D-01 0.328D-01-0.892D-01-0.965D-01
 Coeff:      0.179D+00 0.955D+00
 Gap=     0.315 Goal=   None    Shift=    0.000
 Gap=     0.315 Goal=   None    Shift=    0.000
 RMSDP=6.22D-09 MaxDP=3.86D-07 DE=-8.19D-12 OVMax= 1.07D-06

 SCF Done:  E(ULC-wPBE) =  -2989.50475588     A.U. after   18 cycles
            NFock= 18  Conv=0.62D-08     -V/T= 2.0048
 <Sx>= 0.0000 <Sy>= 0.0000 <Sz>= 0.0000 <S**2>=-0.0000 S=-0.0000
 <L.S>= 0.000000000000E+00
 KE= 2.975272972529D+03 PE=-1.668865899230D+04 EE= 5.895392632754D+03
 Annihilation of the first spin contaminant:
 S**2 before annihilation    -0.0000,   after     0.0000
 Leave Link  502 at Sat Jul 25 00:42:16 2020, MaxMem=  4026531840 cpu:            3589.6 elap:             458.4
 (Enter /opt/ohpc/pub/libs/gaussian/g16-A.03/sandybridge/g16/l601.exe)
 Copying SCF densities to generalized density rwf, IOpCl= 1 IROHF=0.

 **********************************************************************

            Population analysis using the SCF density.

 **********************************************************************

 Orbital symmetries:
 Alpha Orbitals:
       Occupied  (A) (A) (A) (A) (A) (A) (A) (A) (A) (A) (A) (A)
                 (A) (A) (A) (A) (A) (A) (A) (A) (A) (A) (A) (A)
                 (A) (A) (A) (A) (A) (A) (A) (A) (A) (A) (A) (A)
                 (A) (A) (A) (A) (A) (A) (A) (A) (A) (A) (A) (A)
                 (A) (A) (A) (A) (A) (A) (A) (A) (A) (A) (A) (A)
                 (A) (A) (A) (A) (A) (A) (A) (A) (A) (A) (A) (A)
                 (A) (A) (A) (A) (A) (A) (A) (A) (A) (A) (A) (A)
                 (A) (A) (A) (A) (A) (A) (A) (A) (A) (A) (A) (A)
                 (A) (A) (A) (A) (A) (A) (A) (A) (A) (A) (A) (A)
                 (A) (A) (A) (A) (A) (A) (A) (A) (A) (A) (A) (A)
                 (A) (A) (A) (A) (A) (A) (A) (A) (A) (A) (A) (A)
                 (A) (A) (A) (A) (A) (A) (A) (A) (A) (A) (A) (A)
                 (A) (A) (A) (A) (A) (A) (A) (A) (A) (A) (A) (A)
                 (A) (A) (A) (A)
       Virtual   (A) (A) (A) (A) (A) (A) (A) (A) (A) (A) (A) (A)
                 (A) (A) (A) (A) (A) (A) (A) (A) (A) (A) (A) (A)
                 (A) (A) (A) (A) (A) (A) (A) (A) (A) (A) (A) (A)
                 (A) (A) (A) (A) (A) (A) (A) (A) (A) (A) (A) (A)
                 (A) (A) (A) (A) (A) (A) (A) (A) (A) (A) (A) (A)
                 (A) (A) (A) (A) (A) (A) (A) (A) (A) (A) (A) (A)
                 (A) (A) (A) (A) (A) (A) (A) (A) (A) (A) (A) (A)
                 (A) (A) (A) (A) (A) (A) (A) (A) (A) (A) (A) (A)
                 (A) (A) (A) (A) (A) (A) (A) (A) (A) (A) (A) (A)
                 (A) (A) (A) (A) (A) (A) (A) (A) (A) (A) (A) (A)
                 (A) (A) (A) (A) (A) (A) (A) (A) (A) (A) (A) (A)
                 (A) (A) (A) (A) (A) (A) (A) (A) (A) (A) (A) (A)
                 (A) (A) (A) (A) (A) (A) (A) (A) (A) (A) (A) (A)
                 (A) (A) (A) (A) (A) (A) (A) (A) (A) (A) (A) (A)
                 (A) (A) (A) (A) (A) (A) (A) (A) (A) (A) (A) (A)
                 (A) (A) (A) (A) (A) (A) (A) (A) (A) (A) (A) (A)
                 (A) (A) (A) (A) (A) (A) (A) (A) (A) (A) (A) (A)
                 (A) (A) (A) (A) (A) (A) (A) (A) (A) (A) (A) (A)
                 (A) (A) (A) (A) (A) (A) (A) (A) (A) (A) (A) (A)
                 (A) (A) (A) (A) (A) (A) (A) (A) (A) (A) (A) (A)
                 (A) (A) (A) (A) (A) (A) (A) (A) (A) (A) (A) (A)
                 (A) (A) (A) (A) (A) (A) (A) (A) (A) (A) (A) (A)
                 (A) (A) (A) (A) (A) (A) (A) (A) (A) (A) (A) (A)
                 (A) (A) (A) (A) (A) (A) (A) (A) (A) (A) (A) (A)
                 (A) (A) (A) (A) (A) (A) (A) (A) (A) (A) (A) (A)
                 (A) (A) (A) (A) (A) (A) (A) (A) (A) (A) (A) (A)
                 (A) (A) (A) (A) (A) (A) (A) (A) (A) (A) (A) (A)
                 (A) (A) (A) (A) (A) (A) (A) (A) (A) (A) (A) (A)
                 (A) (A) (A) (A) (A) (A) (A) (A) (A) (A) (A) (A)
                 (A) (A) (A) (A) (A) (A) (A) (A) (A) (A) (A) (A)
                 (A) (A) (A) (A) (A) (A) (A) (A) (A) (A) (A) (A)
                 (A) (A) (A) (A) (A) (A) (A) (A) (A) (A) (A) (A)
                 (A) (A) (A) (A) (A) (A) (A) (A) (A) (A) (A) (A)
                 (A) (A) (A) (A) (A) (A) (A) (A) (A) (A) (A) (A)
                 (A) (A) (A) (A) (A) (A) (A) (A) (A) (A) (A) (A)
                 (A) (A) (A) (A) (A) (A) (A) (A) (A) (A) (A) (A)
                 (A) (A) (A) (A) (A) (A) (A) (A) (A) (A) (A) (A)
                 (A) (A) (A) (A) (A) (A) (A) (A) (A) (A) (A) (A)
                 (A) (A) (A) (A) (A) (A) (A) (A) (A) (A) (A) (A)
                 (A) (A) (A) (A) (A) (A) (A) (A) (A) (A) (A) (A)
                 (A) (A) (A) (A) (A) (A) (A) (A) (A) (A) (A) (A)
                 (A) (A) (A) (A) (A) (A) (A) (A) (A) (A) (A) (A)
                 (A) (A) (A) (A) (A) (A) (A) (A) (A) (A) (A) (A)
                 (A) (A) (A) (A) (A) (A) (A) (A) (A) (A) (A) (A)
                 (A) (A) (A) (A) (A) (A) (A) (A) (A) (A) (A) (A)
                 (A) (A) (A) (A) (A) (A) (A) (A) (A) (A) (A) (A)
                 (A) (A) (A)
 Beta  Orbitals:
       Occupied  (A) (A) (A) (A) (A) (A) (A) (A) (A) (A) (A) (A)
                 (A) (A) (A) (A) (A) (A) (A) (A) (A) (A) (A) (A)
                 (A) (A) (A) (A) (A) (A) (A) (A) (A) (A) (A) (A)
                 (A) (A) (A) (A) (A) (A) (A) (A) (A) (A) (A) (A)
                 (A) (A) (A) (A) (A) (A) (A) (A) (A) (A) (A) (A)
                 (A) (A) (A) (A) (A) (A) (A) (A) (A) (A) (A) (A)
                 (A) (A) (A) (A) (A) (A) (A) (A) (A) (A) (A) (A)
                 (A) (A) (A) (A) (A) (A) (A) (A) (A) (A) (A) (A)
                 (A) (A) (A) (A) (A) (A) (A) (A) (A) (A) (A) (A)
                 (A) (A) (A) (A) (A) (A) (A) (A) (A) (A) (A) (A)
                 (A) (A) (A) (A) (A) (A) (A) (A) (A) (A) (A) (A)
                 (A) (A) (A) (A) (A) (A) (A) (A) (A) (A) (A) (A)
                 (A) (A) (A) (A) (A) (A) (A) (A) (A) (A) (A) (A)
                 (A) (A) (A) (A)
       Virtual   (A) (A) (A) (A) (A) (A) (A) (A) (A) (A) (A) (A)
                 (A) (A) (A) (A) (A) (A) (A) (A) (A) (A) (A) (A)
                 (A) (A) (A) (A) (A) (A) (A) (A) (A) (A) (A) (A)
                 (A) (A) (A) (A) (A) (A) (A) (A) (A) (A) (A) (A)
                 (A) (A) (A) (A) (A) (A) (A) (A) (A) (A) (A) (A)
                 (A) (A) (A) (A) (A) (A) (A) (A) (A) (A) (A) (A)
                 (A) (A) (A) (A) (A) (A) (A) (A) (A) (A) (A) (A)
                 (A) (A) (A) (A) (A) (A) (A) (A) (A) (A) (A) (A)
                 (A) (A) (A) (A) (A) (A) (A) (A) (A) (A) (A) (A)
                 (A) (A) (A) (A) (A) (A) (A) (A) (A) (A) (A) (A)
                 (A) (A) (A) (A) (A) (A) (A) (A) (A) (A) (A) (A)
                 (A) (A) (A) (A) (A) (A) (A) (A) (A) (A) (A) (A)
                 (A) (A) (A) (A) (A) (A) (A) (A) (A) (A) (A) (A)
                 (A) (A) (A) (A) (A) (A) (A) (A) (A) (A) (A) (A)
                 (A) (A) (A) (A) (A) (A) (A) (A) (A) (A) (A) (A)
                 (A) (A) (A) (A) (A) (A) (A) (A) (A) (A) (A) (A)
                 (A) (A) (A) (A) (A) (A) (A) (A) (A) (A) (A) (A)
                 (A) (A) (A) (A) (A) (A) (A) (A) (A) (A) (A) (A)
                 (A) (A) (A) (A) (A) (A) (A) (A) (A) (A) (A) (A)
                 (A) (A) (A) (A) (A) (A) (A) (A) (A) (A) (A) (A)
                 (A) (A) (A) (A) (A) (A) (A) (A) (A) (A) (A) (A)
                 (A) (A) (A) (A) (A) (A) (A) (A) (A) (A) (A) (A)
                 (A) (A) (A) (A) (A) (A) (A) (A) (A) (A) (A) (A)
                 (A) (A) (A) (A) (A) (A) (A) (A) (A) (A) (A) (A)
                 (A) (A) (A) (A) (A) (A) (A) (A) (A) (A) (A) (A)
                 (A) (A) (A) (A) (A) (A) (A) (A) (A) (A) (A) (A)
                 (A) (A) (A) (A) (A) (A) (A) (A) (A) (A) (A) (A)
                 (A) (A) (A) (A) (A) (A) (A) (A) (A) (A) (A) (A)
                 (A) (A) (A) (A) (A) (A) (A) (A) (A) (A) (A) (A)
                 (A) (A) (A) (A) (A) (A) (A) (A) (A) (A) (A) (A)
                 (A) (A) (A) (A) (A) (A) (A) (A) (A) (A) (A) (A)
                 (A) (A) (A) (A) (A) (A) (A) (A) (A) (A) (A) (A)
                 (A) (A) (A) (A) (A) (A) (A) (A) (A) (A) (A) (A)
                 (A) (A) (A) (A) (A) (A) (A) (A) (A) (A) (A) (A)
                 (A) (A) (A) (A) (A) (A) (A) (A) (A) (A) (A) (A)
                 (A) (A) (A) (A) (A) (A) (A) (A) (A) (A) (A) (A)
                 (A) (A) (A) (A) (A) (A) (A) (A) (A) (A) (A) (A)
                 (A) (A) (A) (A) (A) (A) (A) (A) (A) (A) (A) (A)
                 (A) (A) (A) (A) (A) (A) (A) (A) (A) (A) (A) (A)
                 (A) (A) (A) (A) (A) (A) (A) (A) (A) (A) (A) (A)
                 (A) (A) (A) (A) (A) (A) (A) (A) (A) (A) (A) (A)
                 (A) (A) (A) (A) (A) (A) (A) (A) (A) (A) (A) (A)
                 (A) (A) (A) (A) (A) (A) (A) (A) (A) (A) (A) (A)
                 (A) (A) (A) (A) (A) (A) (A) (A) (A) (A) (A) (A)
                 (A) (A) (A) (A) (A) (A) (A) (A) (A) (A) (A) (A)
                 (A) (A) (A) (A) (A) (A) (A) (A) (A) (A) (A) (A)
                 (A) (A) (A)
 The electronic state is 1-A.
 Alpha  occ. eigenvalues --  -88.34235 -88.34175 -88.33575 -24.51468 -24.51331
 Alpha  occ. eigenvalues --  -24.50409 -19.03411 -19.02422 -19.02340 -10.22324
 Alpha  occ. eigenvalues --  -10.22316 -10.22160 -10.22087 -10.20958 -10.20409
 Alpha  occ. eigenvalues --  -10.19958 -10.19003 -10.18905 -10.18797 -10.18220
 Alpha  occ. eigenvalues --  -10.17842 -10.17818 -10.17787 -10.17738 -10.17475
 Alpha  occ. eigenvalues --  -10.17310 -10.17114 -10.16791 -10.16146 -10.15929
 Alpha  occ. eigenvalues --  -10.15801 -10.15610 -10.15516 -10.15433 -10.15378
 Alpha  occ. eigenvalues --  -10.15326 -10.14650 -10.14339 -10.14253 -10.14217
 Alpha  occ. eigenvalues --  -10.14200 -10.14154  -7.94898  -7.94797  -7.94299
 Alpha  occ. eigenvalues --   -5.96347  -5.96190  -5.95833  -5.95717  -5.95690
 Alpha  occ. eigenvalues --   -5.95254  -5.95246  -5.95193  -5.94699  -1.35586
 Alpha  occ. eigenvalues --   -1.35318  -1.32100  -1.23157  -1.22202  -1.20695
 Alpha  occ. eigenvalues --   -1.07761  -1.06647  -1.06296  -1.04222  -1.03729
 Alpha  occ. eigenvalues --   -1.02786  -0.97978  -0.96021  -0.94455  -0.92415
 Alpha  occ. eigenvalues --   -0.91841  -0.91360  -0.91019  -0.90029  -0.89841
 Alpha  occ. eigenvalues --   -0.88638  -0.87415  -0.86828  -0.85809  -0.84995
 Alpha  occ. eigenvalues --   -0.83997  -0.80120  -0.78573  -0.77408  -0.76003
 Alpha  occ. eigenvalues --   -0.75418  -0.74354  -0.72522  -0.71925  -0.71214
 Alpha  occ. eigenvalues --   -0.70773  -0.70549  -0.70237  -0.68831  -0.68381
 Alpha  occ. eigenvalues --   -0.67434  -0.65690  -0.64960  -0.64035  -0.63671
 Alpha  occ. eigenvalues --   -0.63254  -0.62849  -0.62115  -0.61627  -0.61156
 Alpha  occ. eigenvalues --   -0.61038  -0.60647  -0.59957  -0.59886  -0.59464
 Alpha  occ. eigenvalues --   -0.59074  -0.58918  -0.58718  -0.58331  -0.57798
 Alpha  occ. eigenvalues --   -0.57403  -0.57058  -0.56914  -0.56678  -0.56196
 Alpha  occ. eigenvalues --   -0.55388  -0.54822  -0.54621  -0.53815  -0.52991
 Alpha  occ. eigenvalues --   -0.52599  -0.52509  -0.51746  -0.51059  -0.50802
 Alpha  occ. eigenvalues --   -0.50590  -0.50126  -0.49770  -0.49691  -0.49424
 Alpha  occ. eigenvalues --   -0.48797  -0.48742  -0.48347  -0.47720  -0.47225
 Alpha  occ. eigenvalues --   -0.46688  -0.46436  -0.46128  -0.45850  -0.45424
 Alpha  occ. eigenvalues --   -0.43869  -0.42140  -0.41820  -0.39351  -0.38859
 Alpha  occ. eigenvalues --   -0.37915  -0.36846  -0.36576  -0.36209  -0.35247
 Alpha  occ. eigenvalues --   -0.34668  -0.34135  -0.33691  -0.32344  -0.30252
 Alpha virt. eigenvalues --    0.01246   0.03243   0.05742   0.06056   0.07269
 Alpha virt. eigenvalues --    0.07549   0.08464   0.09249   0.09754   0.11332
 Alpha virt. eigenvalues --    0.12770   0.13142   0.14702   0.15035   0.15722
 Alpha virt. eigenvalues --    0.16167   0.16599   0.16845   0.17124   0.17210
 Alpha virt. eigenvalues --    0.17442   0.17896   0.18457   0.18631   0.19649
 Alpha virt. eigenvalues --    0.19805   0.20441   0.20922   0.21103   0.21436
 Alpha virt. eigenvalues --    0.21730   0.21998   0.22169   0.22394   0.22474
 Alpha virt. eigenvalues --    0.22938   0.22968   0.23381   0.23557   0.23910
 Alpha virt. eigenvalues --    0.24504   0.25051   0.25303   0.26397   0.27160
[...]
     2 C(13)  Bbb     0.0000     0.000     0.000     0.000 -0.5702  0.1583  0.8061
              Bcc     0.0000     0.000     0.000     0.000  0.4551  0.8778  0.1496
 
              Baa    -0.0000    -0.000    -0.000    -0.000  0.7459 -0.5164 -0.4207
     3 C(13)  Bbb    -0.0000    -0.000    -0.000    -0.000  0.6194  0.3053  0.7233
              Bcc     0.0000     0.000     0.000     0.000  0.2451  0.8001 -0.5476
 
              Baa    -0.0000    -0.000    -0.000    -0.000  0.9627 -0.0019 -0.2707
     4 C(13)  Bbb     0.0000     0.000     0.000     0.000  0.2675  0.1601  0.9502
              Bcc     0.0000     0.000     0.000     0.000 -0.0416  0.9871 -0.1546
 
              Baa    -0.0000    -0.000    -0.000    -0.000  0.9290  0.0164  0.3698
     5 C(13)  Bbb    -0.0000    -0.000    -0.000    -0.000 -0.3564  0.3092  0.8817
              Bcc     0.0000     0.000     0.000     0.000  0.0999  0.9509 -0.2931
 
              Baa    -0.0000     0.000     0.000     0.000  0.9977  0.0062 -0.0673
     6 O(17)  Bbb    -0.0000     0.000     0.000     0.000  0.0655  0.1542  0.9859
              Bcc     0.0000    -0.000    -0.000    -0.000 -0.0165  0.9880 -0.1535
 
              Baa    -0.0000    -0.000    -0.000    -0.000  0.8159 -0.3950 -0.4222
     7 C(13)  Bbb     0.0000     0.000     0.000     0.000  0.5778  0.5328  0.6182
              Bcc     0.0000     0.000     0.000     0.000  0.0192  0.7484 -0.6630
 
              Baa    -0.0000    -0.000    -0.000    -0.000  0.9654  0.0077  0.2606
     8 C(13)  Bbb     0.0000     0.000     0.000     0.000  0.1424  0.8219 -0.5515
              Bcc     0.0000     0.000     0.000     0.000 -0.2184  0.5695  0.7924
 
              Baa    -0.0000    -0.000    -0.000    -0.000  0.0684  0.3516  0.9337
     9 C(13)  Bbb    -0.0000    -0.000    -0.000    -0.000  0.2703  0.8943 -0.3566
              Bcc     0.0000     0.000     0.000     0.000  0.9603 -0.2768  0.0339
 
              Baa    -0.0000    -0.000    -0.000    -0.000  0.9147 -0.0332 -0.4028
    10 C(13)  Bbb    -0.0000    -0.000    -0.000    -0.000  0.3682 -0.3431  0.8641
              Bcc     0.0000     0.000     0.000     0.000  0.1669  0.9387  0.3016
 
              Baa    -0.0000    -0.000    -0.000    -0.000  0.1294  0.8057  0.5780
    11 F(19)  Bbb     0.0000     0.000     0.000     0.000  0.9872 -0.0500 -0.1513
              Bcc     0.0000     0.000     0.000     0.000  0.0930 -0.5902  0.8019
 
              Baa    -0.0000    -0.000    -0.000    -0.000 -0.0512  0.9670 -0.2497
    12 C(13)  Bbb    -0.0000    -0.000    -0.000    -0.000 -0.2693  0.2274  0.9358
              Bcc     0.0000     0.000     0.000     0.000  0.9617  0.1152  0.2487
 
              Baa    -0.0000    -0.000    -0.000    -0.000  0.8512  0.1842  0.4914
    13 C(13)  Bbb    -0.0000    -0.000    -0.000    -0.000 -0.5245  0.2689  0.8078
              Bcc     0.0000     0.000     0.000     0.000 -0.0166  0.9454 -0.3255
 
              Baa    -0.0000    -0.000    -0.000    -0.000  0.8231 -0.2672 -0.5011
    14 S(33)  Bbb     0.0000     0.000     0.000     0.000  0.2622  0.9615 -0.0820
              Bcc     0.0000     0.000     0.000     0.000  0.5037 -0.0639  0.8615
 
              Baa    -0.0000    -0.000    -0.000    -0.000  0.1021  0.0183  0.9946
    15 C(13)  Bbb     0.0000     0.000     0.000     0.000 -0.4481  0.8935  0.0296
              Bcc     0.0000     0.000     0.000     0.000  0.8881  0.4487 -0.0995
 
              Baa    -0.0000    -0.000    -0.000    -0.000 -0.4875  0.6541  0.5784
    16 C(13)  Bbb    -0.0000    -0.000    -0.000    -0.000  0.8731  0.3684  0.3193
              Bcc     0.0000     0.000     0.000     0.000  0.0042 -0.6606  0.7507
 
              Baa    -0.0000    -0.000    -0.000    -0.000  0.0944 -0.2065  0.9739
    17 C(13)  Bbb    -0.0000    -0.000    -0.000    -0.000  0.3887  0.9083  0.1549
              Bcc     0.0000     0.000     0.000     0.000  0.9165 -0.3639 -0.1660
 
              Baa    -0.0000    -0.000    -0.000    -0.000  0.9246  0.2970 -0.2385
    18 C(13)  Bbb     0.0000     0.000     0.000     0.000 -0.0926  0.7825  0.6157
              Bcc     0.0000     0.000     0.000     0.000  0.3695 -0.5472  0.7510
 
              Baa    -0.0000    -0.000    -0.000    -0.000  0.8263  0.2730  0.4926
    19 C(13)  Bbb    -0.0000    -0.000    -0.000    -0.000 -0.3839 -0.3670  0.8473
              Bcc     0.0000     0.000     0.000     0.000 -0.4121  0.8893  0.1985
 
              Baa    -0.0000     0.000     0.000     0.000  0.0741  0.1588  0.9845
    20 O(17)  Bbb    -0.0000     0.000     0.000     0.000  0.3122  0.9339 -0.1741
              Bcc     0.0000    -0.000    -0.000    -0.000  0.9471 -0.3203 -0.0196
 
              Baa    -0.0000    -0.000    -0.000    -0.000  0.0631 -0.0470  0.9969
    21 C(13)  Bbb    -0.0000    -0.000    -0.000    -0.000 -0.0957  0.9940  0.0529
              Bcc     0.0000     0.000     0.000     0.000  0.9934  0.0987 -0.0582
 
              Baa    -0.0000    -0.000    -0.000    -0.000  0.9659 -0.0863 -0.2440
    22 C(13)  Bbb     0.0000     0.000     0.000     0.000  0.2547  0.1487  0.9555
              Bcc     0.0000     0.000     0.000     0.000  0.0462  0.9851 -0.1656
 
              Baa    -0.0000    -0.000    -0.000    -0.000 -0.5575  0.8120  0.1730
    23 C(13)  Bbb    -0.0000    -0.000    -0.000    -0.000  0.8275  0.5603  0.0370
              Bcc     0.0000     0.000     0.000     0.000  0.0669 -0.1638  0.9842
 
              Baa    -0.0000    -0.000    -0.000    -0.000 -0.1587 -0.6515  0.7418
    24 C(13)  Bbb    -0.0000    -0.000    -0.000    -0.000  0.9255  0.1635  0.3416
              Bcc     0.0000     0.000     0.000     0.000 -0.3439  0.7408  0.5770
 
              Baa    -0.0000    -0.000    -0.000    -0.000  0.1745 -0.1066  0.9789
    25 F(19)  Bbb    -0.0000    -0.000    -0.000    -0.000  0.4311  0.9021  0.0214
              Bcc     0.0000     0.000     0.000     0.000  0.8853 -0.4182 -0.2034
 
              Baa    -0.0000    -0.000    -0.000    -0.000  0.1292 -0.4753  0.8703
    26 C(13)  Bbb    -0.0000    -0.000    -0.000    -0.000  0.9912  0.0859 -0.1003
              Bcc     0.0000     0.000     0.000     0.000 -0.0270  0.8756  0.4823
 
              Baa    -0.0000    -0.000    -0.000    -0.000  0.9117  0.1723  0.3729
    27 C(13)  Bbb     0.0000     0.000     0.000     0.000 -0.4060  0.2390  0.8821
              Bcc     0.0000     0.000     0.000     0.000 -0.0629  0.9556 -0.2878
 
              Baa    -0.0000    -0.000    -0.000    -0.000  0.9542 -0.2989  0.0150
    28 S(33)  Bbb    -0.0000    -0.000    -0.000    -0.000  0.2918  0.9403  0.1751
              Bcc     0.0000     0.000     0.000     0.000 -0.0664 -0.1627  0.9844
 
              Baa    -0.0000    -0.000    -0.000    -0.000 -0.5626  0.7858  0.2569
    29 C(13)  Bbb     0.0000     0.000     0.000     0.000 -0.1096 -0.3788  0.9190
              Bcc     0.0000     0.000     0.000     0.000  0.8194  0.4889  0.2993
 
              Baa    -0.0000    -0.000    -0.000    -0.000  0.0265  0.9984  0.0498
    30 C(13)  Bbb    -0.0000    -0.000    -0.000    -0.000  0.8940 -0.0014 -0.4481
              Bcc     0.0000     0.000     0.000     0.000  0.4473 -0.0564  0.8926
 
              Baa    -0.0000    -0.000    -0.000    -0.000 -0.0008 -0.6252  0.7804
    31 C(13)  Bbb    -0.0000    -0.000    -0.000    -0.000 -0.4028  0.7145  0.5720
              Bcc     0.0000     0.000     0.000     0.000  0.9153  0.3139  0.2524
 
              Baa    -0.0000    -0.000    -0.000    -0.000  0.9449  0.1341 -0.2986
    32 C(13)  Bbb     0.0000     0.000     0.000     0.000 -0.2076  0.9508 -0.2299
              Bcc     0.0000     0.000     0.000     0.000  0.2531  0.2792  0.9263
 
              Baa    -0.0000    -0.000    -0.000    -0.000 -0.0196 -0.0447  0.9988
    33 C(13)  Bbb    -0.0000    -0.000    -0.000    -0.000  0.0829  0.9955  0.0462
              Bcc     0.0000     0.000     0.000     0.000  0.9964 -0.0837  0.0158
 
              Baa    -0.0000     0.000     0.000     0.000 -0.0724 -0.3711  0.9258
    34 O(17)  Bbb    -0.0000     0.000     0.000     0.000  0.4560  0.8132  0.3616
              Bcc     0.0000    -0.000    -0.000    -0.000  0.8870 -0.4483 -0.1103
 
              Baa    -0.0000    -0.000    -0.000    -0.000  0.1998  0.9798  0.0083
    35 C(13)  Bbb    -0.0000    -0.000    -0.000    -0.000 -0.2456  0.0419  0.9685
              Bcc     0.0000     0.000     0.000     0.000  0.9486 -0.1955  0.2490
 
              Baa    -0.0000    -0.000    -0.000    -0.000  0.4344 -0.5264  0.7309
    36 C(13)  Bbb    -0.0000    -0.000    -0.000    -0.000  0.8725  0.4476 -0.1961
              Bcc     0.0000     0.000     0.000     0.000 -0.2240  0.7229  0.6537
 
              Baa    -0.0000    -0.000    -0.000    -0.000  0.5101 -0.1075  0.8534
    37 C(13)  Bbb     0.0000     0.000     0.000     0.000 -0.4681  0.7977  0.3803
              Bcc     0.0000     0.000     0.000     0.000  0.7216  0.5934 -0.3566
 
              Baa    -0.0000    -0.000    -0.000    -0.000  0.9317 -0.2194  0.2895
    38 C(13)  Bbb     0.0000     0.000     0.000     0.000  0.3138  0.8875 -0.3374
              Bcc     0.0000     0.000     0.000     0.000 -0.1829  0.4052  0.8958
 
              Baa    -0.0000    -0.000    -0.000    -0.000 -0.2821 -0.3933  0.8750
    39 F(19)  Bbb    -0.0000    -0.000    -0.000    -0.000  0.8015  0.4046  0.4403
              Bcc     0.0000     0.000     0.000     0.000 -0.5272  0.8256  0.2011
 
              Baa    -0.0000    -0.000    -0.000    -0.000  0.2820  0.9384  0.1998
    40 C(13)  Bbb     0.0000     0.000     0.000     0.000  0.0445 -0.2208  0.9743
              Bcc     0.0000     0.000     0.000     0.000  0.9584 -0.2658 -0.1040
 
              Baa    -0.0000    -0.000    -0.000    -0.000  0.8625  0.4752 -0.1741
    41 C(13)  Bbb     0.0000     0.000     0.000     0.000 -0.4796  0.6577 -0.5809
              Bcc     0.0000     0.000     0.000     0.000 -0.1616  0.5845  0.7951
 
              Baa    -0.0000    -0.000    -0.000    -0.000  0.2983  0.8706  0.3912
    42 S(33)  Bbb    -0.0000    -0.000    -0.000    -0.000 -0.1108 -0.3755  0.9202
              Bcc     0.0000     0.000     0.000     0.000  0.9480 -0.3179 -0.0155
 
              Baa    -0.0000    -0.000    -0.000    -0.000  0.8424  0.5363  0.0528
    43 H(1)   Bbb     0.0000     0.000     0.000     0.000 -0.0837  0.0335  0.9959
              Bcc     0.0000     0.000     0.000     0.000 -0.5324  0.8433 -0.0731
 
              Baa    -0.0000    -0.000    -0.000    -0.000 -0.0193  0.3840  0.9231
    44 H(1)   Bbb     0.0000     0.000     0.000     0.000  0.9131 -0.3694  0.1727
              Bcc     0.0000     0.000     0.000     0.000  0.4073  0.8462 -0.3435
 
              Baa    -0.0000    -0.000    -0.000    -0.000 -0.3759 -0.6314  0.6782
    45 H(1)   Bbb    -0.0000    -0.000    -0.000    -0.000  0.4967  0.4806  0.7227
              Bcc     0.0000     0.000     0.000     0.000  0.7823 -0.6086 -0.1330
 
              Baa    -0.0000    -0.000    -0.000    -0.000 -0.4783  0.2275  0.8482
    46 H(1)   Bbb    -0.0000    -0.000    -0.000    -0.000  0.4932  0.8687  0.0451
              Bcc     0.0000     0.000     0.000     0.000  0.7266 -0.4399  0.5277
 
              Baa    -0.0000    -0.000    -0.000    -0.000 -0.4537  0.0414  0.8902
    47 H(1)   Bbb    -0.0000    -0.000    -0.000    -0.000 -0.1115  0.9884 -0.1028
              Bcc     0.0000     0.000     0.000     0.000  0.8841  0.1458  0.4439
 
              Baa    -0.0000    -0.000    -0.000    -0.000  0.9109  0.2367 -0.3380
    48 H(1)   Bbb     0.0000     0.000     0.000     0.000  0.2886  0.2200  0.9318
              Bcc     0.0000     0.000     0.000     0.000 -0.2950  0.9463 -0.1320
 
              Baa    -0.0000    -0.000    -0.000    -0.000 -0.3173  0.8926 -0.3202
    49 H(1)   Bbb     0.0000     0.000     0.000     0.000  0.0346  0.3484  0.9367
              Bcc     0.0000     0.000     0.000     0.000  0.9477  0.2861 -0.1414
 
              Baa    -0.0000    -0.000    -0.000    -0.000  0.0161 -0.3769  0.9261
    50 H(1)   Bbb    -0.0000    -0.000    -0.000    -0.000  0.9037 -0.3908 -0.1748
              Bcc     0.0000     0.000     0.000     0.000  0.4278  0.8398  0.3343
 
              Baa    -0.0000    -0.000    -0.000    -0.000  0.7860 -0.6152 -0.0619
    51 H(1)   Bbb    -0.0000    -0.000    -0.000    -0.000 -0.4175 -0.6019  0.6807
              Bcc     0.0000     0.000     0.000     0.000  0.4560  0.5091  0.7299
 
              Baa    -0.0000    -0.000    -0.000    -0.000  0.1478  0.0916  0.9848
    52 H(1)   Bbb     0.0000     0.000     0.000     0.000  0.9622 -0.2438 -0.1217
              Bcc     0.0000     0.000     0.000     0.000  0.2289  0.9655 -0.1241
 
              Baa    -0.0000    -0.000    -0.000    -0.000  0.7208 -0.6722  0.1691
    53 H(1)   Bbb    -0.0000    -0.000    -0.000    -0.000  0.6622  0.5957 -0.4545
              Bcc     0.0000     0.000     0.000     0.000  0.2048  0.4396  0.8745
 
              Baa    -0.0000    -0.000    -0.000    -0.000  0.7885 -0.5408 -0.2929
    54 H(1)   Bbb    -0.0000    -0.000    -0.000    -0.000  0.5990  0.7834  0.1660
              Bcc     0.0000     0.000     0.000     0.000  0.1397 -0.3064  0.9416
 
              Baa    -0.0000    -0.000    -0.000    -0.000  0.2626 -0.0230  0.9646
    55 H(1)   Bbb    -0.0000    -0.000    -0.000    -0.000 -0.6725  0.7126  0.2000
              Bcc     0.0000     0.000     0.000     0.000  0.6920  0.7012 -0.1716
 
              Baa    -0.0000    -0.000    -0.000    -0.000  0.7022  0.2728 -0.6576
    56 H(1)   Bbb    -0.0000    -0.000    -0.000    -0.000  0.6335  0.1822  0.7520
              Bcc     0.0000     0.000     0.000     0.000 -0.3250  0.9446  0.0449
 
              Baa    -0.0000    -0.000    -0.000    -0.000  0.6346  0.2953  0.7142
    57 H(1)   Bbb    -0.0000    -0.000    -0.000    -0.000 -0.5575 -0.4651  0.6877
              Bcc     0.0000     0.000     0.000     0.000 -0.5352  0.8346  0.1305
 
              Baa    -0.0000    -0.000    -0.000    -0.000  0.3755  0.8809 -0.2881
    58 H(1)   Bbb     0.0000     0.000     0.000     0.000  0.7756 -0.1285  0.6181
              Bcc     0.0000     0.000     0.000     0.000 -0.5074  0.4556  0.7314
 
              Baa    -0.0000    -0.000    -0.000    -0.000  0.9324  0.1410  0.3329
    59 H(1)   Bbb    -0.0000    -0.000    -0.000    -0.000 -0.3590  0.2521  0.8987
              Bcc     0.0000     0.000     0.000     0.000 -0.0428  0.9574 -0.2857
 
              Baa    -0.0000    -0.000    -0.000    -0.000  0.0035  0.1713  0.9852
    60 H(1)   Bbb    -0.0000    -0.000    -0.000    -0.000  0.1725  0.9704 -0.1693
              Bcc     0.0000     0.000     0.000     0.000  0.9850 -0.1705  0.0261
 
              Baa    -0.0000    -0.000    -0.000    -0.000 -0.0257  0.2121  0.9769
    61 H(1)   Bbb     0.0000     0.000     0.000     0.000  0.8963  0.4377 -0.0715
              Bcc     0.0000     0.000     0.000     0.000 -0.4428  0.8737 -0.2014
 
              Baa    -0.0000    -0.000    -0.000    -0.000  0.9741  0.2222 -0.0420
    62 H(1)   Bbb    -0.0000    -0.000    -0.000    -0.000 -0.0362  0.3367  0.9409
              Bcc     0.0000     0.000     0.000     0.000 -0.2233  0.9150 -0.3360
 
              Baa    -0.0000    -0.000    -0.000    -0.000  0.9299  0.1993 -0.3090
    63 H(1)   Bbb    -0.0000    -0.000    -0.000    -0.000  0.1992  0.4333  0.8790
              Bcc     0.0000     0.000     0.000     0.000 -0.3091  0.8789 -0.3632
 
              Baa    -0.0000    -0.000    -0.000    -0.000  0.6219  0.7821 -0.0399
    64 H(1)   Bbb    -0.0000    -0.000    -0.000    -0.000  0.0326  0.0250  0.9992
              Bcc     0.0000     0.000     0.000     0.000  0.7824 -0.6227 -0.0100
 
              Baa    -0.0000    -0.000    -0.000    -0.000  0.7060  0.6820  0.1907
    65 H(1)   Bbb     0.0000     0.000     0.000     0.000 -0.2526 -0.0090  0.9675
              Bcc     0.0000     0.000     0.000     0.000 -0.6616  0.7313 -0.1659
 

 ---------------------------------------------------------------------------------

 No NMR shielding tensors so no spin-rotation constants.
 Leave Link  601 at Sat Jul 25 03:18:54 2020, MaxMem=  4026531840 cpu:               8.2 elap:               1.2
 (Enter /opt/ohpc/pub/libs/gaussian/g16-A.03/sandybridge/g16/l9999.exe)

 Test job not archived.
 1\1\GINC-SKYLAKE041\FOpt\ULC-wPBE\CC-pVDZ\C33H23F3O3S3\RDU230\25-Jul-2
 020\0\\#P uLC-wPBE/cc-pVDZ iop(3/107=0431900000, 3/108=0431900000) opt
 \\H23 C33 S3 O3 F3\\0,1\C,-11.2926253807,-1.1645615186,0.1402442795\C,
 -10.3726391766,-2.0051910977,0.74075342\C,-9.0497396342,-1.5959719279,
 0.8409191573\C,-8.6306620138,-0.3664803113,0.3480937698\C,-9.572957196
 2,0.4707239216,-0.2737841294\O,-9.1017982572,1.6354634228,-0.764368239
 2\C,-10.0114192567,2.5316231707,-1.3490510231\C,-10.900675587,0.068521
 7962,-0.3664881453\C,-7.2221042221,0.0446590183,0.4574221689\C,-6.6953
 085586,1.1993904217,0.9449163167\F,-7.4341096685,2.1963268737,1.433203
 0566\C,-5.2805654239,1.266113551,0.9389354825\C,-4.7219288229,0.128335
 3092,0.4367972218\S,-5.9379868048,-0.995570477,-0.0367689288\C,-3.2939
 598087,-0.1836051996,0.2724999624\C,-2.8171553308,-1.4837561723,0.3815
 002732\C,-1.4651491253,-1.7447509006,0.230078216\C,-0.5422443195,-0.73
 56233157,-0.0329777722\C,-1.0343279169,0.5790636296,-0.1313328786\O,-0
 .1149310487,1.5397621747,-0.3757188815\C,-0.5342215008,2.8784531519,-0
 .4634297214\C,-2.3872682323,0.8447228754,0.0125602539\C,0.8835609249,-
 1.0567371452,-0.2004314021\C,1.4259303782,-2.2625516758,-0.5456761328\
 F,0.6960403119,-3.3382202875,-0.8689826813\C,2.8364842602,-2.328230096
 5,-0.5526124925\C,3.3908924225,-1.1340555439,-0.2010015355\S,2.1806265
 288,0.0445663707,0.1194828853\C,4.8211046314,-0.8040748694,-0.10437863
 12\C,5.7404663374,-1.7684520682,0.2898705404\C,7.0870914291,-1.4543116
 041,0.3688113997\C,7.5686556953,-0.1832708717,0.065665876\C,6.62810920
 45,0.7899808639,-0.3163363391\O,7.1222854016,2.0178818262,-0.588465210
 7\C,6.2345141437,3.0462610311,-0.94991721\C,5.2793292254,0.4791511639,
 -0.4038499495\C,9.009606937,0.105720096,0.1491347359\C,10.0369971618,-
 0.7906311257,0.0585475958\F,9.862981201,-2.0944853218,-0.1969287577\C,
 11.3354115356,-0.2634073103,0.2563715975\C,11.2768785919,1.0691960043,
 0.5056634077\S,9.6793061634,1.6680096619,0.476416137\H,-12.3375455541,
 -1.4642534138,0.0573766513\H,-10.6790682432,-2.9716286592,1.1384088001
 \H,-8.3149491096,-2.2396578142,1.3257643443\H,-10.7861223548,2.8459874
 595,-0.6336208411\H,-10.4929801084,2.0994436922,-2.2393753692\H,-9.427
 1771006,3.4066100087,-1.6493695581\H,-11.6397997151,0.7092299696,-0.84
 18852328\H,-4.7224309525,2.1121218543,1.3318207273\H,-3.5000047962,-2.
 3015581403,0.6093896964\H,-1.1115381249,-2.7676266883,0.3290726187\H,-
 1.0050701287,3.2162188823,0.4717615723\H,-1.2336871737,3.0277226317,-1
 .2991709658\H,0.3689367851,3.4690724425,-0.6437301192\H,-2.76064161,1.
 8593349021,-0.1004043683\H,3.3915117056,-3.2167035429,-0.8414152301\H,
 5.4021393282,-2.7667273955,0.5629051803\H,7.7902131546,-2.2197680998,0
 .6870178708\H,5.4987837157,3.2417652842,-0.1556769028\H,5.7071423901,2
 .8120678612,-1.8864469914\H,6.8487560418,3.9392601453,-1.0989966798\H,
 4.5660483295,1.2328235799,-0.7298817685\H,12.2410018735,-0.8615751806,
 0.204220392\H,12.108064448,1.7458957271,0.6843074817\\Version=EM64L-G1
 6RevA.03\State=1-A\HF=-2989.6259472\S2=0.\S2-1=0.\S2A=0.\RMSD=6.467e-0
 9\RMSF=2.332e-06\Dipole=-0.4744639,1.6872644,-0.3937811\Quadrupole=17.
 0658281,3.6723098,-20.738138,3.7190626,8.5660347,-7.681184\PG=C01 [X(C
 33H23F3O3S3)]\\@


 TELEVISION IS CALLED A MEDIUM BECAUSE IT ISN'T
 RARE, AND IT ISN'T WELL DONE.
 Job cpu time:       0 days 21 hours 28 minutes 17.2 seconds.
 Elapsed time:       0 days  2 hours 44 minutes 25.1 seconds.
 File lengths (MBytes):  RWF=    616 Int=      0 D2E=      0 Chk=     56 Scr=      8
 Normal termination of Gaussian 16 at Sat Jul 25 03:18:54 2020.
