 Entering Gaussian System, Link 0=g16
 Input=mols_66_7_14_n-n-cF-cOC_opt_0.gjf
 Output=mols_66_7_14_n-n-cF-cOC_opt_0.log
 Initial command:
 /opt/ohpc/pub/libs/gaussian/g16-A.03/sandybridge/g16/l1.exe "/mnt/gpfs2_4m/scratch/rdu230/ondemand/projects/dihedral_energies/7trial/wtuning/mols_66_7_14_n-n-cF-cOC/Gau-448747.inp" -scrdir="/mnt/gpfs2_4m/scratch/rdu230/ondemand/projects/dihedral_energies/7trial/wtuning/mols_66_7_14_n-n-cF-cOC/"
 Entering Link 1 = /opt/ohpc/pub/libs/gaussian/g16-A.03/sandybridge/g16/l1.exe PID=    448748.
  
 Copyright (c) 1988,1990,1992,1993,1995,1998,2003,2009,2016,
            Gaussian, Inc.  All Rights Reserved.
  
 This is part of the Gaussian(R) 16 program.  It is based on
 the Gaussian(R) 09 system (copyright 2009, Gaussian, Inc.),
 the Gaussian(R) 03 system (copyright 2003, Gaussian, Inc.),
 the Gaussian(R) 98 system (copyright 1998, Gaussian, Inc.),
 the Gaussian(R) 94 system (copyright 1995, Gaussian, Inc.),
 the Gaussian 92(TM) system (copyright 1992, Gaussian, Inc.),
 the Gaussian 90(TM) system (copyright 1990, Gaussian, Inc.),
 the Gaussian 88(TM) system (copyright 1988, Gaussian, Inc.),
 the Gaussian 86(TM) system (copyright 1986, Carnegie Mellon
 University), and the Gaussian 82(TM) system (copyright 1983,
 Carnegie Mellon University). Gaussian is a federally registered
 trademark of Gaussian, Inc.
  
 This software contains proprietary and confidential information,
 including trade secrets, belonging to Gaussian, Inc.
  
 This software is provided under written license and may be
 used, copied, transmitted, or stored only in accord with that
 written license.
  
 The following legend is applicable only to US Government
 contracts under FAR:
  
                    RESTRICTED RIGHTS LEGEND
  
 Use, reproduction and disclosure by the US Government is
 subject to restrictions as set forth in subparagraphs (a)
 and (c) of the Commercial Computer Software - Restricted
 Rights clause in FAR 52.227-19.
  
 Gaussian, Inc.
 340 Quinnipiac St., Bldg. 40, Wallingford CT 06492
  
  
 ---------------------------------------------------------------
 Warning -- This program may not be used in any manner that
 competes with the business of Gaussian, Inc. or will provide
 assistance to any competitor of Gaussian, Inc.  The licensee
 of this program is prohibited from giving any competitor of
 Gaussian, Inc. access to this program.  By using this program,
 the user acknowledges that Gaussian, Inc. is engaged in the
 business of creating and licensing software in the field of
 computational chemistry and represents and warrants to the
 licensee that it is not a competitor of Gaussian, Inc. and that
 it will not use this program in any manner prohibited above.
 ---------------------------------------------------------------
  

 Cite this work as:
 Gaussian 16, Revision A.03,
 M. J. Frisch, G. W. Trucks, H. B. Schlegel, G. E. Scuseria, 
 M. A. Robb, J. R. Cheeseman, G. Scalmani, V. Barone, 
 G. A. Petersson, H. Nakatsuji, X. Li, M. Caricato, A. V. Marenich, 
 J. Bloino, B. G. Janesko, R. Gomperts, B. Mennucci, H. P. Hratchian, 
 J. V. Ortiz, A. F. Izmaylov, J. L. Sonnenberg, D. Williams-Young, 
 F. Ding, F. Lipparini, F. Egidi, J. Goings, B. Peng, A. Petrone, 
 T. Henderson, D. Ranasinghe, V. G. Zakrzewski, J. Gao, N. Rega, 
 G. Zheng, W. Liang, M. Hada, M. Ehara, K. Toyota, R. Fukuda, 
 J. Hasegawa, M. Ishida, T. Nakajima, Y. Honda, O. Kitao, H. Nakai, 
 T. Vreven, K. Throssell, J. A. Montgomery, Jr., J. E. Peralta, 
 F. Ogliaro, M. J. Bearpark, J. J. Heyd, E. N. Brothers, K. N. Kudin, 
 V. N. Staroverov, T. A. Keith, R. Kobayashi, J. Normand, 
 K. Raghavachari, A. P. Rendell, J. C. Burant, S. S. Iyengar, 
 J. Tomasi, M. Cossi, J. M. Millam, M. Klene, C. Adamo, R. Cammi, 
 J. W. Ochterski, R. L. Martin, K. Morokuma, O. Farkas, 
 J. B. Foresman, and D. J. Fox, Gaussian, Inc., Wallingford CT, 2016.
 
 ******************************************
 Gaussian 16:  EM64L-G16RevA.03 25-Dec-2016
                24-Jul-2020 
 ******************************************
 %mem=30GB
 %nproc=8
 Will use up to    8 processors via shared memory.
 ---------------------------------------------------------------
 #P uLC-wPBE/cc-pVDZ iop(3/107=0487400000, 3/108=0487400000) opt
 ---------------------------------------------------------------
 1/18=20,19=15,26=3,38=1/1,3;
 2/9=110,12=2,17=6,18=5,40=1/2;
 3/5=16,11=2,25=1,30=1,71=1,74=-41,107=487400000,108=487400000,116=2/1,2,3;
 4//1;
 5/5=2,38=5/2;
 6/7=2,8=2,9=2,10=2,28=1/1;
 7//1,2,3,16;
 1/18=20,19=15,26=3/3(2);
 2/9=110/2;
 99//99;
 2/9=110/2;
 3/5=16,11=2,25=1,30=1,71=1,74=-41,107=487400000,108=487400000,116=2/1,2,3;
 4/5=5,16=3,69=1/1;
 5/5=2,38=5/2;
 7//1,2,3,16;
 1/18=20,19=15,26=3/3(-5);
 2/9=110/2;
 6/7=2,8=2,9=2,10=2,19=2,28=1/1;
 99/9=1/99;
 Leave Link    1 at Fri Jul 24 16:27:18 2020, MaxMem=  4026531840 cpu:               1.3 elap:               0.2
 (Enter /opt/ohpc/pub/libs/gaussian/g16-A.03/sandybridge/g16/l101.exe)
 -----------------
 H51 C77 N14 O7 F7
 -----------------
 Symbolic Z-matrix:
 Charge =  0 Multiplicity = 1
 C                    -28.60977  -1.36266   0.19066 
 C                    -28.18938  -0.18266  -0.55539 
 C                    -26.77943   0.02034  -0.56604 
 F                    -26.43196   1.14262  -1.22837 
 C                    -25.8719  -0.83629  -0.02157 
 N                    -26.33049  -1.94507   0.69799 
 C                    -27.65538  -2.1421    0.70911 
 C                    -24.4833  -0.67497  -0.05004 
 N                    -23.80542  -1.27766  -1.09682 
 C                    -22.4872  -1.13725  -1.14299 
 C                    -21.72525  -0.43231  -0.24423 
 C                    -22.41804   0.2442    0.72548 
 C                    -23.7761   0.22309   0.81365 
 O                    -24.50225   0.86944   1.77379 
 C                    -23.87852   1.58226   2.7795 
 C                    -20.25416  -0.39755  -0.42735 
 C                    -19.42665  -1.03615   0.55422 
 C                    -18.04539  -0.92435   0.36816 
 F                    -17.27112  -1.55629   1.31065 
 C                    -17.471   -0.15065  -0.58614 
 N                    -18.28714   0.51862  -1.50281 
 C                    -19.68358   0.37616  -1.40447 
 C                    -16.03743   0.03996  -0.75675 
 N                    -15.28149  -1.07572  -0.65477 
 C                    -13.9561  -1.01835  -0.60768 
 C                    -13.33099   0.214    -0.56278 
 C                    -14.05046   1.41451  -0.71354 
 C                    -15.41833   1.30202  -0.7498 
 O                    -16.28558   2.43428  -0.66249 
 C                    -15.79127   3.48504  -1.57312 
 C                    -11.84086   0.32829  -0.3982 
 C                    -10.94861   0.25649  -1.38754 
 C                    -9.56273   0.2219   -1.15792 
 F                    -8.68851   0.10145  -2.16692 
 C                    -9.13913   0.33233   0.22404 
 N                    -9.98548   0.51566   1.23872 
 C                    -11.36995   0.4912    0.94305 
 C                    -7.70925   0.41797   0.54455 
 N                    -6.99991   1.52318   0.21144 
 C                    -5.66474   1.52976   0.48756 
 C                    -4.99037   0.41594   0.95912 
 C                    -5.71718  -0.71323   1.2969 
 C                    -7.12472  -0.78168   1.12973 
 O                    -7.81671  -1.84366   1.32886 
 C                    -7.98574  -2.09204   2.77537 
 C                    -3.46094   0.45989   1.08133 
 C                    -2.69859  -0.67443   0.7255 
 C                    -1.35574  -0.51923   0.63906 
 F                    -0.61804  -1.54109   0.24123 
 C                    -0.68795   0.68636   1.00991 
 N                    -1.46621   1.70254   1.43583 
 C                    -2.75503   1.60753   1.45258 
 C                     0.70154   0.83777   0.78649 
 N                     1.4619    0.16663   1.68666 
 C                     2.79474   0.13899   1.42638 
 C                     3.49735   0.82093   0.35358 
 C                     2.64023   1.5684   -0.49057 
 C                     1.20695   1.54107  -0.25385 
 O                     0.4244    2.24121  -1.14587 
 C                     0.37473   3.59431  -0.80112 
 C                     4.89306   0.62184   0.1115 
 C                     5.45984   0.46917  -1.1669 
 C                     6.79061   0.21024  -1.37031 
 F                     7.22717   0.05144  -2.66388 
 C                     7.59706   0.25568  -0.24962 
 N                     7.22001   0.42009   1.00653 
 C                     5.81671   0.62747   1.14748 
 C                     9.09686  -0.03816  -0.4388 
 N                     9.92863   1.02376  -0.21101 
 C                     11.18033   0.7489   -0.29393 
 C                     11.82638  -0.48196  -0.62599 
 C                     10.92817  -1.52818  -0.86256 
 C                     9.51826  -1.3859   -0.78647 
 O                     8.58771  -2.366    -0.92927 
 C                     9.02602  -3.70413  -1.04812 
 C                     13.21506  -0.71395  -0.71313 
 C                     13.90258  -0.44058  -1.85577 
 C                     15.31425  -0.49476  -1.84884 
 F                     15.96336  -0.27139  -3.02948 
 C                     16.04712  -0.83201  -0.68214 
 N                     15.33035  -1.04176   0.47591 
 C                     13.96806  -0.95732   0.49347 
 C                     17.47766  -0.82957  -0.58206 
 N                     17.98513   0.39169  -0.32259 
 C                     19.29346   0.56504  -0.15464 
 C                     20.23099  -0.51944  -0.2425 
 C                     19.69591  -1.79521  -0.61164 
 C                     18.26992  -1.87283  -0.73121 
 O                     17.75947  -3.11088  -1.06817 
 C                     17.73557  -3.95993   0.03703 
 C                     21.61647  -0.35381   0.05279 
 C                     22.05363   0.0565    1.32767 
 C                     23.40817   0.21821   1.5061 
 F                     23.79915   0.65501   2.73677 
 C                     24.3753   0.06044   0.52556 
 N                     23.96875  -0.34904  -0.77535 
 C                     22.67362  -0.56792  -0.96514 
 C                     25.7186   0.37956   0.75125 
 N                     26.44744  -0.66421   1.26507 
 C                     27.71318  -0.41322   1.6006 
 C                     28.36279   0.82762   1.40607 
 C                     27.60487   1.84698   0.86131 
 C                     26.24084   1.59539   0.57031 
 O                     25.43133   2.64855   0.07571 
 C                     26.03594   3.59707  -0.71414 
 H                    -29.67436  -1.53413   0.20435 
 H                    -28.84992   0.48818  -0.99894 
 H                    -27.91435  -3.10197   1.22849 
 H                    -22.00969  -1.79992  -1.96795 
 H                    -21.78723   0.8952    1.34815 
 H                    -23.28152   2.38177   2.33201 
 H                    -23.21114   0.9327    3.39066 
 H                    -24.59721   1.92803   3.46504 
 H                    -19.90853  -1.59247   1.35041 
 H                    -20.24135   0.96246  -2.1665 
 H                    -13.42737  -1.91916  -0.61355 
 H                    -13.59334   2.3471   -0.65662 
 H                    -15.00205   4.06841  -1.02595 
 H                    -15.48278   3.09909  -2.53857 
 H                    -16.71378   4.1576   -1.73043 
 H                    -11.25562   0.09922  -2.38404 
 H                    -11.9806   0.49066   1.78474 
 H                    -5.1856    2.38039   0.17743 
 H                    -5.20219  -1.59626   1.71526 
 H                    -8.685    -2.93083   2.89503 
 H                    -8.30296  -1.2684    3.24393 
 H                    -7.08305  -2.47929   3.17445 
 H                    -3.22212  -1.58647   0.38501 
 H                    -3.37077   2.52527   1.79478 
 H                     3.45747  -0.45565   2.13694 
 H                     3.02104   2.11425  -1.34373 
 H                    -0.35784   4.07388  -1.55978 
 H                    -0.04313   3.74078   0.22439 
 H                     1.31872   4.1296   -0.94038 
 H                     4.75586   0.45028  -2.08008 
 H                     5.56977   0.78698   2.22842 
 H                     11.83497   1.63464  -0.07692 
 H                     11.26858  -2.56672  -1.09634 
 H                     9.53197  -3.97258  -0.11179 
 H                     8.12088  -4.36806  -1.05284 
 H                     9.63825  -3.86647  -1.8826 
 H                     13.43237  -0.18671  -2.77635 
 H                     13.54439  -1.15274   1.41417 
 H                     19.71123   1.49388   0.07152 
 H                     20.32805  -2.68344  -0.75279 
 H                     18.7391  -4.1624    0.4023 
 H                     17.11991  -3.60025   0.87257 
 H                     17.26637  -4.94749  -0.2543 
 H                     21.34847   0.21133   2.13251 
 H                     22.37318  -0.84585  -1.94937 
 H                     28.31179  -1.30604   2.00459 
 H                     29.41145   0.97491   1.80543 
 H                     28.0134   2.82715   0.8534 
 H                     25.3039   4.18755  -1.16498 
 H                     26.55171   4.35586  -0.01254 
 H                     26.68684   3.19691  -1.4738 
 
 ITRead=  0  0  0  0  0  0  0  0  0  0  0  0  0  0  0  0  0  0  0  0
 ITRead=  0  0  0  0  0  0  0  0  0  0  0  0  0  0  0  0  0  0  0  0
 ITRead=  0  0  0  0  0  0  0  0  0  0  0  0  0  0  0  0  0  0  0  0
 ITRead=  0  0  0  0  0  0  0  0  0  0  0  0  0  0  0  0  0  0  0  0
 ITRead=  0  0  0  0  0  0  0  0  0  0  0  0  0  0  0  0  0  0  0  0
 ITRead=  0  0  0  0  0  0  0  0  0  0  0  0  0  0  0  0  0  0  0  0
 ITRead=  0  0  0  0  0  0  0  0  0  0  0  0  0  0  0  0  0  0  0  0
 ITRead=  0  0  0  0  0  0  0  0  0  0  0  0  0  0  0  0
 MicOpt= -1 -1 -1 -1 -1 -1 -1 -1 -1 -1 -1 -1 -1 -1 -1 -1 -1 -1 -1 -1
 MicOpt= -1 -1 -1 -1 -1 -1 -1 -1 -1 -1 -1 -1 -1 -1 -1 -1 -1 -1 -1 -1
 MicOpt= -1 -1 -1 -1 -1 -1 -1 -1 -1 -1 -1 -1 -1 -1 -1 -1 -1 -1 -1 -1
 MicOpt= -1 -1 -1 -1 -1 -1 -1 -1 -1 -1 -1 -1 -1 -1 -1 -1 -1 -1 -1 -1
 MicOpt= -1 -1 -1 -1 -1 -1 -1 -1 -1 -1 -1 -1 -1 -1 -1 -1 -1 -1 -1 -1
 MicOpt= -1 -1 -1 -1 -1 -1 -1 -1 -1 -1 -1 -1 -1 -1 -1 -1 -1 -1 -1 -1
 MicOpt= -1 -1 -1 -1 -1 -1 -1 -1 -1 -1 -1 -1 -1 -1 -1 -1 -1 -1 -1 -1
 MicOpt= -1 -1 -1 -1 -1 -1 -1 -1 -1 -1 -1 -1 -1 -1 -1 -1
 NAtoms=    156 NQM=      156 NQMF=       0 NMMI=      0 NMMIF=      0
                NMic=       0 NMicF=      0.
                    Isotopes and Nuclear Properties:
 (Nuclear quadrupole moments (NQMom) in fm**2, nuclear magnetic moments (NMagM)
  in nuclear magnetons)

  Atom         1           2           3           4           5           6           7           8           9          10
 IAtWgt=          12          12          12          19          12          14          12          12          14          12
 AtmWgt=  12.0000000  12.0000000  12.0000000  18.9984033  12.0000000  14.0030740  12.0000000  12.0000000  14.0030740  12.0000000
 NucSpn=           0           0           0           1           0           2           0           0           2           0
 AtZEff=  -0.0000000  -0.0000000  -0.0000000  -0.0000000  -0.0000000  -0.0000000  -0.0000000  -0.0000000  -0.0000000  -0.0000000
 NQMom=    0.0000000   0.0000000   0.0000000   0.0000000   0.0000000   2.0440000   0.0000000   0.0000000   2.0440000   0.0000000
 NMagM=    0.0000000   0.0000000   0.0000000   2.6288670   0.0000000   0.4037610   0.0000000   0.0000000   0.4037610   0.0000000
 AtZNuc=   6.0000000   6.0000000   6.0000000   9.0000000   6.0000000   7.0000000   6.0000000   6.0000000   7.0000000   6.0000000

  Atom        11          12          13          14          15          16          17          18          19          20
 IAtWgt=          12          12          12          16          12          12          12          12          19          12
 AtmWgt=  12.0000000  12.0000000  12.0000000  15.9949146  12.0000000  12.0000000  12.0000000  12.0000000  18.9984033  12.0000000
 NucSpn=           0           0           0           0           0           0           0           0           1           0
 AtZEff=  -0.0000000  -0.0000000  -0.0000000  -0.0000000  -0.0000000  -0.0000000  -0.0000000  -0.0000000  -0.0000000  -0.0000000
 NQMom=    0.0000000   0.0000000   0.0000000   0.0000000   0.0000000   0.0000000   0.0000000   0.0000000   0.0000000   0.0000000
 NMagM=    0.0000000   0.0000000   0.0000000   0.0000000   0.0000000   0.0000000   0.0000000   0.0000000   2.6288670   0.0000000
 AtZNuc=   6.0000000   6.0000000   6.0000000   8.0000000   6.0000000   6.0000000   6.0000000   6.0000000   9.0000000   6.0000000

  Atom        21          22          23          24          25          26          27          28          29          30
 IAtWgt=          14          12          12          14          12          12          12          12          16          12
 AtmWgt=  14.0030740  12.0000000  12.0000000  14.0030740  12.0000000  12.0000000  12.0000000  12.0000000  15.9949146  12.0000000
 NucSpn=           2           0           0           2           0           0           0           0           0           0
 AtZEff=  -0.0000000  -0.0000000  -0.0000000  -0.0000000  -0.0000000  -0.0000000  -0.0000000  -0.0000000  -0.0000000  -0.0000000
 NQMom=    2.0440000   0.0000000   0.0000000   2.0440000   0.0000000   0.0000000   0.0000000   0.0000000   0.0000000   0.0000000
 NMagM=    0.4037610   0.0000000   0.0000000   0.4037610   0.0000000   0.0000000   0.0000000   0.0000000   0.0000000   0.0000000
 AtZNuc=   7.0000000   6.0000000   6.0000000   7.0000000   6.0000000   6.0000000   6.0000000   6.0000000   8.0000000   6.0000000

  Atom        31          32          33          34          35          36          37          38          39          40
 IAtWgt=          12          12          12          19          12          14          12          12          14          12
 AtmWgt=  12.0000000  12.0000000  12.0000000  18.9984033  12.0000000  14.0030740  12.0000000  12.0000000  14.0030740  12.0000000
 NucSpn=           0           0           0           1           0           2           0           0           2           0
 AtZEff=  -0.0000000  -0.0000000  -0.0000000  -0.0000000  -0.0000000  -0.0000000  -0.0000000  -0.0000000  -0.0000000  -0.0000000
 NQMom=    0.0000000   0.0000000   0.0000000   0.0000000   0.0000000   2.0440000   0.0000000   0.0000000   2.0440000   0.0000000
 NMagM=    0.0000000   0.0000000   0.0000000   2.6288670   0.0000000   0.4037610   0.0000000   0.0000000   0.4037610   0.0000000
 AtZNuc=   6.0000000   6.0000000   6.0000000   9.0000000   6.0000000   7.0000000   6.0000000   6.0000000   7.0000000   6.0000000

  Atom        41          42          43          44          45          46          47          48          49          50
 IAtWgt=          12          12          12          16          12          12          12          12          19          12
 AtmWgt=  12.0000000  12.0000000  12.0000000  15.9949146  12.0000000  12.0000000  12.0000000  12.0000000  18.9984033  12.0000000
 NucSpn=           0           0           0           0           0           0           0           0           1           0
 AtZEff=  -0.0000000  -0.0000000  -0.0000000  -0.0000000  -0.0000000  -0.0000000  -0.0000000  -0.0000000  -0.0000000  -0.0000000
 NQMom=    0.0000000   0.0000000   0.0000000   0.0000000   0.0000000   0.0000000   0.0000000   0.0000000   0.0000000   0.0000000
 NMagM=    0.0000000   0.0000000   0.0000000   0.0000000   0.0000000   0.0000000   0.0000000   0.0000000   2.6288670   0.0000000
 AtZNuc=   6.0000000   6.0000000   6.0000000   8.0000000   6.0000000   6.0000000   6.0000000   6.0000000   9.0000000   6.0000000

  Atom        51          52          53          54          55          56          57          58          59          60
 IAtWgt=          14          12          12          14          12          12          12          12          16          12
 AtmWgt=  14.0030740  12.0000000  12.0000000  14.0030740  12.0000000  12.0000000  12.0000000  12.0000000  15.9949146  12.0000000
 NucSpn=           2           0           0           2           0           0           0           0           0           0
 AtZEff=  -0.0000000  -0.0000000  -0.0000000  -0.0000000  -0.0000000  -0.0000000  -0.0000000  -0.0000000  -0.0000000  -0.0000000
 NQMom=    2.0440000   0.0000000   0.0000000   2.0440000   0.0000000   0.0000000   0.0000000   0.0000000   0.0000000   0.0000000
 NMagM=    0.4037610   0.0000000   0.0000000   0.4037610   0.0000000   0.0000000   0.0000000   0.0000000   0.0000000   0.0000000
 AtZNuc=   7.0000000   6.0000000   6.0000000   7.0000000   6.0000000   6.0000000   6.0000000   6.0000000   8.0000000   6.0000000

  Atom        61          62          63          64          65          66          67          68          69          70
 IAtWgt=          12          12          12          19          12          14          12          12          14          12
 AtmWgt=  12.0000000  12.0000000  12.0000000  18.9984033  12.0000000  14.0030740  12.0000000  12.0000000  14.0030740  12.0000000
 NucSpn=           0           0           0           1           0           2           0           0           2           0
 AtZEff=  -0.0000000  -0.0000000  -0.0000000  -0.0000000  -0.0000000  -0.0000000  -0.0000000  -0.0000000  -0.0000000  -0.0000000
 NQMom=    0.0000000   0.0000000   0.0000000   0.0000000   0.0000000   2.0440000   0.0000000   0.0000000   2.0440000   0.0000000
 NMagM=    0.0000000   0.0000000   0.0000000   2.6288670   0.0000000   0.4037610   0.0000000   0.0000000   0.4037610   0.0000000
 AtZNuc=   6.0000000   6.0000000   6.0000000   9.0000000   6.0000000   7.0000000   6.0000000   6.0000000   7.0000000   6.0000000

  Atom        71          72          73          74          75          76          77          78          79          80
 IAtWgt=          12          12          12          16          12          12          12          12          19          12
 AtmWgt=  12.0000000  12.0000000  12.0000000  15.9949146  12.0000000  12.0000000  12.0000000  12.0000000  18.9984033  12.0000000
 NucSpn=           0           0           0           0           0           0           0           0           1           0
 AtZEff=  -0.0000000  -0.0000000  -0.0000000  -0.0000000  -0.0000000  -0.0000000  -0.0000000  -0.0000000  -0.0000000  -0.0000000
 NQMom=    0.0000000   0.0000000   0.0000000   0.0000000   0.0000000   0.0000000   0.0000000   0.0000000   0.0000000   0.0000000
 NMagM=    0.0000000   0.0000000   0.0000000   0.0000000   0.0000000   0.0000000   0.0000000   0.0000000   2.6288670   0.0000000
 AtZNuc=   6.0000000   6.0000000   6.0000000   8.0000000   6.0000000   6.0000000   6.0000000   6.0000000   9.0000000   6.0000000

  Atom        81          82          83          84          85          86          87          88          89          90
 IAtWgt=          14          12          12          14          12          12          12          12          16          12
 AtmWgt=  14.0030740  12.0000000  12.0000000  14.0030740  12.0000000  12.0000000  12.0000000  12.0000000  15.9949146  12.0000000
 NucSpn=           2           0           0           2           0           0           0           0           0           0
 AtZEff=  -0.0000000  -0.0000000  -0.0000000  -0.0000000  -0.0000000  -0.0000000  -0.0000000  -0.0000000  -0.0000000  -0.0000000
 NQMom=    2.0440000   0.0000000   0.0000000   2.0440000   0.0000000   0.0000000   0.0000000   0.0000000   0.0000000   0.0000000
 NMagM=    0.4037610   0.0000000   0.0000000   0.4037610   0.0000000   0.0000000   0.0000000   0.0000000   0.0000000   0.0000000
 AtZNuc=   7.0000000   6.0000000   6.0000000   7.0000000   6.0000000   6.0000000   6.0000000   6.0000000   8.0000000   6.0000000

  Atom        91          92          93          94          95          96          97          98          99         100
 IAtWgt=          12          12          12          19          12          14          12          12          14          12
 AtmWgt=  12.0000000  12.0000000  12.0000000  18.9984033  12.0000000  14.0030740  12.0000000  12.0000000  14.0030740  12.0000000
 NucSpn=           0           0           0           1           0           2           0           0           2           0
 AtZEff=  -0.0000000  -0.0000000  -0.0000000  -0.0000000  -0.0000000  -0.0000000  -0.0000000  -0.0000000  -0.0000000  -0.0000000
 NQMom=    0.0000000   0.0000000   0.0000000   0.0000000   0.0000000   2.0440000   0.0000000   0.0000000   2.0440000   0.0000000
 NMagM=    0.0000000   0.0000000   0.0000000   2.6288670   0.0000000   0.4037610   0.0000000   0.0000000   0.4037610   0.0000000
 AtZNuc=   6.0000000   6.0000000   6.0000000   9.0000000   6.0000000   7.0000000   6.0000000   6.0000000   7.0000000   6.0000000

  Atom       101         102         103         104         105         106         107         108         109         110
 IAtWgt=          12          12          12          16          12           1           1           1           1           1
 AtmWgt=  12.0000000  12.0000000  12.0000000  15.9949146  12.0000000   1.0078250   1.0078250   1.0078250   1.0078250   1.0078250
 NucSpn=           0           0           0           0           0           1           1           1           1           1
 AtZEff=  -0.0000000  -0.0000000  -0.0000000  -0.0000000  -0.0000000  -0.0000000  -0.0000000  -0.0000000  -0.0000000  -0.0000000
 NQMom=    0.0000000   0.0000000   0.0000000   0.0000000   0.0000000   0.0000000   0.0000000   0.0000000   0.0000000   0.0000000
 NMagM=    0.0000000   0.0000000   0.0000000   0.0000000   0.0000000   2.7928460   2.7928460   2.7928460   2.7928460   2.7928460
 AtZNuc=   6.0000000   6.0000000   6.0000000   8.0000000   6.0000000   1.0000000   1.0000000   1.0000000   1.0000000   1.0000000

  Atom       111         112         113         114         115         116         117         118         119         120
 IAtWgt=           1           1           1           1           1           1           1           1           1           1
 AtmWgt=   1.0078250   1.0078250   1.0078250   1.0078250   1.0078250   1.0078250   1.0078250   1.0078250   1.0078250   1.0078250
 NucSpn=           1           1           1           1           1           1           1           1           1           1
 AtZEff=  -0.0000000  -0.0000000  -0.0000000  -0.0000000  -0.0000000  -0.0000000  -0.0000000  -0.0000000  -0.0000000  -0.0000000
 NQMom=    0.0000000   0.0000000   0.0000000   0.0000000   0.0000000   0.0000000   0.0000000   0.0000000   0.0000000   0.0000000
 NMagM=    2.7928460   2.7928460   2.7928460   2.7928460   2.7928460   2.7928460   2.7928460   2.7928460   2.7928460   2.7928460
 AtZNuc=   1.0000000   1.0000000   1.0000000   1.0000000   1.0000000   1.0000000   1.0000000   1.0000000   1.0000000   1.0000000

  Atom       121         122         123         124         125         126         127         128         129         130
 IAtWgt=           1           1           1           1           1           1           1           1           1           1
 AtmWgt=   1.0078250   1.0078250   1.0078250   1.0078250   1.0078250   1.0078250   1.0078250   1.0078250   1.0078250   1.0078250
 NucSpn=           1           1           1           1           1           1           1           1           1           1
 AtZEff=  -0.0000000  -0.0000000  -0.0000000  -0.0000000  -0.0000000  -0.0000000  -0.0000000  -0.0000000  -0.0000000  -0.0000000
 NQMom=    0.0000000   0.0000000   0.0000000   0.0000000   0.0000000   0.0000000   0.0000000   0.0000000   0.0000000   0.0000000
 NMagM=    2.7928460   2.7928460   2.7928460   2.7928460   2.7928460   2.7928460   2.7928460   2.7928460   2.7928460   2.7928460
 AtZNuc=   1.0000000   1.0000000   1.0000000   1.0000000   1.0000000   1.0000000   1.0000000   1.0000000   1.0000000   1.0000000

  Atom       131         132         133         134         135         136         137         138         139         140
 IAtWgt=           1           1           1           1           1           1           1           1           1           1
 AtmWgt=   1.0078250   1.0078250   1.0078250   1.0078250   1.0078250   1.0078250   1.0078250   1.0078250   1.0078250   1.0078250
 NucSpn=           1           1           1           1           1           1           1           1           1           1
 AtZEff=  -0.0000000  -0.0000000  -0.0000000  -0.0000000  -0.0000000  -0.0000000  -0.0000000  -0.0000000  -0.0000000  -0.0000000
 NQMom=    0.0000000   0.0000000   0.0000000   0.0000000   0.0000000   0.0000000   0.0000000   0.0000000   0.0000000   0.0000000
 NMagM=    2.7928460   2.7928460   2.7928460   2.7928460   2.7928460   2.7928460   2.7928460   2.7928460   2.7928460   2.7928460
 AtZNuc=   1.0000000   1.0000000   1.0000000   1.0000000   1.0000000   1.0000000   1.0000000   1.0000000   1.0000000   1.0000000

  Atom       141         142         143         144         145         146         147         148         149         150
 IAtWgt=           1           1           1           1           1           1           1           1           1           1
 AtmWgt=   1.0078250   1.0078250   1.0078250   1.0078250   1.0078250   1.0078250   1.0078250   1.0078250   1.0078250   1.0078250
 NucSpn=           1           1           1           1           1           1           1           1           1           1
 AtZEff=  -0.0000000  -0.0000000  -0.0000000  -0.0000000  -0.0000000  -0.0000000  -0.0000000  -0.0000000  -0.0000000  -0.0000000
 NQMom=    0.0000000   0.0000000   0.0000000   0.0000000   0.0000000   0.0000000   0.0000000   0.0000000   0.0000000   0.0000000
 NMagM=    2.7928460   2.7928460   2.7928460   2.7928460   2.7928460   2.7928460   2.7928460   2.7928460   2.7928460   2.7928460
 AtZNuc=   1.0000000   1.0000000   1.0000000   1.0000000   1.0000000   1.0000000   1.0000000   1.0000000   1.0000000   1.0000000

  Atom       151         152         153         154         155         156
 IAtWgt=           1           1           1           1           1           1
 AtmWgt=   1.0078250   1.0078250   1.0078250   1.0078250   1.0078250   1.0078250
 NucSpn=           1           1           1           1           1           1
 AtZEff=  -0.0000000  -0.0000000  -0.0000000  -0.0000000  -0.0000000  -0.0000000
 NQMom=    0.0000000   0.0000000   0.0000000   0.0000000   0.0000000   0.0000000
 NMagM=    2.7928460   2.7928460   2.7928460   2.7928460   2.7928460   2.7928460
 AtZNuc=   1.0000000   1.0000000   1.0000000   1.0000000   1.0000000   1.0000000
 Leave Link  101 at Fri Jul 24 16:27:18 2020, MaxMem=  4026531840 cpu:               3.4 elap:               0.4
 (Enter /opt/ohpc/pub/libs/gaussian/g16-A.03/sandybridge/g16/l103.exe)

 GradGradGradGradGradGradGradGradGradGradGradGradGradGradGradGradGradGrad
 Berny optimization.
 Initialization pass.
                           ----------------------------
                           !    Initial Parameters    !
                           ! (Angstroms and Degrees)  !
 --------------------------                            --------------------------
 ! Name  Definition              Value          Derivative Info.                !
 --------------------------------------------------------------------------------
 ! R1    R(1,2)                  1.458          estimate D2E/DX2                !
 ! R2    R(1,7)                  1.3369         estimate D2E/DX2                !
 ! R3    R(1,106)                1.0784         estimate D2E/DX2                !
 ! R4    R(2,3)                  1.4245         estimate D2E/DX2                !
 ! R5    R(2,107)                1.0407         estimate D2E/DX2                !
 ! R6    R(3,4)                  1.3487         estimate D2E/DX2                !
 ! R7    R(3,5)                  1.3616         estimate D2E/DX2                !
 ! R8    R(5,6)                  1.3991         estimate D2E/DX2                !
 ! R9    R(5,8)                  1.3982         estimate D2E/DX2                !
 ! R10   R(6,7)                  1.3395         estimate D2E/DX2                !
 ! R11   R(7,108)                1.1217         estimate D2E/DX2                !
 ! R12   R(8,9)                  1.3851         estimate D2E/DX2                !
 ! R13   R(8,13)                 1.4327         estimate D2E/DX2                !
 ! R14   R(9,10)                 1.3265         estimate D2E/DX2                !
 ! R15   R(10,11)                1.3731         estimate D2E/DX2                !
 ! R16   R(10,109)               1.1609         estimate D2E/DX2                !
 ! R17   R(11,12)                1.3704         estimate D2E/DX2                !
 ! R18   R(11,16)                1.4828         estimate D2E/DX2                !
 ! R19   R(12,13)                1.3611         estimate D2E/DX2                !
 ! R20   R(12,110)               1.0997         estimate D2E/DX2                !
 ! R21   R(13,14)                1.3664         estimate D2E/DX2                !
 ! R22   R(14,15)                1.3815         estimate D2E/DX2                !
 ! R23   R(15,111)               1.0936         estimate D2E/DX2                !
 ! R24   R(15,112)               1.1139         estimate D2E/DX2                !
 ! R25   R(15,113)               1.0517         estimate D2E/DX2                !
 ! R26   R(16,17)                1.4339         estimate D2E/DX2                !
 ! R27   R(16,22)                1.3707         estimate D2E/DX2                !
 ! R28   R(17,18)                1.3982         estimate D2E/DX2                !
 ! R29   R(17,114)               1.0843         estimate D2E/DX2                !
 ! R30   R(18,19)                1.3737         estimate D2E/DX2                !
 ! R31   R(18,20)                1.3562         estimate D2E/DX2                !
 ! R32   R(20,21)                1.398          estimate D2E/DX2                !
 ! R33   R(20,23)                1.4562         estimate D2E/DX2                !
 ! R34   R(21,22)                1.4071         estimate D2E/DX2                !
 ! R35   R(22,115)               1.1116         estimate D2E/DX2                !
 ! R36   R(23,24)                1.3515         estimate D2E/DX2                !
 ! R37   R(23,28)                1.4057         estimate D2E/DX2                !
 ! R38   R(24,25)                1.3275         estimate D2E/DX2                !
 ! R39   R(25,26)                1.3826         estimate D2E/DX2                !
 ! R40   R(25,116)               1.0445         estimate D2E/DX2                !
 ! R41   R(26,27)                1.4077         estimate D2E/DX2                !
 ! R42   R(26,31)                1.5035         estimate D2E/DX2                !
 ! R43   R(27,28)                1.373          estimate D2E/DX2                !
 ! R44   R(27,117)               1.0402         estimate D2E/DX2                !
 ! R45   R(28,29)                1.4289         estimate D2E/DX2                !
 ! R46   R(29,30)                1.4757         estimate D2E/DX2                !
 ! R47   R(30,118)               1.1236         estimate D2E/DX2                !
 ! R48   R(30,119)               1.0845         estimate D2E/DX2                !
 ! R49   R(30,120)               1.1524         estimate D2E/DX2                !
 ! R50   R(31,32)                1.3342         estimate D2E/DX2                !
 ! R51   R(31,37)                1.4308         estimate D2E/DX2                !
 ! R52   R(32,33)                1.4052         estimate D2E/DX2                !
 ! R53   R(32,121)               1.0545         estimate D2E/DX2                !
 ! R54   R(33,34)                1.3405         estimate D2E/DX2                !
 ! R55   R(33,35)                1.4496         estimate D2E/DX2                !
 ! R56   R(35,36)                1.334          estimate D2E/DX2                !
 ! R57   R(35,38)                1.4679         estimate D2E/DX2                !
 ! R58   R(36,37)                1.4159         estimate D2E/DX2                !
 ! R59   R(37,122)               1.0399         estimate D2E/DX2                !
 ! R60   R(38,39)                1.3548         estimate D2E/DX2                !
 ! R61   R(38,43)                1.4571         estimate D2E/DX2                !
 ! R62   R(39,40)                1.3634         estimate D2E/DX2                !
 ! R63   R(40,41)                1.3848         estimate D2E/DX2                !
 ! R64   R(40,123)               1.0244         estimate D2E/DX2                !
 ! R65   R(41,42)                1.3847         estimate D2E/DX2                !
 ! R66   R(41,46)                1.5349         estimate D2E/DX2                !
 ! R67   R(42,43)                1.4191         estimate D2E/DX2                !
 ! R68   R(42,124)               1.1045         estimate D2E/DX2                !
 ! R69   R(43,44)                1.2831         estimate D2E/DX2                !
 ! R70   R(44,45)                1.4774         estimate D2E/DX2                !
 ! R71   R(45,125)               1.0986         estimate D2E/DX2                !
 ! R72   R(45,126)               0.9993         estimate D2E/DX2                !
 ! R73   R(45,127)               1.0602         estimate D2E/DX2                !
 ! R74   R(46,47)                1.4123         estimate D2E/DX2                !
 ! R75   R(46,52)                1.3976         estimate D2E/DX2                !
 ! R76   R(47,48)                1.3546         estimate D2E/DX2                !
 ! R77   R(47,128)               1.1054         estimate D2E/DX2                !
 ! R78   R(48,49)                1.3216         estimate D2E/DX2                !
 ! R79   R(48,50)                1.4272         estimate D2E/DX2                !
 ! R80   R(50,51)                1.349          estimate D2E/DX2                !
 ! R81   R(50,53)                1.4155         estimate D2E/DX2                !
 ! R82   R(51,52)                1.2924         estimate D2E/DX2                !
 ! R83   R(52,129)               1.1569         estimate D2E/DX2                !
 ! R84   R(53,54)                1.3561         estimate D2E/DX2                !
 ! R85   R(53,58)                1.3536         estimate D2E/DX2                !
 ! R86   R(54,55)                1.3583         estimate D2E/DX2                !
 ! R87   R(55,56)                1.4524         estimate D2E/DX2                !
 ! R88   R(55,130)               1.1392         estimate D2E/DX2                !
 ! R89   R(56,57)                1.4163         estimate D2E/DX2                !
 ! R90   R(56,61)                1.4305         estimate D2E/DX2                !
 ! R91   R(57,58)                1.453          estimate D2E/DX2                !
 ! R92   R(57,131)               1.0821         estimate D2E/DX2                !
 ! R93   R(58,59)                1.3778         estimate D2E/DX2                !
 ! R94   R(59,60)                1.3972         estimate D2E/DX2                !
 ! R95   R(60,132)               1.1585         estimate D2E/DX2                !
 ! R96   R(60,133)               1.117          estimate D2E/DX2                !
 ! R97   R(60,134)               1.0941         estimate D2E/DX2                !
 ! R98   R(61,62)                1.4067         estimate D2E/DX2                !
 ! R99   R(61,67)                1.388          estimate D2E/DX2                !
 ! R100  R(62,63)                1.3709         estimate D2E/DX2                !
 ! R101  R(62,135)               1.1532         estimate D2E/DX2                !
 ! R102  R(63,64)                1.3745         estimate D2E/DX2                !
 ! R103  R(63,65)                1.3814         estimate D2E/DX2                !
 ! R104  R(65,66)                1.3218         estimate D2E/DX2                !
 ! R105  R(65,68)                1.54           estimate D2E/DX2                !
 ! R106  R(66,67)                1.4255         estimate D2E/DX2                !
 ! R107  R(67,136)               1.1202         estimate D2E/DX2                !
 ! R108  R(68,69)                1.368          estimate D2E/DX2                !
 ! R109  R(68,73)                1.4543         estimate D2E/DX2                !
 ! R110  R(69,70)                1.2842         estimate D2E/DX2                !
 ! R111  R(70,71)                1.4292         estimate D2E/DX2                !
 ! R112  R(70,137)               1.1226         estimate D2E/DX2                !
 ! R113  R(71,72)                1.399          estimate D2E/DX2                !
 ! R114  R(71,76)                1.4106         estimate D2E/DX2                !
 ! R115  R(72,73)                1.4191         estimate D2E/DX2                !
 ! R116  R(72,138)               1.1176         estimate D2E/DX2                !
 ! R117  R(73,74)                1.359          estimate D2E/DX2                !
 ! R118  R(74,75)                1.4131         estimate D2E/DX2                !
 ! R119  R(75,139)               1.0976         estimate D2E/DX2                !
 ! R120  R(75,140)               1.1225         estimate D2E/DX2                !
 ! R121  R(75,141)               1.0476         estimate D2E/DX2                !
 ! R122  R(76,77)                1.3613         estimate D2E/DX2                !
 ! R123  R(76,82)                1.443          estimate D2E/DX2                !
 ! R124  R(77,78)                1.4127         estimate D2E/DX2                !
 ! R125  R(77,142)               1.0644         estimate D2E/DX2                !
 ! R126  R(78,79)                1.3657         estimate D2E/DX2                !
 ! R127  R(78,80)                1.4185         estimate D2E/DX2                !
 ! R128  R(80,81)                1.378          estimate D2E/DX2                !
 ! R129  R(80,83)                1.434          estimate D2E/DX2                !
 ! R130  R(81,82)                1.365          estimate D2E/DX2                !
 ! R131  R(82,143)               1.0322         estimate D2E/DX2                !
 ! R132  R(83,84)                1.3477         estimate D2E/DX2                !
 ! R133  R(83,88)                1.3184         estimate D2E/DX2                !
 ! R134  R(84,85)                1.3304         estimate D2E/DX2                !
 ! R135  R(85,86)                1.4362         estimate D2E/DX2                !
 ! R136  R(85,144)               1.0433         estimate D2E/DX2                !
 ! R137  R(86,87)                1.4318         estimate D2E/DX2                !
 ! R138  R(86,91)                1.4262         estimate D2E/DX2                !
 ! R139  R(87,88)                1.4331         estimate D2E/DX2                !
 ! R140  R(87,145)               1.0993         estimate D2E/DX2                !
 ! R141  R(88,89)                1.3809         estimate D2E/DX2                !
 ! R142  R(89,90)                1.3939         estimate D2E/DX2                !
 ! R143  R(90,146)               1.087          estimate D2E/DX2                !
 ! R144  R(90,147)               1.0984         estimate D2E/DX2                !
 ! R145  R(90,148)               1.1315         estimate D2E/DX2                !
 ! R146  R(91,92)                1.4088         estimate D2E/DX2                !
 ! R147  R(91,97)                1.4831         estimate D2E/DX2                !
 ! R148  R(92,93)                1.3758         estimate D2E/DX2                !
 ! R149  R(92,149)               1.0812         estimate D2E/DX2                !
 ! R150  R(93,94)                1.3632         estimate D2E/DX2                !
 ! R151  R(93,95)                1.3862         estimate D2E/DX2                !
 ! R152  R(95,96)                1.4231         estimate D2E/DX2                !
 ! R153  R(95,98)                1.399          estimate D2E/DX2                !
 ! R154  R(96,97)                1.3271         estimate D2E/DX2                !
 ! R155  R(97,150)               1.0659         estimate D2E/DX2                !
 ! R156  R(98,99)                1.3728         estimate D2E/DX2                !
 ! R157  R(98,103)               1.3356         estimate D2E/DX2                !
 ! R158  R(99,100)               1.3333         estimate D2E/DX2                !
 ! R159  R(100,101)              1.414          estimate D2E/DX2                !
 ! R160  R(100,151)              1.1483         estimate D2E/DX2                !
 ! R161  R(101,102)              1.3821         estimate D2E/DX2                !
 ! R162  R(101,152)              1.1318         estimate D2E/DX2                !
 ! R163  R(102,103)              1.4172         estimate D2E/DX2                !
 ! R164  R(102,153)              1.0619         estimate D2E/DX2                !
 ! R165  R(103,104)              1.4174         estimate D2E/DX2                !
 ! R166  R(104,105)              1.3744         estimate D2E/DX2                !
 ! R167  R(105,154)              1.043          estimate D2E/DX2                !
 ! R168  R(105,155)              1.155          estimate D2E/DX2                !
 ! R169  R(105,156)              1.0774         estimate D2E/DX2                !
 ! A1    A(2,1,7)              117.6763         estimate D2E/DX2                !
 ! A2    A(2,1,106)            114.824          estimate D2E/DX2                !
 ! A3    A(7,1,106)            127.3826         estimate D2E/DX2                !
 ! A4    A(1,2,3)              113.8627         estimate D2E/DX2                !
 ! A5    A(1,2,107)            123.8329         estimate D2E/DX2                !
 ! A6    A(3,2,107)            122.2194         estimate D2E/DX2                !
 ! A7    A(2,3,4)              112.1638         estimate D2E/DX2                !
 ! A8    A(2,3,5)              124.5457         estimate D2E/DX2                !
 ! A9    A(4,3,5)              123.2433         estimate D2E/DX2                !
 ! A10   A(3,5,6)              119.0639         estimate D2E/DX2                !
 ! A11   A(3,5,8)              125.5355         estimate D2E/DX2                !
 ! A12   A(6,5,8)              115.3047         estimate D2E/DX2                !
 ! A13   A(5,6,7)              116.426          estimate D2E/DX2                !
 ! A14   A(1,7,6)              128.1073         estimate D2E/DX2                !
 ! A15   A(1,7,108)            120.9093         estimate D2E/DX2                !
 ! A16   A(6,7,108)            110.9819         estimate D2E/DX2                !
 ! A17   A(5,8,9)              116.8218         estimate D2E/DX2                !
 ! A18   A(5,8,13)             123.3853         estimate D2E/DX2                !
 ! A19   A(9,8,13)             119.1286         estimate D2E/DX2                !
 ! A20   A(8,9,10)             117.814          estimate D2E/DX2                !
 ! A21   A(9,10,11)            125.6649         estimate D2E/DX2                !
 ! A22   A(9,10,109)           111.9055         estimate D2E/DX2                !
 ! A23   A(11,10,109)          122.0018         estimate D2E/DX2                !
 ! A24   A(10,11,12)           115.8543         estimate D2E/DX2                !
 ! A25   A(10,11,16)           118.7989         estimate D2E/DX2                !
 ! A26   A(12,11,16)           125.2644         estimate D2E/DX2                !
 ! A27   A(11,12,13)           122.8614         estimate D2E/DX2                !
 ! A28   A(11,12,110)          113.7592         estimate D2E/DX2                !
 ! A29   A(13,12,110)          123.0127         estimate D2E/DX2                !
 ! A30   A(8,13,12)            117.593          estimate D2E/DX2                !
 ! A31   A(8,13,14)            117.2461         estimate D2E/DX2                !
 ! A32   A(12,13,14)           124.6424         estimate D2E/DX2                !
 ! A33   A(13,14,15)           121.0431         estimate D2E/DX2                !
 ! A34   A(14,15,111)          109.0153         estimate D2E/DX2                !
 ! A35   A(14,15,112)          111.6555         estimate D2E/DX2                !
 ! A36   A(14,15,113)          109.6111         estimate D2E/DX2                !
 ! A37   A(111,15,112)         108.891          estimate D2E/DX2                !
 ! A38   A(111,15,113)         113.5425         estimate D2E/DX2                !
 ! A39   A(112,15,113)         104.093          estimate D2E/DX2                !
 ! A40   A(11,16,17)           118.5255         estimate D2E/DX2                !
 ! A41   A(11,16,22)           120.9453         estimate D2E/DX2                !
 ! A42   A(17,16,22)           119.9421         estimate D2E/DX2                !
 ! A43   A(16,17,18)           116.3213         estimate D2E/DX2                !
 ! A44   A(16,17,114)          118.3397         estimate D2E/DX2                !
 ! A45   A(18,17,114)          125.2951         estimate D2E/DX2                !
 ! A46   A(17,18,19)           115.3858         estimate D2E/DX2                !
 ! A47   A(17,18,20)           123.894          estimate D2E/DX2                !
 ! A48   A(19,18,20)           120.4308         estimate D2E/DX2                !
 ! A49   A(18,20,21)           119.1613         estimate D2E/DX2                !
 ! A50   A(18,20,23)           125.0343         estimate D2E/DX2                !
 ! A51   A(21,20,23)           115.8006         estimate D2E/DX2                !
 ! A52   A(20,21,22)           119.0175         estimate D2E/DX2                !
 ! A53   A(16,22,21)           121.3363         estimate D2E/DX2                !
 ! A54   A(16,22,115)          125.2772         estimate D2E/DX2                !
 ! A55   A(21,22,115)          113.3701         estimate D2E/DX2                !
 ! A56   A(20,23,24)           115.7047         estimate D2E/DX2                !
 ! A57   A(20,23,28)           123.4007         estimate D2E/DX2                !
 ! A58   A(24,23,28)           119.632          estimate D2E/DX2                !
 ! A59   A(23,24,25)           121.6988         estimate D2E/DX2                !
 ! A60   A(24,25,26)           119.4132         estimate D2E/DX2                !
 ! A61   A(24,25,116)          117.9003         estimate D2E/DX2                !
 ! A62   A(26,25,116)          122.6849         estimate D2E/DX2                !
 ! A63   A(25,26,27)           121.7088         estimate D2E/DX2                !
 ! A64   A(25,26,31)           121.2934         estimate D2E/DX2                !
 ! A65   A(27,26,31)           116.9641         estimate D2E/DX2                !
 ! A66   A(26,27,28)           116.2417         estimate D2E/DX2                !
 ! A67   A(26,27,117)          122.2866         estimate D2E/DX2                !
 ! A68   A(28,27,117)          120.8469         estimate D2E/DX2                !
 ! A69   A(23,28,27)           120.8273         estimate D2E/DX2                !
 ! A70   A(23,28,29)           116.3858         estimate D2E/DX2                !
 ! A71   A(27,28,29)           122.5576         estimate D2E/DX2                !
 ! A72   A(28,29,30)           108.8571         estimate D2E/DX2                !
 ! A73   A(29,30,118)          107.725          estimate D2E/DX2                !
 ! A74   A(29,30,119)          113.0304         estimate D2E/DX2                !
 ! A75   A(29,30,120)          103.3936         estimate D2E/DX2                !
 ! A76   A(118,30,119)         114.7377         estimate D2E/DX2                !
 ! A77   A(118,30,120)         109.0093         estimate D2E/DX2                !
 ! A78   A(119,30,120)         108.292          estimate D2E/DX2                !
 ! A79   A(26,31,32)           125.2776         estimate D2E/DX2                !
 ! A80   A(26,31,37)           115.9412         estimate D2E/DX2                !
 ! A81   A(32,31,37)           118.7592         estimate D2E/DX2                !
 ! A82   A(31,32,33)           122.6646         estimate D2E/DX2                !
 ! A83   A(31,32,121)          120.9341         estimate D2E/DX2                !
 ! A84   A(33,32,121)          115.9692         estimate D2E/DX2                !
 ! A85   A(32,33,34)           121.4948         estimate D2E/DX2                !
 ! A86   A(32,33,35)           116.2377         estimate D2E/DX2                !
 ! A87   A(34,33,35)           122.2663         estimate D2E/DX2                !
 ! A88   A(33,35,36)           123.3814         estimate D2E/DX2                !
 ! A89   A(33,35,38)           119.8183         estimate D2E/DX2                !
 ! A90   A(36,35,38)           116.355          estimate D2E/DX2                !
 ! A91   A(35,36,37)           117.3326         estimate D2E/DX2                !
 ! A92   A(31,37,36)           121.3011         estimate D2E/DX2                !
 ! A93   A(31,37,122)          124.4311         estimate D2E/DX2                !
 ! A94   A(36,37,122)          113.9025         estimate D2E/DX2                !
 ! A95   A(35,38,39)           120.2598         estimate D2E/DX2                !
 ! A96   A(35,38,43)           115.4943         estimate D2E/DX2                !
 ! A97   A(39,38,43)           124.0769         estimate D2E/DX2                !
 ! A98   A(38,39,40)           117.8302         estimate D2E/DX2                !
 ! A99   A(39,40,41)           122.8165         estimate D2E/DX2                !
 ! A100  A(39,40,123)          113.6247         estimate D2E/DX2                !
 ! A101  A(41,40,123)          122.9023         estimate D2E/DX2                !
 ! A102  A(40,41,42)           118.9043         estimate D2E/DX2                !
 ! A103  A(40,41,46)           119.2951         estimate D2E/DX2                !
 ! A104  A(42,41,46)           121.7981         estimate D2E/DX2                !
 ! A105  A(41,42,43)           122.0874         estimate D2E/DX2                !
 ! A106  A(41,42,124)          119.9737         estimate D2E/DX2                !
 ! A107  A(43,42,124)          117.9383         estimate D2E/DX2                !
 ! A108  A(38,43,42)           113.9213         estimate D2E/DX2                !
 ! A109  A(38,43,44)           121.8299         estimate D2E/DX2                !
 ! A110  A(42,43,44)           123.8188         estimate D2E/DX2                !
 ! A111  A(43,44,45)           110.6594         estimate D2E/DX2                !
 ! A112  A(44,45,125)          107.9293         estimate D2E/DX2                !
 ! A113  A(44,45,126)          110.9066         estimate D2E/DX2                !
 ! A114  A(44,45,127)          109.423          estimate D2E/DX2                !
 ! A115  A(125,45,126)         112.0978         estimate D2E/DX2                !
 ! A116  A(125,45,127)         102.83           estimate D2E/DX2                !
 ! A117  A(126,45,127)         113.2559         estimate D2E/DX2                !
 ! A118  A(41,46,47)           119.6575         estimate D2E/DX2                !
 ! A119  A(41,46,52)           123.2264         estimate D2E/DX2                !
 ! A120  A(47,46,52)           116.9897         estimate D2E/DX2                !
 ! A121  A(46,47,48)           117.3352         estimate D2E/DX2                !
 ! A122  A(46,47,128)          118.9905         estimate D2E/DX2                !
 ! A123  A(48,47,128)          122.9848         estimate D2E/DX2                !
 ! A124  A(47,48,49)           118.9456         estimate D2E/DX2                !
 ! A125  A(47,48,50)           122.9607         estimate D2E/DX2                !
 ! A126  A(49,48,50)           118.0455         estimate D2E/DX2                !
 ! A127  A(48,50,51)           116.6429         estimate D2E/DX2                !
 ! A128  A(48,50,53)           120.5745         estimate D2E/DX2                !
 ! A129  A(51,50,53)           122.3846         estimate D2E/DX2                !
 ! A130  A(50,51,52)           121.603          estimate D2E/DX2                !
 ! A131  A(46,52,51)           124.0982         estimate D2E/DX2                !
 ! A132  A(46,52,129)          117.461          estimate D2E/DX2                !
 ! A133  A(51,52,129)          118.4408         estimate D2E/DX2                !
 ! A134  A(50,53,54)           113.1227         estimate D2E/DX2                !
 ! A135  A(50,53,58)           122.9158         estimate D2E/DX2                !
 ! A136  A(54,53,58)           123.9149         estimate D2E/DX2                !
 ! A137  A(53,54,55)           115.6625         estimate D2E/DX2                !
 ! A138  A(54,55,56)           127.3485         estimate D2E/DX2                !
 ! A139  A(54,55,130)          117.5135         estimate D2E/DX2                !
 ! A140  A(56,55,130)          115.1108         estimate D2E/DX2                !
 ! A141  A(55,56,57)           113.2829         estimate D2E/DX2                !
 ! A142  A(55,56,61)           122.1164         estimate D2E/DX2                !
 ! A143  A(57,56,61)           124.2669         estimate D2E/DX2                !
 ! A144  A(56,57,58)           119.3368         estimate D2E/DX2                !
 ! A145  A(56,57,131)          121.5465         estimate D2E/DX2                !
 ! A146  A(58,57,131)          119.02           estimate D2E/DX2                !
 ! A147  A(53,58,57)           120.2185         estimate D2E/DX2                !
 ! A148  A(53,58,59)           123.335          estimate D2E/DX2                !
 ! A149  A(57,58,59)           116.4392         estimate D2E/DX2                !
 ! A150  A(58,59,60)           110.6442         estimate D2E/DX2                !
 ! A151  A(59,60,132)          105.1754         estimate D2E/DX2                !
 ! A152  A(59,60,133)          111.5194         estimate D2E/DX2                !
 ! A153  A(59,60,134)          114.3134         estimate D2E/DX2                !
 ! A154  A(132,60,133)         108.0822         estimate D2E/DX2                !
 ! A155  A(132,60,134)         105.0517         estimate D2E/DX2                !
 ! A156  A(133,60,134)         112.0531         estimate D2E/DX2                !
 ! A157  A(56,61,62)           124.1954         estimate D2E/DX2                !
 ! A158  A(56,61,67)           121.4951         estimate D2E/DX2                !
 ! A159  A(62,61,67)           114.2448         estimate D2E/DX2                !
 ! A160  A(61,62,63)           123.1236         estimate D2E/DX2                !
 ! A161  A(61,62,135)          118.3892         estimate D2E/DX2                !
 ! A162  A(63,62,135)          118.1649         estimate D2E/DX2                !
 ! A163  A(62,63,64)           118.0203         estimate D2E/DX2                !
 ! A164  A(62,63,65)           116.1111         estimate D2E/DX2                !
 ! A165  A(64,63,65)           125.5833         estimate D2E/DX2                !
 ! A166  A(63,65,66)           127.4832         estimate D2E/DX2                !
 ! A167  A(63,65,68)           117.5562         estimate D2E/DX2                !
 ! A168  A(66,65,68)           114.7267         estimate D2E/DX2                !
 ! A169  A(65,66,67)           113.1329         estimate D2E/DX2                !
 ! A170  A(61,67,66)           125.5009         estimate D2E/DX2                !
 ! A171  A(61,67,136)          125.0381         estimate D2E/DX2                !
 ! A172  A(66,67,136)          109.4587         estimate D2E/DX2                !
 ! A173  A(65,68,69)           115.0618         estimate D2E/DX2                !
 ! A174  A(65,68,73)           119.2362         estimate D2E/DX2                !
 ! A175  A(69,68,73)           125.6633         estimate D2E/DX2                !
 ! A176  A(68,69,70)           114.5663         estimate D2E/DX2                !
 ! A177  A(69,70,71)           129.7854         estimate D2E/DX2                !
 ! A178  A(69,70,137)          112.7705         estimate D2E/DX2                !
 ! A179  A(71,70,137)          117.4407         estimate D2E/DX2                !
 ! A180  A(70,71,72)           113.148          estimate D2E/DX2                !
 ! A181  A(70,71,76)           126.9406         estimate D2E/DX2                !
 ! A182  A(72,71,76)           119.9071         estimate D2E/DX2                !
 ! A183  A(71,72,73)           123.6285         estimate D2E/DX2                !
 ! A184  A(71,72,138)          122.325          estimate D2E/DX2                !
 ! A185  A(73,72,138)          114.0157         estimate D2E/DX2                !
 ! A186  A(68,73,72)           113.1806         estimate D2E/DX2                !
 ! A187  A(68,73,74)           119.6744         estimate D2E/DX2                !
 ! A188  A(72,73,74)           127.0379         estimate D2E/DX2                !
 ! A189  A(73,74,75)           118.6448         estimate D2E/DX2                !
 ! A190  A(74,75,139)          107.6273         estimate D2E/DX2                !
 ! A191  A(74,75,140)          108.0784         estimate D2E/DX2                !
 ! A192  A(74,75,141)          113.2657         estimate D2E/DX2                !
 ! A193  A(139,75,140)         103.3332         estimate D2E/DX2                !
 ! A194  A(139,75,141)         111.8528         estimate D2E/DX2                !
 ! A195  A(140,75,141)         112.0996         estimate D2E/DX2                !
 ! A196  A(71,76,77)           121.0661         estimate D2E/DX2                !
 ! A197  A(71,76,82)           119.3283         estimate D2E/DX2                !
 ! A198  A(77,76,82)           118.178          estimate D2E/DX2                !
 ! A199  A(76,77,78)           119.5287         estimate D2E/DX2                !
 ! A200  A(76,77,142)          123.4181         estimate D2E/DX2                !
 ! A201  A(78,77,142)          117.0527         estimate D2E/DX2                !
 ! A202  A(77,78,79)           117.6729         estimate D2E/DX2                !
 ! A203  A(77,78,80)           121.9672         estimate D2E/DX2                !
 ! A204  A(79,78,80)           120.2898         estimate D2E/DX2                !
 ! A205  A(78,80,81)           117.3021         estimate D2E/DX2                !
 ! A206  A(78,80,83)           124.918          estimate D2E/DX2                !
 ! A207  A(81,80,83)           117.4191         estimate D2E/DX2                !
 ! A208  A(80,81,82)           121.3667         estimate D2E/DX2                !
 ! A209  A(76,82,81)           121.3642         estimate D2E/DX2                !
 ! A210  A(76,82,143)          124.3067         estimate D2E/DX2                !
 ! A211  A(81,82,143)          114.1682         estimate D2E/DX2                !
 ! A212  A(80,83,84)           112.9914         estimate D2E/DX2                !
 ! A213  A(80,83,88)           126.171          estimate D2E/DX2                !
 ! A214  A(84,83,88)           120.8341         estimate D2E/DX2                !
 ! A215  A(83,84,85)           120.8414         estimate D2E/DX2                !
 ! A216  A(84,85,86)           122.4002         estimate D2E/DX2                !
 ! A217  A(84,85,144)          122.4912         estimate D2E/DX2                !
 ! A218  A(86,85,144)          115.0951         estimate D2E/DX2                !
 ! A219  A(85,86,87)           116.3983         estimate D2E/DX2                !
 ! A220  A(85,86,91)           122.2597         estimate D2E/DX2                !
 ! A221  A(87,86,91)           121.3234         estimate D2E/DX2                !
 ! A222  A(86,87,88)           116.2071         estimate D2E/DX2                !
 ! A223  A(86,87,145)          122.5565         estimate D2E/DX2                !
 ! A224  A(88,87,145)          121.1786         estimate D2E/DX2                !
 ! A225  A(83,88,87)           123.0676         estimate D2E/DX2                !
 ! A226  A(83,88,89)           120.9911         estimate D2E/DX2                !
 ! A227  A(87,88,89)           115.8957         estimate D2E/DX2                !
 ! A228  A(88,89,90)           111.0376         estimate D2E/DX2                !
 ! A229  A(89,90,146)          111.3506         estimate D2E/DX2                !
 ! A230  A(89,90,147)          114.4112         estimate D2E/DX2                !
 ! A231  A(89,90,148)          109.5489         estimate D2E/DX2                !
 ! A232  A(146,90,147)         108.8348         estimate D2E/DX2                !
 ! A233  A(146,90,148)         107.8654         estimate D2E/DX2                !
 ! A234  A(147,90,148)         104.432          estimate D2E/DX2                !
 ! A235  A(86,91,92)           121.5076         estimate D2E/DX2                !
 ! A236  A(86,91,97)           122.2463         estimate D2E/DX2                !
 ! A237  A(92,91,97)           116.2287         estimate D2E/DX2                !
 ! A238  A(91,92,93)           117.2006         estimate D2E/DX2                !
 ! A239  A(91,92,149)          120.8605         estimate D2E/DX2                !
 ! A240  A(93,92,149)          121.9217         estimate D2E/DX2                !
 ! A241  A(92,93,94)           115.9214         estimate D2E/DX2                !
 ! A242  A(92,93,95)           125.5756         estimate D2E/DX2                !
 ! A243  A(94,93,95)           118.3564         estimate D2E/DX2                !
 ! A244  A(93,95,96)           118.6876         estimate D2E/DX2                !
 ! A245  A(93,95,98)           121.9928         estimate D2E/DX2                !
 ! A246  A(96,95,98)           119.1688         estimate D2E/DX2                !
 ! A247  A(95,96,97)           117.1906         estimate D2E/DX2                !
 ! A248  A(91,97,96)           125.0052         estimate D2E/DX2                !
 ! A249  A(91,97,150)          118.0649         estimate D2E/DX2                !
 ! A250  A(96,97,150)          116.7505         estimate D2E/DX2                !
 ! A251  A(95,98,99)           113.373          estimate D2E/DX2                !
 ! A252  A(95,98,103)          124.1426         estimate D2E/DX2                !
 ! A253  A(99,98,103)          122.3609         estimate D2E/DX2                !
 ! A254  A(98,99,100)          117.0694         estimate D2E/DX2                !
 ! A255  A(99,100,101)         124.5197         estimate D2E/DX2                !
 ! A256  A(99,100,151)         115.9156         estimate D2E/DX2                !
 ! A257  A(101,100,151)        119.4182         estimate D2E/DX2                !
 ! A258  A(100,101,102)        116.7109         estimate D2E/DX2                !
 ! A259  A(100,101,152)        119.4278         estimate D2E/DX2                !
 ! A260  A(102,101,152)        123.4496         estimate D2E/DX2                !
 ! A261  A(101,102,103)        118.5407         estimate D2E/DX2                !
 ! A262  A(101,102,153)        118.2107         estimate D2E/DX2                !
 ! A263  A(103,102,153)        122.1805         estimate D2E/DX2                !
 ! A264  A(98,103,102)         120.6731         estimate D2E/DX2                !
 ! A265  A(98,103,104)         120.0236         estimate D2E/DX2                !
 ! A266  A(102,103,104)        119.3024         estimate D2E/DX2                !
 ! A267  A(103,104,105)        117.5204         estimate D2E/DX2                !
 ! A268  A(104,105,154)        109.2912         estimate D2E/DX2                !
 ! A269  A(104,105,155)        107.5021         estimate D2E/DX2                !
 ! A270  A(104,105,156)        114.4952         estimate D2E/DX2                !
 ! A271  A(154,105,155)        101.7739         estimate D2E/DX2                !
 ! A272  A(154,105,156)        109.2387         estimate D2E/DX2                !
 ! A273  A(155,105,156)        113.7349         estimate D2E/DX2                !
 ! D1    D(7,1,2,3)             -3.3301         estimate D2E/DX2                !
 ! D2    D(7,1,2,107)          179.9621         estimate D2E/DX2                !
 ! D3    D(106,1,2,3)         -179.6878         estimate D2E/DX2                !
 ! D4    D(106,1,2,107)          3.6044         estimate D2E/DX2                !
 ! D5    D(2,1,7,6)              4.0019         estimate D2E/DX2                !
 ! D6    D(2,1,7,108)         -175.5212         estimate D2E/DX2                !
 ! D7    D(106,1,7,6)          179.8407         estimate D2E/DX2                !
 ! D8    D(106,1,7,108)          0.3177         estimate D2E/DX2                !
 ! D9    D(1,2,3,4)           -178.0235         estimate D2E/DX2                !
 ! D10   D(1,2,3,5)              4.413          estimate D2E/DX2                !
 ! D11   D(107,2,3,4)           -1.2559         estimate D2E/DX2                !
 ! D12   D(107,2,3,5)         -178.8194         estimate D2E/DX2                !
 ! D13   D(2,3,5,6)             -5.4711         estimate D2E/DX2                !
 ! D14   D(2,3,5,8)            178.265          estimate D2E/DX2                !
 ! D15   D(4,3,5,6)            177.227          estimate D2E/DX2                !
 ! D16   D(4,3,5,8)              0.9631         estimate D2E/DX2                !
 ! D17   D(3,5,6,7)              5.1461         estimate D2E/DX2                !
 ! D18   D(8,5,6,7)           -178.2164         estimate D2E/DX2                !
 ! D19   D(3,5,8,9)            -92.8025         estimate D2E/DX2                !
 ! D20   D(3,5,8,13)            77.7551         estimate D2E/DX2                !
 ! D21   D(6,5,8,9)             90.8096         estimate D2E/DX2                !
 ! D22   D(6,5,8,13)           -98.6328         estimate D2E/DX2                !
 ! D23   D(5,6,7,1)             -4.8053         estimate D2E/DX2                !
 ! D24   D(5,6,7,108)          174.7563         estimate D2E/DX2                !
 ! D25   D(5,8,9,10)          -179.9958         estimate D2E/DX2                !
 ! D26   D(13,8,9,10)            9.0265         estimate D2E/DX2                !
 ! D27   D(5,8,13,12)          177.2073         estimate D2E/DX2                !
 ! D28   D(5,8,13,14)            5.0778         estimate D2E/DX2                !
 ! D29   D(9,8,13,12)          -12.4412         estimate D2E/DX2                !
 ! D30   D(9,8,13,14)          175.4294         estimate D2E/DX2                !
 ! D31   D(8,9,10,11)           -0.5648         estimate D2E/DX2                !
 ! D32   D(8,9,10,109)         172.0129         estimate D2E/DX2                !
 ! D33   D(9,10,11,12)          -4.3345         estimate D2E/DX2                !
 ! D34   D(9,10,11,16)         178.7917         estimate D2E/DX2                !
 ! D35   D(109,10,11,12)      -176.2094         estimate D2E/DX2                !
 ! D36   D(109,10,11,16)         6.9168         estimate D2E/DX2                !
 ! D37   D(10,11,12,13)          0.4332         estimate D2E/DX2                !
 ! D38   D(10,11,12,110)      -172.7992         estimate D2E/DX2                !
 ! D39   D(16,11,12,13)        177.0777         estimate D2E/DX2                !
 ! D40   D(16,11,12,110)         3.8453         estimate D2E/DX2                !
 ! D41   D(10,11,16,17)       -113.713          estimate D2E/DX2                !
 ! D42   D(10,11,16,22)         75.0785         estimate D2E/DX2                !
 ! D43   D(12,11,16,17)         69.7329         estimate D2E/DX2                !
 ! D44   D(12,11,16,22)       -101.4756         estimate D2E/DX2                !
 ! D45   D(11,12,13,8)           7.6552         estimate D2E/DX2                !
 ! D46   D(11,12,13,14)        179.1455         estimate D2E/DX2                !
 ! D47   D(110,12,13,8)       -179.7348         estimate D2E/DX2                !
 ! D48   D(110,12,13,14)        -8.2444         estimate D2E/DX2                !
 ! D49   D(8,13,14,15)         169.5371         estimate D2E/DX2                !
 ! D50   D(12,13,14,15)         -1.9801         estimate D2E/DX2                !
 ! D51   D(13,14,15,111)        60.4217         estimate D2E/DX2                !
 ! D52   D(13,14,15,112)       -59.9293         estimate D2E/DX2                !
 ! D53   D(13,14,15,113)      -174.738          estimate D2E/DX2                !
 ! D54   D(11,16,17,18)       -177.2423         estimate D2E/DX2                !
 ! D55   D(11,16,17,114)         5.0407         estimate D2E/DX2                !
 ! D56   D(22,16,17,18)         -5.9431         estimate D2E/DX2                !
 ! D57   D(22,16,17,114)       176.34           estimate D2E/DX2                !
 ! D58   D(11,16,22,21)        173.6888         estimate D2E/DX2                !
 ! D59   D(11,16,22,115)        -4.7436         estimate D2E/DX2                !
 ! D60   D(17,16,22,21)          2.6037         estimate D2E/DX2                !
 ! D61   D(17,16,22,115)      -175.8286         estimate D2E/DX2                !
 ! D62   D(16,17,18,19)       -179.2673         estimate D2E/DX2                !
 ! D63   D(16,17,18,20)          6.9061         estimate D2E/DX2                !
 ! D64   D(114,17,18,19)        -1.7294         estimate D2E/DX2                !
 ! D65   D(114,17,18,20)      -175.5559         estimate D2E/DX2                !
 ! D66   D(17,18,20,21)         -4.1927         estimate D2E/DX2                !
 ! D67   D(17,18,20,23)        176.5505         estimate D2E/DX2                !
 ! D68   D(19,18,20,21)       -177.7231         estimate D2E/DX2                !
 ! D69   D(19,18,20,23)          3.0201         estimate D2E/DX2                !
 ! D70   D(18,20,21,22)          0.3497         estimate D2E/DX2                !
 ! D71   D(23,20,21,22)        179.6738         estimate D2E/DX2                !
 ! D72   D(18,20,23,24)         43.3902         estimate D2E/DX2                !
 ! D73   D(18,20,23,28)       -123.6936         estimate D2E/DX2                !
 ! D74   D(21,20,23,24)       -135.8889         estimate D2E/DX2                !
 ! D75   D(21,20,23,28)         57.0272         estimate D2E/DX2                !
 ! D76   D(20,21,22,16)          0.3205         estimate D2E/DX2                !
 ! D77   D(20,21,22,115)       178.9264         estimate D2E/DX2                !
 ! D78   D(20,23,24,25)       -170.6788         estimate D2E/DX2                !
 ! D79   D(28,23,24,25)         -3.0758         estimate D2E/DX2                !
 ! D80   D(20,23,28,27)        170.1505         estimate D2E/DX2                !
 ! D81   D(20,23,28,29)         -4.4854         estimate D2E/DX2                !
 ! D82   D(24,23,28,27)          3.5482         estimate D2E/DX2                !
 ! D83   D(24,23,28,29)       -171.0878         estimate D2E/DX2                !
 ! D84   D(23,24,25,26)          4.8222         estimate D2E/DX2                !
 ! D85   D(23,24,25,116)      -174.7276         estimate D2E/DX2                !
 ! D86   D(24,25,26,27)         -7.1121         estimate D2E/DX2                !
 ! D87   D(24,25,26,31)        175.0613         estimate D2E/DX2                !
 ! D88   D(116,25,26,27)       172.4152         estimate D2E/DX2                !
 ! D89   D(116,25,26,31)        -5.4114         estimate D2E/DX2                !
 ! D90   D(25,26,27,28)          7.3698         estimate D2E/DX2                !
 ! D91   D(25,26,27,117)       178.3718         estimate D2E/DX2                !
 ! D92   D(31,26,27,28)       -174.7139         estimate D2E/DX2                !
 ! D93   D(31,26,27,117)        -3.7119         estimate D2E/DX2                !
 ! D94   D(25,26,31,32)         84.2685         estimate D2E/DX2                !
 ! D95   D(25,26,31,37)        -93.9937         estimate D2E/DX2                !
 ! D96   D(27,26,31,32)        -93.657          estimate D2E/DX2                !
 ! D97   D(27,26,31,37)         88.0808         estimate D2E/DX2                !
 ! D98   D(26,27,28,23)         -5.5355         estimate D2E/DX2                !
 ! D99   D(26,27,28,29)        168.7622         estimate D2E/DX2                !
 ! D100  D(117,27,28,23)      -176.6764         estimate D2E/DX2                !
 ! D101  D(117,27,28,29)        -2.3787         estimate D2E/DX2                !
 ! D102  D(23,28,29,30)       -139.0306         estimate D2E/DX2                !
 ! D103  D(27,28,29,30)         46.4348         estimate D2E/DX2                !
 ! D104  D(28,29,30,118)       -84.6821         estimate D2E/DX2                !
 ! D105  D(28,29,30,119)        43.142          estimate D2E/DX2                !
 ! D106  D(28,29,30,120)       160.0012         estimate D2E/DX2                !
 ! D107  D(26,31,32,33)       -172.7525         estimate D2E/DX2                !
 ! D108  D(26,31,32,121)        -0.6036         estimate D2E/DX2                !
 ! D109  D(37,31,32,33)          5.4649         estimate D2E/DX2                !
 ! D110  D(37,31,32,121)       177.6139         estimate D2E/DX2                !
 ! D111  D(26,31,37,36)        175.4912         estimate D2E/DX2                !
 ! D112  D(26,31,37,122)         2.8604         estimate D2E/DX2                !
 ! D113  D(32,31,37,36)         -2.8905         estimate D2E/DX2                !
 ! D114  D(32,31,37,122)      -175.5213         estimate D2E/DX2                !
 ! D115  D(31,32,33,34)        177.5781         estimate D2E/DX2                !
 ! D116  D(31,32,33,35)         -2.8111         estimate D2E/DX2                !
 ! D117  D(121,32,33,34)         5.0666         estimate D2E/DX2                !
 ! D118  D(121,32,33,35)      -175.3226         estimate D2E/DX2                !
 ! D119  D(32,33,35,36)         -2.8504         estimate D2E/DX2                !
 ! D120  D(32,33,35,38)       -174.9073         estimate D2E/DX2                !
 ! D121  D(34,33,35,36)        176.7571         estimate D2E/DX2                !
 ! D122  D(34,33,35,38)          4.7002         estimate D2E/DX2                !
 ! D123  D(33,35,36,37)          5.2022         estimate D2E/DX2                !
 ! D124  D(38,35,36,37)        177.5129         estimate D2E/DX2                !
 ! D125  D(33,35,38,39)         68.896          estimate D2E/DX2                !
 ! D126  D(33,35,38,43)       -106.5689         estimate D2E/DX2                !
 ! D127  D(36,35,38,39)       -103.705          estimate D2E/DX2                !
 ! D128  D(36,35,38,43)         80.83           estimate D2E/DX2                !
 ! D129  D(35,36,37,31)         -2.3678         estimate D2E/DX2                !
 ! D130  D(35,36,37,122)       170.9873         estimate D2E/DX2                !
 ! D131  D(35,38,39,40)       -177.5971         estimate D2E/DX2                !
 ! D132  D(43,38,39,40)         -2.5401         estimate D2E/DX2                !
 ! D133  D(35,38,43,42)        173.7612         estimate D2E/DX2                !
 ! D134  D(35,38,43,44)          1.0167         estimate D2E/DX2                !
 ! D135  D(39,38,43,42)         -1.5091         estimate D2E/DX2                !
 ! D136  D(39,38,43,44)       -174.2536         estimate D2E/DX2                !
 ! D137  D(38,39,40,41)          6.8617         estimate D2E/DX2                !
 ! D138  D(38,39,40,123)       177.8123         estimate D2E/DX2                !
 ! D139  D(39,40,41,42)         -6.8351         estimate D2E/DX2                !
 ! D140  D(39,40,41,46)        172.6068         estimate D2E/DX2                !
 ! D141  D(123,40,41,42)      -176.9522         estimate D2E/DX2                !
 ! D142  D(123,40,41,46)         2.4897         estimate D2E/DX2                !
 ! D143  D(40,41,42,43)          2.3217         estimate D2E/DX2                !
 ! D144  D(40,41,42,124)      -177.3953         estimate D2E/DX2                !
 ! D145  D(46,41,42,43)       -177.1056         estimate D2E/DX2                !
 ! D146  D(46,41,42,124)         3.1774         estimate D2E/DX2                !
 ! D147  D(40,41,46,47)       -140.0485         estimate D2E/DX2                !
 ! D148  D(40,41,46,52)         35.7376         estimate D2E/DX2                !
 ! D149  D(42,41,46,47)         39.3766         estimate D2E/DX2                !
 ! D150  D(42,41,46,52)       -144.8372         estimate D2E/DX2                !
[...]
  Beta virt. eigenvalues --    3.06581   3.06844   3.06995   3.07687   3.08047
  Beta virt. eigenvalues --    3.08586   3.09242   3.09708   3.11757   3.12097
  Beta virt. eigenvalues --    3.12168   3.12198   3.12786   3.13071   3.13374
  Beta virt. eigenvalues --    3.13877   3.14562   3.15397   3.15856   3.16333
  Beta virt. eigenvalues --    3.16860   3.18085   3.18198   3.18252   3.18700
  Beta virt. eigenvalues --    3.20406   3.20827   3.20916   3.21369   3.35564
  Beta virt. eigenvalues --    3.35710   3.35837   3.37129   3.37335   3.37574
  Beta virt. eigenvalues --    3.39337   3.40002   3.40156   3.44332   3.45136
  Beta virt. eigenvalues --    3.45669   3.45835   3.48426   3.48887   3.48976
  Beta virt. eigenvalues --    3.49327   3.49934   3.50173   3.55355   3.56509
  Beta virt. eigenvalues --    3.56682   3.56975   3.57111   3.69418   3.69616
  Beta virt. eigenvalues --    3.69765   3.70010   3.70200   3.70306   3.71040
  Beta virt. eigenvalues --    3.71068   3.71115   3.71150   3.71538   3.71715
  Beta virt. eigenvalues --    3.72075   3.74316   3.75407   3.75738   3.75828
  Beta virt. eigenvalues --    3.75979   3.76053   3.76239   3.76528   3.91669
  Beta virt. eigenvalues --    3.92004   3.92098   3.92118   3.92135   3.92166
  Beta virt. eigenvalues --    3.92578   4.15023   4.15079   4.15510   4.15603
  Beta virt. eigenvalues --    4.15628   4.15669   4.15941   4.33895   4.34075
  Beta virt. eigenvalues --    4.34138   4.34204   4.34227   4.34261   4.34480
          Condensed to atoms (all electrons):
          Atomic-Atomic Spin Densities.
 Mulliken charges and spin densities:
               1          2
     1  C   -0.066679   0.000000
     2  C    0.029623  -0.000000
     3  C    0.133984   0.000000
     4  F   -0.131985  -0.000000
     5  C    0.025376   0.000000
     6  N   -0.182107  -0.000000
     7  C    0.074617  -0.000000
     8  C    0.049282  -0.000000
     9  N   -0.172086   0.000000
    10  C    0.079942   0.000000
    11  C   -0.087499  -0.000000
    12  C    0.006417  -0.000000
    13  C    0.139187   0.000000
    14  O   -0.259222  -0.000000
    15  C    0.030379   0.000000
    16  C   -0.086369   0.000000
    17  C    0.040765   0.000000
    18  C    0.144779  -0.000000
    19  F   -0.120608   0.000000
    20  C    0.031960  -0.000000
    21  N   -0.177902   0.000000
    22  C    0.084003  -0.000000
    23  C    0.038762  -0.000000
    24  N   -0.177005   0.000000
    25  C    0.077122  -0.000000
    26  C   -0.087044   0.000000
    27  C    0.005033  -0.000000
    28  C    0.140181   0.000000
    29  O   -0.246293   0.000000
    30  C    0.029028   0.000000
    31  C   -0.089501   0.000000
    32  C    0.050531  -0.000000
    33  C    0.143301   0.000000
    34  F   -0.115411  -0.000000
    35  C    0.046085  -0.000000
    36  N   -0.197488  -0.000000
    37  C    0.091187   0.000000
    38  C    0.053975   0.000000
    39  N   -0.190246   0.000000
    40  C    0.082255  -0.000000
    41  C   -0.084978   0.000000
    42  C    0.099778   0.000000
    43  C    0.044348  -0.000000
    44  O   -0.272877  -0.000000
    45  C    0.051572  -0.000000
    46  C   -0.085796   0.000000
    47  C    0.045899  -0.000000
    48  C    0.142477   0.000000
    49  F   -0.116073  -0.000000
    50  C    0.047721   0.000000
    51  N   -0.197153   0.000000
    52  C    0.094341  -0.000000
    53  C    0.054226  -0.000000
    54  N   -0.191566   0.000000
    55  C    0.082571  -0.000000
    56  C   -0.083083   0.000000
    57  C    0.099664  -0.000000
    58  C    0.044003   0.000000
    59  O   -0.273517   0.000000
    60  C    0.051187  -0.000000
    61  C   -0.087332   0.000000
    62  C    0.044946  -0.000000
    63  C    0.145478  -0.000000
    64  F   -0.128195   0.000000
    65  C    0.029009   0.000000
    66  N   -0.177869   0.000000
    67  C    0.087285  -0.000000
    68  C    0.045046   0.000000
    69  N   -0.171993  -0.000000
    70  C    0.080589  -0.000000
    71  C   -0.086927  -0.000000
    72  C    0.007122   0.000000
    73  C    0.138630  -0.000000
    74  O   -0.259622  -0.000000
    75  C    0.029523   0.000000
    76  C   -0.090684   0.000000
    77  C    0.045599   0.000000
    78  C    0.142070   0.000000
    79  F   -0.117006   0.000000
    80  C    0.047307  -0.000000
    81  N   -0.196749  -0.000000
    82  C    0.095510   0.000000
    83  C    0.053454  -0.000000
    84  N   -0.190988   0.000000
    85  C    0.080843   0.000000
    86  C   -0.082461  -0.000000
    87  C    0.099973   0.000000
    88  C    0.043587  -0.000000
    89  O   -0.274002   0.000000
    90  C    0.051405   0.000000
    91  C   -0.085325   0.000000
    92  C    0.042690  -0.000000
    93  C    0.145375   0.000000
    94  F   -0.119869  -0.000000
    95  C    0.036060  -0.000000
    96  N   -0.177535   0.000000
    97  C    0.080388  -0.000000
    98  C    0.032979  -0.000000
    99  N   -0.183188  -0.000000
   100  C    0.066554   0.000000
   101  C   -0.062382   0.000000
   102  C   -0.019576  -0.000000
   103  C    0.129443   0.000000
   104  O   -0.247705  -0.000000
   105  C    0.028673   0.000000
   106  H    0.030270   0.000000
   107  H    0.040008  -0.000000
   108  H    0.033883   0.000000
   109  H    0.029175   0.000000
   110  H    0.021652   0.000000
   111  H    0.059430   0.000000
   112  H    0.055912  -0.000000
   113  H    0.074485  -0.000000
   114  H    0.031897  -0.000000
   115  H    0.032597   0.000000
   116  H    0.027061  -0.000000
   117  H    0.024391  -0.000000
   118  H    0.053601   0.000000
   119  H    0.060970  -0.000000
   120  H    0.075661  -0.000000
   121  H    0.039507   0.000000
   122  H    0.026731  -0.000000
   123  H    0.031985  -0.000000
   124  H    0.023904   0.000000
   125  H    0.061937  -0.000000
   126  H    0.057074   0.000000
   127  H    0.038048  -0.000000
   128  H    0.037223   0.000000
   129  H    0.031462   0.000000
   130  H    0.032475   0.000000
   131  H    0.022930   0.000000
   132  H    0.061506  -0.000000
   133  H    0.058439   0.000000
   134  H    0.038371   0.000000
   135  H    0.034697  -0.000000
   136  H    0.033453   0.000000
   137  H    0.028731  -0.000000
   138  H    0.023458  -0.000000
   139  H    0.059990  -0.000000
   140  H    0.075916  -0.000000
   141  H    0.057392  -0.000000
   142  H    0.032932  -0.000000
   143  H    0.033314  -0.000000
   144  H    0.029968  -0.000000
   145  H    0.025356   0.000000
   146  H    0.038579   0.000000
   147  H    0.058440  -0.000000
   148  H    0.060933   0.000000
   149  H    0.035398  -0.000000
   150  H    0.029631  -0.000000
   151  H    0.027971  -0.000000
   152  H    0.024679  -0.000000
   153  H    0.028525  -0.000000
   154  H    0.074099  -0.000000
   155  H    0.053845  -0.000000
   156  H    0.056909  -0.000000
 Sum of Mulliken charges =  -0.00000   0.00000
 Mulliken charges and spin densities with hydrogens summed into heavy atoms:
               1          2
     1  C   -0.036409   0.000000
     2  C    0.069631  -0.000000
     3  C    0.133984   0.000000
     4  F   -0.131985  -0.000000
     5  C    0.025376   0.000000
     6  N   -0.182107  -0.000000
     7  C    0.108500  -0.000000
     8  C    0.049282  -0.000000
     9  N   -0.172086   0.000000
    10  C    0.109118   0.000000
    11  C   -0.087499  -0.000000
    12  C    0.028068  -0.000000
    13  C    0.139187   0.000000
    14  O   -0.259222  -0.000000
    15  C    0.220206   0.000000
    16  C   -0.086369   0.000000
    17  C    0.072662   0.000000
    18  C    0.144779  -0.000000
    19  F   -0.120608   0.000000
    20  C    0.031960  -0.000000
    21  N   -0.177902   0.000000
    22  C    0.116600  -0.000000
    23  C    0.038762  -0.000000
    24  N   -0.177005   0.000000
    25  C    0.104183  -0.000000
    26  C   -0.087044   0.000000
    27  C    0.029424  -0.000000
    28  C    0.140181   0.000000
    29  O   -0.246293   0.000000
    30  C    0.219260  -0.000000
    31  C   -0.089501   0.000000
    32  C    0.090038  -0.000000
    33  C    0.143301   0.000000
    34  F   -0.115411  -0.000000
    35  C    0.046085  -0.000000
    36  N   -0.197488  -0.000000
    37  C    0.117919   0.000000
    38  C    0.053975   0.000000
    39  N   -0.190246   0.000000
    40  C    0.114240  -0.000000
    41  C   -0.084978   0.000000
    42  C    0.123682   0.000000
    43  C    0.044348  -0.000000
    44  O   -0.272877  -0.000000
    45  C    0.208632  -0.000000
    46  C   -0.085796   0.000000
    47  C    0.083122  -0.000000
    48  C    0.142477   0.000000
    49  F   -0.116073  -0.000000
    50  C    0.047721   0.000000
    51  N   -0.197153   0.000000
    52  C    0.125803  -0.000000
    53  C    0.054226  -0.000000
    54  N   -0.191566   0.000000
    55  C    0.115045  -0.000000
    56  C   -0.083083   0.000000
    57  C    0.122595  -0.000000
    58  C    0.044003   0.000000
    59  O   -0.273517   0.000000
    60  C    0.209504  -0.000000
    61  C   -0.087332   0.000000
    62  C    0.079642  -0.000000
    63  C    0.145478  -0.000000
    64  F   -0.128195   0.000000
    65  C    0.029009   0.000000
    66  N   -0.177869   0.000000
    67  C    0.120738  -0.000000
    68  C    0.045046   0.000000
    69  N   -0.171993  -0.000000
    70  C    0.109320  -0.000000
    71  C   -0.086927  -0.000000
    72  C    0.030580   0.000000
    73  C    0.138630  -0.000000
    74  O   -0.259622  -0.000000
    75  C    0.222821  -0.000000
    76  C   -0.090684   0.000000
    77  C    0.078531   0.000000
    78  C    0.142070   0.000000
    79  F   -0.117006   0.000000
    80  C    0.047307  -0.000000
    81  N   -0.196749  -0.000000
    82  C    0.128824   0.000000
    83  C    0.053454  -0.000000
    84  N   -0.190988   0.000000
    85  C    0.110811   0.000000
    86  C   -0.082461  -0.000000
    87  C    0.125329   0.000000
    88  C    0.043587  -0.000000
    89  O   -0.274002   0.000000
    90  C    0.209356   0.000000
    91  C   -0.085325   0.000000
    92  C    0.078088  -0.000000
    93  C    0.145375   0.000000
    94  F   -0.119869  -0.000000
    95  C    0.036060  -0.000000
    96  N   -0.177535   0.000000
    97  C    0.110019  -0.000000
    98  C    0.032979  -0.000000
    99  N   -0.183188  -0.000000
   100  C    0.094525  -0.000000
   101  C   -0.037703   0.000000
   102  C    0.008950  -0.000000
   103  C    0.129443   0.000000
   104  O   -0.247705  -0.000000
   105  C    0.213526   0.000000
 Electronic spatial extent (au):  <R**2>=         758755.2176
 Charge=             -0.0000 electrons
 Dipole moment (field-independent basis, Debye):
    X=              0.0051    Y=              0.9844    Z=              4.4899  Tot=              4.5966
 Quadrupole moment (field-independent basis, Debye-Ang):
   XX=           -368.1067   YY=           -561.9740   ZZ=           -570.9206
   XY=           -146.0231   XZ=            -54.8981   YZ=              6.2907
 Traceless Quadrupole moment (field-independent basis, Debye-Ang):
   XX=            132.2271   YY=            -61.6403   ZZ=            -70.5868
   XY=           -146.0231   XZ=            -54.8981   YZ=              6.2907
 Octapole moment (field-independent basis, Debye-Ang**2):
  XXX=           1448.8466  YYY=            -52.6095  ZZZ=             47.0795  XYY=            -24.8302
  XXY=            327.7729  XXZ=           2003.8258  XZZ=           -177.5212  YZZ=             17.7639
  YYZ=             42.6489  XYZ=            -59.3511
 Hexadecapole moment (field-independent basis, Debye-Ang**3):
 XXXX=        -660796.1020 YYYY=          -9376.2291 ZZZZ=          -5337.8774 XXXY=         -63671.3936
 XXXZ=         -26646.0144 YYYX=          -2359.0991 YYYZ=            -72.7483 ZZZX=          -1526.5880
 ZZZY=            137.8729 XXYY=        -163403.9101 XXZZ=        -166025.0774 YYZZ=          -2566.9148
 XXYZ=           2804.4475 YYXZ=            165.1762 ZZXY=           -634.6942
 N-N= 1.462320947360D+04 E-N=-4.081613154561D+04  KE= 4.923846663978D+03
 Leave Link  601 at Sat Jul 25 08:55:51 2020, MaxMem=  4026531840 cpu:              14.5 elap:               2.0
 (Enter /opt/ohpc/pub/libs/gaussian/g16-A.03/sandybridge/g16/l9999.exe)

 Test job not archived.
 1\1\GINC-SKYLAKE048\FOpt\ULC-wPBE\CC-pVDZ\C77H51F7N14O7\RDU230\25-Jul-
 2020\0\\#P uLC-wPBE/cc-pVDZ iop(3/107=0487400000, 3/108=0487400000) op
 t\\H51 C77 N14 O7 F7\\0,1\C,-28.5692276537,1.982542387,-0.1436758853\C
 ,-27.954894407,2.2832795417,1.0578431498\C,-26.6149272541,1.997815846,
 1.175406869\F,-25.9746576473,2.29242688,2.3085938926\C,-25.9167886173,
 1.4286506073,0.121351945\N,-26.5148707188,1.1527217052,-1.0272120839\C
 ,-27.8053401377,1.4213537147,-1.1525736887\C,-24.4585553113,1.14749365
 21,0.2233510009\N,-23.6756938833,1.7270197318,-0.6628242921\C,-22.3706
 997629,1.4998681886,-0.6151839176\C,-21.7768004011,0.677473062,0.32818
 7471\C,-22.6035438542,0.0513289252,1.2568156335\C,-23.96485318,0.28001
 76788,1.2066947192\O,-24.871651169,-0.2772605656,2.0281474057\C,-24.41
 03359821,-1.1023210447,3.0642962765\C,-20.3151725247,0.4658848199,0.34
 33515901\C,-19.762992405,-0.7894928688,0.5532737926\C,-18.3938676945,-
 0.9121299459,0.5523682809\F,-17.8476703631,-2.1065899139,0.7681975399\
 C,-17.5854894869,0.1947037578,0.3407109841\N,-18.1158921863,1.39405698
 1,0.152706248\C,-19.4307393049,1.523398649,0.1533457271\C,-16.10646827
 33,0.0614500961,0.2781895449\N,-15.6248205814,-0.7902626149,-0.6048147
 347\C,-14.3118378772,-0.9146108921,-0.7344443998\C,-13.4054536959,-0.1
 875687335,0.0183893018\C,-13.9096625957,0.6971756621,0.9675623724\C,-1
 5.2783147566,0.8244761957,1.1147415211\O,-15.8818159881,1.6169601587,2
 .0129516471\C,-15.0790088253,2.4291377436,2.8272520988\C,-11.950326986
 6,-0.3566067821,-0.1693317027\C,-11.3869382394,-0.4513046973,-1.433686
 4703\C,-10.0249288349,-0.6084056387,-1.5355293174\F,-9.4741387155,-0.7
 184530608,-2.7400060978\C,-9.2319173841,-0.6657106465,-0.3981629746\N,
 -9.7774352289,-0.5913416914,0.8078411534\C,-11.0859911309,-0.441759542
 4,0.9166882849\C,-7.7546896574,-0.7809244047,-0.496696457\N,-7.1395133
 764,0.0959761856,-1.2783661887\C,-5.8236004142,0.0520060987,-1.3755049
 914\C,-5.0312308674,-0.8762534383,-0.7076758099\C,-5.6824579967,-1.805
 9934887,0.0882565907\C,-7.059945702,-1.7670809111,0.2008778163\O,-7.72
 25600191,-2.7032958721,0.9239772216\C,-7.6844616022,-2.507809328,2.323
 0078698\C,-3.5623852586,-0.87851495,-0.8595055697\C,-2.8478458585,-2.0
 590167349,-1.0051900065\C,-1.4814853428,-1.9888388605,-1.1354967545\F,
 -0.7898414606,-3.1108024459,-1.3074138615\C,-0.8316480435,-0.762228343
 3,-1.1208839965\N,-1.5203962538,0.3626703286,-0.9903521867\C,-2.834738
 3402,0.3064141267,-0.8612054377\C,0.6475581587,-0.6759184044,-1.217568
 6074\N,1.3433057184,-1.4364014652,-0.3830602445\C,2.6616695599,-1.3734
 660226,-0.4096318162\C,3.3779047684,-0.556063844,-1.2785268434\C,2.645
 0725501,0.2179737349,-2.1647837652\C,1.2635007106,0.1643640764,-2.1427
 383949\O,0.5288859616,0.8666925692,-3.0403561459\C,0.3997144008,2.2441
 163538,-2.7511282568\C,4.8544201969,-0.5347205519,-1.2645879216\C,5.59
 23616895,-0.5142033208,-2.4398337953\C,6.962672027,-0.4970972665,-2.34
 70872534\F,7.6934435253,-0.4582269637,-3.4617266961\C,7.5918400552,-0.
 5044812665,-1.1118743128\N,6.8844124372,-0.5098603606,0.0069443896\C,5
 .5649831178,-0.5253294278,-0.0684766703\C,9.074107907,-0.4610845166,-0
 .99272977\N,9.5881695496,0.5367366744,-0.3038803115\C,10.9033815842,0.
 6062446243,-0.1567444887\C,11.7774944599,-0.3271265948,-0.6898086882\C
 ,11.2367269505,-1.3864823075,-1.4128759268\C,9.8661634303,-1.463678874
 4,-1.5678778684\O,9.2163961209,-2.4500977845,-2.208836688\C,9.97652189
 82,-3.4423359641,-2.8464522752\C,13.2362823589,-0.2037113357,-0.495535
 1526\C,14.1319178544,-0.4439118297,-1.5275300709\C,15.476682009,-0.308
 6388446,-1.2773220658\F,16.3441351779,-0.5565767331,-2.2539835394\C,15
 .9275565653,0.06566697,-0.0191997686\N,15.0679140382,0.2789884278,0.96
 70408285\C,13.7725353884,0.1501082316,0.737903658\C,17.3738475017,0.26
 61231901,0.2507621715\N,18.0319167334,1.0556079466,-0.5877965556\C,19.
 3129307375,1.2884924338,-0.371584147\C,20.0301226077,0.7426120384,0.68
 8486041\C,19.3421339032,-0.1005939692,1.5472113658\C,17.998438616,-0.3
 490655658,1.3334222125\O,17.3206417146,-1.2175367964,2.1242694097\C,16
 .9436388947,-0.7000275464,3.3842738348\C,21.4661829026,1.0344664919,0.
 8711087718\C,21.9762908989,2.3128059632,0.693889926\C,23.3236578503,2.
 5102480903,0.8814191326\F,23.8336679407,3.7263753524,0.7034044952\C,24
 .1504511762,1.4570418827,1.2433623068\N,23.6612838998,0.2356804009,1.3
 987860202\C,22.3678266939,0.0343925341,1.2198512672\C,25.597962588,1.6
 761454064,1.5050426396\N,25.9017872246,2.5551036292,2.4396994585\C,27.
 1798156492,2.7580334815,2.7374924205\C,28.204506831,2.0874005281,2.104
 7899735\C,27.8983673878,1.1739947129,1.1076461264\C,26.5687356394,0.96
 21862119,0.7880630325\O,26.129389326,0.1378165081,-0.1771465947\C,27.0
 767497992,-0.616154867,-0.8834280438\H,-29.6260175736,2.1851946445,-0.
 2970049864\H,-28.4859572404,2.7352399294,1.8915901692\H,-28.2552896712
 ,1.174340121,-2.1140077236\H,-21.7674209177,1.9876236752,-1.3803935431
 \H,-22.1704461261,-0.5947065014,2.0151827479\H,-23.7407618656,-0.55772
 89346,3.7428545089\H,-23.8925753605,-1.9883966869,2.6737040916\H,-25.2
 944434372,-1.4235437329,3.6179062003\H,-20.3763237152,-1.6752630072,0.
 7000474569\H,-19.8146291467,2.5333142592,0.0089996878\H,-13.9653835492
 ,-1.6438304744,-1.466516194\H,-13.2247025361,1.2874056721,1.5692386859
 \H,-14.416738358,1.8310375987,3.4674771425\H,-14.476614251,3.126023691
 3,2.2300458163\H,-15.7624089908,3.000607979,3.4577938779\H,-11.9857998
 13,-0.3910164845,-2.3390337367\H,-11.4819641415,-0.4033349152,1.931671
 8093\H,-5.3659615472,0.7845334023,-2.0408829533\H,-5.1307355246,-2.572
 9430362,0.6284477694\H,-8.2027924924,-3.358076047,2.7720898081\H,-8.20
 16444678,-1.5790800581,2.5881556103\H,-6.6510257976,-2.4824020539,2.69
 42811256\H,-3.3357809551,-3.0300052817,-1.0434437155\H,-3.3462131262,1
 .2601799107,-0.7321676829\H,3.1886904301,-2.0261560504,0.2867310382\H,
 3.1354565562,0.8707011099,-2.8843938895\H,-0.1595524573,2.6866243815,-
 3.5786118292\H,-0.1541445679,2.3829302514,-1.8161397865\H,1.381855267,
 2.7310417188,-2.6825121264\H,5.1225154018,-0.523624636,-3.4203683799\H
 ,5.0307194421,-0.5129429822,0.8817177924\H,11.282495014,1.4638490759,0
 .398413472\H,11.8915278849,-2.1521544066,-1.8191494175\H,10.5775897997
 ,-4.0136032531,-2.1268983852\H,9.2630183719,-4.1146738914,-3.326083922
 5\H,10.6345340729,-3.0121378519,-3.6127587951\H,13.8032965672,-0.71938
 48836,-2.5267630571\H,13.1132470533,0.3220723417,1.5885016642\H,19.812
 4077245,1.9342060124,-1.0946775233\H,19.8392801895,-0.5754942527,2.390
 5379265\H,17.8187179005,-0.3566379436,3.9523088907\H,16.2320257997,0.1
 230897162,3.256276795\H,16.4651607223,-1.5176773576,3.928196744\H,21.3
 451065775,3.1574520676,0.4287860524\H,22.020537806,-0.9916360514,1.345
 1509892\H,27.3847449609,3.4895015885,3.518203524\H,29.2395721485,2.276
 0666972,2.3787277401\H,28.6935014576,0.6461576314,0.5895736938\H,26.51
 55071429,-1.2259592951,-1.5938561388\H,27.774615776,0.0265022545,-1.43
 69730583\H,27.6440151285,-1.2774030093,-0.2150839126\\Version=EM64L-G1
 6RevA.03\State=1-A\HF=-4953.7550266\S2=0.\S2-1=0.\S2A=0.\RMSD=5.821e-0
 9\RMSF=2.087e-06\Dipole=0.0081459,-1.1395055,1.4042422\Quadrupole=97.9
 416242,-54.6233055,-43.3183187,-35.4157384,-110.6736382,2.0248445\PG=C
 01 [X(C77H51F7N14O7)]\\@


 BETTER TO HUNT IN FIELDS, FOR HEALTH UNBOUGHT
 THAN FEE THE DOCTOR FOR A NAUSEOUS DRAUGHT.
 THE WISE, FOR CURE, ON EXERCISE DEPEND;
 GOD NEVER MADE HIS WORK FOR MAN TO MEND.
     -- JOHN DRYDEN (1631-1700)
 Job cpu time:       5 days  9 hours 45 minutes 29.7 seconds.
 Elapsed time:       0 days 16 hours 28 minutes 27.6 seconds.
 File lengths (MBytes):  RWF=   3288 Int=      0 D2E=      0 Chk=    296 Scr=      8
 Normal termination of Gaussian 16 at Sat Jul 25 08:55:51 2020.
