 Entering Gaussian System, Link 0=g16
 Input=mols_65_7_31_cF-cF-COC_opt_0.gjf
 Output=mols_65_7_31_cF-cF-COC_opt_0.log
 Initial command:
 /opt/ohpc/pub/libs/gaussian/g16-A.03/sandybridge/g16/l1.exe "/mnt/gpfs2_4m/scratch/rdu230/ondemand/projects/dihedral_energies/7trial/wtuning/mols_65_7_31_cF-cF-COC/Gau-222866.inp" -scrdir="/mnt/gpfs2_4m/scratch/rdu230/ondemand/projects/dihedral_energies/7trial/wtuning/mols_65_7_31_cF-cF-COC/"
 Entering Link 1 = /opt/ohpc/pub/libs/gaussian/g16-A.03/sandybridge/g16/l1.exe PID=    222869.
  
 Copyright (c) 1988,1990,1992,1993,1995,1998,2003,2009,2016,
            Gaussian, Inc.  All Rights Reserved.
  
 This is part of the Gaussian(R) 16 program.  It is based on
 the Gaussian(R) 09 system (copyright 2009, Gaussian, Inc.),
 the Gaussian(R) 03 system (copyright 2003, Gaussian, Inc.),
 the Gaussian(R) 98 system (copyright 1998, Gaussian, Inc.),
 the Gaussian(R) 94 system (copyright 1995, Gaussian, Inc.),
 the Gaussian 92(TM) system (copyright 1992, Gaussian, Inc.),
 the Gaussian 90(TM) system (copyright 1990, Gaussian, Inc.),
 the Gaussian 88(TM) system (copyright 1988, Gaussian, Inc.),
 the Gaussian 86(TM) system (copyright 1986, Carnegie Mellon
 University), and the Gaussian 82(TM) system (copyright 1983,
 Carnegie Mellon University). Gaussian is a federally registered
 trademark of Gaussian, Inc.
  
 This software contains proprietary and confidential information,
 including trade secrets, belonging to Gaussian, Inc.
  
 This software is provided under written license and may be
 used, copied, transmitted, or stored only in accord with that
 written license.
  
 The following legend is applicable only to US Government
 contracts under FAR:
  
                    RESTRICTED RIGHTS LEGEND
  
 Use, reproduction and disclosure by the US Government is
 subject to restrictions as set forth in subparagraphs (a)
 and (c) of the Commercial Computer Software - Restricted
 Rights clause in FAR 52.227-19.
  
 Gaussian, Inc.
 340 Quinnipiac St., Bldg. 40, Wallingford CT 06492
  
  
 ---------------------------------------------------------------
 Warning -- This program may not be used in any manner that
 competes with the business of Gaussian, Inc. or will provide
 assistance to any competitor of Gaussian, Inc.  The licensee
 of this program is prohibited from giving any competitor of
 Gaussian, Inc. access to this program.  By using this program,
 the user acknowledges that Gaussian, Inc. is engaged in the
 business of creating and licensing software in the field of
 computational chemistry and represents and warrants to the
 licensee that it is not a competitor of Gaussian, Inc. and that
 it will not use this program in any manner prohibited above.
 ---------------------------------------------------------------
  

 Cite this work as:
 Gaussian 16, Revision A.03,
 M. J. Frisch, G. W. Trucks, H. B. Schlegel, G. E. Scuseria, 
 M. A. Robb, J. R. Cheeseman, G. Scalmani, V. Barone, 
 G. A. Petersson, H. Nakatsuji, X. Li, M. Caricato, A. V. Marenich, 
 J. Bloino, B. G. Janesko, R. Gomperts, B. Mennucci, H. P. Hratchian, 
 J. V. Ortiz, A. F. Izmaylov, J. L. Sonnenberg, D. Williams-Young, 
 F. Ding, F. Lipparini, F. Egidi, J. Goings, B. Peng, A. Petrone, 
 T. Henderson, D. Ranasinghe, V. G. Zakrzewski, J. Gao, N. Rega, 
 G. Zheng, W. Liang, M. Hada, M. Ehara, K. Toyota, R. Fukuda, 
 J. Hasegawa, M. Ishida, T. Nakajima, Y. Honda, O. Kitao, H. Nakai, 
 T. Vreven, K. Throssell, J. A. Montgomery, Jr., J. E. Peralta, 
 F. Ogliaro, M. J. Bearpark, J. J. Heyd, E. N. Brothers, K. N. Kudin, 
 V. N. Staroverov, T. A. Keith, R. Kobayashi, J. Normand, 
 K. Raghavachari, A. P. Rendell, J. C. Burant, S. S. Iyengar, 
 J. Tomasi, M. Cossi, J. M. Millam, M. Klene, C. Adamo, R. Cammi, 
 J. W. Ochterski, R. L. Martin, K. Morokuma, O. Farkas, 
 J. B. Foresman, and D. J. Fox, Gaussian, Inc., Wallingford CT, 2016.
 
 ******************************************
 Gaussian 16:  EM64L-G16RevA.03 25-Dec-2016
                24-Jul-2020 
 ******************************************
 %mem=30GB
 %nproc=8
 Will use up to    8 processors via shared memory.
 ---------------------------------------------------------------
 #P uLC-wPBE/cc-pVDZ iop(3/107=0186300000, 3/108=0186300000) opt
 ---------------------------------------------------------------
 1/18=20,19=15,26=3,38=1/1,3;
 2/9=110,12=2,17=6,18=5,40=1/2;
 3/5=16,11=2,25=1,30=1,71=1,74=-41,107=186300000,108=186300000,116=2/1,2,3;
 4//1;
 5/5=2,38=5/2;
 6/7=2,8=2,9=2,10=2,28=1/1;
 7//1,2,3,16;
 1/18=20,19=15,26=3/3(2);
 2/9=110/2;
 99//99;
 2/9=110/2;
 3/5=16,11=2,25=1,30=1,71=1,74=-41,107=186300000,108=186300000,116=2/1,2,3;
 4/5=5,16=3,69=1/1;
 5/5=2,38=5/2;
 7//1,2,3,16;
 1/18=20,19=15,26=3/3(-5);
 2/9=110/2;
 6/7=2,8=2,9=2,10=2,19=2,28=1/1;
 99/9=1/99;
 Leave Link    1 at Fri Jul 24 12:11:57 2020, MaxMem=  4026531840 cpu:               3.5 elap:               0.5
 (Enter /opt/ohpc/pub/libs/gaussian/g16-A.03/sandybridge/g16/l101.exe)
 -----------------
 H44 C77 S7 O7 F14
 -----------------
 Symbolic Z-matrix:
 Charge =  0 Multiplicity = 1
 C                    -27.20335  -1.85587   0.02999 
 C                    -26.48236  -1.43563  -1.03672 
 C                    -25.17741  -1.01807  -0.95311 
 F                    -24.43412  -0.6724   -2.08832 
 C                    -24.50977  -0.90579   0.30146 
 C                    -25.31951  -1.3351    1.42417 
 F                    -24.71794  -1.31386   2.62134 
 C                    -26.61301  -1.7813    1.27182 
 C                    -23.10984  -0.47075   0.503 
 C                    -22.69125   0.62885   1.13893 
 O                    -23.51412   1.43703   1.68142 
 C                    -22.93041   2.47749   2.4424 
 C                    -21.21061   0.7309    1.07946 
 C                    -20.64349  -0.33294   0.39507 
 S                    -21.90496  -1.45682  -0.20484 
 C                    -19.27851  -0.67966   0.13508 
 C                    -18.34314  -0.75109   1.2424 
 C                    -16.97661  -1.03665   1.06968 
 F                    -16.2081  -1.16658   2.07767 
 C                    -16.51215  -1.18837  -0.28475 
 C                    -17.40023  -1.04314  -1.34238 
 F                    -16.93177  -1.22122  -2.54648 
 C                    -18.68184  -0.82676  -1.13427 
 C                    -15.11518  -1.46336  -0.465 
 C                    -14.41628  -2.55037  -1.0717 
 O                    -15.2393  -3.57685  -1.5979 
 C                    -14.51492  -4.46656  -2.33664 
 C                    -13.05936  -2.41601  -1.17426 
 C                    -12.64204  -1.22638  -0.5312 
 S                    -13.90417  -0.34171   0.05981 
 C                    -11.18542  -0.68434  -0.42464 
 C                    -10.39353  -0.65654  -1.60964 
 C                    -9.09617  -0.05556  -1.50261 
 F                    -8.39007  -0.03994  -2.54622 
 C                    -8.63022   0.43228  -0.24941 
 C                    -9.50217   0.42753   0.83157 
 F                    -9.03649   0.92117   2.0261 
 C                    -10.71128  -0.2128    0.79249 
 C                    -7.34561   1.21142  -0.24289 
 C                    -7.17548   2.54098   0.07047 
 O                    -8.28702   3.31036   0.17804 
 C                    -7.90123   4.67822   0.62767 
 C                    -5.82637   2.86429   0.08821 
 C                    -4.95551   1.80701  -0.18238 
 S                    -5.86458   0.38829  -0.404 
 C                    -3.49619   1.75193  -0.09916 
 C                    -2.78011   2.3274    0.95481 
 C                    -1.43417   2.39086   0.85811 
 F                    -0.78548   3.01271   1.9736 
 C                    -0.65257   1.89306  -0.11944 
 C                    -1.36105   1.23224  -1.15777 
 F                    -0.72918   0.76054  -2.2068 
 C                    -2.81749   1.17828  -1.21224 
 C                     0.78461   2.03381  -0.13595 
 C                     1.5276    3.23262  -0.38285 
 O                     0.80942   4.33309  -0.60583 
 C                     1.60465   5.56516  -0.56699 
 C                     2.90865   2.98279  -0.23626 
 C                     3.23847   1.61953  -0.02147 
 S                     1.84437   0.6593    0.04518 
 C                     4.59598   1.04814   0.11633 
 C                     5.49155   1.6474    1.00804 
 C                     6.72325   1.20958   1.12289 
 F                     7.57305   1.8522    1.96649 
 C                     7.16833   0.09237   0.36026 
 C                     6.21758  -0.53333  -0.4459 
 F                     6.62162  -1.61315  -1.12155 
 C                     4.98574  -0.10526  -0.59363 
 C                     8.53359  -0.43545   0.46715 
 C                     9.01647  -1.69205   1.00995 
 O                     8.07815  -2.53019   1.48713 
 C                     8.69814  -3.83439   1.85178 
 C                     10.4493  -1.71174   0.88595 
 C                     10.99062  -0.63302   0.38545 
 S                     9.81844   0.51487  -0.08146 
 C                     12.41833  -0.41322   0.07802 
 C                     13.11419   0.78533   0.4711 
 C                     14.41632   1.04056   0.20346 
 F                     14.92693   2.18437   0.65421 
 C                     15.22193   0.02021  -0.43329 
 C                     14.60818  -1.12642  -0.81754 
 F                     15.24233  -2.10173  -1.36787 
 C                     13.22543  -1.39908  -0.56558 
 C                     16.60628   0.27158  -0.62302 
 C                     17.24876   1.26882  -1.37029 
 O                     16.47702   2.20904  -2.00683 
 C                     17.06995   3.38781  -2.44423 
 C                     18.68657   1.22192  -1.38765 
 C                     19.11419   0.14988  -0.6048 
 S                     17.80359  -0.71808   0.09891 
 C                     20.53674  -0.21673  -0.36527 
 C                     20.93602  -1.56304  -0.45192 
 C                     22.29352  -1.89503  -0.1914 
 F                     22.55766  -3.22239  -0.22513 
 C                     23.18186  -0.9416    0.05089 
 C                     22.77226   0.42879   0.07981 
 F                     23.66392   1.42519   0.34541 
 C                     21.46136   0.74418  -0.09853 
 C                     24.63256  -1.35388   0.36392 
 C                     25.17147  -1.99702   1.40512 
 O                     24.30317  -2.36221   2.40722 
 C                     24.55282  -3.70437   2.90245 
 C                     26.58239  -2.22815   1.31054 
 C                     26.99503  -1.69114   0.11862 
 S                     25.82512  -0.87538  -0.82326 
 H                    -28.17567  -2.16799  -0.06924 
 H                    -26.86205  -1.44276  -2.05985 
 H                    -27.1578  -1.99571   2.22273 
 H                    -23.70471   3.05288   2.96356 
 H                    -22.28158   2.05054   3.29931 
 H                    -22.32092   3.16432   1.81098 
 H                    -20.66715   1.46374   1.51128 
 H                    -18.73176  -0.6626    2.23626 
 H                    -19.35537  -0.75646  -1.96297 
 H                    -15.23522  -5.22584  -2.77148 
 H                    -14.11185  -4.01302  -3.21144 
 H                    -13.78658  -5.0206   -1.80167 
 H                    -12.33498  -3.13206  -1.52477 
 H                    -10.77368  -1.04442  -2.50272 
 H                    -11.3582  -0.24148   1.70604 
 H                    -8.85321   5.21591   0.8035 
 H                    -7.3299    5.21202  -0.10548 
 H                    -7.46052   4.64317   1.59672 
 H                    -5.37149   3.81936   0.22835 
 H                    -3.30585   2.75216   1.79525 
 H                    -3.2197    0.71852  -2.04669 
 H                     2.33397   5.53818  -1.46589 
 H                     1.02754   6.41813  -0.67579 
 H                     2.15963   5.62728   0.42155 
 H                     3.64228   3.79517  -0.40656 
 H                     5.18598   2.59513   1.60765 
 H                     4.27209  -0.54325  -1.31274 
 H                     9.35178  -3.66944   2.7152 
 H                     7.92502  -4.42708   2.22253 
 H                     9.12068  -4.26696   1.00415 
 H                     11.00731  -2.60893   1.27932 
 H                     12.51329   1.54268   0.98949 
 H                     12.82403  -2.27143  -0.87191 
 H                     16.35941   4.16535  -2.76547 
 H                     17.78798   3.24704  -3.29573 
 H                     17.65751   3.8051   -1.56592 
 H                     19.31892   1.89647  -1.90964 
 H                     20.26752  -2.39118  -0.60433 
 H                     21.21096   1.82879  -0.1546 
 H                     25.60744  -3.77058   3.43536 
 H                     24.55971  -4.46986   2.14213 
 H                     23.79283  -4.00292   3.61768 
 H                     27.13676  -2.69315   2.06824 
 H                     28.09005  -1.70088  -0.16565 
 
 ITRead=  0  0  0  0  0  0  0  0  0  0  0  0  0  0  0  0  0  0  0  0
 ITRead=  0  0  0  0  0  0  0  0  0  0  0  0  0  0  0  0  0  0  0  0
 ITRead=  0  0  0  0  0  0  0  0  0  0  0  0  0  0  0  0  0  0  0  0
 ITRead=  0  0  0  0  0  0  0  0  0  0  0  0  0  0  0  0  0  0  0  0
 ITRead=  0  0  0  0  0  0  0  0  0  0  0  0  0  0  0  0  0  0  0  0
 ITRead=  0  0  0  0  0  0  0  0  0  0  0  0  0  0  0  0  0  0  0  0
 ITRead=  0  0  0  0  0  0  0  0  0  0  0  0  0  0  0  0  0  0  0  0
 ITRead=  0  0  0  0  0  0  0  0  0
 MicOpt= -1 -1 -1 -1 -1 -1 -1 -1 -1 -1 -1 -1 -1 -1 -1 -1 -1 -1 -1 -1
 MicOpt= -1 -1 -1 -1 -1 -1 -1 -1 -1 -1 -1 -1 -1 -1 -1 -1 -1 -1 -1 -1
 MicOpt= -1 -1 -1 -1 -1 -1 -1 -1 -1 -1 -1 -1 -1 -1 -1 -1 -1 -1 -1 -1
 MicOpt= -1 -1 -1 -1 -1 -1 -1 -1 -1 -1 -1 -1 -1 -1 -1 -1 -1 -1 -1 -1
 MicOpt= -1 -1 -1 -1 -1 -1 -1 -1 -1 -1 -1 -1 -1 -1 -1 -1 -1 -1 -1 -1
 MicOpt= -1 -1 -1 -1 -1 -1 -1 -1 -1 -1 -1 -1 -1 -1 -1 -1 -1 -1 -1 -1
 MicOpt= -1 -1 -1 -1 -1 -1 -1 -1 -1 -1 -1 -1 -1 -1 -1 -1 -1 -1 -1 -1
 MicOpt= -1 -1 -1 -1 -1 -1 -1 -1 -1
 NAtoms=    149 NQM=      149 NQMF=       0 NMMI=      0 NMMIF=      0
                NMic=       0 NMicF=      0.
                    Isotopes and Nuclear Properties:
 (Nuclear quadrupole moments (NQMom) in fm**2, nuclear magnetic moments (NMagM)
  in nuclear magnetons)

  Atom         1           2           3           4           5           6           7           8           9          10
 IAtWgt=          12          12          12          19          12          12          19          12          12          12
 AtmWgt=  12.0000000  12.0000000  12.0000000  18.9984033  12.0000000  12.0000000  18.9984033  12.0000000  12.0000000  12.0000000
 NucSpn=           0           0           0           1           0           0           1           0           0           0
 AtZEff=  -0.0000000  -0.0000000  -0.0000000  -0.0000000  -0.0000000  -0.0000000  -0.0000000  -0.0000000  -0.0000000  -0.0000000
 NQMom=    0.0000000   0.0000000   0.0000000   0.0000000   0.0000000   0.0000000   0.0000000   0.0000000   0.0000000   0.0000000
 NMagM=    0.0000000   0.0000000   0.0000000   2.6288670   0.0000000   0.0000000   2.6288670   0.0000000   0.0000000   0.0000000
 AtZNuc=   6.0000000   6.0000000   6.0000000   9.0000000   6.0000000   6.0000000   9.0000000   6.0000000   6.0000000   6.0000000

  Atom        11          12          13          14          15          16          17          18          19          20
 IAtWgt=          16          12          12          12          32          12          12          12          19          12
 AtmWgt=  15.9949146  12.0000000  12.0000000  12.0000000  31.9720718  12.0000000  12.0000000  12.0000000  18.9984033  12.0000000
 NucSpn=           0           0           0           0           0           0           0           0           1           0
 AtZEff=  -0.0000000  -0.0000000  -0.0000000  -0.0000000  -0.0000000  -0.0000000  -0.0000000  -0.0000000  -0.0000000  -0.0000000
 NQMom=    0.0000000   0.0000000   0.0000000   0.0000000   0.0000000   0.0000000   0.0000000   0.0000000   0.0000000   0.0000000
 NMagM=    0.0000000   0.0000000   0.0000000   0.0000000   0.0000000   0.0000000   0.0000000   0.0000000   2.6288670   0.0000000
 AtZNuc=   8.0000000   6.0000000   6.0000000   6.0000000  16.0000000   6.0000000   6.0000000   6.0000000   9.0000000   6.0000000

  Atom        21          22          23          24          25          26          27          28          29          30
 IAtWgt=          12          19          12          12          12          16          12          12          12          32
 AtmWgt=  12.0000000  18.9984033  12.0000000  12.0000000  12.0000000  15.9949146  12.0000000  12.0000000  12.0000000  31.9720718
 NucSpn=           0           1           0           0           0           0           0           0           0           0
 AtZEff=  -0.0000000  -0.0000000  -0.0000000  -0.0000000  -0.0000000  -0.0000000  -0.0000000  -0.0000000  -0.0000000  -0.0000000
 NQMom=    0.0000000   0.0000000   0.0000000   0.0000000   0.0000000   0.0000000   0.0000000   0.0000000   0.0000000   0.0000000
 NMagM=    0.0000000   2.6288670   0.0000000   0.0000000   0.0000000   0.0000000   0.0000000   0.0000000   0.0000000   0.0000000
 AtZNuc=   6.0000000   9.0000000   6.0000000   6.0000000   6.0000000   8.0000000   6.0000000   6.0000000   6.0000000  16.0000000

  Atom        31          32          33          34          35          36          37          38          39          40
 IAtWgt=          12          12          12          19          12          12          19          12          12          12
 AtmWgt=  12.0000000  12.0000000  12.0000000  18.9984033  12.0000000  12.0000000  18.9984033  12.0000000  12.0000000  12.0000000
 NucSpn=           0           0           0           1           0           0           1           0           0           0
 AtZEff=  -0.0000000  -0.0000000  -0.0000000  -0.0000000  -0.0000000  -0.0000000  -0.0000000  -0.0000000  -0.0000000  -0.0000000
 NQMom=    0.0000000   0.0000000   0.0000000   0.0000000   0.0000000   0.0000000   0.0000000   0.0000000   0.0000000   0.0000000
 NMagM=    0.0000000   0.0000000   0.0000000   2.6288670   0.0000000   0.0000000   2.6288670   0.0000000   0.0000000   0.0000000
 AtZNuc=   6.0000000   6.0000000   6.0000000   9.0000000   6.0000000   6.0000000   9.0000000   6.0000000   6.0000000   6.0000000

  Atom        41          42          43          44          45          46          47          48          49          50
 IAtWgt=          16          12          12          12          32          12          12          12          19          12
 AtmWgt=  15.9949146  12.0000000  12.0000000  12.0000000  31.9720718  12.0000000  12.0000000  12.0000000  18.9984033  12.0000000
 NucSpn=           0           0           0           0           0           0           0           0           1           0
 AtZEff=  -0.0000000  -0.0000000  -0.0000000  -0.0000000  -0.0000000  -0.0000000  -0.0000000  -0.0000000  -0.0000000  -0.0000000
 NQMom=    0.0000000   0.0000000   0.0000000   0.0000000   0.0000000   0.0000000   0.0000000   0.0000000   0.0000000   0.0000000
 NMagM=    0.0000000   0.0000000   0.0000000   0.0000000   0.0000000   0.0000000   0.0000000   0.0000000   2.6288670   0.0000000
 AtZNuc=   8.0000000   6.0000000   6.0000000   6.0000000  16.0000000   6.0000000   6.0000000   6.0000000   9.0000000   6.0000000

  Atom        51          52          53          54          55          56          57          58          59          60
 IAtWgt=          12          19          12          12          12          16          12          12          12          32
 AtmWgt=  12.0000000  18.9984033  12.0000000  12.0000000  12.0000000  15.9949146  12.0000000  12.0000000  12.0000000  31.9720718
 NucSpn=           0           1           0           0           0           0           0           0           0           0
 AtZEff=  -0.0000000  -0.0000000  -0.0000000  -0.0000000  -0.0000000  -0.0000000  -0.0000000  -0.0000000  -0.0000000  -0.0000000
 NQMom=    0.0000000   0.0000000   0.0000000   0.0000000   0.0000000   0.0000000   0.0000000   0.0000000   0.0000000   0.0000000
 NMagM=    0.0000000   2.6288670   0.0000000   0.0000000   0.0000000   0.0000000   0.0000000   0.0000000   0.0000000   0.0000000
 AtZNuc=   6.0000000   9.0000000   6.0000000   6.0000000   6.0000000   8.0000000   6.0000000   6.0000000   6.0000000  16.0000000

  Atom        61          62          63          64          65          66          67          68          69          70
 IAtWgt=          12          12          12          19          12          12          19          12          12          12
 AtmWgt=  12.0000000  12.0000000  12.0000000  18.9984033  12.0000000  12.0000000  18.9984033  12.0000000  12.0000000  12.0000000
 NucSpn=           0           0           0           1           0           0           1           0           0           0
 AtZEff=  -0.0000000  -0.0000000  -0.0000000  -0.0000000  -0.0000000  -0.0000000  -0.0000000  -0.0000000  -0.0000000  -0.0000000
 NQMom=    0.0000000   0.0000000   0.0000000   0.0000000   0.0000000   0.0000000   0.0000000   0.0000000   0.0000000   0.0000000
 NMagM=    0.0000000   0.0000000   0.0000000   2.6288670   0.0000000   0.0000000   2.6288670   0.0000000   0.0000000   0.0000000
 AtZNuc=   6.0000000   6.0000000   6.0000000   9.0000000   6.0000000   6.0000000   9.0000000   6.0000000   6.0000000   6.0000000

  Atom        71          72          73          74          75          76          77          78          79          80
 IAtWgt=          16          12          12          12          32          12          12          12          19          12
 AtmWgt=  15.9949146  12.0000000  12.0000000  12.0000000  31.9720718  12.0000000  12.0000000  12.0000000  18.9984033  12.0000000
 NucSpn=           0           0           0           0           0           0           0           0           1           0
 AtZEff=  -0.0000000  -0.0000000  -0.0000000  -0.0000000  -0.0000000  -0.0000000  -0.0000000  -0.0000000  -0.0000000  -0.0000000
 NQMom=    0.0000000   0.0000000   0.0000000   0.0000000   0.0000000   0.0000000   0.0000000   0.0000000   0.0000000   0.0000000
 NMagM=    0.0000000   0.0000000   0.0000000   0.0000000   0.0000000   0.0000000   0.0000000   0.0000000   2.6288670   0.0000000
 AtZNuc=   8.0000000   6.0000000   6.0000000   6.0000000  16.0000000   6.0000000   6.0000000   6.0000000   9.0000000   6.0000000

  Atom        81          82          83          84          85          86          87          88          89          90
 IAtWgt=          12          19          12          12          12          16          12          12          12          32
 AtmWgt=  12.0000000  18.9984033  12.0000000  12.0000000  12.0000000  15.9949146  12.0000000  12.0000000  12.0000000  31.9720718
 NucSpn=           0           1           0           0           0           0           0           0           0           0
 AtZEff=  -0.0000000  -0.0000000  -0.0000000  -0.0000000  -0.0000000  -0.0000000  -0.0000000  -0.0000000  -0.0000000  -0.0000000
 NQMom=    0.0000000   0.0000000   0.0000000   0.0000000   0.0000000   0.0000000   0.0000000   0.0000000   0.0000000   0.0000000
 NMagM=    0.0000000   2.6288670   0.0000000   0.0000000   0.0000000   0.0000000   0.0000000   0.0000000   0.0000000   0.0000000
 AtZNuc=   6.0000000   9.0000000   6.0000000   6.0000000   6.0000000   8.0000000   6.0000000   6.0000000   6.0000000  16.0000000

  Atom        91          92          93          94          95          96          97          98          99         100
 IAtWgt=          12          12          12          19          12          12          19          12          12          12
 AtmWgt=  12.0000000  12.0000000  12.0000000  18.9984033  12.0000000  12.0000000  18.9984033  12.0000000  12.0000000  12.0000000
 NucSpn=           0           0           0           1           0           0           1           0           0           0
 AtZEff=  -0.0000000  -0.0000000  -0.0000000  -0.0000000  -0.0000000  -0.0000000  -0.0000000  -0.0000000  -0.0000000  -0.0000000
 NQMom=    0.0000000   0.0000000   0.0000000   0.0000000   0.0000000   0.0000000   0.0000000   0.0000000   0.0000000   0.0000000
 NMagM=    0.0000000   0.0000000   0.0000000   2.6288670   0.0000000   0.0000000   2.6288670   0.0000000   0.0000000   0.0000000
 AtZNuc=   6.0000000   6.0000000   6.0000000   9.0000000   6.0000000   6.0000000   9.0000000   6.0000000   6.0000000   6.0000000

  Atom       101         102         103         104         105         106         107         108         109         110
 IAtWgt=          16          12          12          12          32           1           1           1           1           1
 AtmWgt=  15.9949146  12.0000000  12.0000000  12.0000000  31.9720718   1.0078250   1.0078250   1.0078250   1.0078250   1.0078250
 NucSpn=           0           0           0           0           0           1           1           1           1           1
 AtZEff=  -0.0000000  -0.0000000  -0.0000000  -0.0000000  -0.0000000  -0.0000000  -0.0000000  -0.0000000  -0.0000000  -0.0000000
 NQMom=    0.0000000   0.0000000   0.0000000   0.0000000   0.0000000   0.0000000   0.0000000   0.0000000   0.0000000   0.0000000
 NMagM=    0.0000000   0.0000000   0.0000000   0.0000000   0.0000000   2.7928460   2.7928460   2.7928460   2.7928460   2.7928460
 AtZNuc=   8.0000000   6.0000000   6.0000000   6.0000000  16.0000000   1.0000000   1.0000000   1.0000000   1.0000000   1.0000000

  Atom       111         112         113         114         115         116         117         118         119         120
 IAtWgt=           1           1           1           1           1           1           1           1           1           1
 AtmWgt=   1.0078250   1.0078250   1.0078250   1.0078250   1.0078250   1.0078250   1.0078250   1.0078250   1.0078250   1.0078250
 NucSpn=           1           1           1           1           1           1           1           1           1           1
 AtZEff=  -0.0000000  -0.0000000  -0.0000000  -0.0000000  -0.0000000  -0.0000000  -0.0000000  -0.0000000  -0.0000000  -0.0000000
 NQMom=    0.0000000   0.0000000   0.0000000   0.0000000   0.0000000   0.0000000   0.0000000   0.0000000   0.0000000   0.0000000
 NMagM=    2.7928460   2.7928460   2.7928460   2.7928460   2.7928460   2.7928460   2.7928460   2.7928460   2.7928460   2.7928460
 AtZNuc=   1.0000000   1.0000000   1.0000000   1.0000000   1.0000000   1.0000000   1.0000000   1.0000000   1.0000000   1.0000000

  Atom       121         122         123         124         125         126         127         128         129         130
 IAtWgt=           1           1           1           1           1           1           1           1           1           1
 AtmWgt=   1.0078250   1.0078250   1.0078250   1.0078250   1.0078250   1.0078250   1.0078250   1.0078250   1.0078250   1.0078250
 NucSpn=           1           1           1           1           1           1           1           1           1           1
 AtZEff=  -0.0000000  -0.0000000  -0.0000000  -0.0000000  -0.0000000  -0.0000000  -0.0000000  -0.0000000  -0.0000000  -0.0000000
 NQMom=    0.0000000   0.0000000   0.0000000   0.0000000   0.0000000   0.0000000   0.0000000   0.0000000   0.0000000   0.0000000
 NMagM=    2.7928460   2.7928460   2.7928460   2.7928460   2.7928460   2.7928460   2.7928460   2.7928460   2.7928460   2.7928460
 AtZNuc=   1.0000000   1.0000000   1.0000000   1.0000000   1.0000000   1.0000000   1.0000000   1.0000000   1.0000000   1.0000000

  Atom       131         132         133         134         135         136         137         138         139         140
 IAtWgt=           1           1           1           1           1           1           1           1           1           1
 AtmWgt=   1.0078250   1.0078250   1.0078250   1.0078250   1.0078250   1.0078250   1.0078250   1.0078250   1.0078250   1.0078250
 NucSpn=           1           1           1           1           1           1           1           1           1           1
 AtZEff=  -0.0000000  -0.0000000  -0.0000000  -0.0000000  -0.0000000  -0.0000000  -0.0000000  -0.0000000  -0.0000000  -0.0000000
 NQMom=    0.0000000   0.0000000   0.0000000   0.0000000   0.0000000   0.0000000   0.0000000   0.0000000   0.0000000   0.0000000
 NMagM=    2.7928460   2.7928460   2.7928460   2.7928460   2.7928460   2.7928460   2.7928460   2.7928460   2.7928460   2.7928460
 AtZNuc=   1.0000000   1.0000000   1.0000000   1.0000000   1.0000000   1.0000000   1.0000000   1.0000000   1.0000000   1.0000000

  Atom       141         142         143         144         145         146         147         148         149
 IAtWgt=           1           1           1           1           1           1           1           1           1
 AtmWgt=   1.0078250   1.0078250   1.0078250   1.0078250   1.0078250   1.0078250   1.0078250   1.0078250   1.0078250
 NucSpn=           1           1           1           1           1           1           1           1           1
 AtZEff=  -0.0000000  -0.0000000  -0.0000000  -0.0000000  -0.0000000  -0.0000000  -0.0000000  -0.0000000  -0.0000000
 NQMom=    0.0000000   0.0000000   0.0000000   0.0000000   0.0000000   0.0000000   0.0000000   0.0000000   0.0000000
 NMagM=    2.7928460   2.7928460   2.7928460   2.7928460   2.7928460   2.7928460   2.7928460   2.7928460   2.7928460
 AtZNuc=   1.0000000   1.0000000   1.0000000   1.0000000   1.0000000   1.0000000   1.0000000   1.0000000   1.0000000
 Leave Link  101 at Fri Jul 24 12:11:58 2020, MaxMem=  4026531840 cpu:               2.9 elap:               0.4
 (Enter /opt/ohpc/pub/libs/gaussian/g16-A.03/sandybridge/g16/l103.exe)

 GradGradGradGradGradGradGradGradGradGradGradGradGradGradGradGradGradGrad
 Berny optimization.
 Initialization pass.
                           ----------------------------
                           !    Initial Parameters    !
                           ! (Angstroms and Degrees)  !
 --------------------------                            --------------------------
 ! Name  Definition              Value          Derivative Info.                !
 --------------------------------------------------------------------------------
 ! R1    R(1,2)                  1.3544         estimate D2E/DX2                !
 ! R2    R(1,8)                  1.377          estimate D2E/DX2                !
 ! R3    R(1,106)                1.026          estimate D2E/DX2                !
 ! R4    R(2,3)                  1.3727         estimate D2E/DX2                !
 ! R5    R(2,107)                1.0913         estimate D2E/DX2                !
 ! R6    R(3,4)                  1.4002         estimate D2E/DX2                !
 ! R7    R(3,5)                  1.4256         estimate D2E/DX2                !
 ! R8    R(5,6)                  1.4493         estimate D2E/DX2                !
 ! R9    R(5,9)                  1.4797         estimate D2E/DX2                !
 ! R10   R(6,7)                  1.34           estimate D2E/DX2                !
 ! R11   R(6,8)                  1.3768         estimate D2E/DX2                !
 ! R12   R(8,108)                1.1167         estimate D2E/DX2                !
 ! R13   R(9,10)                 1.3374         estimate D2E/DX2                !
 ! R14   R(9,15)                 1.7103         estimate D2E/DX2                !
 ! R15   R(10,11)                1.2746         estimate D2E/DX2                !
 ! R16   R(10,13)                1.4853         estimate D2E/DX2                !
 ! R17   R(11,12)                1.415          estimate D2E/DX2                !
 ! R18   R(12,109)               1.0965         estimate D2E/DX2                !
 ! R19   R(12,110)               1.1565         estimate D2E/DX2                !
 ! R20   R(12,111)               1.1144         estimate D2E/DX2                !
 ! R21   R(13,14)                1.3863         estimate D2E/DX2                !
 ! R22   R(13,112)               1.0094         estimate D2E/DX2                !
 ! R23   R(14,15)                1.7928         estimate D2E/DX2                !
 ! R24   R(14,16)                1.4321         estimate D2E/DX2                !
 ! R25   R(16,17)                1.4513         estimate D2E/DX2                !
 ! R26   R(16,23)                1.4103         estimate D2E/DX2                !
 ! R27   R(17,18)                1.4067         estimate D2E/DX2                !
 ! R28   R(17,113)               1.0708         estimate D2E/DX2                !
 ! R29   R(18,19)                1.2742         estimate D2E/DX2                !
 ! R30   R(18,20)                1.4399         estimate D2E/DX2                !
 ! R31   R(20,21)                1.3887         estimate D2E/DX2                !
 ! R32   R(20,24)                1.4351         estimate D2E/DX2                !
 ! R33   R(21,22)                1.3042         estimate D2E/DX2                !
 ! R34   R(21,23)                1.3163         estimate D2E/DX2                !
 ! R35   R(23,114)               1.0702         estimate D2E/DX2                !
 ! R36   R(24,25)                1.4276         estimate D2E/DX2                !
 ! R37   R(24,30)                1.7321         estimate D2E/DX2                !
 ! R38   R(25,26)                1.417          estimate D2E/DX2                !
 ! R39   R(25,28)                1.3674         estimate D2E/DX2                !
 ! R40   R(26,27)                1.3646         estimate D2E/DX2                !
 ! R41   R(27,115)               1.1333         estimate D2E/DX2                !
 ! R42   R(27,116)               1.0646         estimate D2E/DX2                !
 ! R43   R(27,117)               1.06           estimate D2E/DX2                !
 ! R44   R(28,29)                1.4152         estimate D2E/DX2                !
 ! R45   R(28,118)               1.0772         estimate D2E/DX2                !
 ! R46   R(29,30)                1.6507         estimate D2E/DX2                !
 ! R47   R(29,31)                1.5579         estimate D2E/DX2                !
 ! R48   R(31,32)                1.4255         estimate D2E/DX2                !
 ! R49   R(31,38)                1.3887         estimate D2E/DX2                !
 ! R50   R(32,33)                1.4338         estimate D2E/DX2                !
 ! R51   R(32,119)               1.0453         estimate D2E/DX2                !
 ! R52   R(33,34)                1.2601         estimate D2E/DX2                !
 ! R53   R(33,35)                1.4232         estimate D2E/DX2                !
 ! R54   R(35,36)                1.3888         estimate D2E/DX2                !
 ! R55   R(35,39)                1.5024         estimate D2E/DX2                !
 ! R56   R(36,37)                1.3738         estimate D2E/DX2                !
 ! R57   R(36,38)                1.3688         estimate D2E/DX2                !
 ! R58   R(38,120)               1.1198         estimate D2E/DX2                !
 ! R59   R(39,40)                1.3765         estimate D2E/DX2                !
 ! R60   R(39,45)                1.702          estimate D2E/DX2                !
 ! R61   R(40,41)                1.3561         estimate D2E/DX2                !
 ! R62   R(40,43)                1.3874         estimate D2E/DX2                !
 ! R63   R(41,42)                1.4907         estimate D2E/DX2                !
 ! R64   R(42,121)               1.1074         estimate D2E/DX2                !
 ! R65   R(42,122)               1.0719         estimate D2E/DX2                !
 ! R66   R(42,123)               1.0651         estimate D2E/DX2                !
 ! R67   R(43,44)                1.3962         estimate D2E/DX2                !
 ! R68   R(43,124)               1.0671         estimate D2E/DX2                !
 ! R69   R(44,45)                1.6995         estimate D2E/DX2                !
 ! R70   R(44,46)                1.4627         estimate D2E/DX2                !
 ! R71   R(46,47)                1.3981         estimate D2E/DX2                !
 ! R72   R(46,53)                1.4243         estimate D2E/DX2                !
 ! R73   R(47,48)                1.3509         estimate D2E/DX2                !
 ! R74   R(47,125)               1.0785         estimate D2E/DX2                !
 ! R75   R(48,49)                1.4324         estimate D2E/DX2                !
 ! R76   R(48,50)                1.347          estimate D2E/DX2                !
 ! R77   R(50,51)                1.4201         estimate D2E/DX2                !
 ! R78   R(50,54)                1.4441         estimate D2E/DX2                !
 ! R79   R(51,52)                1.3123         estimate D2E/DX2                !
 ! R80   R(51,53)                1.4585         estimate D2E/DX2                !
 ! R81   R(53,126)               1.0341         estimate D2E/DX2                !
 ! R82   R(54,55)                1.4318         estimate D2E/DX2                !
 ! R83   R(54,60)                1.745          estimate D2E/DX2                !
 ! R84   R(55,56)                1.3329         estimate D2E/DX2                !
 ! R85   R(55,58)                1.4111         estimate D2E/DX2                !
 ! R86   R(56,57)                1.4669         estimate D2E/DX2                !
 ! R87   R(57,127)               1.1579         estimate D2E/DX2                !
 ! R88   R(57,128)               1.0356         estimate D2E/DX2                !
 ! R89   R(57,129)               1.1354         estimate D2E/DX2                !
 ! R90   R(58,59)                1.4189         estimate D2E/DX2                !
 ! R91   R(58,130)               1.1078         estimate D2E/DX2                !
 ! R92   R(59,60)                1.6941         estimate D2E/DX2                !
 ! R93   R(59,61)                1.4793         estimate D2E/DX2                !
 ! R94   R(61,62)                1.3987         estimate D2E/DX2                !
 ! R95   R(61,68)                1.4093         estimate D2E/DX2                !
 ! R96   R(62,63)                1.3122         estimate D2E/DX2                !
 ! R97   R(62,131)               1.1624         estimate D2E/DX2                !
 ! R98   R(63,64)                1.359          estimate D2E/DX2                !
 ! R99   R(63,65)                1.424          estimate D2E/DX2                !
 ! R100  R(65,66)                1.3947         estimate D2E/DX2                !
 ! R101  R(65,69)                1.4676         estimate D2E/DX2                !
 ! R102  R(66,67)                1.3363         estimate D2E/DX2                !
 ! R103  R(66,68)                1.3124         estimate D2E/DX2                !
 ! R104  R(68,132)               1.1037         estimate D2E/DX2                !
 ! R105  R(69,70)                1.4515         estimate D2E/DX2                !
 ! R106  R(69,75)                1.6897         estimate D2E/DX2                !
 ! R107  R(70,71)                1.3456         estimate D2E/DX2                !
 ! R108  R(70,73)                1.4383         estimate D2E/DX2                !
 ! R109  R(71,72)                1.4894         estimate D2E/DX2                !
 ! R110  R(72,133)               1.0954         estimate D2E/DX2                !
 ! R111  R(72,134)               1.0423         estimate D2E/DX2                !
 ! R112  R(72,135)               1.0412         estimate D2E/DX2                !
 ! R113  R(73,74)                1.3066         estimate D2E/DX2                !
 ! R114  R(73,136)               1.1274         estimate D2E/DX2                !
 ! R115  R(74,75)                1.7058         estimate D2E/DX2                !
 ! R116  R(74,76)                1.4769         estimate D2E/DX2                !
 ! R117  R(76,77)                1.4406         estimate D2E/DX2                !
 ! R118  R(76,83)                1.4274         estimate D2E/DX2                !
 ! R119  R(77,78)                1.3536         estimate D2E/DX2                !
 ! R120  R(77,137)               1.097          estimate D2E/DX2                !
 ! R121  R(78,79)                1.3312         estimate D2E/DX2                !
 ! R122  R(78,80)                1.4476         estimate D2E/DX2                !
 ! R123  R(80,81)                1.3561         estimate D2E/DX2                !
 ! R124  R(80,84)                1.4197         estimate D2E/DX2                !
 ! R125  R(81,82)                1.2869         estimate D2E/DX2                !
 ! R126  R(81,83)                1.4317         estimate D2E/DX2                !
 ! R127  R(83,138)               1.0079         estimate D2E/DX2                !
 ! R128  R(84,85)                1.402          estimate D2E/DX2                !
 ! R129  R(84,90)                1.7129         estimate D2E/DX2                !
 ! R130  R(85,86)                1.3729         estimate D2E/DX2                !
 ! R131  R(85,88)                1.4387         estimate D2E/DX2                !
 ! R132  R(86,87)                1.3901         estimate D2E/DX2                !
 ! R133  R(87,139)               1.1012         estimate D2E/DX2                !
 ! R134  R(87,140)               1.1227         estimate D2E/DX2                !
 ! R135  R(87,141)               1.1361         estimate D2E/DX2                !
 ! R136  R(88,89)                1.3946         estimate D2E/DX2                !
 ! R137  R(88,142)               1.0618         estimate D2E/DX2                !
 ! R138  R(89,90)                1.7223         estimate D2E/DX2                !
 ! R139  R(89,91)                1.4884         estimate D2E/DX2                !
 ! R140  R(91,92)                1.4069         estimate D2E/DX2                !
 ! R141  R(91,98)                1.3599         estimate D2E/DX2                !
 ! R142  R(92,93)                1.4216         estimate D2E/DX2                !
 ! R143  R(92,143)               1.0751         estimate D2E/DX2                !
 ! R144  R(93,94)                1.3538         estimate D2E/DX2                !
 ! R145  R(93,95)                1.3255         estimate D2E/DX2                !
 ! R146  R(95,96)                1.4306         estimate D2E/DX2                !
 ! R147  R(95,99)                1.5403         estimate D2E/DX2                !
 ! R148  R(96,97)                1.3632         estimate D2E/DX2                !
 ! R149  R(96,98)                1.36           estimate D2E/DX2                !
 ! R150  R(98,144)               1.1145         estimate D2E/DX2                !
 ! R151  R(99,100)               1.3372         estimate D2E/DX2                !
 ! R152  R(99,105)               1.7494         estimate D2E/DX2                !
 ! R153  R(100,101)              1.3753         estimate D2E/DX2                !
 ! R154  R(100,103)              1.4329         estimate D2E/DX2                !
 ! R155  R(101,102)              1.4522         estimate D2E/DX2                !
 ! R156  R(102,145)              1.1835         estimate D2E/DX2                !
 ! R157  R(102,146)              1.0789         estimate D2E/DX2                !
 ! R158  R(102,147)              1.0855         estimate D2E/DX2                !
 ! R159  R(103,104)              1.3709         estimate D2E/DX2                !
 ! R160  R(103,148)              1.0477         estimate D2E/DX2                !
 ! R161  R(104,105)              1.7092         estimate D2E/DX2                !
 ! R162  R(104,149)              1.1314         estimate D2E/DX2                !
 ! A1    A(2,1,8)              117.7272         estimate D2E/DX2                !
 ! A2    A(2,1,106)            121.5147         estimate D2E/DX2                !
 ! A3    A(8,1,106)            120.6615         estimate D2E/DX2                !
 ! A4    A(1,2,3)              123.538          estimate D2E/DX2                !
 ! A5    A(1,2,107)            123.446          estimate D2E/DX2                !
 ! A6    A(3,2,107)            112.9447         estimate D2E/DX2                !
 ! A7    A(2,3,4)              122.029          estimate D2E/DX2                !
 ! A8    A(2,3,5)              121.5193         estimate D2E/DX2                !
 ! A9    A(4,3,5)              116.4505         estimate D2E/DX2                !
 ! A10   A(3,5,6)              113.3741         estimate D2E/DX2                !
 ! A11   A(3,5,9)              125.8792         estimate D2E/DX2                !
 ! A12   A(6,5,9)              120.6741         estimate D2E/DX2                !
 ! A13   A(5,6,7)              115.8852         estimate D2E/DX2                !
 ! A14   A(5,6,8)              122.3584         estimate D2E/DX2                !
 ! A15   A(7,6,8)              121.7215         estimate D2E/DX2                !
 ! A16   A(1,8,6)              121.3405         estimate D2E/DX2                !
 ! A17   A(1,8,108)            123.2567         estimate D2E/DX2                !
 ! A18   A(6,8,108)            115.237          estimate D2E/DX2                !
 ! A19   A(5,9,10)             127.054          estimate D2E/DX2                !
 ! A20   A(5,9,15)             116.1434         estimate D2E/DX2                !
 ! A21   A(10,9,15)            116.7637         estimate D2E/DX2                !
 ! A22   A(9,10,11)            121.4414         estimate D2E/DX2                !
 ! A23   A(9,10,13)            110.4531         estimate D2E/DX2                !
 ! A24   A(11,10,13)           128.0999         estimate D2E/DX2                !
 ! A25   A(10,11,12)           115.3913         estimate D2E/DX2                !
 ! A26   A(11,12,109)          110.4975         estimate D2E/DX2                !
 ! A27   A(11,12,110)          111.0043         estimate D2E/DX2                !
 ! A28   A(11,12,111)          111.9668         estimate D2E/DX2                !
 ! A29   A(109,12,110)         103.753          estimate D2E/DX2                !
 ! A30   A(109,12,111)         109.3965         estimate D2E/DX2                !
 ! A31   A(110,12,111)         109.9074         estimate D2E/DX2                !
 ! A32   A(10,13,14)           112.0147         estimate D2E/DX2                !
 ! A33   A(10,13,112)          124.7123         estimate D2E/DX2                !
 ! A34   A(14,13,112)          123.2361         estimate D2E/DX2                !
 ! A35   A(13,14,15)           111.0025         estimate D2E/DX2                !
 ! A36   A(13,14,16)           131.7079         estimate D2E/DX2                !
 ! A37   A(15,14,16)           117.2653         estimate D2E/DX2                !
 ! A38   A(9,15,14)             89.7585         estimate D2E/DX2                !
 ! A39   A(14,16,17)           119.1895         estimate D2E/DX2                !
 ! A40   A(14,16,23)           126.2919         estimate D2E/DX2                !
 ! A41   A(17,16,23)           114.138          estimate D2E/DX2                !
 ! A42   A(16,17,18)           122.8486         estimate D2E/DX2                !
 ! A43   A(16,17,113)          118.0476         estimate D2E/DX2                !
 ! A44   A(18,17,113)          118.9011         estimate D2E/DX2                !
 ! A45   A(17,18,19)           120.6293         estimate D2E/DX2                !
 ! A46   A(17,18,20)           116.7602         estimate D2E/DX2                !
 ! A47   A(19,18,20)           122.6052         estimate D2E/DX2                !
 ! A48   A(18,20,21)           119.9415         estimate D2E/DX2                !
 ! A49   A(18,20,24)           116.8934         estimate D2E/DX2                !
 ! A50   A(21,20,24)           123.1541         estimate D2E/DX2                !
 ! A51   A(20,21,22)           117.3327         estimate D2E/DX2                !
 ! A52   A(20,21,23)           121.2952         estimate D2E/DX2                !
 ! A53   A(22,21,23)           121.207          estimate D2E/DX2                !
 ! A54   A(16,23,21)           124.8465         estimate D2E/DX2                !
 ! A55   A(16,23,114)          115.0773         estimate D2E/DX2                !
 ! A56   A(21,23,114)          120.0751         estimate D2E/DX2                !
 ! A57   A(20,24,25)           132.5159         estimate D2E/DX2                !
 ! A58   A(20,24,30)           121.2274         estimate D2E/DX2                !
 ! A59   A(25,24,30)           106.2338         estimate D2E/DX2                !
 ! A60   A(24,25,26)           115.1532         estimate D2E/DX2                !
 ! A61   A(24,25,28)           116.286          estimate D2E/DX2                !
 ! A62   A(26,25,28)           128.2933         estimate D2E/DX2                !
 ! A63   A(25,26,27)           111.4095         estimate D2E/DX2                !
 ! A64   A(26,27,115)          107.8874         estimate D2E/DX2                !
 ! A65   A(26,27,116)          111.5961         estimate D2E/DX2                !
 ! A66   A(26,27,117)          115.6141         estimate D2E/DX2                !
 ! A67   A(115,27,116)         102.1669         estimate D2E/DX2                !
 ! A68   A(115,27,117)         106.2706         estimate D2E/DX2                !
 ! A69   A(116,27,117)         112.1614         estimate D2E/DX2                !
 ! A70   A(25,28,29)           109.9458         estimate D2E/DX2                !
 ! A71   A(25,28,118)          128.7862         estimate D2E/DX2                !
 ! A72   A(29,28,118)          120.5523         estimate D2E/DX2                !
 ! A73   A(28,29,30)           112.8126         estimate D2E/DX2                !
 ! A74   A(28,29,31)           126.8177         estimate D2E/DX2                !
 ! A75   A(30,29,31)           120.2611         estimate D2E/DX2                !
 ! A76   A(24,30,29)            94.5333         estimate D2E/DX2                !
 ! A77   A(29,31,32)           117.991          estimate D2E/DX2                !
 ! A78   A(29,31,38)           119.8235         estimate D2E/DX2                !
 ! A79   A(32,31,38)           122.1596         estimate D2E/DX2                !
 ! A80   A(31,32,33)           116.6647         estimate D2E/DX2                !
 ! A81   A(31,32,119)          120.0653         estimate D2E/DX2                !
 ! A82   A(33,32,119)          123.2578         estimate D2E/DX2                !
 ! A83   A(32,33,34)           116.7689         estimate D2E/DX2                !
 ! A84   A(32,33,35)           120.3735         estimate D2E/DX2                !
 ! A85   A(34,33,35)           122.7879         estimate D2E/DX2                !
 ! A86   A(33,35,36)           118.5964         estimate D2E/DX2                !
 ! A87   A(33,35,39)           117.4836         estimate D2E/DX2                !
 ! A88   A(36,35,39)           122.3576         estimate D2E/DX2                !
 ! A89   A(35,36,37)           117.5624         estimate D2E/DX2                !
 ! A90   A(35,36,38)           122.2745         estimate D2E/DX2                !
 ! A91   A(37,36,38)           119.495          estimate D2E/DX2                !
 ! A92   A(31,38,36)           119.0434         estimate D2E/DX2                !
 ! A93   A(31,38,120)          120.6022         estimate D2E/DX2                !
 ! A94   A(36,38,120)          119.9358         estimate D2E/DX2                !
 ! A95   A(35,39,40)           127.412          estimate D2E/DX2                !
 ! A96   A(35,39,45)           119.5243         estimate D2E/DX2                !
 ! A97   A(40,39,45)           112.4024         estimate D2E/DX2                !
 ! A98   A(39,40,41)           117.693          estimate D2E/DX2                !
 ! A99   A(39,40,43)           110.3753         estimate D2E/DX2                !
 ! A100  A(41,40,43)           131.59           estimate D2E/DX2                !
 ! A101  A(40,41,42)           109.4146         estimate D2E/DX2                !
 ! A102  A(41,42,121)          105.7213         estimate D2E/DX2                !
 ! A103  A(41,42,122)          112.8692         estimate D2E/DX2                !
 ! A104  A(41,42,123)          110.5672         estimate D2E/DX2                !
 ! A105  A(121,42,122)         108.9672         estimate D2E/DX2                !
 ! A106  A(121,42,123)         103.1334         estimate D2E/DX2                !
 ! A107  A(122,42,123)         114.7171         estimate D2E/DX2                !
 ! A108  A(40,43,44)           115.3127         estimate D2E/DX2                !
 ! A109  A(40,43,124)          128.6637         estimate D2E/DX2                !
 ! A110  A(44,43,124)          115.9325         estimate D2E/DX2                !
 ! A111  A(43,44,45)           108.8913         estimate D2E/DX2                !
 ! A112  A(43,44,46)           129.7734         estimate D2E/DX2                !
 ! A113  A(45,44,46)           120.6404         estimate D2E/DX2                !
 ! A114  A(39,45,44)            92.8312         estimate D2E/DX2                !
 ! A115  A(44,46,47)           122.5726         estimate D2E/DX2                !
 ! A116  A(44,46,53)           116.4942         estimate D2E/DX2                !
 ! A117  A(47,46,53)           120.7191         estimate D2E/DX2                !
 ! A118  A(46,47,48)           118.4023         estimate D2E/DX2                !
 ! A119  A(46,47,125)          119.9915         estimate D2E/DX2                !
 ! A120  A(48,47,125)          121.5318         estimate D2E/DX2                !
 ! A121  A(47,48,49)           114.573          estimate D2E/DX2                !
 ! A122  A(47,48,50)           127.7873         estimate D2E/DX2                !
 ! A123  A(49,48,50)           117.5695         estimate D2E/DX2                !
 ! A124  A(48,50,51)           114.4005         estimate D2E/DX2                !
 ! A125  A(48,50,54)           123.3496         estimate D2E/DX2                !
 ! A126  A(51,50,54)           122.2403         estimate D2E/DX2                !
 ! A127  A(50,51,52)           120.7642         estimate D2E/DX2                !
 ! A128  A(50,51,53)           122.8687         estimate D2E/DX2                !
 ! A129  A(52,51,53)           115.9551         estimate D2E/DX2                !
 ! A130  A(46,53,51)           115.58           estimate D2E/DX2                !
 ! A131  A(46,53,126)          128.6309         estimate D2E/DX2                !
 ! A132  A(51,53,126)          115.784          estimate D2E/DX2                !
 ! A133  A(50,54,55)           126.8683         estimate D2E/DX2                !
 ! A134  A(50,54,60)           121.7634         estimate D2E/DX2                !
 ! A135  A(55,54,60)           111.2379         estimate D2E/DX2                !
 ! A136  A(54,55,56)           116.1371         estimate D2E/DX2                !
 ! A137  A(54,55,58)           109.9814         estimate D2E/DX2                !
 ! A138  A(56,55,58)           133.7016         estimate D2E/DX2                !
 ! A139  A(55,56,57)           113.3862         estimate D2E/DX2                !
 ! A140  A(56,57,127)          107.5376         estimate D2E/DX2                !
 ! A141  A(56,57,128)          112.7622         estimate D2E/DX2                !
 ! A142  A(56,57,129)          109.5111         estimate D2E/DX2                !
 ! A143  A(127,57,128)         106.7767         estimate D2E/DX2                !
 ! A144  A(127,57,129)         111.6741         estimate D2E/DX2                !
 ! A145  A(128,57,129)         108.5909         estimate D2E/DX2                !
 ! A146  A(55,58,59)           114.4133         estimate D2E/DX2                !
 ! A147  A(55,58,130)          120.1555         estimate D2E/DX2                !
 ! A148  A(59,58,130)          125.0222         estimate D2E/DX2                !
 ! A149  A(58,59,60)           111.0533         estimate D2E/DX2                !
 ! A150  A(58,59,61)           126.7632         estimate D2E/DX2                !
 ! A151  A(60,59,61)           122.1792         estimate D2E/DX2                !
 ! A152  A(54,60,59)            92.8212         estimate D2E/DX2                !
 ! A153  A(59,61,62)           118.7818         estimate D2E/DX2                !
 ! A154  A(59,61,68)           121.5317         estimate D2E/DX2                !
 ! A155  A(62,61,68)           119.6514         estimate D2E/DX2                !
 ! A156  A(61,62,63)           120.9202         estimate D2E/DX2                !
 ! A157  A(61,62,131)          120.6562         estimate D2E/DX2                !
 ! A158  A(63,62,131)          118.2708         estimate D2E/DX2                !
 ! A159  A(62,63,64)           118.915          estimate D2E/DX2                !
 ! A160  A(62,63,65)           120.5477         estimate D2E/DX2                !
 ! A161  A(64,63,65)           120.53           estimate D2E/DX2                !
 ! A162  A(63,65,66)           116.6439         estimate D2E/DX2                !
 ! A163  A(63,65,69)           122.2688         estimate D2E/DX2                !
 ! A164  A(66,65,69)           120.9891         estimate D2E/DX2                !
 ! A165  A(65,66,67)           116.6567         estimate D2E/DX2                !
 ! A166  A(65,66,68)           123.9547         estimate D2E/DX2                !
 ! A167  A(67,66,68)           119.3686         estimate D2E/DX2                !
 ! A168  A(61,68,66)           118.0211         estimate D2E/DX2                !
 ! A169  A(61,68,132)          118.3037         estimate D2E/DX2                !
 ! A170  A(66,68,132)          123.4197         estimate D2E/DX2                !
 ! A171  A(65,69,70)           130.3956         estimate D2E/DX2                !
 ! A172  A(65,69,75)           118.7807         estimate D2E/DX2                !
 ! A173  A(70,69,75)           110.815          estimate D2E/DX2                !
 ! A174  A(69,70,71)           116.0952         estimate D2E/DX2                !
 ! A175  A(69,70,73)           108.121          estimate D2E/DX2                !
 ! A176  A(71,70,73)           135.7837         estimate D2E/DX2                !
 ! A177  A(70,71,72)           109.9971         estimate D2E/DX2                !
 ! A178  A(71,72,133)          108.0295         estimate D2E/DX2                !
 ! A179  A(71,72,134)          106.0362         estimate D2E/DX2                !
 ! A180  A(71,72,135)          109.4757         estimate D2E/DX2                !
 ! A181  A(133,72,134)         104.3502         estimate D2E/DX2                !
 ! A182  A(133,72,135)         117.5207         estimate D2E/DX2                !
 ! A183  A(134,72,135)         110.7527         estimate D2E/DX2                !
 ! A184  A(70,73,74)           115.7496         estimate D2E/DX2                !
 ! A185  A(70,73,136)          118.2855         estimate D2E/DX2                !
 ! A186  A(74,73,136)          125.8463         estimate D2E/DX2                !
 ! A187  A(73,74,75)           112.0701         estimate D2E/DX2                !
 ! A188  A(73,74,76)           127.0935         estimate D2E/DX2                !
 ! A189  A(75,74,76)           120.4754         estimate D2E/DX2                !
 ! A190  A(69,75,74)            93.1636         estimate D2E/DX2                !
 ! A191  A(74,76,77)           122.2748         estimate D2E/DX2                !
 ! A192  A(74,76,83)           122.5246         estimate D2E/DX2                !
 ! A193  A(77,76,83)           115.1211         estimate D2E/DX2                !
 ! A194  A(76,77,78)           124.5819         estimate D2E/DX2                !
 ! A195  A(76,77,137)          116.0244         estimate D2E/DX2                !
 ! A196  A(78,77,137)          119.353          estimate D2E/DX2                !
 ! A197  A(77,78,79)           117.647          estimate D2E/DX2                !
 ! A198  A(77,78,80)           119.3016         estimate D2E/DX2                !
 ! A199  A(79,78,80)           122.7582         estimate D2E/DX2                !
 ! A200  A(78,80,81)           117.952          estimate D2E/DX2                !
 ! A201  A(78,80,84)           118.4653         estimate D2E/DX2                !
 ! A202  A(81,80,84)           123.5827         estimate D2E/DX2                !
 ! A203  A(80,81,82)           122.6104         estimate D2E/DX2                !
 ! A204  A(80,81,83)           123.2474         estimate D2E/DX2                !
 ! A205  A(82,81,83)           114.0057         estimate D2E/DX2                !
 ! A206  A(76,83,81)           119.597          estimate D2E/DX2                !
 ! A207  A(76,83,138)          120.6369         estimate D2E/DX2                !
 ! A208  A(81,83,138)          119.7332         estimate D2E/DX2                !
 ! A209  A(80,84,85)           130.0912         estimate D2E/DX2                !
 ! A210  A(80,84,90)           121.5299         estimate D2E/DX2                !
 ! A211  A(85,84,90)           108.3771         estimate D2E/DX2                !
 ! A212  A(84,85,86)           118.4665         estimate D2E/DX2                !
 ! A213  A(84,85,88)           116.1819         estimate D2E/DX2                !
 ! A214  A(86,85,88)           125.3472         estimate D2E/DX2                !
 ! A215  A(85,86,87)           119.1339         estimate D2E/DX2                !
 ! A216  A(86,87,139)          114.5389         estimate D2E/DX2                !
 ! A217  A(86,87,140)          113.899          estimate D2E/DX2                !
 ! A218  A(86,87,141)          106.7861         estimate D2E/DX2                !
 ! A219  A(139,87,140)         106.2571         estimate D2E/DX2                !
 ! A220  A(139,87,141)         107.4499         estimate D2E/DX2                !
 ! A221  A(140,87,141)         107.5554         estimate D2E/DX2                !
 ! A222  A(85,88,89)           108.9483         estimate D2E/DX2                !
 ! A223  A(85,88,142)          125.4806         estimate D2E/DX2                !
 ! A224  A(89,88,142)          125.5708         estimate D2E/DX2                !
 ! A225  A(88,89,90)           112.5458         estimate D2E/DX2                !
 ! A226  A(88,89,91)           124.9395         estimate D2E/DX2                !
 ! A227  A(90,89,91)           122.5074         estimate D2E/DX2                !
 ! A228  A(84,90,89)            93.9298         estimate D2E/DX2                !
 ! A229  A(89,91,92)           119.8024         estimate D2E/DX2                !
 ! A230  A(89,91,98)           120.4867         estimate D2E/DX2                !
 ! A231  A(92,91,98)           119.6872         estimate D2E/DX2                !
 ! A232  A(91,92,93)           118.8935         estimate D2E/DX2                !
 ! A233  A(91,92,143)          124.7046         estimate D2E/DX2                !
 ! A234  A(93,92,143)          116.0937         estimate D2E/DX2                !
 ! A235  A(92,93,94)           114.2504         estimate D2E/DX2                !
 ! A236  A(92,93,95)           120.3651         estimate D2E/DX2                !
 ! A237  A(94,93,95)           125.3836         estimate D2E/DX2                !
 ! A238  A(93,95,96)           120.056          estimate D2E/DX2                !
 ! A239  A(93,95,99)           118.4139         estimate D2E/DX2                !
 ! A240  A(96,95,99)           121.4639         estimate D2E/DX2                !
 ! A241  A(95,96,97)           121.1187         estimate D2E/DX2                !
 ! A242  A(95,96,98)           119.7            estimate D2E/DX2                !
 ! A243  A(97,96,98)           119.1105         estimate D2E/DX2                !
 ! A244  A(91,98,96)           121.1446         estimate D2E/DX2                !
 ! A245  A(91,98,144)          121.6669         estimate D2E/DX2                !
 ! A246  A(96,98,144)          116.6676         estimate D2E/DX2                !
 ! A247  A(95,99,100)          131.8005         estimate D2E/DX2                !
 ! A248  A(95,99,105)          115.5254         estimate D2E/DX2                !
 ! A249  A(100,99,105)         112.6566         estimate D2E/DX2                !
 ! A250  A(99,100,101)         116.1424         estimate D2E/DX2                !
 ! A251  A(99,100,103)         115.0258         estimate D2E/DX2                !
 ! A252  A(101,100,103)        128.8249         estimate D2E/DX2                !
 ! A253  A(100,101,102)        112.665          estimate D2E/DX2                !
 ! A254  A(101,102,145)        111.0051         estimate D2E/DX2                !
 ! A255  A(101,102,146)        114.6137         estimate D2E/DX2                !
 ! A256  A(101,102,147)        111.0099         estimate D2E/DX2                !
 ! A257  A(145,102,146)        105.7793         estimate D2E/DX2                !
 ! A258  A(145,102,147)        108.1696         estimate D2E/DX2                !
 ! A259  A(146,102,147)        105.8821         estimate D2E/DX2                !
 ! A260  A(100,103,104)        106.8935         estimate D2E/DX2                !
 ! A261  A(100,103,148)        123.0174         estimate D2E/DX2                !
 ! A262  A(104,103,148)        130.0448         estimate D2E/DX2                !
 ! A263  A(103,104,105)        117.3914         estimate D2E/DX2                !
 ! A264  A(103,104,149)        120.4254         estimate D2E/DX2                !
 ! A265  A(105,104,149)        121.8805         estimate D2E/DX2                !
 ! A266  A(99,105,104)          87.8278         estimate D2E/DX2                !
 ! D1    D(8,1,2,3)              4.0006         estimate D2E/DX2                !
 ! D2    D(8,1,2,107)         -179.289          estimate D2E/DX2                !
 ! D3    D(106,1,2,3)         -179.5523         estimate D2E/DX2                !
 ! D4    D(106,1,2,107)         -2.8419         estimate D2E/DX2                !
 ! D5    D(2,1,8,6)             -2.0028         estimate D2E/DX2                !
 ! D6    D(2,1,8,108)          173.091          estimate D2E/DX2                !
 ! D7    D(106,1,8,6)         -178.4817         estimate D2E/DX2                !
 ! D8    D(106,1,8,108)         -3.3879         estimate D2E/DX2                !
 ! D9    D(1,2,3,4)            175.7616         estimate D2E/DX2                !
 ! D10   D(1,2,3,5)             -4.6466         estimate D2E/DX2                !
 ! D11   D(107,2,3,4)           -1.2581         estimate D2E/DX2                !
 ! D12   D(107,2,3,5)          178.3337         estimate D2E/DX2                !
 ! D13   D(2,3,5,6)              2.9401         estimate D2E/DX2                !
 ! D14   D(2,3,5,9)            179.839          estimate D2E/DX2                !
 ! D15   D(4,3,5,6)           -177.4464         estimate D2E/DX2                !
 ! D16   D(4,3,5,9)             -0.5475         estimate D2E/DX2                !
 ! D17   D(3,5,6,7)            176.7894         estimate D2E/DX2                !
 ! D18   D(3,5,6,8)             -1.096          estimate D2E/DX2                !
 ! D19   D(9,5,6,7)             -0.2893         estimate D2E/DX2                !
 ! D20   D(9,5,6,8)           -178.1747         estimate D2E/DX2                !
 ! D21   D(3,5,9,10)           115.3274         estimate D2E/DX2                !
 ! D22   D(3,5,9,15)           -62.3152         estimate D2E/DX2                !
 ! D23   D(6,5,9,10)           -67.9825         estimate D2E/DX2                !
 ! D24   D(6,5,9,15)           114.3749         estimate D2E/DX2                !
 ! D25   D(5,6,8,1)              0.6958         estimate D2E/DX2                !
 ! D26   D(5,6,8,108)         -174.7694         estimate D2E/DX2                !
 ! D27   D(7,6,8,1)           -177.0676         estimate D2E/DX2                !
 ! D28   D(7,6,8,108)            7.4672         estimate D2E/DX2                !
 ! D29   D(5,9,10,11)            1.3249         estimate D2E/DX2                !
 ! D30   D(5,9,10,13)         -177.876          estimate D2E/DX2                !
 ! D31   D(15,9,10,11)         178.9547         estimate D2E/DX2                !
 ! D32   D(15,9,10,13)          -0.2462         estimate D2E/DX2                !
 ! D33   D(5,9,15,14)          178.5053         estimate D2E/DX2                !
 ! D34   D(10,9,15,14)           0.6123         estimate D2E/DX2                !
 ! D35   D(9,10,11,12)         173.4069         estimate D2E/DX2                !
 ! D36   D(13,10,11,12)         -7.5447         estimate D2E/DX2                !
 ! D37   D(9,10,13,14)          -0.4083         estimate D2E/DX2                !
 ! D38   D(9,10,13,112)       -178.2509         estimate D2E/DX2                !
 ! D39   D(11,10,13,14)       -179.5419         estimate D2E/DX2                !
 ! D40   D(11,10,13,112)         2.6155         estimate D2E/DX2                !
 ! D41   D(10,11,12,109)      -173.5255         estimate D2E/DX2                !
 ! D42   D(10,11,12,110)       -58.9808         estimate D2E/DX2                !
 ! D43   D(10,11,12,111)        64.2598         estimate D2E/DX2                !
 ! D44   D(10,13,14,15)          0.8365         estimate D2E/DX2                !
 ! D45   D(10,13,14,16)       -177.2826         estimate D2E/DX2                !
 ! D46   D(112,13,14,15)       178.7163         estimate D2E/DX2                !
 ! D47   D(112,13,14,16)         0.5972         estimate D2E/DX2                !
 ! D48   D(13,14,15,9)          -0.816          estimate D2E/DX2                !
 ! D49   D(16,14,15,9)         177.6043         estimate D2E/DX2                !
 ! D50   D(13,14,16,17)         52.1703         estimate D2E/DX2                !
 ! D51   D(13,14,16,23)       -120.3087         estimate D2E/DX2                !
 ! D52   D(15,14,16,17)       -125.8542         estimate D2E/DX2                !
 ! D53   D(15,14,16,23)         61.6668         estimate D2E/DX2                !
 ! D54   D(14,16,17,18)       -177.644          estimate D2E/DX2                !
 ! D55   D(14,16,17,113)         7.5934         estimate D2E/DX2                !
 ! D56   D(23,16,17,18)         -4.2827         estimate D2E/DX2                !
 ! D57   D(23,16,17,113)      -179.0452         estimate D2E/DX2                !
 ! D58   D(14,16,23,21)        174.3732         estimate D2E/DX2                !
 ! D59   D(14,16,23,114)        -5.9952         estimate D2E/DX2                !
 ! D60   D(17,16,23,21)          1.5665         estimate D2E/DX2                !
 ! D61   D(17,16,23,114)      -178.8019         estimate D2E/DX2                !
 ! D62   D(16,17,18,19)       -175.8535         estimate D2E/DX2                !
 ! D63   D(16,17,18,20)          3.3297         estimate D2E/DX2                !
 ! D64   D(113,17,18,19)        -1.1335         estimate D2E/DX2                !
 ! D65   D(113,17,18,20)       178.0497         estimate D2E/DX2                !
 ! D66   D(17,18,20,21)          0.42           estimate D2E/DX2                !
 ! D67   D(17,18,20,24)        179.2508         estimate D2E/DX2                !
 ! D68   D(19,18,20,21)        179.5856         estimate D2E/DX2                !
 ! D69   D(19,18,20,24)         -1.5836         estimate D2E/DX2                !
 ! D70   D(18,20,21,22)       -178.478          estimate D2E/DX2                !
 ! D71   D(18,20,21,23)         -3.0943         estimate D2E/DX2                !
 ! D72   D(24,20,21,22)          2.7675         estimate D2E/DX2                !
 ! D73   D(24,20,21,23)        178.1512         estimate D2E/DX2                !
 ! D74   D(18,20,24,25)        120.3558         estimate D2E/DX2                !
 ! D75   D(18,20,24,30)        -61.6426         estimate D2E/DX2                !
 ! D76   D(21,20,24,25)        -60.8543         estimate D2E/DX2                !
 ! D77   D(21,20,24,30)        117.1473         estimate D2E/DX2                !
 ! D78   D(20,21,23,16)          2.0394         estimate D2E/DX2                !
 ! D79   D(20,21,23,114)      -177.575          estimate D2E/DX2                !
 ! D80   D(22,21,23,16)        177.2443         estimate D2E/DX2                !
 ! D81   D(22,21,23,114)        -2.3701         estimate D2E/DX2                !
 ! D82   D(20,24,25,26)         -0.5558         estimate D2E/DX2                !
 ! D83   D(20,24,25,28)        174.0018         estimate D2E/DX2                !
 ! D84   D(30,24,25,26)       -178.776          estimate D2E/DX2                !
 ! D85   D(30,24,25,28)         -4.2185         estimate D2E/DX2                !
 ! D86   D(20,24,30,29)       -176.5888         estimate D2E/DX2                !
 ! D87   D(25,24,30,29)          1.8772         estimate D2E/DX2                !
 ! D88   D(24,25,26,27)        170.5327         estimate D2E/DX2                !
 ! D89   D(28,25,26,27)         -3.2471         estimate D2E/DX2                !
 ! D90   D(24,25,28,29)          4.8124         estimate D2E/DX2                !
 ! D91   D(24,25,28,118)       175.0013         estimate D2E/DX2                !
 ! D92   D(26,25,28,29)        178.5325         estimate D2E/DX2                !
 ! D93   D(26,25,28,118)       -11.2786         estimate D2E/DX2                !
 ! D94   D(25,26,27,115)      -177.0572         estimate D2E/DX2                !
 ! D95   D(25,26,27,116)       -65.5914         estimate D2E/DX2                !
 ! D96   D(25,26,27,117)        64.1774         estimate D2E/DX2                !
 ! D97   D(25,28,29,30)         -3.1468         estimate D2E/DX2                !
 ! D98   D(25,28,29,31)       -179.3294         estimate D2E/DX2                !
 ! D99   D(118,28,29,30)      -174.2741         estimate D2E/DX2                !
 ! D100  D(118,28,29,31)         9.5433         estimate D2E/DX2                !
 ! D101  D(28,29,30,24)          0.6585         estimate D2E/DX2                !
 ! D102  D(31,29,30,24)        177.1208         estimate D2E/DX2                !
 ! D103  D(28,29,31,32)         47.3679         estimate D2E/DX2                !
 ! D104  D(28,29,31,38)       -134.4421         estimate D2E/DX2                !
 ! D105  D(30,29,31,32)       -128.5578         estimate D2E/DX2                !
 ! D106  D(30,29,31,38)         49.6322         estimate D2E/DX2                !
 ! D107  D(29,31,32,33)        175.2218         estimate D2E/DX2                !
 ! D108  D(29,31,32,119)        -3.548          estimate D2E/DX2                !
 ! D109  D(38,31,32,33)         -2.9233         estimate D2E/DX2                !
 ! D110  D(38,31,32,119)       178.3068         estimate D2E/DX2                !
 ! D111  D(29,31,38,36)       -171.0564         estimate D2E/DX2                !
 ! D112  D(29,31,38,120)         1.5137         estimate D2E/DX2                !
 ! D113  D(32,31,38,36)          7.0556         estimate D2E/DX2                !
 ! D114  D(32,31,38,120)       179.6258         estimate D2E/DX2                !
 ! D115  D(31,32,33,34)        179.426          estimate D2E/DX2                !
 ! D116  D(31,32,33,35)          2.3785         estimate D2E/DX2                !
 ! D117  D(119,32,33,34)        -1.8473         estimate D2E/DX2                !
 ! D118  D(119,32,33,35)      -178.8947         estimate D2E/DX2                !
 ! D119  D(32,33,35,36)         -5.9417         estimate D2E/DX2                !
 ! D120  D(32,33,35,39)       -172.0346         estimate D2E/DX2                !
 ! D121  D(34,33,35,36)        177.1941         estimate D2E/DX2                !
 ! D122  D(34,33,35,39)         11.1012         estimate D2E/DX2                !
 ! D123  D(33,35,36,37)       -179.0724         estimate D2E/DX2                !
 ! D124  D(33,35,36,38)         10.351          estimate D2E/DX2                !
 ! D125  D(39,35,36,37)        -13.693          estimate D2E/DX2                !
 ! D126  D(39,35,36,38)        175.7304         estimate D2E/DX2                !
 ! D127  D(33,35,39,40)        114.4452         estimate D2E/DX2                !
 ! D128  D(33,35,39,45)        -75.624          estimate D2E/DX2                !
 ! D129  D(36,35,39,40)        -51.088          estimate D2E/DX2                !
 ! D130  D(36,35,39,45)        118.8429         estimate D2E/DX2                !
 ! D131  D(35,36,38,31)        -10.8846         estimate D2E/DX2                !
 ! D132  D(35,36,38,120)       176.4947         estimate D2E/DX2                !
 ! D133  D(37,36,38,31)        178.7148         estimate D2E/DX2                !
 ! D134  D(37,36,38,120)         6.0941         estimate D2E/DX2                !
 ! D135  D(35,39,40,41)        -11.7334         estimate D2E/DX2                !
 ! D136  D(35,39,40,43)        174.2017         estimate D2E/DX2                !
 ! D137  D(45,39,40,41)        177.7378         estimate D2E/DX2                !
 ! D138  D(45,39,40,43)          3.6729         estimate D2E/DX2                !
 ! D139  D(35,39,45,44)       -175.5664         estimate D2E/DX2                !
 ! D140  D(40,39,45,44)         -4.2052         estimate D2E/DX2                !
 ! D141  D(39,40,41,42)        175.4577         estimate D2E/DX2                !
 ! D142  D(43,40,41,42)        -11.989          estimate D2E/DX2                !
 ! D143  D(39,40,43,44)         -1.0392         estimate D2E/DX2                !
 ! D144  D(39,40,43,124)       175.3143         estimate D2E/DX2                !
 ! D145  D(41,40,43,44)       -174.0075         estimate D2E/DX2                !
 ! D146  D(41,40,43,124)         2.346          estimate D2E/DX2                !
 ! D147  D(40,41,42,121)      -173.8496         estimate D2E/DX2                !
 ! D148  D(40,41,42,122)        67.1254         estimate D2E/DX2                !
 ! D149  D(40,41,42,123)       -62.8882         estimate D2E/DX2                !
 ! D150  D(40,43,44,45)         -2.0115         estimate D2E/DX2                !
 ! D151  D(40,43,44,46)       -172.3114         estimate D2E/DX2                !
 ! D152  D(124,43,44,45)      -178.846          estimate D2E/DX2                !
 ! D153  D(124,43,44,46)        10.8542         estimate D2E/DX2                !
 ! D154  D(43,44,45,39)          3.4393         estimate D2E/DX2                !
 ! D155  D(46,44,45,39)        174.7826         estimate D2E/DX2                !
 ! D156  D(43,44,46,47)         41.8124         estimate D2E/DX2                !
 ! D157  D(43,44,46,53)       -132.901          estimate D2E/DX2                !
 ! D158  D(45,44,46,47)       -127.5098         estimate D2E/DX2                !
 ! D159  D(45,44,46,53)         57.7768         estimate D2E/DX2                !
 ! D160  D(44,46,47,48)       -170.9701         estimate D2E/DX2                !
 ! D161  D(44,46,47,125)         5.9418         estimate D2E/DX2                !
 ! D162  D(53,46,47,48)          3.5255         estimate D2E/DX2                !
 ! D163  D(53,46,47,125)      -179.5626         estimate D2E/DX2                !
 ! D164  D(44,46,53,51)        175.1836         estimate D2E/DX2                !
 ! D165  D(44,46,53,126)        -5.6868         estimate D2E/DX2                !
 ! D166  D(47,46,53,51)          0.3657         estimate D2E/DX2                !
 ! D167  D(47,46,53,126)       179.4952         estimate D2E/DX2                !
 ! D168  D(46,47,48,49)        179.1418         estimate D2E/DX2                !
 ! D169  D(46,47,48,50)         -4.0092         estimate D2E/DX2                !
 ! D170  D(125,47,48,49)         2.2797         estimate D2E/DX2                !
 ! D171  D(125,47,48,50)       179.1287         estimate D2E/DX2                !
 ! D172  D(47,48,50,51)          0.1759         estimate D2E/DX2                !
 ! D173  D(47,48,50,54)        179.0718         estimate D2E/DX2                !
 ! D174  D(49,48,50,51)        176.9431         estimate D2E/DX2                !
 ! D175  D(49,48,50,54)         -4.161          estimate D2E/DX2                !
 ! D176  D(48,50,51,52)        176.477          estimate D2E/DX2                !
 ! D177  D(48,50,51,53)          4.1446         estimate D2E/DX2                !
 ! D178  D(54,50,51,52)         -2.4325         estimate D2E/DX2                !
[...]
  Beta virt. eigenvalues --    2.68856   2.68895   2.69087   2.69126   2.69278
  Beta virt. eigenvalues --    2.71230   2.71313   2.71350   2.71448   2.71680
  Beta virt. eigenvalues --    2.71753   2.75795   2.76321   2.79121   2.79391
  Beta virt. eigenvalues --    2.79901   2.80311   2.80778   2.81001   2.89821
  Beta virt. eigenvalues --    2.89920   2.89968   2.89997   2.90013   2.90082
  Beta virt. eigenvalues --    2.90250   2.93964   2.94024   2.94727   2.94863
  Beta virt. eigenvalues --    2.95570   2.95648   2.98742   3.01894   3.01941
  Beta virt. eigenvalues --    3.01974   3.02017   3.02025   3.02097   3.02277
  Beta virt. eigenvalues --    3.04587   3.04807   3.04887   3.04954   3.05003
  Beta virt. eigenvalues --    3.05047   3.05102   3.22656   3.22891   3.23166
  Beta virt. eigenvalues --    3.23478   3.23742   3.23923   3.31359   3.35142
  Beta virt. eigenvalues --    3.35212   3.35224   3.35250   3.35284   3.35291
  Beta virt. eigenvalues --    3.35358   3.44286   3.44370   3.44426   3.44469
  Beta virt. eigenvalues --    3.44518   3.44545   3.44633   3.56672   3.56694
  Beta virt. eigenvalues --    3.56702   3.56727   3.56773   3.56837   3.56973
  Beta virt. eigenvalues --    3.58133   3.58191   3.58228   3.58243   3.58291
  Beta virt. eigenvalues --    3.58327   3.58411   3.60446   3.60472   3.60491
  Beta virt. eigenvalues --    3.60536   3.60557   3.60600   3.60803   3.61471
  Beta virt. eigenvalues --    3.61501   3.61563   3.61565   3.61632   3.61674
  Beta virt. eigenvalues --    3.61806   3.74519   3.74540   3.74544   3.74559
  Beta virt. eigenvalues --    3.74619   3.74635   3.74834   3.77093   3.77126
  Beta virt. eigenvalues --    3.77150   3.77170   3.77222   3.77258   3.77439
  Beta virt. eigenvalues --    3.96832   3.97018   3.97049   3.97101   3.97139
  Beta virt. eigenvalues --    3.97173   3.97371   3.98288   3.98421   3.98491
  Beta virt. eigenvalues --    3.98553   3.98602   3.98652   3.98810   4.10605
  Beta virt. eigenvalues --    4.10904   4.10943   4.10985   4.11007   4.11057
  Beta virt. eigenvalues --    4.11235   4.23801   4.23841   4.23879   4.23891
  Beta virt. eigenvalues --    4.23941   4.24126   4.24451
          Condensed to atoms (all electrons):
          Atomic-Atomic Spin Densities.
 Mulliken charges and spin densities:
               1          2
     1  C    0.041779  -0.000000
     2  C    0.012500   0.000000
     3  C    0.108135   0.000000
     4  F   -0.118955   0.000000
     5  C   -0.055104  -0.000000
     6  C    0.112268   0.000000
     7  F   -0.114384   0.000000
     8  C    0.011054   0.000000
     9  C   -0.182872   0.000000
    10  C    0.177291  -0.000000
    11  O   -0.232212   0.000000
    12  C    0.059594   0.000000
    13  C   -0.003462  -0.000000
    14  C   -0.146964   0.000000
    15  S    0.182761   0.000000
    16  C    0.091179   0.000000
    17  C   -0.007816   0.000000
    18  C    0.116219  -0.000000
    19  F   -0.118110   0.000000
    20  C   -0.046915   0.000000
    21  C    0.116481  -0.000000
    22  F   -0.111750   0.000000
    23  C   -0.005806  -0.000000
    24  C   -0.184795   0.000000
    25  C    0.174944  -0.000000
    26  O   -0.231641  -0.000000
    27  C    0.059352   0.000000
    28  C   -0.002228   0.000000
    29  C   -0.146481   0.000000
    30  S    0.181429  -0.000000
    31  C    0.090567  -0.000000
    32  C   -0.007465   0.000000
    33  C    0.116256  -0.000000
    34  F   -0.117824  -0.000000
    35  C   -0.046665  -0.000000
    36  C    0.116371   0.000000
    37  F   -0.111860  -0.000000
    38  C   -0.005593  -0.000000
    39  C   -0.184650   0.000000
    40  C    0.174790   0.000000
    41  O   -0.231631  -0.000000
    42  C    0.059518   0.000000
    43  C   -0.002374  -0.000000
    44  C   -0.146301   0.000000
    45  S    0.181720   0.000000
    46  C    0.090957  -0.000000
    47  C   -0.009390   0.000000
    48  C    0.120332  -0.000000
    49  F   -0.113281  -0.000000
    50  C   -0.046635   0.000000
    51  C    0.112567   0.000000
    52  F   -0.116372  -0.000000
    53  C   -0.004379   0.000000
    54  C   -0.184922  -0.000000
    55  C    0.174255   0.000000
    56  O   -0.232429  -0.000000
    57  C    0.059651  -0.000000
    58  C   -0.002496  -0.000000
    59  C   -0.146543  -0.000000
    60  S    0.183645   0.000000
    61  C    0.090559   0.000000
    62  C   -0.007725  -0.000000
    63  C    0.116224   0.000000
    64  F   -0.118007  -0.000000
    65  C   -0.046602  -0.000000
    66  C    0.116502   0.000000
    67  F   -0.111505   0.000000
    68  C   -0.005674  -0.000000
    69  C   -0.184976   0.000000
    70  C    0.174904  -0.000000
    71  O   -0.231695  -0.000000
    72  C    0.059384   0.000000
    73  C   -0.002292   0.000000
    74  C   -0.146235  -0.000000
    75  S    0.181311  -0.000000
    76  C    0.090661   0.000000
    77  C   -0.005903   0.000000
    78  C    0.116334  -0.000000
    79  F   -0.111835   0.000000
    80  C   -0.046423   0.000000
    81  C    0.116243   0.000000
    82  F   -0.117886   0.000000
    83  C   -0.007802  -0.000000
    84  C   -0.185366  -0.000000
    85  C    0.174584   0.000000
    86  O   -0.231925  -0.000000
    87  C    0.059578  -0.000000
    88  C   -0.002453  -0.000000
    89  C   -0.145558   0.000000
    90  S    0.180964  -0.000000
    91  C    0.089721   0.000000
    92  C   -0.006992   0.000000
    93  C    0.117153  -0.000000
    94  F   -0.112545   0.000000
    95  C   -0.038048  -0.000000
    96  C    0.116867   0.000000
    97  F   -0.118387   0.000000
    98  C   -0.009251  -0.000000
    99  C   -0.200316   0.000000
   100  C    0.160400  -0.000000
   101  O   -0.231333  -0.000000
   102  C    0.058219  -0.000000
   103  C    0.018108  -0.000000
   104  C   -0.121014   0.000000
   105  S    0.177394  -0.000000
   106  H   -0.003725  -0.000000
   107  H   -0.002277  -0.000000
   108  H   -0.002913  -0.000000
   109  H    0.051899   0.000000
   110  H    0.043827   0.000000
   111  H    0.044639  -0.000000
   112  H   -0.010256  -0.000000
   113  H   -0.013629   0.000000
   114  H   -0.003123  -0.000000
   115  H    0.052937  -0.000000
   116  H    0.044151  -0.000000
   117  H    0.044982  -0.000000
   118  H   -0.009806  -0.000000
   119  H   -0.013232  -0.000000
   120  H   -0.003406   0.000000
   121  H    0.052769  -0.000000
   122  H    0.044684  -0.000000
   123  H    0.043952   0.000000
   124  H   -0.010126  -0.000000
   125  H   -0.013994   0.000000
   126  H   -0.002474  -0.000000
   127  H    0.045193  -0.000000
   128  H    0.051584  -0.000000
   129  H    0.044071  -0.000000
   130  H   -0.010072  -0.000000
   131  H   -0.013719  -0.000000
   132  H   -0.002846   0.000000
   133  H    0.044882  -0.000000
   134  H    0.052957  -0.000000
   135  H    0.044191   0.000000
   136  H   -0.009925  -0.000000
   137  H   -0.003640  -0.000000
   138  H   -0.013552  -0.000000
   139  H    0.052422   0.000000
   140  H    0.044841  -0.000000
   141  H    0.043967   0.000000
   142  H   -0.010232   0.000000
   143  H   -0.004350   0.000000
   144  H   -0.014439  -0.000000
   145  H    0.042294   0.000000
   146  H    0.043600   0.000000
   147  H    0.051286   0.000000
   148  H   -0.008212  -0.000000
   149  H    0.022151   0.000000
 Sum of Mulliken charges =  -0.00000  -0.00000
 Mulliken charges and spin densities with hydrogens summed into heavy atoms:
               1          2
     1  C    0.038054  -0.000000
     2  C    0.010222   0.000000
     3  C    0.108135   0.000000
     4  F   -0.118955   0.000000
     5  C   -0.055104  -0.000000
     6  C    0.112268   0.000000
     7  F   -0.114384   0.000000
     8  C    0.008141   0.000000
     9  C   -0.182872   0.000000
    10  C    0.177291  -0.000000
    11  O   -0.232212   0.000000
    12  C    0.199959  -0.000000
    13  C   -0.013718  -0.000000
    14  C   -0.146964   0.000000
    15  S    0.182761   0.000000
    16  C    0.091179   0.000000
    17  C   -0.021445   0.000000
    18  C    0.116219  -0.000000
    19  F   -0.118110   0.000000
    20  C   -0.046915   0.000000
    21  C    0.116481  -0.000000
    22  F   -0.111750   0.000000
    23  C   -0.008929  -0.000000
    24  C   -0.184795   0.000000
    25  C    0.174944  -0.000000
    26  O   -0.231641  -0.000000
    27  C    0.201423   0.000000
    28  C   -0.012034   0.000000
    29  C   -0.146481   0.000000
    30  S    0.181429  -0.000000
    31  C    0.090567  -0.000000
    32  C   -0.020697   0.000000
    33  C    0.116256  -0.000000
    34  F   -0.117824  -0.000000
    35  C   -0.046665  -0.000000
    36  C    0.116371   0.000000
    37  F   -0.111860  -0.000000
    38  C   -0.008999  -0.000000
    39  C   -0.184650   0.000000
    40  C    0.174790   0.000000
    41  O   -0.231631  -0.000000
    42  C    0.200923  -0.000000
    43  C   -0.012500  -0.000000
    44  C   -0.146301   0.000000
    45  S    0.181720   0.000000
    46  C    0.090957  -0.000000
    47  C   -0.023384   0.000000
    48  C    0.120332  -0.000000
    49  F   -0.113281  -0.000000
    50  C   -0.046635   0.000000
    51  C    0.112567   0.000000
    52  F   -0.116372  -0.000000
    53  C   -0.006853   0.000000
    54  C   -0.184922  -0.000000
    55  C    0.174255   0.000000
    56  O   -0.232429  -0.000000
    57  C    0.200499  -0.000000
    58  C   -0.012568  -0.000000
    59  C   -0.146543  -0.000000
    60  S    0.183645   0.000000
    61  C    0.090559   0.000000
    62  C   -0.021444  -0.000000
    63  C    0.116224   0.000000
    64  F   -0.118007  -0.000000
    65  C   -0.046602  -0.000000
    66  C    0.116502   0.000000
    67  F   -0.111505   0.000000
    68  C   -0.008520  -0.000000
    69  C   -0.184976   0.000000
    70  C    0.174904  -0.000000
    71  O   -0.231695  -0.000000
    72  C    0.201415   0.000000
    73  C   -0.012217   0.000000
    74  C   -0.146235  -0.000000
    75  S    0.181311  -0.000000
    76  C    0.090661   0.000000
    77  C   -0.009543  -0.000000
    78  C    0.116334  -0.000000
    79  F   -0.111835   0.000000
    80  C   -0.046423   0.000000
    81  C    0.116243   0.000000
    82  F   -0.117886   0.000000
    83  C   -0.021354  -0.000000
    84  C   -0.185366  -0.000000
    85  C    0.174584   0.000000
    86  O   -0.231925  -0.000000
    87  C    0.200807  -0.000000
    88  C   -0.012685  -0.000000
    89  C   -0.145558   0.000000
    90  S    0.180964  -0.000000
    91  C    0.089721   0.000000
    92  C   -0.011342   0.000000
    93  C    0.117153  -0.000000
    94  F   -0.112545   0.000000
    95  C   -0.038048  -0.000000
    96  C    0.116867   0.000000
    97  F   -0.118387   0.000000
    98  C   -0.023691  -0.000000
    99  C   -0.200316   0.000000
   100  C    0.160400  -0.000000
   101  O   -0.231333  -0.000000
   102  C    0.195399  -0.000000
   103  C    0.009896  -0.000000
   104  C   -0.098863   0.000000
   105  S    0.177394  -0.000000
 Electronic spatial extent (au):  <R**2>=         753303.9470
 Charge=              0.0000 electrons
 Dipole moment (field-independent basis, Debye):
    X=             -1.0518    Y=              1.3710    Z=              1.7093  Tot=              2.4305
 Quadrupole moment (field-independent basis, Debye-Ang):
   XX=           -497.8414   YY=           -566.0734   ZZ=           -609.7500
   XY=            -15.7803   XZ=             -1.6363   YZ=             -5.8176
 Traceless Quadrupole moment (field-independent basis, Debye-Ang):
   XX=             60.0468   YY=             -8.1851   ZZ=            -51.8617
   XY=            -15.7803   XZ=             -1.6363   YZ=             -5.8176
 Octapole moment (field-independent basis, Debye-Ang**2):
  XXX=           -585.2282  YYY=            280.6108  ZZZ=             36.1298  XYY=             59.1246
  XXY=           -822.6584  XXZ=           1102.6203  XZZ=             72.6200  YZZ=            -60.5702
  YYZ=             42.4039  XYZ=           -665.8247
 Hexadecapole moment (field-independent basis, Debye-Ang**3):
 XXXX=        -784415.6027 YYYY=         -23277.1998 ZZZZ=          -5959.8817 XXXY=         -10185.1418
 XXXZ=           5539.9557 YYYX=           -703.9884 YYYZ=             15.1690 ZZZX=              1.8767
 ZZZY=           -163.8686 XXYY=        -155201.1097 XXZZ=        -149142.9797 YYZZ=          -5088.2510
 XXYZ=          -4787.9270 YYXZ=           1519.6685 ZZXY=           -444.8127
 N-N= 1.734215051038D+04 E-N=-5.274679584519D+04  KE= 7.631918745925D+03
 Leave Link  601 at Fri Jul 24 23:09:41 2020, MaxMem=  4026531840 cpu:              13.8 elap:               1.9
 (Enter /opt/ohpc/pub/libs/gaussian/g16-A.03/sandybridge/g16/l9999.exe)

 Test job not archived.
 1\1\GINC-SKYLAKE014\FOpt\ULC-wPBE\CC-pVDZ\C77H44F14O7S7\RDU230\24-Jul-
 2020\0\\#P uLC-wPBE/cc-pVDZ iop(3/107=0186300000, 3/108=0186300000) op
 t\\H44 C77 S7 O7 F14\\0,1\C,-26.9048387558,-3.7109188156,-0.6625880187
 \C,-26.1371696745,-3.094243533,-1.6559456716\C,-24.8859183246,-2.58550
 86639,-1.3152837336\F,-24.1473904743,-1.9888450157,-2.2793118935\C,-24
 .3457971105,-2.6598649885,-0.0177600109\C,-25.1538124906,-3.30789498,0
 .9366249356\F,-24.6780846151,-3.4531948158,2.1902613512\C,-26.41588578
 24,-3.8221138945,0.642628725\C,-23.0286937701,-2.1046299354,0.32743949
 97\C,-22.7130962579,-1.2784942309,1.4015924048\O,-23.6958182146,-0.846
 305091,2.2356983765\C,-23.286122489,-0.0653797507,3.3512792015\C,-21.3
 260288733,-0.9452528746,1.4690597088\C,-20.5889305262,-1.5077385557,0.
 4422470004\S,-21.5998071146,-2.4549743254,-0.6053182536\C,-19.14475812
 52,-1.376290052,0.1889855375\C,-18.2598681133,-1.1273014675,1.25527073
 32\C,-16.8991328215,-0.9996351905,1.0019016933\F,-16.0752401644,-0.764
 4678123,2.0491991912\C,-16.3269527812,-1.1134123468,-0.2789157549\C,-1
 7.2489021517,-1.3482715474,-1.3173894744\F,-16.7889572493,-1.417130238
 4,-2.5826298452\C,-18.6183545296,-1.4837688975,-1.1113991845\C,-14.883
 5773362,-0.9970805098,-0.5235064773\C,-14.0805457311,-1.8485391063,-1.
 2770204215\O,-14.6139526546,-2.9695517871,-1.8297603191\C,-13.74915836
 2,-3.7529945992,-2.6429875735\C,-12.7173606627,-1.4282952327,-1.341841
 1872\C,-12.4798255738,-0.2661980802,-0.6296497197\S,-13.935705553,0.31
 8165811,0.1156159287\C,-11.2034397156,0.4487723251,-0.4667422333\C,-10
 .2073577642,0.3508918341,-1.4567900108\C,-9.0041290583,1.0260873462,-1
 .2882842892\F,-8.0693754672,0.9145566554,-2.2601090597\C,-8.7065247424
 ,1.8292718385,-0.1714750804\C,-9.7243419907,1.8878946688,0.8002270805\
 F,-9.4985182678,2.5929378694,1.9267828104\C,-10.9441275855,1.230277255
 7,0.6741550909\C,-7.43690666,2.5519986452,-0.02189\C,-7.2574228042,3.8
 855740856,0.3344561304\O,-8.3382635337,4.6874960593,0.5234748964\C,-8.
 0775509089,6.0178661378,0.9533301256\C,-5.8840073091,4.2665336884,0.42
 20590534\C,-5.0193224598,3.2290918839,0.121750303\S,-5.8939278792,1.77
 83533747,-0.2615077223\C,-3.5477327131,3.2577139168,0.1000041163\C,-2.
 8461318151,4.1663924848,0.9141402983\C,-1.455605563,4.1935539707,0.881
 5112685\F,-0.8197539361,5.050788937,1.7058804067\C,-0.681252911,3.3531
 893138,0.0579958768\C,-1.423539457,2.4498499486,-0.7252314234\F,-0.746
 615263,1.6020175994,-1.5327353606\C,-2.8123865169,2.3866299867,-0.7254
 558872\C,0.7855848784,3.418568444,0.0300893415\C,1.581429985,4.5543776
 568,-0.0886903879\O,1.0027936319,5.772222458,-0.2618267841\C,1.8783021
 106,6.8918747616,-0.3110382691\C,2.9802069836,4.2703753777,-0.04853470
 89\C,3.2495574913,2.9202361956,0.088744265\S,1.7817000207,1.9963305823
 ,0.17715781\C,4.5652852827,2.2636446059,0.1578730013\C,5.6815337579,2.
 9676485492,0.6480744494\C,6.9194459555,2.3378722691,0.7034236712\F,7.9
 710197064,3.0409693245,1.1836805548\C,7.1399272233,1.0073263891,0.3010
 481819\C,6.0003109138,0.3454565227,-0.1958566828\F,6.1366935418,-0.915
 3019023,-0.6527553403\C,4.7418520304,0.9346938078,-0.2690798163\C,8.45
 13238647,0.3521929272,0.3881322073\C,8.737592798,-0.9037523649,0.91565
 54429\O,7.7483558268,-1.6398923149,1.4868422644\C,8.1023222312,-2.9405
 859842,1.9405747876\C,10.1176678346,-1.2566924171,0.8159006873\C,10.88
 30440787,-0.2673476124,0.2247267703\S,9.9050206918,1.0978465452,-0.218
 2559791\C,12.3323488814,-0.2786174248,-0.0330054235\C,13.073446698,0.9
 159703241,-0.0902994344\C,14.4435913771,0.8699956281,-0.3288827399\F,1
 5.1244061585,2.0334502827,-0.3352517915\C,15.1567117195,-0.3273417724,
 -0.5325481571\C,14.3778482422,-1.4970013733,-0.4534387915\F,14.9961152
 042,-2.6874927423,-0.6299308253\C,13.0080807103,-1.4998460669,-0.21692
 11415\C,16.599777065,-0.3442791492,-0.8042103827\C,17.2978402427,0.429
 7209268,-1.7267052456\O,16.623784338,1.2790475578,-2.5462236881\C,17.4
 101939722,2.0843754936,-3.4155008194\C,18.7052673035,0.1880596252,-1.7
 163863382\C,19.0774238582,-0.7758318916,-0.7964332213\S,17.6969004428,
 -1.3824452451,0.0653120103\C,20.430505616,-1.284313689,-0.5166708243\C
 ,20.6343186973,-2.5879847555,-0.0287039629\C,21.9270520595,-3.04017429
 97,0.2188861742\F,22.0820949867,-4.3087627574,0.6481883346\C,23.077306
 4025,-2.253518222,0.0167417565\C,22.8264521629,-0.9623252891,-0.483209
 0176\F,23.8843791659,-0.1500314328,-0.7106229998\C,21.5539424587,-0.46
 78252808,-0.7461908764\C,24.4288039626,-2.7507687988,0.3083006077\C,24
 .862711528,-3.3856326314,1.4674908971\O,24.0059829732,-3.5532466275,2.
 5109313678\C,24.5030017564,-4.2716507519,3.6322712201\C,26.2408105056,
 -3.7736292342,1.4174166002\C,26.8321312568,-3.4220893169,0.2260410085\
 S,25.7399118059,-2.6198366297,-0.8355579589\H,-27.8946797956,-4.114802
 8592,-0.9106215472\H,-26.4896279365,-2.9929098944,-2.6889549962\H,-26.
 9876471124,-4.3110920741,1.4399900854\H,-24.2040489906,0.1538497079,3.
 9227704728\H,-22.576845841,-0.620256086,4.0008865843\H,-22.8197909648,
 0.8914599325,3.0340470928\H,-20.8841653135,-0.2817689344,2.2186402285\
 H,-18.6092907598,-1.0634969804,2.2919131932\H,-19.2656609722,-1.639182
 7857,-1.9830501336\H,-14.3637450611,-4.5850037337,-3.0266386695\H,-13.
 3523924389,-3.1683583799,-3.4994912835\H,-12.9008734569,-4.1683652078,
 -2.0587073178\H,-11.9235848928,-1.9784258685,-1.8562127745\H,-10.36514
 99156,-0.2189093481,-2.379402953\H,-11.6690088176,1.3106160805,1.49331
 1814\H,-9.0642219347,6.4930402596,1.0869421091\H,-7.5000769672,6.58851
 93985,0.19541376\H,-7.530984175,6.0357126622,1.9196674772\H,-5.5351081
 508,5.2771075543,0.655047118\H,-3.3657998258,4.834637561,1.6101050931\
 H,-3.3059355408,1.6725896884,-1.3957900797\H,2.5657091624,6.8377696197
 ,-1.1817078104\H,1.2315652227,7.7793300422,-0.417754008\H,2.4747835574
 ,6.9861574221,0.6207512018\H,3.7682243108,5.0214527016,-0.1589987695\H
 ,5.5974721368,3.9943009543,1.0218639879\H,3.9155736675,0.3524660749,-0
 .6947799689\H,8.855818158,-2.9001137016,2.7555033474\H,7.1733110777,-3
 .3895649664,2.3310666621\H,8.4913393259,-3.5705127836,1.1131228569\H,1
 0.5486877487,-2.1855487078,1.2015590022\H,12.6051553311,1.8924220852,0
 .0834351633\H,12.4779292405,-2.4588638859,-0.2125156468\H,16.698240963
 8,2.723541191,-3.9648449253\H,17.979866121,1.4680508217,-4.1429186178\
 H,18.1159189192,2.72833629,-2.8496985437\H,19.4215804079,0.6706285473,
 -2.3881794699\H,19.7981617734,-3.279210172,0.1326517306\H,21.454009203
 ,0.565560606,-1.0969232785\H,25.3573228412,-3.7473904455,4.1110371686\
 H,24.8154574236,-5.300410772,3.354397193\H,23.6679918412,-4.3295968009
 ,4.3512348067\H,26.7762281037,-4.2835331188,2.2240709583\H,27.86899853
 98,-3.5876252698,-0.0805492559\\Version=EM64L-G16RevA.03\State=1-A\HF=
 -7667.4273503\S2=0.\S2-1=0.\S2A=0.\RMSD=6.725e-09\RMSF=1.458e-06\Dipol
 e=-0.4114422,0.5447388,0.6696131\Quadrupole=44.5550332,-6.0487588,-38.
 5062745,-11.9278999,-1.2092499,-4.4997142\PG=C01 [X(C77H44F14O7S7)]\\@


 IF MATHEMATICALLY YOU END UP WITH THE INCORRECT ANSWER,
 TRY MULTIPLYING BY THE PAGE NUMBER.
 Job cpu time:       3 days 14 hours 12 minutes  3.0 seconds.
 Elapsed time:       0 days 10 hours 57 minutes 41.4 seconds.
 File lengths (MBytes):  RWF=   3260 Int=      0 D2E=      0 Chk=    292 Scr=      8
 Normal termination of Gaussian 16 at Fri Jul 24 23:09:41 2020.
