 Entering Gaussian System, Link 0=g16
 Input=mols_66_1_14_n-n-cF-cOC_opt_0.gjf
 Output=mols_66_1_14_n-n-cF-cOC_opt_0.log
 Initial command:
 /opt/ohpc/pub/libs/gaussian/g16-A.03/sandybridge/g16/l1.exe "/mnt/gpfs2_4m/scratch/rdu230/ondemand/projects/dihedral_energies/7trial/wtuning/mols_66_1_14_n-n-cF-cOC/Gau-53364.inp" -scrdir="/mnt/gpfs2_4m/scratch/rdu230/ondemand/projects/dihedral_energies/7trial/wtuning/mols_66_1_14_n-n-cF-cOC/"
 Entering Link 1 = /opt/ohpc/pub/libs/gaussian/g16-A.03/sandybridge/g16/l1.exe PID=     53365.
  
 Copyright (c) 1988,1990,1992,1993,1995,1998,2003,2009,2016,
            Gaussian, Inc.  All Rights Reserved.
  
 This is part of the Gaussian(R) 16 program.  It is based on
 the Gaussian(R) 09 system (copyright 2009, Gaussian, Inc.),
 the Gaussian(R) 03 system (copyright 2003, Gaussian, Inc.),
 the Gaussian(R) 98 system (copyright 1998, Gaussian, Inc.),
 the Gaussian(R) 94 system (copyright 1995, Gaussian, Inc.),
 the Gaussian 92(TM) system (copyright 1992, Gaussian, Inc.),
 the Gaussian 90(TM) system (copyright 1990, Gaussian, Inc.),
 the Gaussian 88(TM) system (copyright 1988, Gaussian, Inc.),
 the Gaussian 86(TM) system (copyright 1986, Carnegie Mellon
 University), and the Gaussian 82(TM) system (copyright 1983,
 Carnegie Mellon University). Gaussian is a federally registered
 trademark of Gaussian, Inc.
  
 This software contains proprietary and confidential information,
 including trade secrets, belonging to Gaussian, Inc.
  
 This software is provided under written license and may be
 used, copied, transmitted, or stored only in accord with that
 written license.
  
 The following legend is applicable only to US Government
 contracts under FAR:
  
                    RESTRICTED RIGHTS LEGEND
  
 Use, reproduction and disclosure by the US Government is
 subject to restrictions as set forth in subparagraphs (a)
 and (c) of the Commercial Computer Software - Restricted
 Rights clause in FAR 52.227-19.
  
 Gaussian, Inc.
 340 Quinnipiac St., Bldg. 40, Wallingford CT 06492
  
  
 ---------------------------------------------------------------
 Warning -- This program may not be used in any manner that
 competes with the business of Gaussian, Inc. or will provide
 assistance to any competitor of Gaussian, Inc.  The licensee
 of this program is prohibited from giving any competitor of
 Gaussian, Inc. access to this program.  By using this program,
 the user acknowledges that Gaussian, Inc. is engaged in the
 business of creating and licensing software in the field of
 computational chemistry and represents and warrants to the
 licensee that it is not a competitor of Gaussian, Inc. and that
 it will not use this program in any manner prohibited above.
 ---------------------------------------------------------------
  

 Cite this work as:
 Gaussian 16, Revision A.03,
 M. J. Frisch, G. W. Trucks, H. B. Schlegel, G. E. Scuseria, 
 M. A. Robb, J. R. Cheeseman, G. Scalmani, V. Barone, 
 G. A. Petersson, H. Nakatsuji, X. Li, M. Caricato, A. V. Marenich, 
 J. Bloino, B. G. Janesko, R. Gomperts, B. Mennucci, H. P. Hratchian, 
 J. V. Ortiz, A. F. Izmaylov, J. L. Sonnenberg, D. Williams-Young, 
 F. Ding, F. Lipparini, F. Egidi, J. Goings, B. Peng, A. Petrone, 
 T. Henderson, D. Ranasinghe, V. G. Zakrzewski, J. Gao, N. Rega, 
 G. Zheng, W. Liang, M. Hada, M. Ehara, K. Toyota, R. Fukuda, 
 J. Hasegawa, M. Ishida, T. Nakajima, Y. Honda, O. Kitao, H. Nakai, 
 T. Vreven, K. Throssell, J. A. Montgomery, Jr., J. E. Peralta, 
 F. Ogliaro, M. J. Bearpark, J. J. Heyd, E. N. Brothers, K. N. Kudin, 
 V. N. Staroverov, T. A. Keith, R. Kobayashi, J. Normand, 
 K. Raghavachari, A. P. Rendell, J. C. Burant, S. S. Iyengar, 
 J. Tomasi, M. Cossi, J. M. Millam, M. Klene, C. Adamo, R. Cammi, 
 J. W. Ochterski, R. L. Martin, K. Morokuma, O. Farkas, 
 J. B. Foresman, and D. J. Fox, Gaussian, Inc., Wallingford CT, 2016.
 
 ******************************************
 Gaussian 16:  EM64L-G16RevA.03 25-Dec-2016
                23-Jul-2020 
 ******************************************
 %mem=30GB
 %nproc=8
 Will use up to    8 processors via shared memory.
 ---------------------------------------------------------------
 #P uLC-wPBE/cc-pVDZ iop(3/107=0152400000, 3/108=0152400000) opt
 ---------------------------------------------------------------
 1/18=20,19=15,26=3,38=1/1,3;
 2/9=110,12=2,17=6,18=5,40=1/2;
 3/5=16,11=2,25=1,30=1,71=1,74=-41,107=152400000,108=152400000,116=2/1,2,3;
 4//1;
 5/5=2,38=5/2;
 6/7=2,8=2,9=2,10=2,28=1/1;
 7//1,2,3,16;
 1/18=20,19=15,26=3/3(2);
 2/9=110/2;
 99//99;
 2/9=110/2;
 3/5=16,11=2,25=1,30=1,71=1,74=-41,107=152400000,108=152400000,116=2/1,2,3;
 4/5=5,16=3,69=1/1;
 5/5=2,38=5/2;
 7//1,2,3,16;
 1/18=20,19=15,26=3/3(-5);
 2/9=110/2;
 6/7=2,8=2,9=2,10=2,19=2,28=1/1;
 99/9=1/99;
 Leave Link    1 at Thu Jul 23 17:01:26 2020, MaxMem=  4026531840 cpu:               2.4 elap:               0.4
 (Enter /opt/ohpc/pub/libs/gaussian/g16-A.03/sandybridge/g16/l101.exe)
 ---------------
 H9 C11 N2 O1 F1
 ---------------
 Symbolic Z-matrix:
 Charge =  0 Multiplicity = 1
 C                    -3.63081  -0.13979  -0.33794 
 C                    -2.94075   0.53819   0.71318 
 C                    -1.62082   0.42087   0.76737 
 F                    -0.96015   1.07746   1.83499 
 C                    -0.90015  -0.45374  -0.11171 
 N                    -1.62886  -1.08071  -1.07978 
 C                    -2.90045  -0.86515  -1.14948 
 C                     0.5552   -0.66332   0.00857 
 N                     0.91242  -1.9405    0.32974 
 C                     2.2593   -2.18191   0.38538 
 C                     3.18802  -1.15901   0.16675 
 C                     2.79861   0.07912  -0.08514 
 C                     1.45367   0.42199  -0.28022 
 O                     0.93822   1.68156  -0.59016 
 C                     1.89417   2.65624  -0.7657 
 H                    -4.74163   0.02305  -0.39337 
 H                    -3.52087   1.21575   1.34778 
 H                    -3.3567   -1.43055  -1.98141 
 H                     2.46393  -3.1509    0.62546 
 H                     4.26799  -1.47805   0.26393 
 H                     3.60797   0.83186  -0.24528 
 H                     1.30673   3.65205  -1.01471 
 H                     2.53363   2.45998  -1.6436 
 H                     2.49034   2.88152   0.11393 
 
 ITRead=  0  0  0  0  0  0  0  0  0  0  0  0  0  0  0  0  0  0  0  0
 ITRead=  0  0  0  0
 MicOpt= -1 -1 -1 -1 -1 -1 -1 -1 -1 -1 -1 -1 -1 -1 -1 -1 -1 -1 -1 -1
 MicOpt= -1 -1 -1 -1
 NAtoms=     24 NQM=       24 NQMF=       0 NMMI=      0 NMMIF=      0
                NMic=       0 NMicF=      0.
                    Isotopes and Nuclear Properties:
 (Nuclear quadrupole moments (NQMom) in fm**2, nuclear magnetic moments (NMagM)
  in nuclear magnetons)

  Atom         1           2           3           4           5           6           7           8           9          10
 IAtWgt=          12          12          12          19          12          14          12          12          14          12
 AtmWgt=  12.0000000  12.0000000  12.0000000  18.9984033  12.0000000  14.0030740  12.0000000  12.0000000  14.0030740  12.0000000
 NucSpn=           0           0           0           1           0           2           0           0           2           0
 AtZEff=  -0.0000000  -0.0000000  -0.0000000  -0.0000000  -0.0000000  -0.0000000  -0.0000000  -0.0000000  -0.0000000  -0.0000000
 NQMom=    0.0000000   0.0000000   0.0000000   0.0000000   0.0000000   2.0440000   0.0000000   0.0000000   2.0440000   0.0000000
 NMagM=    0.0000000   0.0000000   0.0000000   2.6288670   0.0000000   0.4037610   0.0000000   0.0000000   0.4037610   0.0000000
 AtZNuc=   6.0000000   6.0000000   6.0000000   9.0000000   6.0000000   7.0000000   6.0000000   6.0000000   7.0000000   6.0000000

  Atom        11          12          13          14          15          16          17          18          19          20
 IAtWgt=          12          12          12          16          12           1           1           1           1           1
 AtmWgt=  12.0000000  12.0000000  12.0000000  15.9949146  12.0000000   1.0078250   1.0078250   1.0078250   1.0078250   1.0078250
 NucSpn=           0           0           0           0           0           1           1           1           1           1
 AtZEff=  -0.0000000  -0.0000000  -0.0000000  -0.0000000  -0.0000000  -0.0000000  -0.0000000  -0.0000000  -0.0000000  -0.0000000
 NQMom=    0.0000000   0.0000000   0.0000000   0.0000000   0.0000000   0.0000000   0.0000000   0.0000000   0.0000000   0.0000000
 NMagM=    0.0000000   0.0000000   0.0000000   0.0000000   0.0000000   2.7928460   2.7928460   2.7928460   2.7928460   2.7928460
 AtZNuc=   6.0000000   6.0000000   6.0000000   8.0000000   6.0000000   1.0000000   1.0000000   1.0000000   1.0000000   1.0000000

  Atom        21          22          23          24
 IAtWgt=           1           1           1           1
 AtmWgt=   1.0078250   1.0078250   1.0078250   1.0078250
 NucSpn=           1           1           1           1
 AtZEff=  -0.0000000  -0.0000000  -0.0000000  -0.0000000
 NQMom=    0.0000000   0.0000000   0.0000000   0.0000000
 NMagM=    2.7928460   2.7928460   2.7928460   2.7928460
 AtZNuc=   1.0000000   1.0000000   1.0000000   1.0000000
 Leave Link  101 at Thu Jul 23 17:01:27 2020, MaxMem=  4026531840 cpu:               2.8 elap:               0.4
 (Enter /opt/ohpc/pub/libs/gaussian/g16-A.03/sandybridge/g16/l103.exe)

 GradGradGradGradGradGradGradGradGradGradGradGradGradGradGradGradGradGrad
 Berny optimization.
 Initialization pass.
                           ----------------------------
                           !    Initial Parameters    !
                           ! (Angstroms and Degrees)  !
 --------------------------                            --------------------------
 ! Name  Definition              Value          Derivative Info.                !
 --------------------------------------------------------------------------------
 ! R1    R(1,2)                  1.4285         estimate D2E/DX2                !
 ! R2    R(1,7)                  1.3108         estimate D2E/DX2                !
 ! R3    R(1,16)                 1.1241         estimate D2E/DX2                !
 ! R4    R(2,3)                  1.3262         estimate D2E/DX2                !
 ! R5    R(2,17)                 1.0947         estimate D2E/DX2                !
 ! R6    R(3,4)                  1.4168         estimate D2E/DX2                !
 ! R7    R(3,5)                  1.4343         estimate D2E/DX2                !
 ! R8    R(5,6)                  1.3643         estimate D2E/DX2                !
 ! R9    R(5,8)                  1.4753         estimate D2E/DX2                !
 ! R10   R(6,7)                  1.2916         estimate D2E/DX2                !
 ! R11   R(7,18)                 1.1045         estimate D2E/DX2                !
 ! R12   R(8,9)                  1.3645         estimate D2E/DX2                !
 ! R13   R(8,13)                 1.4382         estimate D2E/DX2                !
 ! R14   R(9,10)                 1.3695         estimate D2E/DX2                !
 ! R15   R(10,11)                1.3988         estimate D2E/DX2                !
 ! R16   R(10,19)                1.019          estimate D2E/DX2                !
 ! R17   R(11,12)                1.3221         estimate D2E/DX2                !
 ! R18   R(11,20)                1.1303         estimate D2E/DX2                !
 ! R19   R(12,13)                1.4016         estimate D2E/DX2                !
 ! R20   R(12,21)                1.1168         estimate D2E/DX2                !
 ! R21   R(13,14)                1.3958         estimate D2E/DX2                !
 ! R22   R(14,15)                1.3765         estimate D2E/DX2                !
 ! R23   R(15,22)                1.1827         estimate D2E/DX2                !
 ! R24   R(15,23)                1.1037         estimate D2E/DX2                !
 ! R25   R(15,24)                1.0862         estimate D2E/DX2                !
 ! A1    A(2,1,7)              116.6818         estimate D2E/DX2                !
 ! A2    A(2,1,16)             116.4166         estimate D2E/DX2                !
 ! A3    A(7,1,16)             126.8888         estimate D2E/DX2                !
 ! A4    A(1,2,3)              117.9593         estimate D2E/DX2                !
 ! A5    A(1,2,17)             117.6657         estimate D2E/DX2                !
 ! A6    A(3,2,17)             123.951          estimate D2E/DX2                !
 ! A7    A(2,3,4)              116.993          estimate D2E/DX2                !
 ! A8    A(2,3,5)              121.936          estimate D2E/DX2                !
 ! A9    A(4,3,5)              120.6734         estimate D2E/DX2                !
 ! A10   A(3,5,6)              116.5365         estimate D2E/DX2                !
 ! A11   A(3,5,8)              122.1633         estimate D2E/DX2                !
 ! A12   A(6,5,8)              121.2984         estimate D2E/DX2                !
 ! A13   A(5,6,7)              119.1732         estimate D2E/DX2                !
 ! A14   A(1,7,6)              127.4085         estimate D2E/DX2                !
 ! A15   A(1,7,18)             121.2951         estimate D2E/DX2                !
 ! A16   A(6,7,18)             111.2159         estimate D2E/DX2                !
 ! A17   A(5,8,9)              114.2305         estimate D2E/DX2                !
 ! A18   A(5,8,13)             119.5181         estimate D2E/DX2                !
 ! A19   A(9,8,13)             126.1582         estimate D2E/DX2                !
 ! A20   A(8,9,10)             115.5966         estimate D2E/DX2                !
 ! A21   A(9,10,11)            121.1799         estimate D2E/DX2                !
 ! A22   A(9,10,19)            112.0048         estimate D2E/DX2                !
 ! A23   A(11,10,19)           126.7877         estimate D2E/DX2                !
 ! A24   A(10,11,12)           121.2672         estimate D2E/DX2                !
 ! A25   A(10,11,20)           114.49           estimate D2E/DX2                !
 ! A26   A(12,11,20)           124.2027         estimate D2E/DX2                !
 ! A27   A(11,12,13)           122.5627         estimate D2E/DX2                !
 ! A28   A(11,12,21)           116.4259         estimate D2E/DX2                !
 ! A29   A(13,12,21)           120.7014         estimate D2E/DX2                !
 ! A30   A(8,13,12)            112.7622         estimate D2E/DX2                !
 ! A31   A(8,13,14)            119.6594         estimate D2E/DX2                !
 ! A32   A(12,13,14)           127.3019         estimate D2E/DX2                !
 ! A33   A(13,14,15)           114.2577         estimate D2E/DX2                !
 ! A34   A(14,15,22)           106.1476         estimate D2E/DX2                !
 ! A35   A(14,15,23)           112.2035         estimate D2E/DX2                !
 ! A36   A(14,15,24)           115.1345         estimate D2E/DX2                !
 ! A37   A(22,15,23)           105.666          estimate D2E/DX2                !
 ! A38   A(22,15,24)           105.5747         estimate D2E/DX2                !
 ! A39   A(23,15,24)           111.286          estimate D2E/DX2                !
 ! D1    D(7,1,2,3)              2.0591         estimate D2E/DX2                !
 ! D2    D(7,1,2,17)           174.886          estimate D2E/DX2                !
 ! D3    D(16,1,2,3)          -176.7287         estimate D2E/DX2                !
 ! D4    D(16,1,2,17)           -3.9018         estimate D2E/DX2                !
 ! D5    D(2,1,7,6)              2.8626         estimate D2E/DX2                !
 ! D6    D(2,1,7,18)           179.3047         estimate D2E/DX2                !
 ! D7    D(16,1,7,6)          -178.4948         estimate D2E/DX2                !
 ! D8    D(16,1,7,18)           -2.0528         estimate D2E/DX2                !
 ! D9    D(1,2,3,4)           -178.6527         estimate D2E/DX2                !
 ! D10   D(1,2,3,5)             -5.8487         estimate D2E/DX2                !
 ! D11   D(17,2,3,4)             9.0089         estimate D2E/DX2                !
 ! D12   D(17,2,3,5)          -178.1871         estimate D2E/DX2                !
 ! D13   D(2,3,5,6)              5.0683         estimate D2E/DX2                !
 ! D14   D(2,3,5,8)           -175.42           estimate D2E/DX2                !
 ! D15   D(4,3,5,6)            177.6117         estimate D2E/DX2                !
 ! D16   D(4,3,5,8)             -2.8766         estimate D2E/DX2                !
 ! D17   D(3,5,6,7)             -0.3309         estimate D2E/DX2                !
 ! D18   D(8,5,6,7)           -179.8471         estimate D2E/DX2                !
 ! D19   D(3,5,8,9)            116.0965         estimate D2E/DX2                !
 ! D20   D(3,5,8,13)           -67.1988         estimate D2E/DX2                !
 ! D21   D(6,5,8,9)            -64.4147         estimate D2E/DX2                !
 ! D22   D(6,5,8,13)           112.2899         estimate D2E/DX2                !
 ! D23   D(5,6,7,1)             -3.6769         estimate D2E/DX2                !
 ! D24   D(5,6,7,18)           179.584          estimate D2E/DX2                !
 ! D25   D(5,8,9,10)           176.9797         estimate D2E/DX2                !
 ! D26   D(13,8,9,10)            0.5318         estimate D2E/DX2                !
 ! D27   D(5,8,13,12)          178.3303         estimate D2E/DX2                !
 ! D28   D(5,8,13,14)            3.9353         estimate D2E/DX2                !
 ! D29   D(9,8,13,12)           -5.3922         estimate D2E/DX2                !
 ! D30   D(9,8,13,14)         -179.7872         estimate D2E/DX2                !
 ! D31   D(8,9,10,11)            2.0149         estimate D2E/DX2                !
 ! D32   D(8,9,10,19)         -179.7735         estimate D2E/DX2                !
 ! D33   D(9,10,11,12)           0.8256         estimate D2E/DX2                !
 ! D34   D(9,10,11,20)         178.6141         estimate D2E/DX2                !
 ! D35   D(19,10,11,12)       -177.1038         estimate D2E/DX2                !
 ! D36   D(19,10,11,20)          0.6847         estimate D2E/DX2                !
 ! D37   D(10,11,12,13)         -6.4623         estimate D2E/DX2                !
 ! D38   D(10,11,12,21)        179.8981         estimate D2E/DX2                !
 ! D39   D(20,11,12,13)        175.9712         estimate D2E/DX2                !
 ! D40   D(20,11,12,21)          2.3317         estimate D2E/DX2                !
 ! D41   D(11,12,13,8)           8.2309         estimate D2E/DX2                !
 ! D42   D(11,12,13,14)       -177.8941         estimate D2E/DX2                !
 ! D43   D(21,12,13,8)        -178.3946         estimate D2E/DX2                !
 ! D44   D(21,12,13,14)         -4.5196         estimate D2E/DX2                !
 ! D45   D(8,13,14,15)         176.1807         estimate D2E/DX2                !
 ! D46   D(12,13,14,15)          2.6818         estimate D2E/DX2                !
 ! D47   D(13,14,15,22)       -179.7761         estimate D2E/DX2                !
 ! D48   D(13,14,15,23)         65.2748         estimate D2E/DX2                !
 ! D49   D(13,14,15,24)        -63.3785         estimate D2E/DX2                !
 --------------------------------------------------------------------------------
 Trust Radius=3.00D-01 FncErr=1.00D-07 GrdErr=1.00D-06 EigMax=2.50D+02 EigMin=1.00D-04
 Number of steps in this run=    123 maximum allowed number of steps=    144.
 GradGradGradGradGradGradGradGradGradGradGradGradGradGradGradGradGradGrad

 Leave Link  103 at Thu Jul 23 17:01:27 2020, MaxMem=  4026531840 cpu:               0.1 elap:               0.0
 (Enter /opt/ohpc/pub/libs/gaussian/g16-A.03/sandybridge/g16/l202.exe)
                          Input orientation:                          
 ---------------------------------------------------------------------
 Center     Atomic      Atomic             Coordinates (Angstroms)
 Number     Number       Type             X           Y           Z
 ---------------------------------------------------------------------
      1          6           0       -3.630805   -0.139788   -0.337941
      2          6           0       -2.940745    0.538187    0.713178
      3          6           0       -1.620815    0.420874    0.767370
      4          9           0       -0.960145    1.077462    1.834987
      5          6           0       -0.900147   -0.453743   -0.111713
      6          7           0       -1.628860   -1.080708   -1.079778
      7          6           0       -2.900453   -0.865146   -1.149479
      8          6           0        0.555202   -0.663315    0.008569
      9          7           0        0.912424   -1.940497    0.329737
     10          6           0        2.259301   -2.181910    0.385380
     11          6           0        3.188022   -1.159013    0.166746
     12          6           0        2.798611    0.079121   -0.085141
     13          6           0        1.453674    0.421986   -0.280221
     14          8           0        0.938220    1.681555   -0.590156
     15          6           0        1.894174    2.656244   -0.765696
     16          1           0       -4.741629    0.023053   -0.393365
     17          1           0       -3.520873    1.215747    1.347783
     18          1           0       -3.356702   -1.430553   -1.981414
     19          1           0        2.463927   -3.150902    0.625460
     20          1           0        4.267993   -1.478050    0.263926
     21          1           0        3.607974    0.831862   -0.245277
     22          1           0        1.306730    3.652053   -1.014712
     23          1           0        2.533629    2.459982   -1.643595
     24          1           0        2.490339    2.881516    0.113931
 ---------------------------------------------------------------------
                    Distance matrix (angstroms):
                    1          2          3          4          5
     1  C    0.000000
     2  C    1.428525   0.000000
     3  C    2.361380   1.326241   0.000000
     4  F    3.651813   2.339241   1.416827   0.000000
     5  C    2.757941   2.414210   1.434261   2.477464   0.000000
     6  N    2.333117   2.748919   2.380498   3.687917   1.364279
     7  C    1.310783   2.332479   2.639248   4.055312   2.290728
     8  C    4.232825   3.763207   2.546821   2.943193   1.475272
     9  N    4.932472   4.597588   3.490687   3.857508   2.385525
    10  C    6.275891   5.877657   4.687825   4.805174   3.635351
    11  C    6.913026   6.382857   5.097225   4.999214   4.157893
    12  C    6.438107   5.812767   4.513856   4.337260   3.737039
    13  C    5.115745   4.506802   3.248066   3.275710   2.517095
    14  O    4.925129   4.248804   3.159249   3.138477   2.857971
    15  C    6.206945   5.481758   4.438729   4.171719   4.231778
    16  H    1.124064   2.175542   3.353364   4.514084   3.881191
    17  H    2.165924   1.094696   2.139842   2.610329   3.433006
    18  H    2.107655   3.363002   3.741243   5.157377   3.237994
    19  H    6.865909   6.544276   5.427968   5.573714   4.374367
    20  H    8.033940   7.498863   6.207852   6.027628   5.282043
    21  H    7.304287   6.624998   5.341779   5.025488   4.689752
    22  H    6.262214   5.542816   4.710292   4.459599   4.747976
    23  H    6.816435   6.262304   5.218249   5.120386   4.756813
    24  H    6.841116   5.945331   4.835631   4.257051   4.761330
                    6          7          8          9         10
     6  N    0.000000
     7  C    1.291617   0.000000
     8  C    2.475650   3.650118   0.000000
     9  N    3.030527   4.228769   1.364533   0.000000
    10  C    4.298503   5.541906   2.313454   1.369472   0.000000
    11  C    4.976174   6.236051   2.683743   2.411562   1.398800
    12  C    4.683696   5.873992   2.364926   2.794402   2.371604
    13  C    3.521278   4.622850   1.438238   2.499265   2.805768
    14  O    3.802595   4.640467   2.450222   3.737128   4.198010
    15  C    5.145408   5.961202   3.662213   4.826369   4.986585
    16  H    3.373245   2.179572   5.356218   6.028824   7.381147
    17  H    3.840113   3.309283   4.683883   5.536462   6.773530
    18  H    1.980095   1.104520   4.455522   4.881280   6.140500
    19  H    4.893306   6.095216   3.195602   1.989898   1.019046
    20  H    6.061047   7.332120   3.809700   3.387924   2.131904
    21  H    5.637264   6.786534   3.408725   3.909297   3.361468
    22  H    5.569645   6.174434   4.498255   5.765383   6.074765
    23  H    5.493695   6.389826   4.049544   5.087884   5.073377
    24  H    5.838832   6.685381   4.040010   5.078208   5.075958
                   11         12         13         14         15
    11  C    0.000000
    12  C    1.322144   0.000000
    13  C    2.388996   1.401595   0.000000
    14  O    3.701802   2.506769   1.395803   0.000000
    15  C    4.135176   2.814733   2.328440   1.376474   0.000000
    16  H    8.036813   7.546745   6.209165   5.920307   7.148861
    17  H    7.214125   6.578835   5.294013   4.884270   5.988703
    18  H    6.893601   6.615349   5.428230   5.483354   6.763991
    19  H    2.168491   3.324156   3.821832   5.211348   5.998573
    20  H    1.130295   2.169265   3.438986   4.669041   4.877246
    21  H    2.075983   1.116840   2.193223   2.822854   2.556622
    22  H    5.299194   3.981916   3.315781   2.049124   1.182681
    23  H    4.099108   2.857883   2.679276   2.064222   1.103688
    24  H    4.100662   2.826319   2.698021   2.084399   1.086234
                   16         17         18         19         20
    16  H    0.000000
    17  H    2.438106   0.000000
    18  H    2.559862   4.255985   0.000000
    19  H    7.939272   7.443602   6.605688   0.000000
    20  H    9.157436   8.312504   7.948571   2.486724   0.000000
    21  H    8.389992   7.314757   7.525916   4.234316   2.455729
    22  H    7.080845   5.901078   6.965271   7.092917   6.059864
    23  H    7.773743   6.866838   7.067276   6.052726   4.706883
    24  H    7.792915   6.358604   7.561237   6.054125   4.710453
                   21         22         23         24
    21  H    0.000000
    22  H    3.720381   0.000000
    23  H    2.400059   1.822583   0.000000
    24  H    2.362037   1.807897   1.807889   0.000000
 Stoichiometry    C11H9FN2O
 Framework group  C1[X(C11H9FN2O)]
 Deg. of freedom    66
 Full point group                 C1      NOp   1
 Largest Abelian subgroup         C1      NOp   1
 Largest concise Abelian subgroup C1      NOp   1
                         Standard orientation:                         
 ---------------------------------------------------------------------
 Center     Atomic      Atomic             Coordinates (Angstroms)
 Number     Number       Type             X           Y           Z
 ---------------------------------------------------------------------
      1          6           0       -3.627481   -0.140708   -0.347698
      2          6           0       -2.943806    0.536446    0.708112
      3          6           0       -1.623716    0.423348    0.767146
      4          9           0       -0.969424    1.078969    1.839276
      5          6           0       -0.896702   -0.446278   -0.111664
      6          7           0       -1.619525   -1.072795   -1.084423
      7          6           0       -2.891545   -0.861244   -1.158487
      8          6           0        0.558853   -0.651379    0.013721
      9          7           0        0.919059   -1.928312    0.332537
     10          6           0        2.266503   -2.165423    0.392763
     11          6           0        3.192667   -1.138813    0.180787
     12          6           0        2.800130    0.098761   -0.068990
     13          6           0        1.454836    0.437741   -0.268346
     14          8           0        0.936415    1.696504   -0.576603
     15          6           0        1.889802    2.674870   -0.745520
     16          1           0       -4.738615    0.018613   -0.407009
     17          1           0       -3.528668    1.210204    1.342420
     18          1           0       -3.342646   -1.425702   -1.993866
     19          1           0        2.473407   -3.134436    0.630798
     20          1           0        4.273303   -1.454555    0.281273
     21          1           0        3.607607    0.854650   -0.223732
     22          1           0        1.300031    3.669457   -0.993917
     23          1           0        2.533343    2.483319   -1.621472
     24          1           0        2.481762    2.899520    0.137101
 ---------------------------------------------------------------------
 Rotational constants (GHZ):           1.0081372           0.4720823           0.3900355
 Leave Link  202 at Thu Jul 23 17:01:27 2020, MaxMem=  4026531840 cpu:               0.2 elap:               0.1
 (Enter /opt/ohpc/pub/libs/gaussian/g16-A.03/sandybridge/g16/l301.exe)
 Standard basis: CC-pVDZ (5D, 7F)
 Ernie: Thresh=  0.10000D-02 Tol=  0.10000D-05 Strict=F.
 Ernie:  30 primitive shells out of 375 were deleted.
 There are   270 symmetry adapted cartesian basis functions of A   symmetry.
 There are   255 symmetry adapted basis functions of A   symmetry.
   255 basis functions,   558 primitive gaussians,   270 cartesian basis functions
    53 alpha electrons       53 beta electrons
       nuclear repulsion energy       949.3296181359 Hartrees.
 IExCor=32609 DFT=T Ex+Corr=LC-wPBE ExCW=0 ScaHFX=  1.000000
 ScaDFX=  1.000000  0.000000  1.000000  1.000000 ScalE2=  1.000000  1.000000
 IRadAn=      5 IRanWt=     -1 IRanGd=            0 ICorTp=0 IEmpDi=  4
 HFx  wShort=  0.000000 wLong=  0.152400 cFull=  0.000000 cShort=  0.000000 cLong=  1.000000
 DFx  wShort=  0.000000 wLong=  0.152400 cFull=  0.000000 cShort=  0.000000 cLong=  1.000000
 NAtoms=   24 NActive=   24 NUniq=   24 SFac= 1.00D+00 NAtFMM=   60 NAOKFM=F Big=F
 Integral buffers will be    131072 words long.
 Raffenetti 2 integral format.
 Two-electron integral symmetry is turned on.
 Leave Link  301 at Thu Jul 23 17:01:27 2020, MaxMem=  4026531840 cpu:               0.4 elap:               0.1
 (Enter /opt/ohpc/pub/libs/gaussian/g16-A.03/sandybridge/g16/l302.exe)
 NPDir=0 NMtPBC=     1 NCelOv=     1 NCel=       1 NClECP=     1 NCelD=      1
         NCelK=      1 NCelE2=     1 NClLst=     1 CellRange=     0.0.
 One-electron integrals computed using PRISM.
 One-electron integral symmetry used in STVInt
 NBasis=   255 RedAO= T EigKep=  5.81D-04  NBF=   255
 NBsUse=   255 1.00D-06 EigRej= -1.00D+00 NBFU=   255
 Precomputing XC quadrature grid using
 IXCGrd= 4 IRadAn=           5 IRanWt=          -1 IRanGd=           0 AccXCQ= 0.00D+00.
 Generated NRdTot=       0 NPtTot=           0 NUsed=           0 NTot=          32
 NSgBfM=   269   269   269   269   269 MxSgAt=    24 MxSgA2=    24.
 Leave Link  302 at Thu Jul 23 17:01:29 2020, MaxMem=  4026531840 cpu:              10.7 elap:               1.8
 (Enter /opt/ohpc/pub/libs/gaussian/g16-A.03/sandybridge/g16/l303.exe)
 DipDrv:  MaxL=1.
 Leave Link  303 at Thu Jul 23 17:01:29 2020, MaxMem=  4026531840 cpu:               1.6 elap:               0.4
 (Enter /opt/ohpc/pub/libs/gaussian/g16-A.03/sandybridge/g16/l401.exe)
 ExpMin= 1.22D-01 ExpMax= 1.47D+04 ExpMxC= 5.03D+02 IAcc=3 IRadAn=         5 AccDes= 0.00D+00
 Harris functional with IExCor=32609 and IRadAn=       5 diagonalized for initial guess.
 HarFok:  IExCor=32609 AccDes= 0.00D+00 IRadAn=         5 IDoV= 1 UseB2=F ITyADJ=14
 ICtDFT=  3500011 ScaDFX=  1.000000  1.000000  1.000000  1.000000
 FoFCou: FMM=F IPFlag=           0 FMFlag=      100000 FMFlg1=           0
         NFxFlg=           0 DoJE=T BraDBF=F KetDBF=T FulRan=T
         wScrn=  0.000000 ICntrl=       500 IOpCl=  0 I1Cent=   200000004 NGrid=           0
         NMat0=    1 NMatS0=      1 NMatT0=    0 NMatD0=    1 NMtDS0=    0 NMtDT0=    0
 Petite list used in FoFCou.
 Harris En= -708.516419176444    
 JPrj=0 DoOrth=F DoCkMO=F.
 Initial guess <Sx>= 0.0000 <Sy>= 0.0000 <Sz>= 0.0000 <S**2>=-0.0000 S=-0.0000
 Leave Link  401 at Thu Jul 23 17:01:31 2020, MaxMem=  4026531840 cpu:              17.3 elap:               2.2
 (Enter /opt/ohpc/pub/libs/gaussian/g16-A.03/sandybridge/g16/l502.exe)
 Integral symmetry usage will be decided dynamically.
 UHF open shell SCF:
 Using DIIS extrapolation, IDIIS=  1040.
 NGot=  4026531840 LenX=  4026380972 LenY=  4026307631
 Requested convergence on RMS density matrix=1.00D-08 within 128 cycles.
 Requested convergence on MAX density matrix=1.00D-06.
 Requested convergence on             energy=1.00D-06.
 No special actions if energy rises.
 Fock matrices will be formed incrementally for  20 cycles.
 Integral accuracy reduced to 1.0D-05 until final iterations.

 Cycle   1  Pass 0  IDiag  1:
 FoFJK:  IHMeth= 1 ICntrl=       0 DoSepK=T KAlg= 0 I1Cent=           0 FoldK=F
 IRaf=         1 NMat=       1 IRICut=       1 DoRegI=T DoRafI=F ISym2E= 0 IDoP0=0 IntGTp=1.
 FoFCou: FMM=F IPFlag=           0 FMFlag=      100000 FMFlg1=           0
         NFxFlg=           0 DoJE=T BraDBF=F KetDBF=F FulRan=T
         wScrn=  0.000000 ICntrl=       500 IOpCl=  0 I1Cent=           0 NGrid=           0
         NMat0=    1 NMatS0=      1 NMatT0=    0 NMatD0=    1 NMtDS0=    0 NMtDT0=    0
 Symmetry not used in FoFCou.
 E= -708.270248372359    
 DIIS: error= 2.13D-02 at cycle   1 NSaved=   1.
 NSaved= 1 IEnMin= 1 EnMin= -708.270248372359     IErMin= 1 ErrMin= 2.13D-02
 ErrMax= 2.13D-02  0.00D+00 EMaxC= 1.00D-01 BMatC= 7.23D-01 BMatP= 7.23D-01
 IDIUse=3 WtCom= 7.87D-01 WtEn= 2.13D-01
 Coeff-Com:  0.100D+01
 Coeff-En:   0.100D+01
 Coeff:      0.100D+01
 Gap=     0.296 Goal=   None    Shift=    0.000
 Gap=     0.296 Goal=   None    Shift=    0.000
 GapD=    0.296 DampG=1.000 DampE=0.500 DampFc=0.5000 IDamp=-1.
 Damping current iteration by 5.00D-01
 RMSDP=3.45D-03 MaxDP=8.40D-02              OVMax= 1.44D-01

 Cycle   2  Pass 0  IDiag  1:
 RMSU=  1.72D-03    CP:  9.93D-01
 E= -708.360006634352     Delta-E=       -0.089758261993 Rises=F Damp=T
 DIIS: error= 3.76D-03 at cycle   2 NSaved=   2.
 NSaved= 2 IEnMin= 2 EnMin= -708.360006634352     IErMin= 2 ErrMin= 3.76D-03
 ErrMax= 3.76D-03  0.00D+00 EMaxC= 1.00D-01 BMatC= 5.56D-02 BMatP= 7.23D-01
 IDIUse=3 WtCom= 9.62D-01 WtEn= 3.76D-02
 Coeff-Com:  0.656D-01 0.934D+00
 Coeff-En:   0.635D-01 0.936D+00
 Coeff:      0.656D-01 0.934D+00
 Gap=     0.307 Goal=   None    Shift=    0.000
 Gap=     0.307 Goal=   None    Shift=    0.000
 RMSDP=1.17D-03 MaxDP=2.87D-02 DE=-8.98D-02 OVMax= 1.14D-01

 Cycle   3  Pass 0  IDiag  1:
 RMSU=  1.15D-03    CP:  9.89D-01  1.10D+00
 E= -708.457677473208     Delta-E=       -0.097670838856 Rises=F Damp=F
 DIIS: error= 5.20D-03 at cycle   3 NSaved=   3.
 NSaved= 3 IEnMin= 3 EnMin= -708.457677473208     IErMin= 2 ErrMin= 3.76D-03
 ErrMax= 5.20D-03  0.00D+00 EMaxC= 1.00D-01 BMatC= 5.53D-02 BMatP= 5.56D-02
 IDIUse=3 WtCom= 9.48D-01 WtEn= 5.20D-02
 Coeff-Com: -0.240D-01 0.507D+00 0.517D+00
 Coeff-En:   0.000D+00 0.000D+00 0.100D+01
 Coeff:     -0.228D-01 0.481D+00 0.542D+00
 Gap=     0.279 Goal=   None    Shift=    0.000
 Gap=     0.279 Goal=   None    Shift=    0.000
 RMSDP=5.82D-04 MaxDP=2.00D-02 DE=-9.77D-02 OVMax= 3.78D-02

 Cycle   4  Pass 0  IDiag  1:
 RMSU=  3.23D-04    CP:  9.91D-01  1.16D+00  5.90D-01
 E= -708.470949346315     Delta-E=       -0.013271873107 Rises=F Damp=F
 DIIS: error= 1.74D-03 at cycle   4 NSaved=   4.
 NSaved= 4 IEnMin= 4 EnMin= -708.470949346315     IErMin= 4 ErrMin= 1.74D-03
 ErrMax= 1.74D-03  0.00D+00 EMaxC= 1.00D-01 BMatC= 4.92D-03 BMatP= 5.53D-02
 IDIUse=3 WtCom= 9.83D-01 WtEn= 1.74D-02
 Coeff-Com: -0.481D-02 0.114D+00 0.264D+00 0.627D+00
 Coeff-En:   0.000D+00 0.000D+00 0.320D-01 0.968D+00
 Coeff:     -0.472D-02 0.112D+00 0.260D+00 0.633D+00
 Gap=     0.278 Goal=   None    Shift=    0.000
 Gap=     0.278 Goal=   None    Shift=    0.000
 RMSDP=1.48D-04 MaxDP=5.13D-03 DE=-1.33D-02 OVMax= 8.58D-03

 Cycle   5  Pass 0  IDiag  1:
 RMSU=  7.61D-05    CP:  9.91D-01  1.15D+00  6.64D-01  7.24D-01
 E= -708.472111997552     Delta-E=       -0.001162651237 Rises=F Damp=F
 DIIS: error= 2.77D-04 at cycle   5 NSaved=   5.
 NSaved= 5 IEnMin= 5 EnMin= -708.472111997552     IErMin= 5 ErrMin= 2.77D-04
 ErrMax= 2.77D-04  0.00D+00 EMaxC= 1.00D-01 BMatC= 2.69D-04 BMatP= 4.92D-03
 IDIUse=3 WtCom= 9.97D-01 WtEn= 2.77D-03
 Coeff-Com:  0.157D-02 0.148D-01 0.835D-01 0.286D+00 0.614D+00
 Coeff-En:   0.000D+00 0.000D+00 0.000D+00 0.000D+00 0.100D+01
 Coeff:      0.157D-02 0.148D-01 0.832D-01 0.286D+00 0.615D+00
 Gap=     0.278 Goal=   None    Shift=    0.000
 Gap=     0.278 Goal=   None    Shift=    0.000
 RMSDP=3.61D-05 MaxDP=1.18D-03 DE=-1.16D-03 OVMax= 2.22D-03

 Cycle   6  Pass 0  IDiag  1:
 RMSU=  2.87D-05    CP:  9.91D-01  1.15D+00  6.72D-01  7.57D-01  7.86D-01
 E= -708.472165803215     Delta-E=       -0.000053805663 Rises=F Damp=F
 DIIS: error= 9.97D-05 at cycle   6 NSaved=   6.
 NSaved= 6 IEnMin= 6 EnMin= -708.472165803215     IErMin= 6 ErrMin= 9.97D-05
 ErrMax= 9.97D-05  0.00D+00 EMaxC= 1.00D-01 BMatC= 3.01D-05 BMatP= 2.69D-04
 IDIUse=1 WtCom= 1.00D+00 WtEn= 0.00D+00
 Coeff-Com:  0.214D-02-0.841D-02 0.639D-02 0.509D-01 0.280D+00 0.669D+00
 Coeff:      0.214D-02-0.841D-02 0.639D-02 0.509D-01 0.280D+00 0.669D+00
 Gap=     0.278 Goal=   None    Shift=    0.000
 Gap=     0.278 Goal=   None    Shift=    0.000
 RMSDP=1.27D-05 MaxDP=3.48D-04 DE=-5.38D-05 OVMax= 8.54D-04

 Cycle   7  Pass 0  IDiag  1:
 RMSU=  8.91D-06    CP:  9.91D-01  1.15D+00  6.73D-01  7.62D-01  8.94D-01
                    CP:  9.04D-01
 E= -708.472172846713     Delta-E=       -0.000007043498 Rises=F Damp=F
 DIIS: error= 4.19D-05 at cycle   7 NSaved=   7.
 NSaved= 7 IEnMin= 7 EnMin= -708.472172846713     IErMin= 7 ErrMin= 4.19D-05
 ErrMax= 4.19D-05  0.00D+00 EMaxC= 1.00D-01 BMatC= 2.75D-06 BMatP= 3.01D-05
 IDIUse=1 WtCom= 1.00D+00 WtEn= 0.00D+00
 Coeff-Com:  0.107D-02-0.497D-02-0.231D-02 0.132D-02 0.776D-01 0.283D+00
 Coeff-Com:  0.644D+00
 Coeff:      0.107D-02-0.497D-02-0.231D-02 0.132D-02 0.776D-01 0.283D+00
 Coeff:      0.644D+00
 Gap=     0.278 Goal=   None    Shift=    0.000
 Gap=     0.278 Goal=   None    Shift=    0.000
 RMSDP=4.60D-06 MaxDP=1.54D-04 DE=-7.04D-06 OVMax= 3.83D-04

 Initial convergence to 1.0D-05 achieved.  Increase integral accuracy.
 Cycle   8  Pass 1  IDiag  1:
 E= -708.472029612693     Delta-E=        0.000143234019 Rises=F Damp=F
 DIIS: error= 7.11D-05 at cycle   1 NSaved=   1.
 NSaved= 1 IEnMin= 1 EnMin= -708.472029612693     IErMin= 1 ErrMin= 7.11D-05
 ErrMax= 7.11D-05  0.00D+00 EMaxC= 1.00D-01 BMatC= 3.20D-06 BMatP= 3.20D-06
 IDIUse=1 WtCom= 1.00D+00 WtEn= 0.00D+00
 Coeff-Com:  0.100D+01
 Coeff:      0.100D+01
 Gap=     0.278 Goal=   None    Shift=    0.000
 Gap=     0.278 Goal=   None    Shift=    0.000
 RMSDP=4.60D-06 MaxDP=1.54D-04 DE= 1.43D-04 OVMax= 2.52D-04

 Cycle   9  Pass 1  IDiag  1:
 RMSU=  3.73D-05    CP:  1.00D+00
 E= -708.472030092294     Delta-E=       -0.000000479600 Rises=F Damp=F
 DIIS: error= 3.45D-05 at cycle   2 NSaved=   2.
 NSaved= 2 IEnMin= 2 EnMin= -708.472030092294     IErMin= 2 ErrMin= 3.45D-05
 ErrMax= 3.45D-05  0.00D+00 EMaxC= 1.00D-01 BMatC= 1.50D-06 BMatP= 3.20D-06
 IDIUse=1 WtCom= 1.00D+00 WtEn= 0.00D+00
 Coeff-Com:  0.366D+00 0.634D+00
 Coeff:      0.366D+00 0.634D+00
 Gap=     0.278 Goal=   None    Shift=    0.000
 Gap=     0.278 Goal=   None    Shift=    0.000
 RMSDP=3.69D-06 MaxDP=1.46D-04 DE=-4.80D-07 OVMax= 2.43D-04

 Cycle  10  Pass 1  IDiag  1:
 RMSU=  3.53D-06    CP:  1.00D+00  1.03D+00
 E= -708.472030196595     Delta-E=       -0.000000104301 Rises=F Damp=F
 DIIS: error= 2.26D-05 at cycle   3 NSaved=   3.
 NSaved= 3 IEnMin= 3 EnMin= -708.472030196595     IErMin= 3 ErrMin= 2.26D-05
 ErrMax= 2.26D-05  0.00D+00 EMaxC= 1.00D-01 BMatC= 6.94D-07 BMatP= 1.50D-06
 IDIUse=1 WtCom= 1.00D+00 WtEn= 0.00D+00
 Coeff-Com: -0.196D-01 0.404D+00 0.616D+00
 Coeff:     -0.196D-01 0.404D+00 0.616D+00
 Gap=     0.278 Goal=   None    Shift=    0.000
 Gap=     0.278 Goal=   None    Shift=    0.000
 RMSDP=1.81D-06 MaxDP=6.00D-05 DE=-1.04D-07 OVMax= 8.03D-05

 Cycle  11  Pass 1  IDiag  1:
 RMSU=  8.06D-07    CP:  1.00D+00  1.05D+00  6.42D-01
 E= -708.472030383406     Delta-E=       -0.000000186811 Rises=F Damp=F
 DIIS: error= 2.35D-06 at cycle   4 NSaved=   4.
 NSaved= 4 IEnMin= 4 EnMin= -708.472030383406     IErMin= 4 ErrMin= 2.35D-06
 ErrMax= 2.35D-06  0.00D+00 EMaxC= 1.00D-01 BMatC= 1.67D-08 BMatP= 6.94D-07
 IDIUse=1 WtCom= 1.00D+00 WtEn= 0.00D+00
 Coeff-Com: -0.176D-01 0.190D+00 0.305D+00 0.523D+00
 Coeff:     -0.176D-01 0.190D+00 0.305D+00 0.523D+00
 Gap=     0.278 Goal=   None    Shift=    0.000
 Gap=     0.278 Goal=   None    Shift=    0.000
 RMSDP=2.92D-07 MaxDP=8.81D-06 DE=-1.87D-07 OVMax= 2.63D-05

 Cycle  12  Pass 1  IDiag  1:
 RMSU=  2.78D-07    CP:  1.00D+00  1.06D+00  6.60D-01  1.02D+00
 E= -708.472030388574     Delta-E=       -0.000000005168 Rises=F Damp=F
 DIIS: error= 1.35D-06 at cycle   5 NSaved=   5.
 NSaved= 5 IEnMin= 5 EnMin= -708.472030388574     IErMin= 5 ErrMin= 1.35D-06
 ErrMax= 1.35D-06  0.00D+00 EMaxC= 1.00D-01 BMatC= 1.85D-09 BMatP= 1.67D-08
 IDIUse=1 WtCom= 1.00D+00 WtEn= 0.00D+00
 Coeff-Com:  0.192D-02-0.787D-01-0.123D+00 0.118D+00 0.108D+01
 Coeff:      0.192D-02-0.787D-01-0.123D+00 0.118D+00 0.108D+01
 Gap=     0.278 Goal=   None    Shift=    0.000
 Gap=     0.278 Goal=   None    Shift=    0.000
 RMSDP=2.67D-07 MaxDP=4.60D-06 DE=-5.17D-09 OVMax= 2.72D-05

 Cycle  13  Pass 1  IDiag  1:
 RMSU=  1.33D-07    CP:  1.00D+00  1.06D+00  6.63D-01  1.29D+00  1.23D+00
 E= -708.472030390207     Delta-E=       -0.000000001632 Rises=F Damp=F
 DIIS: error= 4.72D-07 at cycle   6 NSaved=   6.
 NSaved= 6 IEnMin= 6 EnMin= -708.472030390207     IErMin= 6 ErrMin= 4.72D-07
 ErrMax= 4.72D-07  0.00D+00 EMaxC= 1.00D-01 BMatC= 7.60D-10 BMatP= 1.85D-09
 IDIUse=1 WtCom= 1.00D+00 WtEn= 0.00D+00
 Coeff-Com:  0.383D-02-0.741D-01-0.118D+00-0.690D-02 0.640D+00 0.555D+00
 Coeff:      0.383D-02-0.741D-01-0.118D+00-0.690D-02 0.640D+00 0.555D+00
 Gap=     0.278 Goal=   None    Shift=    0.000
 Gap=     0.278 Goal=   None    Shift=    0.000
 RMSDP=8.06D-08 MaxDP=1.64D-06 DE=-1.63D-09 OVMax= 8.76D-06

 Cycle  14  Pass 1  IDiag  1:
 RMSU=  5.58D-08    CP:  1.00D+00  1.06D+00  6.65D-01  1.35D+00  1.36D+00
                    CP:  9.15D-01
 E= -708.472030390438     Delta-E=       -0.000000000231 Rises=F Damp=F
 DIIS: error= 1.49D-07 at cycle   7 NSaved=   7.
 NSaved= 7 IEnMin= 7 EnMin= -708.472030390438     IErMin= 7 ErrMin= 1.49D-07
 ErrMax= 1.49D-07  0.00D+00 EMaxC= 1.00D-01 BMatC= 4.35D-11 BMatP= 7.60D-10
 IDIUse=1 WtCom= 1.00D+00 WtEn= 0.00D+00
 Coeff-Com:  0.150D-02-0.248D-01-0.395D-01-0.162D-01 0.169D+00 0.247D+00
 Coeff-Com:  0.664D+00
 Coeff:      0.150D-02-0.248D-01-0.395D-01-0.162D-01 0.169D+00 0.247D+00
 Coeff:      0.664D+00
 Gap=     0.278 Goal=   None    Shift=    0.000
 Gap=     0.278 Goal=   None    Shift=    0.000
 RMSDP=1.95D-08 MaxDP=4.64D-07 DE=-2.31D-10 OVMax= 1.77D-06

 Cycle  15  Pass 1  IDiag  1:
 RMSU=  1.17D-08    CP:  1.00D+00  1.06D+00  6.65D-01  1.36D+00  1.38D+00
                    CP:  1.00D+00  1.00D+00
 E= -708.472030390445     Delta-E=       -0.000000000007 Rises=F Damp=F
 DIIS: error= 2.88D-08 at cycle   8 NSaved=   8.
 NSaved= 8 IEnMin= 8 EnMin= -708.472030390445     IErMin= 8 ErrMin= 2.88D-08
 ErrMax= 2.88D-08  0.00D+00 EMaxC= 1.00D-01 BMatC= 3.54D-12 BMatP= 4.35D-11
 IDIUse=1 WtCom= 1.00D+00 WtEn= 0.00D+00
 Coeff-Com: -0.102D-05 0.141D-02 0.235D-02-0.446D-02-0.280D-01 0.119D-01
 Coeff-Com:  0.235D+00 0.781D+00
 Coeff:     -0.102D-05 0.141D-02 0.235D-02-0.446D-02-0.280D-01 0.119D-01
 Coeff:      0.235D+00 0.781D+00
 Gap=     0.278 Goal=   None    Shift=    0.000
 Gap=     0.278 Goal=   None    Shift=    0.000
 RMSDP=7.84D-09 MaxDP=1.28D-07 DE=-7.28D-12 OVMax= 5.69D-07

 SCF Done:  E(ULC-wPBE) =  -708.472030390     A.U. after   15 cycles
            NFock= 15  Conv=0.78D-08     -V/T= 2.0057
 <Sx>= 0.0000 <Sy>= 0.0000 <Sz>= 0.0000 <S**2>=-0.0000 S=-0.0000
 <L.S>= 0.000000000000E+00
 KE= 7.044402132816D+02 PE=-3.554245645203D+03 EE= 1.192003783395D+03
 Annihilation of the first spin contaminant:
 S**2 before annihilation     0.0000,   after     0.0000
 Leave Link  502 at Thu Jul 23 17:03:14 2020, MaxMem=  4026531840 cpu:             823.2 elap:             103.3
 (Enter /opt/ohpc/pub/libs/gaussian/g16-A.03/sandybridge/g16/l601.exe)
 Copying SCF densities to generalized density rwf, IOpCl= 1 IROHF=0.

 **********************************************************************

            Population analysis using the SCF density.

 **********************************************************************

 Orbital symmetries:
 Alpha Orbitals:
       Occupied  (A) (A) (A) (A) (A) (A) (A) (A) (A) (A) (A) (A)
                 (A) (A) (A) (A) (A) (A) (A) (A) (A) (A) (A) (A)
                 (A) (A) (A) (A) (A) (A) (A) (A) (A) (A) (A) (A)
                 (A) (A) (A) (A) (A) (A) (A) (A) (A) (A) (A) (A)
                 (A) (A) (A) (A) (A)
       Virtual   (A) (A) (A) (A) (A) (A) (A) (A) (A) (A) (A) (A)
                 (A) (A) (A) (A) (A) (A) (A) (A) (A) (A) (A) (A)
                 (A) (A) (A) (A) (A) (A) (A) (A) (A) (A) (A) (A)
                 (A) (A) (A) (A) (A) (A) (A) (A) (A) (A) (A) (A)
                 (A) (A) (A) (A) (A) (A) (A) (A) (A) (A) (A) (A)
                 (A) (A) (A) (A) (A) (A) (A) (A) (A) (A) (A) (A)
                 (A) (A) (A) (A) (A) (A) (A) (A) (A) (A) (A) (A)
                 (A) (A) (A) (A) (A) (A) (A) (A) (A) (A) (A) (A)
                 (A) (A) (A) (A) (A) (A) (A) (A) (A) (A) (A) (A)
                 (A) (A) (A) (A) (A) (A) (A) (A) (A) (A) (A) (A)
                 (A) (A) (A) (A) (A) (A) (A) (A) (A) (A) (A) (A)
                 (A) (A) (A) (A) (A) (A) (A) (A) (A) (A) (A) (A)
                 (A) (A) (A) (A) (A) (A) (A) (A) (A) (A) (A) (A)
                 (A) (A) (A) (A) (A) (A) (A) (A) (A) (A) (A) (A)
                 (A) (A) (A) (A) (A) (A) (A) (A) (A) (A) (A) (A)
                 (A) (A) (A) (A) (A) (A) (A) (A) (A) (A) (A) (A)
                 (A) (A) (A) (A) (A) (A) (A) (A) (A) (A)
 Beta  Orbitals:
       Occupied  (A) (A) (A) (A) (A) (A) (A) (A) (A) (A) (A) (A)
                 (A) (A) (A) (A) (A) (A) (A) (A) (A) (A) (A) (A)
                 (A) (A) (A) (A) (A) (A) (A) (A) (A) (A) (A) (A)
                 (A) (A) (A) (A) (A) (A) (A) (A) (A) (A) (A) (A)
                 (A) (A) (A) (A) (A)
       Virtual   (A) (A) (A) (A) (A) (A) (A) (A) (A) (A) (A) (A)
                 (A) (A) (A) (A) (A) (A) (A) (A) (A) (A) (A) (A)
                 (A) (A) (A) (A) (A) (A) (A) (A) (A) (A) (A) (A)
                 (A) (A) (A) (A) (A) (A) (A) (A) (A) (A) (A) (A)
                 (A) (A) (A) (A) (A) (A) (A) (A) (A) (A) (A) (A)
                 (A) (A) (A) (A) (A) (A) (A) (A) (A) (A) (A) (A)
                 (A) (A) (A) (A) (A) (A) (A) (A) (A) (A) (A) (A)
                 (A) (A) (A) (A) (A) (A) (A) (A) (A) (A) (A) (A)
                 (A) (A) (A) (A) (A) (A) (A) (A) (A) (A) (A) (A)
                 (A) (A) (A) (A) (A) (A) (A) (A) (A) (A) (A) (A)
                 (A) (A) (A) (A) (A) (A) (A) (A) (A) (A) (A) (A)
                 (A) (A) (A) (A) (A) (A) (A) (A) (A) (A) (A) (A)
                 (A) (A) (A) (A) (A) (A) (A) (A) (A) (A) (A) (A)
                 (A) (A) (A) (A) (A) (A) (A) (A) (A) (A) (A) (A)
                 (A) (A) (A) (A) (A) (A) (A) (A) (A) (A) (A) (A)
                 (A) (A) (A) (A) (A) (A) (A) (A) (A) (A) (A) (A)
                 (A) (A) (A) (A) (A) (A) (A) (A) (A) (A)
 The electronic state is 1-A.
 Alpha  occ. eigenvalues --  -24.35680 -18.90415 -14.08658 -14.07985 -10.06502
 Alpha  occ. eigenvalues --  -10.06157 -10.04758 -10.03298 -10.02805 -10.00679
 Alpha  occ. eigenvalues --  -10.00387 -10.00244 -10.00128  -9.99755  -9.99633
 Alpha  occ. eigenvalues --   -1.17330  -1.08598  -0.96485  -0.93982  -0.83054
 Alpha  occ. eigenvalues --   -0.82643  -0.81156  -0.77035  -0.72806  -0.69000
 Alpha  occ. eigenvalues --   -0.65217  -0.64366  -0.63473  -0.58254  -0.56359
 Alpha  occ. eigenvalues --   -0.54805  -0.54079  -0.53581  -0.51551  -0.50742
 Alpha  occ. eigenvalues --   -0.47702  -0.47506  -0.46397  -0.45516  -0.44374
 Alpha  occ. eigenvalues --   -0.43842  -0.42603  -0.42533  -0.41811  -0.39081
 Alpha  occ. eigenvalues --   -0.37707  -0.37678  -0.34122  -0.33373  -0.30861
 Alpha  occ. eigenvalues --   -0.29712  -0.28717  -0.27997
 Alpha virt. eigenvalues --   -0.00224   0.01781   0.03074   0.04713   0.09888
 Alpha virt. eigenvalues --    0.10529   0.12099   0.14602   0.14777   0.15436
 Alpha virt. eigenvalues --    0.17179   0.17637   0.17946   0.18079   0.18736
 Alpha virt. eigenvalues --    0.19202   0.19774   0.24755   0.27339   0.28039
 Alpha virt. eigenvalues --    0.31132   0.32334   0.33784   0.35323   0.36747
 Alpha virt. eigenvalues --    0.39260   0.40038   0.40694   0.44440   0.46691
 Alpha virt. eigenvalues --    0.47760   0.48058   0.48335   0.49036   0.50236
 Alpha virt. eigenvalues --    0.50680   0.51185   0.51759   0.52581   0.53042
 Alpha virt. eigenvalues --    0.54171   0.54602   0.55468   0.56822   0.57337
 Alpha virt. eigenvalues --    0.58001   0.58394   0.58660   0.61045   0.61879
 Alpha virt. eigenvalues --    0.62601   0.62995   0.63920   0.64511   0.65843
 Alpha virt. eigenvalues --    0.66070   0.66880   0.67697   0.70272   0.70936
 Alpha virt. eigenvalues --    0.71675   0.72383   0.72713   0.74760   0.76681
 Alpha virt. eigenvalues --    0.78585   0.79161   0.83572   0.86556   0.87431
 Alpha virt. eigenvalues --    0.88697   0.90233   0.91403   0.92130   0.93657
 Alpha virt. eigenvalues --    0.95313   0.95804   0.96535   0.97399   0.98900
 Alpha virt. eigenvalues --    0.99359   1.00348   1.02646   1.03116   1.03536
 Alpha virt. eigenvalues --    1.05413   1.05979   1.07989   1.08670   1.11141
 Alpha virt. eigenvalues --    1.11571   1.12364   1.15067   1.16587   1.18068
 Alpha virt. eigenvalues --    1.19200   1.21664   1.22243   1.23327   1.25459
 Alpha virt. eigenvalues --    1.26707   1.30409   1.33214   1.34440   1.37790
 Alpha virt. eigenvalues --    1.39682   1.40084   1.40440   1.43773   1.46490
 Alpha virt. eigenvalues --    1.46719   1.47800   1.49249   1.52135   1.52752
 Alpha virt. eigenvalues --    1.53140   1.54157   1.55583   1.56428   1.57805
 Alpha virt. eigenvalues --    1.58590   1.60274   1.61566   1.62785   1.63480
 Alpha virt. eigenvalues --    1.64323   1.64770   1.66238   1.66999   1.68016
 Alpha virt. eigenvalues --    1.68502   1.69446   1.69718   1.71111   1.72235
 Alpha virt. eigenvalues --    1.74121   1.77067   1.78458   1.79316   1.81928
 Alpha virt. eigenvalues --    1.82698   1.84372   1.85800   1.86644   1.88723
 Alpha virt. eigenvalues --    1.89293   1.90923   1.92177   1.93927   1.95818
 Alpha virt. eigenvalues --    1.97429   1.98135   2.00282   2.02248   2.03021
 Alpha virt. eigenvalues --    2.03891   2.03966   2.06295   2.07754   2.09299
 Alpha virt. eigenvalues --    2.12109   2.18158   2.18308   2.23268   2.23426
 Alpha virt. eigenvalues --    2.27075   2.30257   2.32735   2.33312   2.35412
 Alpha virt. eigenvalues --    2.38226   2.38922   2.40336   2.43538   2.45408
 Alpha virt. eigenvalues --    2.50595   2.51622   2.52402   2.55294   2.55465
 Alpha virt. eigenvalues --    2.58191   2.60223   2.68010   2.70789   2.75359
 Alpha virt. eigenvalues --    2.77779   2.82268   2.85752   2.90429   2.95428
 Alpha virt. eigenvalues --    2.97054   3.03542   3.04385   3.23922   3.31573
 Alpha virt. eigenvalues --    3.37992   3.52683   3.57178   3.59563   3.71846
 Alpha virt. eigenvalues --    3.90136   4.14303
  Beta  occ. eigenvalues --  -24.35680 -18.90415 -14.08658 -14.07985 -10.06502
  Beta  occ. eigenvalues --  -10.06157 -10.04758 -10.03298 -10.02805 -10.00679
  Beta  occ. eigenvalues --  -10.00387 -10.00244 -10.00128  -9.99755  -9.99633
  Beta  occ. eigenvalues --   -1.17330  -1.08598  -0.96485  -0.93982  -0.83054
  Beta  occ. eigenvalues --   -0.82643  -0.81156  -0.77035  -0.72806  -0.69000
  Beta  occ. eigenvalues --   -0.65217  -0.64366  -0.63473  -0.58254  -0.56359
  Beta  occ. eigenvalues --   -0.54805  -0.54079  -0.53581  -0.51551  -0.50742
  Beta  occ. eigenvalues --   -0.47702  -0.47506  -0.46397  -0.45516  -0.44374
  Beta  occ. eigenvalues --   -0.43842  -0.42603  -0.42533  -0.41811  -0.39081
  Beta  occ. eigenvalues --   -0.37707  -0.37678  -0.34122  -0.33373  -0.30861
  Beta  occ. eigenvalues --   -0.29712  -0.28717  -0.27997
  Beta virt. eigenvalues --   -0.00224   0.01781   0.03074   0.04713   0.09888
  Beta virt. eigenvalues --    0.10529   0.12099   0.14602   0.14777   0.15436
  Beta virt. eigenvalues --    0.17179   0.17637   0.17946   0.18079   0.18736
  Beta virt. eigenvalues --    0.19202   0.19774   0.24755   0.27339   0.28039
  Beta virt. eigenvalues --    0.31132   0.32334   0.33784   0.35323   0.36747
  Beta virt. eigenvalues --    0.39260   0.40038   0.40694   0.44440   0.46691
  Beta virt. eigenvalues --    0.47760   0.48058   0.48335   0.49036   0.50236
  Beta virt. eigenvalues --    0.50680   0.51185   0.51759   0.52581   0.53042
  Beta virt. eigenvalues --    0.54171   0.54602   0.55468   0.56822   0.57337
  Beta virt. eigenvalues --    0.58001   0.58394   0.58660   0.61045   0.61879
  Beta virt. eigenvalues --    0.62601   0.62995   0.63920   0.64511   0.65843
  Beta virt. eigenvalues --    0.66070   0.66880   0.67697   0.70272   0.70936
  Beta virt. eigenvalues --    0.71675   0.72383   0.72713   0.74760   0.76681
  Beta virt. eigenvalues --    0.78585   0.79161   0.83572   0.86556   0.87431
  Beta virt. eigenvalues --    0.88697   0.90233   0.91403   0.92130   0.93657
  Beta virt. eigenvalues --    0.95313   0.95804   0.96535   0.97399   0.98900
  Beta virt. eigenvalues --    0.99359   1.00348   1.02646   1.03116   1.03536
  Beta virt. eigenvalues --    1.05413   1.05979   1.07989   1.08670   1.11141
  Beta virt. eigenvalues --    1.11571   1.12364   1.15067   1.16587   1.18068
  Beta virt. eigenvalues --    1.19200   1.21664   1.22243   1.23327   1.25459
  Beta virt. eigenvalues --    1.26707   1.30409   1.33214   1.34440   1.37790
  Beta virt. eigenvalues --    1.39682   1.40084   1.40440   1.43773   1.46490
  Beta virt. eigenvalues --    1.46719   1.47800   1.49249   1.52135   1.52752
  Beta virt. eigenvalues --    1.53140   1.54157   1.55583   1.56428   1.57805
  Beta virt. eigenvalues --    1.58590   1.60274   1.61566   1.62785   1.63480
  Beta virt. eigenvalues --    1.64323   1.64770   1.66238   1.66999   1.68016
  Beta virt. eigenvalues --    1.68502   1.69446   1.69718   1.71111   1.72235
  Beta virt. eigenvalues --    1.74121   1.77067   1.78458   1.79316   1.81928
  Beta virt. eigenvalues --    1.82698   1.84372   1.85800   1.86644   1.88723
  Beta virt. eigenvalues --    1.89293   1.90923   1.92177   1.93927   1.95818
  Beta virt. eigenvalues --    1.97429   1.98135   2.00282   2.02248   2.03021
  Beta virt. eigenvalues --    2.03891   2.03966   2.06295   2.07754   2.09299
  Beta virt. eigenvalues --    2.12109   2.18158   2.18308   2.23268   2.23426
  Beta virt. eigenvalues --    2.27075   2.30257   2.32735   2.33312   2.35412
  Beta virt. eigenvalues --    2.38226   2.38922   2.40336   2.43538   2.45408
  Beta virt. eigenvalues --    2.50595   2.51622   2.52402   2.55294   2.55465
  Beta virt. eigenvalues --    2.58191   2.60223   2.68010   2.70789   2.75359
  Beta virt. eigenvalues --    2.77779   2.82268   2.85752   2.90429   2.95428
  Beta virt. eigenvalues --    2.97054   3.03542   3.04385   3.23922   3.31573
  Beta virt. eigenvalues --    3.37992   3.52683   3.57178   3.59563   3.71846
  Beta virt. eigenvalues --    3.90136   4.14303
          Condensed to atoms (all electrons):
               1          2          3          4          5          6
     1  C    4.930650   0.434415   0.038858   0.004097  -0.053197  -0.031446
     2  C    0.434415   4.892244   0.410391  -0.057145  -0.053563  -0.048209
     3  C    0.038858   0.410391   4.991039   0.404469   0.245991  -0.019692
     4  F    0.004097  -0.057145   0.404469   8.877955  -0.064979   0.001187
     5  C   -0.053197  -0.053563   0.245991  -0.064979   5.357776   0.529285
     6  N   -0.031446  -0.048209  -0.019692   0.001187   0.529285   6.196064
     7  C    0.457238  -0.019952  -0.061883   0.000119  -0.094496   0.600892
     8  C    0.001808   0.004925  -0.094206   0.006170   0.211053  -0.037758
     9  N   -0.000037  -0.000085  -0.000356  -0.000204  -0.040491  -0.002542
    10  C   -0.000001   0.000014   0.000074  -0.000005   0.004525   0.000180
    11  C   -0.000000  -0.000001  -0.000169  -0.000002   0.003388  -0.000033
    12  C   -0.000002   0.000031   0.001130   0.000063   0.004365  -0.000038
    13  C   -0.000212   0.001147   0.006188   0.002231  -0.106081   0.000470
    14  O   -0.000019   0.000286   0.003529  -0.000588   0.006227  -0.000414
    15  C    0.000000  -0.000008  -0.000097  -0.000022  -0.000277   0.000003
    16  H    0.376683  -0.038710   0.011066  -0.000043   0.000813   0.005978
    17  H   -0.045795   0.384638  -0.051316  -0.000684   0.011330  -0.000751
    18  H   -0.078784   0.007058   0.001463   0.000009   0.004791  -0.035367
    19  H    0.000000  -0.000001   0.000023   0.000000  -0.001390   0.000014
    20  H    0.000000  -0.000000  -0.000003   0.000000   0.000084  -0.000000
    21  H   -0.000000   0.000000   0.000019   0.000004  -0.000511   0.000001
    22  H    0.000000  -0.000005  -0.000023   0.000000  -0.000022   0.000002
    23  H   -0.000000   0.000003   0.000029  -0.000001  -0.000048  -0.000002
    24  H    0.000000  -0.000000  -0.000005   0.000048   0.000111  -0.000001
               7          8          9         10         11         12
     1  C    0.457238   0.001808  -0.000037  -0.000001  -0.000000  -0.000002
     2  C   -0.019952   0.004925  -0.000085   0.000014  -0.000001   0.000031
     3  C   -0.061883  -0.094206  -0.000356   0.000074  -0.000169   0.001130
     4  F    0.000119   0.006170  -0.000204  -0.000005  -0.000002   0.000063
     5  C   -0.094496   0.211053  -0.040491   0.004525   0.003388   0.004365
     6  N    0.600892  -0.037758  -0.002542   0.000180  -0.000033  -0.000038
     7  C    4.652694   0.003109   0.000261   0.000028  -0.000002   0.000020
     8  C    0.003109   5.152450   0.573501  -0.095796  -0.034579  -0.056023
     9  N    0.000261   0.573501   6.257372   0.543326  -0.030079  -0.043029
    10  C    0.000028  -0.095796   0.543326   4.644245   0.491109  -0.034879
    11  C   -0.000002  -0.034579  -0.030079   0.491109   4.815482   0.506163
    12  C    0.000020  -0.056023  -0.043029  -0.034879   0.506163   4.898873
    13  C    0.000366   0.358914  -0.044647  -0.050657   0.001377   0.358501
    14  O   -0.000012  -0.052866   0.000956   0.000292   0.003512  -0.060267
    15  C   -0.000002   0.004900  -0.000126   0.000009   0.001242   0.001968
    16  H   -0.045672   0.000074  -0.000000   0.000000   0.000000  -0.000000
    17  H    0.011575  -0.000373   0.000001  -0.000000  -0.000000   0.000000
    18  H    0.393141  -0.001070   0.000015  -0.000001   0.000000  -0.000001
    19  H   -0.000001   0.002674  -0.027766   0.390724  -0.054135   0.009320
    20  H   -0.000000   0.000997   0.006113  -0.042410   0.373115  -0.043631
    21  H    0.000000   0.006537  -0.000413   0.010643  -0.034554   0.387624
    22  H   -0.000001  -0.000206   0.000004   0.000004  -0.000033  -0.000429
    23  H    0.000001   0.000406  -0.000005  -0.000054   0.000152   0.007224
    24  H   -0.000000   0.000307  -0.000019  -0.000055   0.000430   0.012035
              13         14         15         16         17         18
     1  C   -0.000212  -0.000019   0.000000   0.376683  -0.045795  -0.078784
     2  C    0.001147   0.000286  -0.000008  -0.038710   0.384638   0.007058
     3  C    0.006188   0.003529  -0.000097   0.011066  -0.051316   0.001463
     4  F    0.002231  -0.000588  -0.000022  -0.000043  -0.000684   0.000009
     5  C   -0.106081   0.006227  -0.000277   0.000813   0.011330   0.004791
     6  N    0.000470  -0.000414   0.000003   0.005978  -0.000751  -0.035367
     7  C    0.000366  -0.000012  -0.000002  -0.045672   0.011575   0.393141
     8  C    0.358914  -0.052866   0.004900   0.000074  -0.000373  -0.001070
     9  N   -0.044647   0.000956  -0.000126  -0.000000   0.000001   0.000015
    10  C   -0.050657   0.000292   0.000009   0.000000  -0.000000  -0.000001
    11  C    0.001377   0.003512   0.001242   0.000000  -0.000000   0.000000
    12  C    0.358501  -0.060267   0.001968  -0.000000   0.000000  -0.000001
    13  C    5.092683   0.410563  -0.081176  -0.000003   0.000026   0.000003
    14  O    0.410563   7.622172   0.367351  -0.000000   0.000018   0.000001
    15  C   -0.081176   0.367351   4.502432   0.000000   0.000000  -0.000000
    16  H   -0.000003  -0.000000   0.000000   0.720001  -0.016844  -0.009620
    17  H    0.000026   0.000018   0.000000  -0.016844   0.706714  -0.000320
    18  H    0.000003   0.000001  -0.000000  -0.009620  -0.000320   0.730145
    19  H    0.002370   0.000008   0.000001  -0.000000   0.000000  -0.000000
    20  H    0.009347  -0.000048  -0.000041   0.000000  -0.000000  -0.000000
    21  H   -0.070193  -0.006495   0.008906  -0.000000   0.000000   0.000000
    22  H    0.004813  -0.021936   0.381306   0.000000  -0.000000  -0.000000
    23  H   -0.007772  -0.032106   0.386364  -0.000000   0.000000  -0.000000
    24  H   -0.011753  -0.028536   0.385532   0.000000  -0.000000   0.000000
              19         20         21         22         23         24
     1  C    0.000000   0.000000  -0.000000   0.000000  -0.000000   0.000000
     2  C   -0.000001  -0.000000   0.000000  -0.000005   0.000003  -0.000000
     3  C    0.000023  -0.000003   0.000019  -0.000023   0.000029  -0.000005
     4  F    0.000000   0.000000   0.000004   0.000000  -0.000001   0.000048
     5  C   -0.001390   0.000084  -0.000511  -0.000022  -0.000048   0.000111
     6  N    0.000014  -0.000000   0.000001   0.000002  -0.000002  -0.000001
     7  C   -0.000001  -0.000000   0.000000  -0.000001   0.000001  -0.000000
     8  C    0.002674   0.000997   0.006537  -0.000206   0.000406   0.000307
     9  N   -0.027766   0.006113  -0.000413   0.000004  -0.000005  -0.000019
    10  C    0.390724  -0.042410   0.010643   0.000004  -0.000054  -0.000055
    11  C   -0.054135   0.373115  -0.034554  -0.000033   0.000152   0.000430
    12  C    0.009320  -0.043631   0.387624  -0.000429   0.007224   0.012035
    13  C    0.002370   0.009347  -0.070193   0.004813  -0.007772  -0.011753
    14  O    0.000008  -0.000048  -0.006495  -0.021936  -0.032106  -0.028536
    15  C    0.000001  -0.000041   0.008906   0.381306   0.386364   0.385532
    16  H   -0.000000   0.000000  -0.000000   0.000000  -0.000000   0.000000
    17  H    0.000000  -0.000000   0.000000  -0.000000   0.000000  -0.000000
    18  H   -0.000000  -0.000000   0.000000  -0.000000  -0.000000   0.000000
    19  H    0.730621  -0.011057  -0.000252   0.000000   0.000000  -0.000000
    20  H   -0.011057   0.729391  -0.018926  -0.000001   0.000023   0.000020
    21  H   -0.000252  -0.018926   0.717980  -0.000486   0.002220   0.002302
    22  H    0.000000  -0.000001  -0.000486   0.637284  -0.027828  -0.029948
    23  H    0.000000   0.000023   0.002220  -0.027828   0.682810  -0.051255
    24  H   -0.000000   0.000020   0.002302  -0.029948  -0.051255   0.679516
          Atomic-Atomic Spin Densities.
               1          2          3          4          5          6
     1  C    0.000000  -0.000000  -0.000000   0.000000  -0.000000   0.000000
     2  C   -0.000000   0.000000   0.000000   0.000000   0.000000  -0.000000
     3  C   -0.000000   0.000000  -0.000000  -0.000000  -0.000000  -0.000000
     4  F    0.000000   0.000000  -0.000000  -0.000000   0.000000  -0.000000
     5  C   -0.000000   0.000000  -0.000000   0.000000  -0.000000   0.000000
     6  N    0.000000  -0.000000  -0.000000  -0.000000   0.000000  -0.000000
     7  C    0.000000   0.000000   0.000000  -0.000000  -0.000000   0.000000
     8  C    0.000000  -0.000000  -0.000000  -0.000000   0.000000   0.000000
     9  N    0.000000   0.000000   0.000000   0.000000  -0.000000  -0.000000
    10  C    0.000000  -0.000000  -0.000000  -0.000000   0.000000  -0.000000
    11  C    0.000000  -0.000000   0.000000   0.000000  -0.000000   0.000000
    12  C   -0.000000   0.000000   0.000000   0.000000   0.000000  -0.000000
    13  C   -0.000000  -0.000000  -0.000000  -0.000000   0.000000   0.000000
    14  O   -0.000000   0.000000   0.000000   0.000000   0.000000   0.000000
    15  C    0.000000  -0.000000  -0.000000  -0.000000   0.000000   0.000000
    16  H    0.000000  -0.000000  -0.000000   0.000000   0.000000   0.000000
    17  H   -0.000000   0.000000   0.000000   0.000000   0.000000  -0.000000
    18  H    0.000000   0.000000  -0.000000  -0.000000   0.000000   0.000000
    19  H   -0.000000  -0.000000  -0.000000  -0.000000   0.000000  -0.000000
    20  H   -0.000000   0.000000   0.000000  -0.000000  -0.000000   0.000000
    21  H   -0.000000   0.000000   0.000000   0.000000   0.000000  -0.000000
    22  H    0.000000  -0.000000  -0.000000  -0.000000   0.000000   0.000000
    23  H   -0.000000  -0.000000  -0.000000   0.000000   0.000000   0.000000
    24  H   -0.000000   0.000000   0.000000  -0.000000  -0.000000  -0.000000
               7          8          9         10         11         12
     1  C    0.000000   0.000000   0.000000   0.000000   0.000000  -0.000000
     2  C    0.000000  -0.000000   0.000000  -0.000000  -0.000000   0.000000
     3  C    0.000000  -0.000000   0.000000  -0.000000   0.000000   0.000000
     4  F   -0.000000  -0.000000   0.000000  -0.000000   0.000000   0.000000
     5  C   -0.000000   0.000000  -0.000000   0.000000  -0.000000   0.000000
     6  N    0.000000   0.000000  -0.000000  -0.000000   0.000000  -0.000000
     7  C   -0.000000  -0.000000   0.000000  -0.000000  -0.000000   0.000000
     8  C   -0.000000   0.000000   0.000000  -0.000000  -0.000000   0.000000
     9  N    0.000000   0.000000   0.000000  -0.000000  -0.000000   0.000000
    10  C   -0.000000  -0.000000  -0.000000   0.000000   0.000000   0.000000
    11  C   -0.000000  -0.000000  -0.000000   0.000000  -0.000000  -0.000000
    12  C    0.000000   0.000000   0.000000   0.000000  -0.000000   0.000000
    13  C    0.000000  -0.000000  -0.000000  -0.000000   0.000000  -0.000000
    14  O   -0.000000   0.000000  -0.000000   0.000000  -0.000000  -0.000000
    15  C   -0.000000   0.000000  -0.000000   0.000000  -0.000000  -0.000000
    16  H   -0.000000   0.000000   0.000000   0.000000  -0.000000   0.000000
    17  H    0.000000  -0.000000  -0.000000  -0.000000   0.000000  -0.000000
    18  H   -0.000000   0.000000  -0.000000  -0.000000   0.000000  -0.000000
    19  H    0.000000  -0.000000  -0.000000   0.000000   0.000000   0.000000
    20  H   -0.000000  -0.000000  -0.000000  -0.000000   0.000000   0.000000
    21  H    0.000000   0.000000   0.000000  -0.000000   0.000000   0.000000
    22  H   -0.000000  -0.000000   0.000000  -0.000000   0.000000  -0.000000
    23  H    0.000000   0.000000  -0.000000   0.000000  -0.000000   0.000000
    24  H    0.000000   0.000000  -0.000000   0.000000   0.000000   0.000000
              13         14         15         16         17         18
     1  C   -0.000000  -0.000000   0.000000   0.000000  -0.000000   0.000000
     2  C   -0.000000   0.000000  -0.000000  -0.000000   0.000000   0.000000
     3  C   -0.000000   0.000000  -0.000000  -0.000000   0.000000  -0.000000
     4  F   -0.000000   0.000000  -0.000000   0.000000   0.000000  -0.000000
     5  C    0.000000   0.000000   0.000000   0.000000   0.000000   0.000000
     6  N    0.000000   0.000000   0.000000   0.000000  -0.000000   0.000000
     7  C    0.000000  -0.000000  -0.000000  -0.000000   0.000000  -0.000000
     8  C   -0.000000   0.000000   0.000000   0.000000  -0.000000   0.000000
     9  N   -0.000000  -0.000000  -0.000000   0.000000  -0.000000  -0.000000
    10  C   -0.000000   0.000000   0.000000   0.000000  -0.000000  -0.000000
    11  C    0.000000  -0.000000  -0.000000  -0.000000   0.000000   0.000000
    12  C   -0.000000  -0.000000  -0.000000   0.000000  -0.000000  -0.000000
    13  C    0.000000   0.000000   0.000000  -0.000000   0.000000   0.000000
    14  O    0.000000  -0.000000   0.000000  -0.000000  -0.000000   0.000000
    15  C    0.000000   0.000000  -0.000000   0.000000  -0.000000   0.000000
    16  H   -0.000000  -0.000000   0.000000   0.000000  -0.000000  -0.000000
    17  H    0.000000  -0.000000  -0.000000  -0.000000   0.000000   0.000000
    18  H    0.000000   0.000000   0.000000  -0.000000   0.000000  -0.000000
    19  H   -0.000000  -0.000000  -0.000000   0.000000  -0.000000   0.000000
    20  H    0.000000   0.000000  -0.000000  -0.000000   0.000000   0.000000
    21  H   -0.000000   0.000000  -0.000000   0.000000  -0.000000   0.000000
    22  H   -0.000000  -0.000000   0.000000   0.000000  -0.000000  -0.000000
    23  H   -0.000000  -0.000000  -0.000000  -0.000000  -0.000000   0.000000
    24  H   -0.000000  -0.000000  -0.000000  -0.000000   0.000000   0.000000
              19         20         21         22         23         24
     1  C   -0.000000  -0.000000  -0.000000   0.000000  -0.000000  -0.000000
     2  C   -0.000000   0.000000   0.000000  -0.000000  -0.000000   0.000000
     3  C   -0.000000   0.000000   0.000000  -0.000000  -0.000000   0.000000
     4  F   -0.000000  -0.000000   0.000000  -0.000000   0.000000  -0.000000
     5  C    0.000000  -0.000000   0.000000   0.000000   0.000000  -0.000000
     6  N   -0.000000   0.000000  -0.000000   0.000000   0.000000  -0.000000
     7  C    0.000000  -0.000000   0.000000  -0.000000   0.000000   0.000000
     8  C   -0.000000  -0.000000   0.000000  -0.000000   0.000000   0.000000
     9  N   -0.000000  -0.000000   0.000000   0.000000  -0.000000  -0.000000
    10  C    0.000000  -0.000000  -0.000000  -0.000000   0.000000   0.000000
    11  C    0.000000   0.000000   0.000000   0.000000  -0.000000   0.000000
    12  C    0.000000   0.000000   0.000000  -0.000000   0.000000   0.000000
    13  C   -0.000000   0.000000  -0.000000  -0.000000  -0.000000  -0.000000
    14  O   -0.000000   0.000000   0.000000  -0.000000  -0.000000  -0.000000
    15  C   -0.000000  -0.000000  -0.000000   0.000000  -0.000000  -0.000000
    16  H    0.000000  -0.000000   0.000000   0.000000  -0.000000  -0.000000
    17  H   -0.000000   0.000000  -0.000000  -0.000000  -0.000000   0.000000
    18  H    0.000000   0.000000   0.000000  -0.000000   0.000000   0.000000
    19  H   -0.000000   0.000000  -0.000000  -0.000000   0.000000  -0.000000
    20  H    0.000000  -0.000000   0.000000   0.000000  -0.000000  -0.000000
    21  H   -0.000000   0.000000  -0.000000  -0.000000   0.000000   0.000000
    22  H   -0.000000   0.000000  -0.000000  -0.000000   0.000000  -0.000000
    23  H    0.000000  -0.000000   0.000000   0.000000   0.000000  -0.000000
    24  H   -0.000000  -0.000000   0.000000  -0.000000  -0.000000   0.000000
 Mulliken charges and spin densities:
               1          2
     1  C   -0.034257  -0.000000
     2  C    0.082527   0.000000
     3  C    0.113481  -0.000000
     4  F   -0.172680  -0.000000
     5  C    0.035316  -0.000000
     6  N   -0.157823   0.000000
     7  C    0.102577  -0.000000
     8  C    0.045051   0.000000
     9  N   -0.191752  -0.000000
    10  C    0.138685   0.000000
    11  C   -0.042383  -0.000000
    12  C    0.050981   0.000000
    13  C    0.123495   0.000000
    14  O   -0.211626  -0.000000
    15  C    0.041733  -0.000000
    16  H   -0.003722   0.000000
    17  H    0.001782   0.000000
    18  H   -0.011464  -0.000000
    19  H   -0.041154  -0.000000
    20  H   -0.002975  -0.000000
    21  H   -0.004407  -0.000000
    22  H    0.057505  -0.000000
    23  H    0.039838   0.000000
    24  H    0.041270   0.000000
 Sum of Mulliken charges =  -0.00000   0.00000
 Mulliken charges and spin densities with hydrogens summed into heavy atoms:
               1          2
     1  C   -0.037979  -0.000000
     2  C    0.084309   0.000000
     3  C    0.113481  -0.000000
     4  F   -0.172680  -0.000000
     5  C    0.035316  -0.000000
     6  N   -0.157823   0.000000
     7  C    0.091113  -0.000000
     8  C    0.045051   0.000000
     9  N   -0.191752  -0.000000
    10  C    0.097531   0.000000
    11  C   -0.045358  -0.000000
    12  C    0.046574   0.000000
    13  C    0.123495   0.000000
    14  O   -0.211626  -0.000000
    15  C    0.180347  -0.000000
 Electronic spatial extent (au):  <R**2>=           2994.1409
 Charge=              0.0000 electrons
 Dipole moment (field-independent basis, Debye):
    X=              1.2733    Y=              2.6092    Z=             -0.3194  Tot=              2.9209
 Quadrupole moment (field-independent basis, Debye-Ang):
   XX=            -63.5711   YY=            -82.1381   ZZ=            -88.1408
   XY=              0.0735   XZ=             -0.8940   YZ=             -2.5474
 Traceless Quadrupole moment (field-independent basis, Debye-Ang):
   XX=             14.3789   YY=             -4.1881   ZZ=            -10.1908
   XY=              0.0735   XZ=             -0.8940   YZ=             -2.5474
 Octapole moment (field-independent basis, Debye-Ang**2):
  XXX=            -14.9874  YYY=             33.4313  ZZZ=              7.3186  XYY=             21.0425
  XXY=              9.5546  XXZ=              3.0762  XZZ=             -3.7072  YZZ=              6.8901
  YYZ=              1.7358  XYZ=             -9.1849
 Hexadecapole moment (field-independent basis, Debye-Ang**3):
 XXXX=          -2266.5145 YYYY=           -953.6979 ZZZZ=           -389.3518 XXXY=            -33.5752
 XXXZ=             -7.2244 YYYX=              0.4468 YYYZ=            -11.5885 ZZZX=            -12.9568
 ZZZY=              7.8677 XXYY=           -548.1350 XXZZ=           -495.0444 YYZZ=           -234.1355
 XXYZ=              9.5877 YYXZ=             -5.4331 ZZXY=              8.3459
 N-N= 9.493296181359D+02 E-N=-3.554245631638D+03  KE= 7.044402132816D+02
                          Isotropic Fermi Contact Couplings
        Atom                 a.u.       MegaHertz       Gauss      10(-4) cm-1
     1  C(13)             -0.00000      -0.00000      -0.00000      -0.00000
     2  C(13)              0.00000       0.00000       0.00000       0.00000
     3  C(13)             -0.00000      -0.00000      -0.00000      -0.00000
     4  F(19)             -0.00000      -0.00000      -0.00000      -0.00000
     5  C(13)             -0.00000      -0.00000      -0.00000      -0.00000
     6  N(14)              0.00000       0.00000       0.00000       0.00000
     7  C(13)              0.00000       0.00000       0.00000       0.00000
     8  C(13)             -0.00000      -0.00000      -0.00000      -0.00000
     9  N(14)              0.00000       0.00000       0.00000       0.00000
    10  C(13)              0.00000       0.00000       0.00000       0.00000
    11  C(13)              0.00000       0.00000       0.00000       0.00000
    12  C(13)              0.00000       0.00000       0.00000       0.00000
    13  C(13)              0.00000       0.00000       0.00000       0.00000
    14  O(17)             -0.00000       0.00000       0.00000       0.00000
    15  C(13)              0.00000       0.00000       0.00000       0.00000
    16  H(1)              -0.00000      -0.00000      -0.00000      -0.00000
    17  H(1)               0.00000       0.00000       0.00000       0.00000
    18  H(1)               0.00000       0.00000       0.00000       0.00000
    19  H(1)              -0.00000      -0.00000      -0.00000      -0.00000
    20  H(1)              -0.00000      -0.00000      -0.00000      -0.00000
    21  H(1)              -0.00000      -0.00000      -0.00000      -0.00000
    22  H(1)              -0.00000      -0.00000      -0.00000      -0.00000
    23  H(1)               0.00000       0.00000       0.00000       0.00000
    24  H(1)               0.00000       0.00000       0.00000       0.00000
 --------------------------------------------------------
       Center         ----  Spin Dipole Couplings  ----
                      3XX-RR        3YY-RR        3ZZ-RR
 --------------------------------------------------------
     1   Atom        0.000000     -0.000000     -0.000000
     2   Atom        0.000000     -0.000000      0.000000
     3   Atom        0.000000      0.000000     -0.000000
     4   Atom        0.000000     -0.000000      0.000000
     5   Atom       -0.000000      0.000000      0.000000
     6   Atom        0.000000     -0.000000     -0.000000
     7   Atom        0.000000     -0.000000      0.000000
     8   Atom       -0.000000     -0.000000      0.000000
     9   Atom       -0.000000      0.000000     -0.000000
    10   Atom       -0.000000      0.000000      0.000000
    11   Atom        0.000000      0.000000     -0.000000
    12   Atom        0.000000     -0.000000     -0.000000
    13   Atom        0.000000      0.000000     -0.000000
    14   Atom       -0.000000      0.000000     -0.000000
    15   Atom       -0.000000      0.000000     -0.000000
    16   Atom        0.000000     -0.000000     -0.000000
    17   Atom       -0.000000     -0.000000      0.000000
    18   Atom        0.000000     -0.000000      0.000000
    19   Atom       -0.000000     -0.000000      0.000000
    20   Atom        0.000000     -0.000000     -0.000000
    21   Atom       -0.000000      0.000000      0.000000
    22   Atom       -0.000000      0.000000     -0.000000
    23   Atom        0.000000      0.000000     -0.000000
    24   Atom        0.000000      0.000000     -0.000000
 --------------------------------------------------------
                        XY            XZ            YZ
 --------------------------------------------------------
     1   Atom       -0.000000      0.000000      0.000000
     2   Atom       -0.000000      0.000000      0.000000
     3   Atom        0.000000      0.000000     -0.000000
     4   Atom       -0.000000     -0.000000     -0.000000
     5   Atom        0.000000      0.000000     -0.000000
     6   Atom        0.000000      0.000000      0.000000
     7   Atom        0.000000     -0.000000     -0.000000
     8   Atom        0.000000     -0.000000      0.000000
     9   Atom        0.000000     -0.000000     -0.000000
    10   Atom       -0.000000     -0.000000     -0.000000
    11   Atom        0.000000      0.000000     -0.000000
    12   Atom        0.000000     -0.000000     -0.000000
    13   Atom       -0.000000      0.000000     -0.000000
    14   Atom        0.000000     -0.000000     -0.000000
    15   Atom       -0.000000      0.000000     -0.000000
    16   Atom       -0.000000     -0.000000     -0.000000
    17   Atom        0.000000     -0.000000      0.000000
    18   Atom       -0.000000     -0.000000     -0.000000
    19   Atom        0.000000     -0.000000      0.000000
    20   Atom       -0.000000      0.000000      0.000000
    21   Atom       -0.000000      0.000000      0.000000
    22   Atom        0.000000      0.000000     -0.000000
    23   Atom        0.000000     -0.000000     -0.000000
    24   Atom        0.000000      0.000000     -0.000000
 --------------------------------------------------------


 ---------------------------------------------------------------------------------
              Anisotropic Spin Dipole Couplings in Principal Axis System
 ---------------------------------------------------------------------------------

       Atom             a.u.   MegaHertz   Gauss  10(-4) cm-1        Axes

              Baa    -0.0000    -0.000    -0.000    -0.000 -0.1517 -0.6502  0.7445
     1 C(13)  Bbb    -0.0000    -0.000    -0.000    -0.000 -0.0930  0.7593  0.6441
              Bcc     0.0000     0.000     0.000     0.000  0.9840 -0.0284  0.1757
 
              Baa    -0.0000    -0.000    -0.000    -0.000  0.1349  0.8229 -0.5519
[...]
     9  N    0.000000   0.000000   0.000000   0.000000  -0.000000   0.000000
    10  C   -0.000000  -0.000000   0.000000  -0.000000   0.000000  -0.000000
    11  C    0.000000   0.000000  -0.000000  -0.000000  -0.000000  -0.000000
    12  C   -0.000000  -0.000000  -0.000000   0.000000   0.000000   0.000000
    13  C    0.000000   0.000000  -0.000000  -0.000000   0.000000  -0.000000
    14  O    0.000000   0.000000  -0.000000   0.000000  -0.000000   0.000000
    15  C   -0.000000  -0.000000   0.000000  -0.000000   0.000000  -0.000000
    16  H   -0.000000   0.000000  -0.000000   0.000000   0.000000   0.000000
    17  H    0.000000  -0.000000   0.000000   0.000000  -0.000000  -0.000000
    18  H   -0.000000   0.000000  -0.000000   0.000000  -0.000000   0.000000
    19  H    0.000000   0.000000   0.000000  -0.000000   0.000000   0.000000
    20  H    0.000000   0.000000  -0.000000   0.000000  -0.000000  -0.000000
    21  H    0.000000  -0.000000  -0.000000  -0.000000   0.000000   0.000000
    22  H    0.000000  -0.000000   0.000000  -0.000000   0.000000  -0.000000
    23  H   -0.000000   0.000000  -0.000000   0.000000  -0.000000  -0.000000
    24  H   -0.000000   0.000000   0.000000   0.000000  -0.000000   0.000000
              19         20         21         22         23         24
     1  C   -0.000000   0.000000  -0.000000  -0.000000   0.000000   0.000000
     2  C    0.000000  -0.000000  -0.000000   0.000000  -0.000000  -0.000000
     3  C   -0.000000   0.000000  -0.000000  -0.000000  -0.000000  -0.000000
     4  F   -0.000000  -0.000000  -0.000000   0.000000   0.000000   0.000000
     5  C    0.000000  -0.000000   0.000000  -0.000000  -0.000000   0.000000
     6  N    0.000000  -0.000000  -0.000000  -0.000000   0.000000   0.000000
     7  C    0.000000  -0.000000   0.000000   0.000000  -0.000000   0.000000
     8  C   -0.000000   0.000000  -0.000000  -0.000000  -0.000000   0.000000
     9  N    0.000000  -0.000000  -0.000000   0.000000  -0.000000   0.000000
    10  C   -0.000000  -0.000000   0.000000  -0.000000   0.000000   0.000000
    11  C    0.000000  -0.000000   0.000000   0.000000  -0.000000  -0.000000
    12  C   -0.000000  -0.000000  -0.000000  -0.000000   0.000000   0.000000
    13  C    0.000000   0.000000   0.000000   0.000000  -0.000000  -0.000000
    14  O    0.000000   0.000000  -0.000000  -0.000000   0.000000   0.000000
    15  C    0.000000  -0.000000  -0.000000   0.000000  -0.000000   0.000000
    16  H   -0.000000   0.000000  -0.000000  -0.000000   0.000000   0.000000
    17  H    0.000000  -0.000000   0.000000   0.000000  -0.000000  -0.000000
    18  H    0.000000  -0.000000   0.000000  -0.000000  -0.000000   0.000000
    19  H   -0.000000   0.000000  -0.000000  -0.000000   0.000000   0.000000
    20  H    0.000000   0.000000  -0.000000   0.000000  -0.000000  -0.000000
    21  H   -0.000000  -0.000000  -0.000000  -0.000000   0.000000   0.000000
    22  H   -0.000000   0.000000  -0.000000  -0.000000   0.000000  -0.000000
    23  H    0.000000  -0.000000   0.000000   0.000000  -0.000000  -0.000000
    24  H    0.000000  -0.000000   0.000000  -0.000000  -0.000000  -0.000000
 Mulliken charges and spin densities:
               1          2
     1  C   -0.016468  -0.000000
     2  C    0.057411   0.000000
     3  C    0.128111   0.000000
     4  F   -0.123338   0.000000
     5  C    0.030896   0.000000
     6  N   -0.166896   0.000000
     7  C    0.080668  -0.000000
     8  C    0.039028  -0.000000
     9  N   -0.166609  -0.000000
    10  C    0.079229   0.000000
    11  C   -0.019289  -0.000000
    12  C    0.015766   0.000000
    13  C    0.121638   0.000000
    14  O   -0.230683   0.000000
    15  C    0.060063   0.000000
    16  H   -0.008770   0.000000
    17  H    0.000471  -0.000000
    18  H    0.001725   0.000000
    19  H   -0.003460  -0.000000
    20  H   -0.014234   0.000000
    21  H   -0.010878  -0.000000
    22  H    0.053157  -0.000000
    23  H    0.045985  -0.000000
    24  H    0.046478  -0.000000
 Sum of Mulliken charges =  -0.00000   0.00000
 Mulliken charges and spin densities with hydrogens summed into heavy atoms:
               1          2
     1  C   -0.025238  -0.000000
     2  C    0.057882   0.000000
     3  C    0.128111   0.000000
     4  F   -0.123338   0.000000
     5  C    0.030896   0.000000
     6  N   -0.166896   0.000000
     7  C    0.082393  -0.000000
     8  C    0.039028  -0.000000
     9  N   -0.166609  -0.000000
    10  C    0.075769   0.000000
    11  C   -0.033523  -0.000000
    12  C    0.004888   0.000000
    13  C    0.121638   0.000000
    14  O   -0.230683   0.000000
    15  C    0.205683   0.000000
 Electronic spatial extent (au):  <R**2>=           2990.4308
 Charge=             -0.0000 electrons
 Dipole moment (field-independent basis, Debye):
    X=              0.9114    Y=              3.2212    Z=             -0.2380  Tot=              3.3561
 Quadrupole moment (field-independent basis, Debye-Ang):
   XX=            -64.3452   YY=            -81.9420   ZZ=            -87.1223
   XY=              1.3076   XZ=             -0.9141   YZ=             -2.1153
 Traceless Quadrupole moment (field-independent basis, Debye-Ang):
   XX=             13.4580   YY=             -4.1388   ZZ=             -9.3191
   XY=              1.3076   XZ=             -0.9141   YZ=             -2.1153
 Octapole moment (field-independent basis, Debye-Ang**2):
  XXX=            -14.2653  YYY=             41.2807  ZZZ=              6.7629  XYY=             17.6977
  XXY=              8.6017  XXZ=             -0.5706  XZZ=             -3.7717  YZZ=              8.5729
  YYZ=             -0.6199  XYZ=            -11.7835
 Hexadecapole moment (field-independent basis, Debye-Ang**3):
 XXXX=          -2298.4053 YYYY=          -1001.7548 ZZZZ=           -321.1034 XXXY=            -10.8357
 XXXZ=              6.6610 YYYX=              7.3315 YYYZ=            -12.6571 ZZZX=            -14.2103
 ZZZY=             10.5235 XXYY=           -554.5441 XXZZ=           -494.0483 YYZZ=           -227.6497
 XXYZ=             14.5968 YYXZ=             -4.2673 ZZXY=              9.8575
 N-N= 9.512369953379D+02 E-N=-3.557858543602D+03  KE= 7.040024461184D+02
                          Isotropic Fermi Contact Couplings
        Atom                 a.u.       MegaHertz       Gauss      10(-4) cm-1
     1  C(13)             -0.00000      -0.00000      -0.00000      -0.00000
     2  C(13)              0.00000       0.00000       0.00000       0.00000
     3  C(13)             -0.00000      -0.00000      -0.00000      -0.00000
     4  F(19)              0.00000       0.00000       0.00000       0.00000
     5  C(13)              0.00000       0.00000       0.00000       0.00000
     6  N(14)             -0.00000      -0.00000      -0.00000      -0.00000
     7  C(13)             -0.00000      -0.00000      -0.00000      -0.00000
     8  C(13)             -0.00000      -0.00000      -0.00000      -0.00000
     9  N(14)              0.00000       0.00000       0.00000       0.00000
    10  C(13)              0.00000       0.00000       0.00000       0.00000
    11  C(13)             -0.00000      -0.00000      -0.00000      -0.00000
    12  C(13)              0.00000       0.00000       0.00000       0.00000
    13  C(13)              0.00000       0.00000       0.00000       0.00000
    14  O(17)              0.00000      -0.00000      -0.00000      -0.00000
    15  C(13)              0.00000       0.00000       0.00000       0.00000
    16  H(1)               0.00000       0.00000       0.00000       0.00000
    17  H(1)              -0.00000      -0.00000      -0.00000      -0.00000
    18  H(1)               0.00000       0.00000       0.00000       0.00000
    19  H(1)              -0.00000      -0.00000      -0.00000      -0.00000
    20  H(1)               0.00000       0.00000       0.00000       0.00000
    21  H(1)              -0.00000      -0.00000      -0.00000      -0.00000
    22  H(1)              -0.00000      -0.00000      -0.00000      -0.00000
    23  H(1)              -0.00000      -0.00000      -0.00000      -0.00000
    24  H(1)              -0.00000      -0.00000      -0.00000      -0.00000
 --------------------------------------------------------
       Center         ----  Spin Dipole Couplings  ----
                      3XX-RR        3YY-RR        3ZZ-RR
 --------------------------------------------------------
     1   Atom       -0.000000      0.000000      0.000000
     2   Atom       -0.000000     -0.000000      0.000000
     3   Atom        0.000000     -0.000000     -0.000000
     4   Atom       -0.000000      0.000000     -0.000000
     5   Atom        0.000000     -0.000000      0.000000
     6   Atom        0.000000     -0.000000     -0.000000
     7   Atom        0.000000     -0.000000      0.000000
     8   Atom       -0.000000     -0.000000      0.000000
     9   Atom        0.000000     -0.000000      0.000000
    10   Atom        0.000000     -0.000000      0.000000
    11   Atom       -0.000000     -0.000000      0.000000
    12   Atom        0.000000     -0.000000      0.000000
    13   Atom        0.000000      0.000000     -0.000000
    14   Atom       -0.000000      0.000000      0.000000
    15   Atom       -0.000000      0.000000      0.000000
    16   Atom        0.000000     -0.000000      0.000000
    17   Atom       -0.000000      0.000000      0.000000
    18   Atom        0.000000      0.000000     -0.000000
    19   Atom        0.000000     -0.000000      0.000000
    20   Atom       -0.000000     -0.000000      0.000000
    21   Atom        0.000000     -0.000000      0.000000
    22   Atom        0.000000     -0.000000     -0.000000
    23   Atom       -0.000000     -0.000000      0.000000
    24   Atom       -0.000000     -0.000000      0.000000
 --------------------------------------------------------
                        XY            XZ            YZ
 --------------------------------------------------------
     1   Atom        0.000000      0.000000      0.000000
     2   Atom        0.000000      0.000000     -0.000000
     3   Atom        0.000000      0.000000     -0.000000
     4   Atom       -0.000000     -0.000000      0.000000
     5   Atom        0.000000      0.000000     -0.000000
     6   Atom       -0.000000      0.000000     -0.000000
     7   Atom       -0.000000     -0.000000     -0.000000
     8   Atom       -0.000000      0.000000     -0.000000
     9   Atom       -0.000000      0.000000      0.000000
    10   Atom       -0.000000      0.000000      0.000000
    11   Atom       -0.000000      0.000000      0.000000
    12   Atom       -0.000000      0.000000      0.000000
    13   Atom       -0.000000     -0.000000     -0.000000
    14   Atom       -0.000000     -0.000000      0.000000
    15   Atom       -0.000000      0.000000      0.000000
    16   Atom        0.000000      0.000000      0.000000
    17   Atom        0.000000      0.000000     -0.000000
    18   Atom        0.000000      0.000000     -0.000000
    19   Atom        0.000000     -0.000000      0.000000
    20   Atom        0.000000     -0.000000     -0.000000
    21   Atom       -0.000000     -0.000000     -0.000000
    22   Atom       -0.000000      0.000000     -0.000000
    23   Atom       -0.000000     -0.000000      0.000000
    24   Atom       -0.000000      0.000000      0.000000
 --------------------------------------------------------


 ---------------------------------------------------------------------------------
              Anisotropic Spin Dipole Couplings in Principal Axis System
 ---------------------------------------------------------------------------------

       Atom             a.u.   MegaHertz   Gauss  10(-4) cm-1        Axes

              Baa    -0.0000    -0.000    -0.000    -0.000  0.9635 -0.2593 -0.0673
     1 C(13)  Bbb     0.0000     0.000     0.000     0.000 -0.0505 -0.4227  0.9049
              Bcc     0.0000     0.000     0.000     0.000  0.2631  0.8684  0.4203
 
              Baa    -0.0000    -0.000    -0.000    -0.000 -0.5910  0.7212  0.3612
     2 C(13)  Bbb     0.0000     0.000     0.000     0.000  0.8064  0.5162  0.2887
              Bcc     0.0000     0.000     0.000     0.000 -0.0217 -0.4619  0.8867
 
              Baa    -0.0000    -0.000    -0.000    -0.000 -0.3652  0.6936  0.6209
     3 C(13)  Bbb     0.0000     0.000     0.000     0.000 -0.1179 -0.6960  0.7083
              Bcc     0.0000     0.000     0.000     0.000  0.9235  0.1854  0.3359
 
              Baa    -0.0000    -0.000    -0.000    -0.000  0.7862  0.5183  0.3366
     4 F(19)  Bbb    -0.0000    -0.000    -0.000    -0.000  0.0329 -0.5790  0.8147
              Bcc     0.0000     0.000     0.000     0.000 -0.6171  0.6294  0.4723
 
              Baa    -0.0000    -0.000    -0.000    -0.000 -0.3452  0.7297  0.5902
     5 C(13)  Bbb     0.0000     0.000     0.000     0.000  0.8626  0.4944 -0.1068
              Bcc     0.0000     0.000     0.000     0.000  0.3697 -0.4723  0.8002
 
              Baa    -0.0000    -0.000    -0.000    -0.000  0.1820  0.9828  0.0323
     6 N(14)  Bbb    -0.0000    -0.000    -0.000    -0.000 -0.0433 -0.0248  0.9988
              Bcc     0.0000     0.000     0.000     0.000  0.9823 -0.1832  0.0380
 
              Baa    -0.0000    -0.000    -0.000    -0.000  0.2807  0.7637  0.5813
     7 C(13)  Bbb     0.0000     0.000     0.000     0.000  0.8299  0.1112 -0.5468
              Bcc     0.0000     0.000     0.000     0.000 -0.4822  0.6359 -0.6025
 
              Baa    -0.0000    -0.000    -0.000    -0.000  0.6961  0.7168  0.0418
     8 C(13)  Bbb    -0.0000    -0.000    -0.000    -0.000  0.7179 -0.6938 -0.0582
              Bcc     0.0000     0.000     0.000     0.000  0.0127 -0.0705  0.9974
 
              Baa    -0.0000    -0.000    -0.000    -0.000  0.5996  0.7832 -0.1645
     9 N(14)  Bbb     0.0000     0.000     0.000     0.000  0.0258  0.1866  0.9821
              Bcc     0.0000     0.000     0.000     0.000  0.7999 -0.5931  0.0917
 
              Baa    -0.0000    -0.000    -0.000    -0.000  0.5891  0.7936 -0.1522
    10 C(13)  Bbb     0.0000     0.000     0.000     0.000 -0.2910  0.3840  0.8763
              Bcc     0.0000     0.000     0.000     0.000  0.7539 -0.4719  0.4572
 
              Baa    -0.0000    -0.000    -0.000    -0.000  0.3519  0.9019 -0.2505
    11 C(13)  Bbb    -0.0000    -0.000    -0.000    -0.000  0.9331 -0.3592  0.0175
              Bcc     0.0000     0.000     0.000     0.000  0.0742  0.2399  0.9680
 
              Baa    -0.0000    -0.000    -0.000    -0.000  0.2515  0.9073 -0.3369
    12 C(13)  Bbb     0.0000     0.000     0.000     0.000  0.6550 -0.4159 -0.6309
              Bcc     0.0000     0.000     0.000     0.000  0.7126  0.0620  0.6988
 
              Baa    -0.0000    -0.000    -0.000    -0.000  0.0408  0.1569  0.9868
    13 C(13)  Bbb     0.0000     0.000     0.000     0.000  0.9891  0.1335 -0.0621
              Bcc     0.0000     0.000     0.000     0.000 -0.1415  0.9786 -0.1497
 
              Baa    -0.0000     0.000     0.000     0.000  0.9715  0.0615  0.2291
    14 O(17)  Bbb     0.0000    -0.000    -0.000    -0.000 -0.1949 -0.3439  0.9186
              Bcc     0.0000    -0.000    -0.000    -0.000 -0.1353  0.9370  0.3221
 
              Baa    -0.0000    -0.000    -0.000    -0.000  0.7638  0.5427 -0.3493
    15 C(13)  Bbb     0.0000     0.000     0.000     0.000  0.3466  0.1117  0.9313
              Bcc     0.0000     0.000     0.000     0.000 -0.5444  0.8325  0.1028
 
              Baa    -0.0000    -0.000    -0.000    -0.000 -0.6703  0.7141  0.2016
    16 H(1)   Bbb    -0.0000    -0.000    -0.000    -0.000 -0.2862 -0.4995  0.8177
              Bcc     0.0000     0.000     0.000     0.000  0.6847  0.4904  0.5392
 
              Baa    -0.0000    -0.000    -0.000    -0.000  0.6133 -0.5829 -0.5330
    17 H(1)   Bbb     0.0000     0.000     0.000     0.000  0.7892  0.4247  0.4435
              Bcc     0.0000     0.000     0.000     0.000 -0.0322 -0.6927  0.7205
 
              Baa    -0.0000    -0.000    -0.000    -0.000 -0.1192  0.5168  0.8478
    18 H(1)   Bbb     0.0000     0.000     0.000     0.000 -0.5694  0.6639 -0.4847
              Bcc     0.0000     0.000     0.000     0.000  0.8134  0.5405 -0.2151
 
              Baa    -0.0000    -0.000    -0.000    -0.000 -0.2569  0.9324 -0.2541
    19 H(1)   Bbb     0.0000     0.000     0.000     0.000  0.9162  0.1513 -0.3711
              Bcc     0.0000     0.000     0.000     0.000  0.3075  0.3282  0.8932
 
              Baa    -0.0000    -0.000    -0.000    -0.000  0.7843 -0.5362  0.3120
    20 H(1)   Bbb     0.0000     0.000     0.000     0.000  0.3153  0.7776  0.5439
              Bcc     0.0000     0.000     0.000     0.000 -0.5343 -0.3283  0.7790
 
              Baa    -0.0000    -0.000    -0.000    -0.000  0.5527  0.8200  0.1488
    21 H(1)   Bbb     0.0000     0.000     0.000     0.000  0.0786 -0.2291  0.9702
              Bcc     0.0000     0.000     0.000     0.000  0.8297 -0.5245 -0.1911
 
              Baa    -0.0000    -0.000    -0.000    -0.000  0.6922  0.5380 -0.4810
    22 H(1)   Bbb    -0.0000    -0.000    -0.000    -0.000  0.0471  0.6315  0.7740
              Bcc     0.0000     0.000     0.000     0.000  0.7202 -0.5584  0.4118
 
              Baa    -0.0000    -0.000    -0.000    -0.000  0.3549  0.8762 -0.3261
    23 H(1)   Bbb    -0.0000    -0.000    -0.000    -0.000  0.8912 -0.2116  0.4013
              Bcc     0.0000     0.000     0.000     0.000 -0.2826  0.4331  0.8559
 
              Baa    -0.0000    -0.000    -0.000    -0.000  0.4334  0.8868 -0.1601
    24 H(1)   Bbb    -0.0000    -0.000    -0.000    -0.000  0.8065 -0.4610 -0.3703
              Bcc     0.0000     0.000     0.000     0.000  0.4022 -0.0314  0.9150
 

 ---------------------------------------------------------------------------------

 No NMR shielding tensors so no spin-rotation constants.
 Leave Link  601 at Thu Jul 23 17:24:13 2020, MaxMem=  4026531840 cpu:               8.6 elap:               1.8
 (Enter /opt/ohpc/pub/libs/gaussian/g16-A.03/sandybridge/g16/l9999.exe)

 Test job not archived.
 1\1\GINC-SKYLAKE052\FOpt\ULC-wPBE\CC-pVDZ\C11H9F1N2O1\RDU230\23-Jul-20
 20\0\\#P uLC-wPBE/cc-pVDZ iop(3/107=0152400000, 3/108=0152400000) opt\
 \H9 C11 N2 O1 F1\\0,1\C,-3.6627599407,-0.0948816129,-0.3157484041\C,-2
 .9597223821,0.6983480832,0.5965837151\C,-1.5816144751,0.5137636346,0.6
 808764233\F,-0.8725800534,1.2412116672,1.575622587\C,-0.928400846,-0.4
 326127571,-0.1276438095\N,-1.6169850584,-1.1990289454,-0.9944098608\C,
 -2.9451428179,-1.0256201014,-1.0791574481\C,0.547487807,-0.6722737949,
 -0.0244375042\N,0.9281768691,-1.9333845626,0.2222436514\C,2.2439405522
 ,-2.1941532868,0.3112940337\C,3.2306868363,-1.2164616913,0.158645535\C
 ,2.8439495278,0.1016089329,-0.114620229\C,1.4739218059,0.3862099248,-0
 .2175772341\O,0.9482017794,1.6073977339,-0.5164902505\C,1.8541631473,2
 .694479616,-0.6674290592\H,-4.7510521488,0.0042810227,-0.4276776373\H,
 -3.4507198372,1.4389250909,1.2415325461\H,-3.4671259582,-1.6713304373,
 -1.8034783303\H,2.51597734,-3.2410078829,0.5193341131\H,4.2945966714,-
 1.4767282562,0.2462956388\H,3.6002302174,0.8840983227,-0.2521438265\H,
 1.2302168143,3.579449887,-0.8814861087\H,2.5564428079,2.5301217401,-1.
 5130194489\H,2.4371573416,2.873604673,0.2614699076\\Version=EM64L-G16R
 evA.03\State=1-A\HF=-708.5192409\S2=0.\S2-1=0.\S2A=0.\RMSD=6.650e-09\R
 MSF=1.526e-05\Dipole=0.3753262,1.2656317,-0.0280296\Quadrupole=10.0374
 072,-2.9543766,-7.0830306,0.8445309,-0.536892,-1.3597091\PG=C01 [X(C11
 H9F1N2O1)]\\@


 FORGIVE MY NONSENSE AS I ALSO FORGIVE THOSE WHO THINK THEY TALK SENSE

                                                       -- ROBERT FROST
 Job cpu time:       0 days  2 hours 51 minutes 43.6 seconds.
 Elapsed time:       0 days  0 hours 22 minutes 46.8 seconds.
 File lengths (MBytes):  RWF=    132 Int=      0 D2E=      0 Chk=     12 Scr=      8
 Normal termination of Gaussian 16 at Thu Jul 23 17:24:14 2020.
