 Entering Gaussian System, Link 0=g16
 Input=mols_66_5_02_n-n-c-c_opt_0.gjf
 Output=mols_66_5_02_n-n-c-c_opt_0.log
 Initial command:
 /opt/ohpc/pub/libs/gaussian/g16-A.03/sandybridge/g16/l1.exe "/mnt/gpfs2_4m/scratch/rdu230/ondemand/projects/dihedral_energies/7trial/wtuning/mols_66_5_02_n-n-c-c/Gau-92282.inp" -scrdir="/mnt/gpfs2_4m/scratch/rdu230/ondemand/projects/dihedral_energies/7trial/wtuning/mols_66_5_02_n-n-c-c/"
 Entering Link 1 = /opt/ohpc/pub/libs/gaussian/g16-A.03/sandybridge/g16/l1.exe PID=     92283.
  
 Copyright (c) 1988,1990,1992,1993,1995,1998,2003,2009,2016,
            Gaussian, Inc.  All Rights Reserved.
  
 This is part of the Gaussian(R) 16 program.  It is based on
 the Gaussian(R) 09 system (copyright 2009, Gaussian, Inc.),
 the Gaussian(R) 03 system (copyright 2003, Gaussian, Inc.),
 the Gaussian(R) 98 system (copyright 1998, Gaussian, Inc.),
 the Gaussian(R) 94 system (copyright 1995, Gaussian, Inc.),
 the Gaussian 92(TM) system (copyright 1992, Gaussian, Inc.),
 the Gaussian 90(TM) system (copyright 1990, Gaussian, Inc.),
 the Gaussian 88(TM) system (copyright 1988, Gaussian, Inc.),
 the Gaussian 86(TM) system (copyright 1986, Carnegie Mellon
 University), and the Gaussian 82(TM) system (copyright 1983,
 Carnegie Mellon University). Gaussian is a federally registered
 trademark of Gaussian, Inc.
  
 This software contains proprietary and confidential information,
 including trade secrets, belonging to Gaussian, Inc.
  
 This software is provided under written license and may be
 used, copied, transmitted, or stored only in accord with that
 written license.
  
 The following legend is applicable only to US Government
 contracts under FAR:
  
                    RESTRICTED RIGHTS LEGEND
  
 Use, reproduction and disclosure by the US Government is
 subject to restrictions as set forth in subparagraphs (a)
 and (c) of the Commercial Computer Software - Restricted
 Rights clause in FAR 52.227-19.
  
 Gaussian, Inc.
 340 Quinnipiac St., Bldg. 40, Wallingford CT 06492
  
  
 ---------------------------------------------------------------
 Warning -- This program may not be used in any manner that
 competes with the business of Gaussian, Inc. or will provide
 assistance to any competitor of Gaussian, Inc.  The licensee
 of this program is prohibited from giving any competitor of
 Gaussian, Inc. access to this program.  By using this program,
 the user acknowledges that Gaussian, Inc. is engaged in the
 business of creating and licensing software in the field of
 computational chemistry and represents and warrants to the
 licensee that it is not a competitor of Gaussian, Inc. and that
 it will not use this program in any manner prohibited above.
 ---------------------------------------------------------------
  

 Cite this work as:
 Gaussian 16, Revision A.03,
 M. J. Frisch, G. W. Trucks, H. B. Schlegel, G. E. Scuseria, 
 M. A. Robb, J. R. Cheeseman, G. Scalmani, V. Barone, 
 G. A. Petersson, H. Nakatsuji, X. Li, M. Caricato, A. V. Marenich, 
 J. Bloino, B. G. Janesko, R. Gomperts, B. Mennucci, H. P. Hratchian, 
 J. V. Ortiz, A. F. Izmaylov, J. L. Sonnenberg, D. Williams-Young, 
 F. Ding, F. Lipparini, F. Egidi, J. Goings, B. Peng, A. Petrone, 
 T. Henderson, D. Ranasinghe, V. G. Zakrzewski, J. Gao, N. Rega, 
 G. Zheng, W. Liang, M. Hada, M. Ehara, K. Toyota, R. Fukuda, 
 J. Hasegawa, M. Ishida, T. Nakajima, Y. Honda, O. Kitao, H. Nakai, 
 T. Vreven, K. Throssell, J. A. Montgomery, Jr., J. E. Peralta, 
 F. Ogliaro, M. J. Bearpark, J. J. Heyd, E. N. Brothers, K. N. Kudin, 
 V. N. Staroverov, T. A. Keith, R. Kobayashi, J. Normand, 
 K. Raghavachari, A. P. Rendell, J. C. Burant, S. S. Iyengar, 
 J. Tomasi, M. Cossi, J. M. Millam, M. Klene, C. Adamo, R. Cammi, 
 J. W. Ochterski, R. L. Martin, K. Morokuma, O. Farkas, 
 J. B. Foresman, and D. J. Fox, Gaussian, Inc., Wallingford CT, 2016.
 
 ******************************************
 Gaussian 16:  EM64L-G16RevA.03 25-Dec-2016
                25-Jul-2020 
 ******************************************
 %mem=30GB
 %nproc=8
 Will use up to    8 processors via shared memory.
 ---------------------------------------------------------------
 #P uLC-wPBE/cc-pVDZ iop(3/107=0078300000, 3/108=0078300000) opt
 ---------------------------------------------------------------
 1/18=20,19=15,26=3,38=1/1,3;
 2/9=110,12=2,17=6,18=5,40=1/2;
 3/5=16,11=2,25=1,30=1,71=1,74=-41,107=78300000,108=78300000,116=2/1,2,3;
 4//1;
 5/5=2,38=5/2;
 6/7=2,8=2,9=2,10=2,28=1/1;
 7//1,2,3,16;
 1/18=20,19=15,26=3/3(2);
 2/9=110/2;
 99//99;
 2/9=110/2;
 3/5=16,11=2,25=1,30=1,71=1,74=-41,107=78300000,108=78300000,116=2/1,2,3;
 4/5=5,16=3,69=1/1;
 5/5=2,38=5/2;
 7//1,2,3,16;
 1/18=20,19=15,26=3/3(-5);
 2/9=110/2;
 6/7=2,8=2,9=2,10=2,19=2,28=1/1;
 99/9=1/99;
 Leave Link    1 at Sat Jul 25 08:58:26 2020, MaxMem=  4026531840 cpu:               1.5 elap:               0.2
 (Enter /opt/ohpc/pub/libs/gaussian/g16-A.03/sandybridge/g16/l101.exe)
 -----------
 H32 C50 N10
 -----------
 Symbolic Z-matrix:
 Charge =  0 Multiplicity = 1
 C                    -20.38059   1.0056   -0.71724 
 C                    -19.57471   2.15537  -0.70468 
 C                    -18.19448   2.01632  -0.45118 
 C                    -17.57948   0.78899  -0.31199 
 N                    -18.3904  -0.4056   -0.36316 
 C                    -19.73088  -0.19084  -0.52277 
 C                    -16.15054   0.55237  -0.08413 
 N                    -15.3456   1.63897  -0.10306 
 C                    -14.02072   1.44476   0.08887 
 C                    -13.38274   0.21866   0.25807 
 C                    -14.24664  -0.83024   0.16909 
 C                    -15.64486  -0.70853  -0.04227 
 C                    -11.90809   0.13349   0.37011 
 C                    -11.38503  -0.6751    1.33297 
 C                    -9.95096  -0.83628   1.46494 
 C                    -9.13942  -0.15656   0.53194 
 N                    -9.72016   0.65033  -0.48191 
 C                    -11.07823   0.70882  -0.53389 
 C                    -7.7818   -0.34422   0.50184 
 N                    -6.99037   0.74154   0.85851 
 C                    -5.61127   0.62564   0.70124 
 C                    -5.00005  -0.63215   0.34918 
 C                    -5.75609  -1.68788   0.03154 
 C                    -7.15088  -1.60741   0.1869 
 C                    -3.55078  -0.67876   0.19353 
 C                    -2.87381  -1.21101  -0.92961 
 C                    -1.54066  -1.324    -0.99626 
 C                    -0.69231  -0.74765   0.03471 
 N                    -1.28975  -0.13786   1.15524 
 C                    -2.69508  -0.13335   1.16117 
 C                     0.74703  -0.65691  -0.12051 
 N                     1.43057  -1.80685   0.08178 
 C                     2.78229  -1.75879   0.00087 
 C                     3.47112  -0.59258  -0.29107 
 C                     2.75319   0.52548  -0.53603 
 C                     1.34931   0.51362  -0.44347 
 C                     4.96299  -0.61838  -0.24417 
 C                     5.66175  -0.20773  -1.40671 
 C                     7.0467   -0.25296  -1.46303 
 C                     7.72443  -0.50646  -0.24261 
 N                     7.01131  -0.9148    0.88253 
 C                     5.69229  -0.91631   0.79653 
 C                     9.23477  -0.42605  -0.12235 
 N                     9.91568  -0.15643  -1.29984 
 C                     11.2403  -0.01936  -1.25741 
 C                     11.95326  -0.11912  -0.02811 
 C                     11.25075  -0.39846   1.13762 
 C                     9.84015  -0.58276   1.04513 
 C                     13.44325   0.01738  -0.0296 
 C                     14.29735  -0.85445  -0.68474 
 C                     15.65003  -0.53963  -0.6382 
 C                     16.20379   0.55054   0.04673 
 N                     15.28961   1.38337   0.65501 
 C                     14.02043   1.11022   0.57745 
 C                     17.6247   0.81756   0.03855 
 N                     18.46331  -0.08088  -0.39728 
 C                     19.82839   0.19475  -0.35703 
 C                     20.31223   1.39943   0.13345 
 C                     19.42836   2.32776   0.58763 
 C                     18.08092   2.10661   0.61274 
 H                    -21.44684   1.13988  -0.85512 
 H                    -20.01795   3.18621  -0.79446 
 H                    -17.55118   2.95804  -0.42479 
 H                    -20.32648  -1.12884  -0.55911 
 H                    -13.46937   2.36249   0.16639 
 H                    -13.83555  -1.90379   0.27338 
 H                    -16.22147  -1.56915  -0.07229 
 H                    -12.01978  -1.15329   2.06604 
 H                    -9.59535  -1.40489   2.22687 
 H                    -11.41081   1.31145  -1.32712 
 H                    -5.03463   1.52027   0.91662 
 H                    -5.34371  -2.69529  -0.19067 
 H                    -7.77773  -2.45735  -0.07568 
 H                    -3.50376  -1.62931  -1.76179 
 H                    -1.04542  -1.71528  -1.83992 
 H                    -3.01692   0.35947   2.07858 
 H                     3.24995  -2.74266   0.19171 
 H                     3.2005    1.48222  -0.72766 
 H                     0.74576   1.39809  -0.58305 
 H                     5.16168   0.00067  -2.3327 
 H                     7.57751   0.02399  -2.30251 
 H                     5.20707  -1.19432   1.7511 
 H                     11.72315   0.15725  -2.1346 
 H                     11.80717  -0.51192   2.07971 
 H                     9.30738  -0.83284   1.9354 
 H                     13.92473  -1.72507  -1.25468 
 H                     16.31517  -1.25175  -1.1463 
 H                     13.36907   1.86438   1.17991 
 H                     20.48238  -0.59177  -0.81661 
 H                     21.37495   1.51299   0.14144 
 H                     19.82626   3.27678   1.0673 
 H                     17.41856   2.8415    0.94833 
 
 ITRead=  0  0  0  0  0  0  0  0  0  0  0  0  0  0  0  0  0  0  0  0
 ITRead=  0  0  0  0  0  0  0  0  0  0  0  0  0  0  0  0  0  0  0  0
 ITRead=  0  0  0  0  0  0  0  0  0  0  0  0  0  0  0  0  0  0  0  0
 ITRead=  0  0  0  0  0  0  0  0  0  0  0  0  0  0  0  0  0  0  0  0
 ITRead=  0  0  0  0  0  0  0  0  0  0  0  0
 MicOpt= -1 -1 -1 -1 -1 -1 -1 -1 -1 -1 -1 -1 -1 -1 -1 -1 -1 -1 -1 -1
 MicOpt= -1 -1 -1 -1 -1 -1 -1 -1 -1 -1 -1 -1 -1 -1 -1 -1 -1 -1 -1 -1
 MicOpt= -1 -1 -1 -1 -1 -1 -1 -1 -1 -1 -1 -1 -1 -1 -1 -1 -1 -1 -1 -1
 MicOpt= -1 -1 -1 -1 -1 -1 -1 -1 -1 -1 -1 -1 -1 -1 -1 -1 -1 -1 -1 -1
 MicOpt= -1 -1 -1 -1 -1 -1 -1 -1 -1 -1 -1 -1
 NAtoms=     92 NQM=       92 NQMF=       0 NMMI=      0 NMMIF=      0
                NMic=       0 NMicF=      0.
                    Isotopes and Nuclear Properties:
 (Nuclear quadrupole moments (NQMom) in fm**2, nuclear magnetic moments (NMagM)
  in nuclear magnetons)

  Atom         1           2           3           4           5           6           7           8           9          10
 IAtWgt=          12          12          12          12          14          12          12          14          12          12
 AtmWgt=  12.0000000  12.0000000  12.0000000  12.0000000  14.0030740  12.0000000  12.0000000  14.0030740  12.0000000  12.0000000
 NucSpn=           0           0           0           0           2           0           0           2           0           0
 AtZEff=  -0.0000000  -0.0000000  -0.0000000  -0.0000000  -0.0000000  -0.0000000  -0.0000000  -0.0000000  -0.0000000  -0.0000000
 NQMom=    0.0000000   0.0000000   0.0000000   0.0000000   2.0440000   0.0000000   0.0000000   2.0440000   0.0000000   0.0000000
 NMagM=    0.0000000   0.0000000   0.0000000   0.0000000   0.4037610   0.0000000   0.0000000   0.4037610   0.0000000   0.0000000
 AtZNuc=   6.0000000   6.0000000   6.0000000   6.0000000   7.0000000   6.0000000   6.0000000   7.0000000   6.0000000   6.0000000

  Atom        11          12          13          14          15          16          17          18          19          20
 IAtWgt=          12          12          12          12          12          12          14          12          12          14
 AtmWgt=  12.0000000  12.0000000  12.0000000  12.0000000  12.0000000  12.0000000  14.0030740  12.0000000  12.0000000  14.0030740
 NucSpn=           0           0           0           0           0           0           2           0           0           2
 AtZEff=  -0.0000000  -0.0000000  -0.0000000  -0.0000000  -0.0000000  -0.0000000  -0.0000000  -0.0000000  -0.0000000  -0.0000000
 NQMom=    0.0000000   0.0000000   0.0000000   0.0000000   0.0000000   0.0000000   2.0440000   0.0000000   0.0000000   2.0440000
 NMagM=    0.0000000   0.0000000   0.0000000   0.0000000   0.0000000   0.0000000   0.4037610   0.0000000   0.0000000   0.4037610
 AtZNuc=   6.0000000   6.0000000   6.0000000   6.0000000   6.0000000   6.0000000   7.0000000   6.0000000   6.0000000   7.0000000

  Atom        21          22          23          24          25          26          27          28          29          30
 IAtWgt=          12          12          12          12          12          12          12          12          14          12
 AtmWgt=  12.0000000  12.0000000  12.0000000  12.0000000  12.0000000  12.0000000  12.0000000  12.0000000  14.0030740  12.0000000
 NucSpn=           0           0           0           0           0           0           0           0           2           0
 AtZEff=  -0.0000000  -0.0000000  -0.0000000  -0.0000000  -0.0000000  -0.0000000  -0.0000000  -0.0000000  -0.0000000  -0.0000000
 NQMom=    0.0000000   0.0000000   0.0000000   0.0000000   0.0000000   0.0000000   0.0000000   0.0000000   2.0440000   0.0000000
 NMagM=    0.0000000   0.0000000   0.0000000   0.0000000   0.0000000   0.0000000   0.0000000   0.0000000   0.4037610   0.0000000
 AtZNuc=   6.0000000   6.0000000   6.0000000   6.0000000   6.0000000   6.0000000   6.0000000   6.0000000   7.0000000   6.0000000

  Atom        31          32          33          34          35          36          37          38          39          40
 IAtWgt=          12          14          12          12          12          12          12          12          12          12
 AtmWgt=  12.0000000  14.0030740  12.0000000  12.0000000  12.0000000  12.0000000  12.0000000  12.0000000  12.0000000  12.0000000
 NucSpn=           0           2           0           0           0           0           0           0           0           0
 AtZEff=  -0.0000000  -0.0000000  -0.0000000  -0.0000000  -0.0000000  -0.0000000  -0.0000000  -0.0000000  -0.0000000  -0.0000000
 NQMom=    0.0000000   2.0440000   0.0000000   0.0000000   0.0000000   0.0000000   0.0000000   0.0000000   0.0000000   0.0000000
 NMagM=    0.0000000   0.4037610   0.0000000   0.0000000   0.0000000   0.0000000   0.0000000   0.0000000   0.0000000   0.0000000
 AtZNuc=   6.0000000   7.0000000   6.0000000   6.0000000   6.0000000   6.0000000   6.0000000   6.0000000   6.0000000   6.0000000

  Atom        41          42          43          44          45          46          47          48          49          50
 IAtWgt=          14          12          12          14          12          12          12          12          12          12
 AtmWgt=  14.0030740  12.0000000  12.0000000  14.0030740  12.0000000  12.0000000  12.0000000  12.0000000  12.0000000  12.0000000
 NucSpn=           2           0           0           2           0           0           0           0           0           0
 AtZEff=  -0.0000000  -0.0000000  -0.0000000  -0.0000000  -0.0000000  -0.0000000  -0.0000000  -0.0000000  -0.0000000  -0.0000000
 NQMom=    2.0440000   0.0000000   0.0000000   2.0440000   0.0000000   0.0000000   0.0000000   0.0000000   0.0000000   0.0000000
 NMagM=    0.4037610   0.0000000   0.0000000   0.4037610   0.0000000   0.0000000   0.0000000   0.0000000   0.0000000   0.0000000
 AtZNuc=   7.0000000   6.0000000   6.0000000   7.0000000   6.0000000   6.0000000   6.0000000   6.0000000   6.0000000   6.0000000

  Atom        51          52          53          54          55          56          57          58          59          60
 IAtWgt=          12          12          14          12          12          14          12          12          12          12
 AtmWgt=  12.0000000  12.0000000  14.0030740  12.0000000  12.0000000  14.0030740  12.0000000  12.0000000  12.0000000  12.0000000
 NucSpn=           0           0           2           0           0           2           0           0           0           0
 AtZEff=  -0.0000000  -0.0000000  -0.0000000  -0.0000000  -0.0000000  -0.0000000  -0.0000000  -0.0000000  -0.0000000  -0.0000000
 NQMom=    0.0000000   0.0000000   2.0440000   0.0000000   0.0000000   2.0440000   0.0000000   0.0000000   0.0000000   0.0000000
 NMagM=    0.0000000   0.0000000   0.4037610   0.0000000   0.0000000   0.4037610   0.0000000   0.0000000   0.0000000   0.0000000
 AtZNuc=   6.0000000   6.0000000   7.0000000   6.0000000   6.0000000   7.0000000   6.0000000   6.0000000   6.0000000   6.0000000

  Atom        61          62          63          64          65          66          67          68          69          70
 IAtWgt=           1           1           1           1           1           1           1           1           1           1
 AtmWgt=   1.0078250   1.0078250   1.0078250   1.0078250   1.0078250   1.0078250   1.0078250   1.0078250   1.0078250   1.0078250
 NucSpn=           1           1           1           1           1           1           1           1           1           1
 AtZEff=  -0.0000000  -0.0000000  -0.0000000  -0.0000000  -0.0000000  -0.0000000  -0.0000000  -0.0000000  -0.0000000  -0.0000000
 NQMom=    0.0000000   0.0000000   0.0000000   0.0000000   0.0000000   0.0000000   0.0000000   0.0000000   0.0000000   0.0000000
 NMagM=    2.7928460   2.7928460   2.7928460   2.7928460   2.7928460   2.7928460   2.7928460   2.7928460   2.7928460   2.7928460
 AtZNuc=   1.0000000   1.0000000   1.0000000   1.0000000   1.0000000   1.0000000   1.0000000   1.0000000   1.0000000   1.0000000

  Atom        71          72          73          74          75          76          77          78          79          80
 IAtWgt=           1           1           1           1           1           1           1           1           1           1
 AtmWgt=   1.0078250   1.0078250   1.0078250   1.0078250   1.0078250   1.0078250   1.0078250   1.0078250   1.0078250   1.0078250
 NucSpn=           1           1           1           1           1           1           1           1           1           1
 AtZEff=  -0.0000000  -0.0000000  -0.0000000  -0.0000000  -0.0000000  -0.0000000  -0.0000000  -0.0000000  -0.0000000  -0.0000000
 NQMom=    0.0000000   0.0000000   0.0000000   0.0000000   0.0000000   0.0000000   0.0000000   0.0000000   0.0000000   0.0000000
 NMagM=    2.7928460   2.7928460   2.7928460   2.7928460   2.7928460   2.7928460   2.7928460   2.7928460   2.7928460   2.7928460
 AtZNuc=   1.0000000   1.0000000   1.0000000   1.0000000   1.0000000   1.0000000   1.0000000   1.0000000   1.0000000   1.0000000

  Atom        81          82          83          84          85          86          87          88          89          90
 IAtWgt=           1           1           1           1           1           1           1           1           1           1
 AtmWgt=   1.0078250   1.0078250   1.0078250   1.0078250   1.0078250   1.0078250   1.0078250   1.0078250   1.0078250   1.0078250
 NucSpn=           1           1           1           1           1           1           1           1           1           1
 AtZEff=  -0.0000000  -0.0000000  -0.0000000  -0.0000000  -0.0000000  -0.0000000  -0.0000000  -0.0000000  -0.0000000  -0.0000000
 NQMom=    0.0000000   0.0000000   0.0000000   0.0000000   0.0000000   0.0000000   0.0000000   0.0000000   0.0000000   0.0000000
 NMagM=    2.7928460   2.7928460   2.7928460   2.7928460   2.7928460   2.7928460   2.7928460   2.7928460   2.7928460   2.7928460
 AtZNuc=   1.0000000   1.0000000   1.0000000   1.0000000   1.0000000   1.0000000   1.0000000   1.0000000   1.0000000   1.0000000

  Atom        91          92
 IAtWgt=           1           1
 AtmWgt=   1.0078250   1.0078250
 NucSpn=           1           1
 AtZEff=  -0.0000000  -0.0000000
 NQMom=    0.0000000   0.0000000
 NMagM=    2.7928460   2.7928460
 AtZNuc=   1.0000000   1.0000000
 Leave Link  101 at Sat Jul 25 08:58:26 2020, MaxMem=  4026531840 cpu:               3.1 elap:               0.4
 (Enter /opt/ohpc/pub/libs/gaussian/g16-A.03/sandybridge/g16/l103.exe)

 GradGradGradGradGradGradGradGradGradGradGradGradGradGradGradGradGradGrad
 Berny optimization.
 Initialization pass.
                           ----------------------------
                           !    Initial Parameters    !
                           ! (Angstroms and Degrees)  !
 --------------------------                            --------------------------
 ! Name  Definition              Value          Derivative Info.                !
 --------------------------------------------------------------------------------
 ! R1    R(1,2)                  1.4041         estimate D2E/DX2                !
 ! R2    R(1,6)                  1.3753         estimate D2E/DX2                !
 ! R3    R(1,61)                 1.0835         estimate D2E/DX2                !
 ! R4    R(2,3)                  1.4102         estimate D2E/DX2                !
 ! R5    R(2,62)                 1.1257         estimate D2E/DX2                !
 ! R6    R(3,4)                  1.3798         estimate D2E/DX2                !
 ! R7    R(3,63)                 1.1408         estimate D2E/DX2                !
 ! R8    R(4,5)                  1.4447         estimate D2E/DX2                !
 ! R9    R(4,7)                  1.4662         estimate D2E/DX2                !
 ! R10   R(5,6)                  1.3669         estimate D2E/DX2                !
 ! R11   R(6,64)                 1.1117         estimate D2E/DX2                !
 ! R12   R(7,8)                  1.3524         estimate D2E/DX2                !
 ! R13   R(7,12)                 1.3592         estimate D2E/DX2                !
 ! R14   R(8,9)                  1.3527         estimate D2E/DX2                !
 ! R15   R(9,10)                 1.3925         estimate D2E/DX2                !
 ! R16   R(9,65)                 1.0734         estimate D2E/DX2                !
 ! R17   R(10,11)                1.3618         estimate D2E/DX2                !
 ! R18   R(10,13)                1.4814         estimate D2E/DX2                !
 ! R19   R(11,12)                1.4193         estimate D2E/DX2                !
 ! R20   R(11,66)                1.1543         estimate D2E/DX2                !
 ! R21   R(12,67)                1.0364         estimate D2E/DX2                !
 ! R22   R(13,14)                1.3618         estimate D2E/DX2                !
 ! R23   R(13,18)                1.3553         estimate D2E/DX2                !
 ! R24   R(14,15)                1.4491         estimate D2E/DX2                !
 ! R25   R(14,68)                1.0812         estimate D2E/DX2                !
 ! R26   R(15,16)                1.4111         estimate D2E/DX2                !
 ! R27   R(15,69)                1.015          estimate D2E/DX2                !
 ! R28   R(16,17)                1.4199         estimate D2E/DX2                !
 ! R29   R(16,19)                1.3709         estimate D2E/DX2                !
 ! R30   R(17,18)                1.3603         estimate D2E/DX2                !
 ! R31   R(18,70)                1.0502         estimate D2E/DX2                !
 ! R32   R(19,20)                1.3901         estimate D2E/DX2                !
 ! R33   R(19,24)                1.4467         estimate D2E/DX2                !
 ! R34   R(20,21)                1.3929         estimate D2E/DX2                !
 ! R35   R(21,22)                1.4421         estimate D2E/DX2                !
 ! R36   R(21,71)                1.0859         estimate D2E/DX2                !
 ! R37   R(22,23)                1.3368         estimate D2E/DX2                !
 ! R38   R(22,25)                1.4583         estimate D2E/DX2                !
 ! R39   R(23,24)                1.4057         estimate D2E/DX2                !
 ! R40   R(23,72)                1.111          estimate D2E/DX2                !
 ! R41   R(24,73)                1.0883         estimate D2E/DX2                !
 ! R42   R(25,26)                1.4153         estimate D2E/DX2                !
 ! R43   R(25,30)                1.4021         estimate D2E/DX2                !
 ! R44   R(26,27)                1.3396         estimate D2E/DX2                !
 ! R45   R(26,74)                1.1244         estimate D2E/DX2                !
 ! R46   R(27,28)                1.4542         estimate D2E/DX2                !
 ! R47   R(27,75)                1.0536         estimate D2E/DX2                !
 ! R48   R(28,29)                1.4087         estimate D2E/DX2                !
 ! R49   R(28,31)                1.4505         estimate D2E/DX2                !
 ! R50   R(29,30)                1.4053         estimate D2E/DX2                !
 ! R51   R(30,76)                1.09           estimate D2E/DX2                !
 ! R52   R(31,32)                1.353          estimate D2E/DX2                !
 ! R53   R(31,36)                1.3554         estimate D2E/DX2                !
 ! R54   R(32,33)                1.355          estimate D2E/DX2                !
 ! R55   R(33,34)                1.3856         estimate D2E/DX2                !
 ! R56   R(33,77)                1.106          estimate D2E/DX2                !
 ! R57   R(34,35)                1.3511         estimate D2E/DX2                !
 ! R58   R(34,37)                1.4928         estimate D2E/DX2                !
 ! R59   R(35,36)                1.407          estimate D2E/DX2                !
 ! R60   R(35,78)                1.0734         estimate D2E/DX2                !
 ! R61   R(36,79)                1.0798         estimate D2E/DX2                !
 ! R62   R(37,38)                1.4172         estimate D2E/DX2                !
 ! R63   R(37,42)                1.3053         estimate D2E/DX2                !
 ! R64   R(38,39)                1.3868         estimate D2E/DX2                !
 ! R65   R(38,80)                1.0728         estimate D2E/DX2                !
 ! R66   R(39,40)                1.4188         estimate D2E/DX2                !
 ! R67   R(39,81)                1.0311         estimate D2E/DX2                !
 ! R68   R(40,41)                1.3933         estimate D2E/DX2                !
 ! R69   R(40,43)                1.5173         estimate D2E/DX2                !
 ! R70   R(41,42)                1.3218         estimate D2E/DX2                !
 ! R71   R(42,82)                1.1063         estimate D2E/DX2                !
 ! R72   R(43,44)                1.3867         estimate D2E/DX2                !
 ! R73   R(43,48)                1.3244         estimate D2E/DX2                !
 ! R74   R(44,45)                1.3324         estimate D2E/DX2                !
 ! R75   R(45,46)                1.4246         estimate D2E/DX2                !
 ! R76   R(45,83)                1.0168         estimate D2E/DX2                !
 ! R77   R(46,47)                1.3894         estimate D2E/DX2                !
 ! R78   R(46,49)                1.4962         estimate D2E/DX2                !
 ! R79   R(47,48)                1.4256         estimate D2E/DX2                !
 ! R80   R(47,84)                1.1            estimate D2E/DX2                !
 ! R81   R(48,85)                1.0672         estimate D2E/DX2                !
 ! R82   R(49,50)                1.3852         estimate D2E/DX2                !
 ! R83   R(49,54)                1.3769         estimate D2E/DX2                !
 ! R84   R(50,51)                1.3896         estimate D2E/DX2                !
 ! R85   R(50,86)                1.1053         estimate D2E/DX2                !
 ! R86   R(51,52)                1.4015         estimate D2E/DX2                !
 ! R87   R(51,87)                1.099          estimate D2E/DX2                !
 ! R88   R(52,53)                1.3782         estimate D2E/DX2                !
 ! R89   R(52,55)                1.4458         estimate D2E/DX2                !
 ! R90   R(53,54)                1.3006         estimate D2E/DX2                !
 ! R91   R(54,88)                1.1645         estimate D2E/DX2                !
 ! R92   R(55,56)                1.304          estimate D2E/DX2                !
 ! R93   R(55,60)                1.4831         estimate D2E/DX2                !
 ! R94   R(56,57)                1.3932         estimate D2E/DX2                !
 ! R95   R(57,58)                1.3878         estimate D2E/DX2                !
 ! R96   R(57,89)                1.1214         estimate D2E/DX2                !
 ! R97   R(58,59)                1.3599         estimate D2E/DX2                !
 ! R98   R(58,90)                1.0688         estimate D2E/DX2                !
 ! R99   R(59,60)                1.3657         estimate D2E/DX2                !
 ! R100  R(59,91)                1.1354         estimate D2E/DX2                !
 ! R101  R(60,92)                1.0447         estimate D2E/DX2                !
 ! A1    A(2,1,6)              116.1013         estimate D2E/DX2                !
 ! A2    A(2,1,61)             117.6757         estimate D2E/DX2                !
 ! A3    A(6,1,61)             126.2079         estimate D2E/DX2                !
 ! A4    A(1,2,3)              118.8563         estimate D2E/DX2                !
 ! A5    A(1,2,62)             121.5438         estimate D2E/DX2                !
 ! A6    A(3,2,62)             119.3423         estimate D2E/DX2                !
 ! A7    A(2,3,4)              122.8249         estimate D2E/DX2                !
 ! A8    A(2,3,63)             118.3399         estimate D2E/DX2                !
 ! A9    A(4,3,63)             118.7243         estimate D2E/DX2                !
 ! A10   A(3,4,5)              118.7986         estimate D2E/DX2                !
 ! A11   A(3,4,7)              126.4127         estimate D2E/DX2                !
 ! A12   A(5,4,7)              114.7768         estimate D2E/DX2                !
 ! A13   A(4,5,6)              115.1289         estimate D2E/DX2                !
 ! A14   A(1,6,5)              128.0589         estimate D2E/DX2                !
 ! A15   A(1,6,64)             118.4444         estimate D2E/DX2                !
 ! A16   A(5,6,64)             113.3678         estimate D2E/DX2                !
 ! A17   A(4,7,8)              116.6295         estimate D2E/DX2                !
 ! A18   A(4,7,12)             121.1372         estimate D2E/DX2                !
 ! A19   A(8,7,12)             121.6257         estimate D2E/DX2                !
 ! A20   A(7,8,9)              117.7491         estimate D2E/DX2                !
 ! A21   A(8,9,10)             126.3265         estimate D2E/DX2                !
 ! A22   A(8,9,65)             112.9896         estimate D2E/DX2                !
 ! A23   A(10,9,65)            120.5782         estimate D2E/DX2                !
 ! A24   A(9,10,11)            112.3106         estimate D2E/DX2                !
 ! A25   A(9,10,13)            121.058          estimate D2E/DX2                !
 ! A26   A(11,10,13)           126.3117         estimate D2E/DX2                !
 ! A27   A(10,11,12)           124.6552         estimate D2E/DX2                !
 ! A28   A(10,11,66)           118.9817         estimate D2E/DX2                !
 ! A29   A(12,11,66)           116.3628         estimate D2E/DX2                !
 ! A30   A(7,12,11)            116.7854         estimate D2E/DX2                !
 ! A31   A(7,12,67)            124.2289         estimate D2E/DX2                !
 ! A32   A(11,12,67)           118.7639         estimate D2E/DX2                !
 ! A33   A(10,13,14)           118.0326         estimate D2E/DX2                !
 ! A34   A(10,13,18)           122.3217         estimate D2E/DX2                !
 ! A35   A(14,13,18)           119.2403         estimate D2E/DX2                !
 ! A36   A(13,14,15)           120.6996         estimate D2E/DX2                !
 ! A37   A(13,14,68)           121.0988         estimate D2E/DX2                !
 ! A38   A(15,14,68)           118.037          estimate D2E/DX2                !
 ! A39   A(14,15,16)           117.0882         estimate D2E/DX2                !
 ! A40   A(14,15,69)           118.5138         estimate D2E/DX2                !
 ! A41   A(16,15,69)           124.3796         estimate D2E/DX2                !
 ! A42   A(15,16,17)           120.705          estimate D2E/DX2                !
 ! A43   A(15,16,19)           121.2085         estimate D2E/DX2                !
 ! A44   A(17,16,19)           117.8492         estimate D2E/DX2                !
 ! A45   A(16,17,18)           117.3886         estimate D2E/DX2                !
 ! A46   A(13,18,17)           124.5795         estimate D2E/DX2                !
 ! A47   A(13,18,70)           123.6044         estimate D2E/DX2                !
 ! A48   A(17,18,70)           111.6963         estimate D2E/DX2                !
 ! A49   A(16,19,20)           116.8253         estimate D2E/DX2                !
 ! A50   A(16,19,24)           123.7941         estimate D2E/DX2                !
 ! A51   A(20,19,24)           119.3111         estimate D2E/DX2                !
 ! A52   A(19,20,21)           118.0171         estimate D2E/DX2                !
 ! A53   A(20,21,22)           121.3189         estimate D2E/DX2                !
 ! A54   A(20,21,71)           115.7732         estimate D2E/DX2                !
 ! A55   A(22,21,71)           122.8137         estimate D2E/DX2                !
 ! A56   A(21,22,23)           120.472          estimate D2E/DX2                !
 ! A57   A(21,22,25)           118.3689         estimate D2E/DX2                !
 ! A58   A(23,22,25)           120.7592         estimate D2E/DX2                !
 ! A59   A(22,23,24)           119.3203         estimate D2E/DX2                !
 ! A60   A(22,23,72)           123.6217         estimate D2E/DX2                !
 ! A61   A(24,23,72)           116.2511         estimate D2E/DX2                !
 ! A62   A(19,24,23)           120.4485         estimate D2E/DX2                !
 ! A63   A(19,24,73)           118.8993         estimate D2E/DX2                !
 ! A64   A(23,24,73)           120.011          estimate D2E/DX2                !
 ! A65   A(22,25,26)           124.8946         estimate D2E/DX2                !
 ! A66   A(22,25,30)           121.3585         estimate D2E/DX2                !
 ! A67   A(26,25,30)           113.7052         estimate D2E/DX2                !
 ! A68   A(25,26,27)           123.1774         estimate D2E/DX2                !
 ! A69   A(25,26,74)           117.3391         estimate D2E/DX2                !
 ! A70   A(27,26,74)           119.2972         estimate D2E/DX2                !
 ! A71   A(26,27,28)           120.7878         estimate D2E/DX2                !
 ! A72   A(26,27,75)           122.6112         estimate D2E/DX2                !
 ! A73   A(28,27,75)           116.1456         estimate D2E/DX2                !
 ! A74   A(27,28,29)           119.2147         estimate D2E/DX2                !
 ! A75   A(27,28,31)           121.8567         estimate D2E/DX2                !
 ! A76   A(29,28,31)           118.6125         estimate D2E/DX2                !
 ! A77   A(28,29,30)           115.3944         estimate D2E/DX2                !
 ! A78   A(25,30,29)           127.3091         estimate D2E/DX2                !
 ! A79   A(25,30,76)           125.2058         estimate D2E/DX2                !
 ! A80   A(29,30,76)           107.4733         estimate D2E/DX2                !
 ! A81   A(28,31,32)           115.6043         estimate D2E/DX2                !
 ! A82   A(28,31,36)           121.3617         estimate D2E/DX2                !
 ! A83   A(32,31,36)           123.0337         estimate D2E/DX2                !
 ! A84   A(31,32,33)           117.7049         estimate D2E/DX2                !
 ! A85   A(32,33,34)           122.5741         estimate D2E/DX2                !
 ! A86   A(32,33,77)           112.3321         estimate D2E/DX2                !
 ! A87   A(34,33,77)           125.0937         estimate D2E/DX2                !
 ! A88   A(33,34,35)           118.0698         estimate D2E/DX2                !
 ! A89   A(33,34,37)           118.4027         estimate D2E/DX2                !
 ! A90   A(35,34,37)           123.4369         estimate D2E/DX2                !
 ! A91   A(34,35,36)           120.7496         estimate D2E/DX2                !
 ! A92   A(34,35,78)           123.2658         estimate D2E/DX2                !
 ! A93   A(36,35,78)           115.7898         estimate D2E/DX2                !
 ! A94   A(31,36,35)           117.7962         estimate D2E/DX2                !
 ! A95   A(31,36,79)           119.3264         estimate D2E/DX2                !
 ! A96   A(35,36,79)           122.8395         estimate D2E/DX2                !
 ! A97   A(34,37,38)           117.5142         estimate D2E/DX2                !
 ! A98   A(34,37,42)           125.9712         estimate D2E/DX2                !
 ! A99   A(38,37,42)           116.4037         estimate D2E/DX2                !
 ! A100  A(37,38,39)           121.0819         estimate D2E/DX2                !
 ! A101  A(37,38,80)           122.31           estimate D2E/DX2                !
 ! A102  A(39,38,80)           115.898          estimate D2E/DX2                !
 ! A103  A(38,39,40)           116.6104         estimate D2E/DX2                !
 ! A104  A(38,39,81)           122.575          estimate D2E/DX2                !
 ! A105  A(40,39,81)           120.1587         estimate D2E/DX2                !
 ! A106  A(39,40,41)           120.1664         estimate D2E/DX2                !
 ! A107  A(39,40,43)           122.2902         estimate D2E/DX2                !
 ! A108  A(41,40,43)           117.453          estimate D2E/DX2                !
 ! A109  A(40,41,42)           117.2929         estimate D2E/DX2                !
 ! A110  A(37,42,41)           127.5294         estimate D2E/DX2                !
 ! A111  A(37,42,82)           120.0165         estimate D2E/DX2                !
 ! A112  A(41,42,82)           112.4462         estimate D2E/DX2                !
 ! A113  A(40,43,44)           115.5826         estimate D2E/DX2                !
 ! A114  A(40,43,48)           121.2392         estimate D2E/DX2                !
 ! A115  A(44,43,48)           123.1676         estimate D2E/DX2                !
 ! A116  A(43,44,45)           118.7607         estimate D2E/DX2                !
 ! A117  A(44,45,46)           121.1872         estimate D2E/DX2                !
 ! A118  A(44,45,83)           117.5502         estimate D2E/DX2                !
 ! A119  A(46,45,83)           121.2625         estimate D2E/DX2                !
 ! A120  A(45,46,47)           119.0145         estimate D2E/DX2                !
 ! A121  A(45,46,49)           119.4155         estimate D2E/DX2                !
 ! A122  A(47,46,49)           121.5119         estimate D2E/DX2                !
 ! A123  A(46,47,48)           118.1547         estimate D2E/DX2                !
 ! A124  A(46,47,84)           118.9172         estimate D2E/DX2                !
 ! A125  A(48,47,84)           122.8706         estimate D2E/DX2                !
 ! A126  A(43,48,47)           119.616          estimate D2E/DX2                !
 ! A127  A(43,48,85)           122.3365         estimate D2E/DX2                !
 ! A128  A(47,48,85)           118.0429         estimate D2E/DX2                !
 ! A129  A(46,49,50)           123.8534         estimate D2E/DX2                !
 ! A130  A(46,49,54)           119.3005         estimate D2E/DX2                !
 ! A131  A(50,49,54)           116.7174         estimate D2E/DX2                !
 ! A132  A(49,50,51)           116.2171         estimate D2E/DX2                !
 ! A133  A(49,50,86)           122.1255         estimate D2E/DX2                !
 ! A134  A(51,50,86)           121.5932         estimate D2E/DX2                !
 ! A135  A(50,51,52)           125.254          estimate D2E/DX2                !
 ! A136  A(50,51,87)           115.2696         estimate D2E/DX2                !
 ! A137  A(52,51,87)           119.3968         estimate D2E/DX2                !
 ! A138  A(51,52,53)           115.0668         estimate D2E/DX2                !
 ! A139  A(51,52,55)           121.9518         estimate D2E/DX2                !
 ! A140  A(53,52,55)           122.8739         estimate D2E/DX2                !
 ! A141  A(52,53,54)           119.6093         estimate D2E/DX2                !
 ! A142  A(49,54,53)           127.0164         estimate D2E/DX2                !
 ! A143  A(49,54,88)           120.507          estimate D2E/DX2                !
 ! A144  A(53,54,88)           112.2715         estimate D2E/DX2                !
 ! A145  A(52,55,56)           120.4426         estimate D2E/DX2                !
 ! A146  A(52,55,60)           117.4298         estimate D2E/DX2                !
 ! A147  A(56,55,60)           122.034          estimate D2E/DX2                !
 ! A148  A(55,56,57)           118.9572         estimate D2E/DX2                !
 ! A149  A(56,57,58)           121.5706         estimate D2E/DX2                !
 ! A150  A(56,57,89)           114.8862         estimate D2E/DX2                !
 ! A151  A(58,57,89)           123.3918         estimate D2E/DX2                !
 ! A152  A(57,58,59)           118.9488         estimate D2E/DX2                !
 ! A153  A(57,58,90)           116.2014         estimate D2E/DX2                !
 ! A154  A(59,58,90)           124.836          estimate D2E/DX2                !
 ! A155  A(58,59,60)           122.4704         estimate D2E/DX2                !
 ! A156  A(58,59,91)           118.9421         estimate D2E/DX2                !
 ! A157  A(60,59,91)           118.253          estimate D2E/DX2                !
 ! A158  A(55,60,59)           115.9213         estimate D2E/DX2                !
 ! A159  A(55,60,92)           122.7348         estimate D2E/DX2                !
 ! A160  A(59,60,92)           121.1672         estimate D2E/DX2                !
 ! D1    D(6,1,2,3)             -2.242          estimate D2E/DX2                !
 ! D2    D(6,1,2,62)          -176.3717         estimate D2E/DX2                !
 ! D3    D(61,1,2,3)           176.4344         estimate D2E/DX2                !
 ! D4    D(61,1,2,62)            2.3048         estimate D2E/DX2                !
 ! D5    D(2,1,6,5)             -2.4151         estimate D2E/DX2                !
 ! D6    D(2,1,6,64)          -177.9909         estimate D2E/DX2                !
 ! D7    D(61,1,6,5)           179.0376         estimate D2E/DX2                !
 ! D8    D(61,1,6,64)            3.4618         estimate D2E/DX2                !
 ! D9    D(1,2,3,4)              4.9445         estimate D2E/DX2                !
 ! D10   D(1,2,3,63)          -178.9381         estimate D2E/DX2                !
 ! D11   D(62,2,3,4)           179.2057         estimate D2E/DX2                !
 ! D12   D(62,2,3,63)           -4.6769         estimate D2E/DX2                !
 ! D13   D(2,3,4,5)             -3.0753         estimate D2E/DX2                !
 ! D14   D(2,3,4,7)            178.2476         estimate D2E/DX2                !
 ! D15   D(63,3,4,5)          -179.1785         estimate D2E/DX2                !
 ! D16   D(63,3,4,7)             2.1444         estimate D2E/DX2                !
 ! D17   D(3,4,5,6)             -1.2837         estimate D2E/DX2                !
 ! D18   D(7,4,5,6)            177.5438         estimate D2E/DX2                !
 ! D19   D(3,4,7,8)             -4.8144         estimate D2E/DX2                !
 ! D20   D(3,4,7,12)          -176.0184         estimate D2E/DX2                !
 ! D21   D(5,4,7,8)            176.4624         estimate D2E/DX2                !
 ! D22   D(5,4,7,12)             5.2585         estimate D2E/DX2                !
 ! D23   D(4,5,6,1)              4.1903         estimate D2E/DX2                !
 ! D24   D(4,5,6,64)           179.953          estimate D2E/DX2                !
 ! D25   D(4,7,8,9)           -179.2332         estimate D2E/DX2                !
 ! D26   D(12,7,8,9)            -8.0755         estimate D2E/DX2                !
 ! D27   D(4,7,12,11)          179.3213         estimate D2E/DX2                !
 ! D28   D(4,7,12,67)           -6.1717         estimate D2E/DX2                !
 ! D29   D(8,7,12,11)            8.5594         estimate D2E/DX2                !
 ! D30   D(8,7,12,67)         -176.9335         estimate D2E/DX2                !
 ! D31   D(7,8,9,10)             2.5513         estimate D2E/DX2                !
 ! D32   D(7,8,9,65)          -173.6998         estimate D2E/DX2                !
 ! D33   D(8,9,10,11)            1.9574         estimate D2E/DX2                !
 ! D34   D(8,9,10,13)          175.8576         estimate D2E/DX2                !
 ! D35   D(65,9,10,11)         177.9484         estimate D2E/DX2                !
 ! D36   D(65,9,10,13)          -8.1514         estimate D2E/DX2                !
 ! D37   D(9,10,11,12)          -1.2943         estimate D2E/DX2                !
 ! D38   D(9,10,11,66)         178.9149         estimate D2E/DX2                !
 ! D39   D(13,10,11,12)       -174.808          estimate D2E/DX2                !
 ! D40   D(13,10,11,66)          5.4012         estimate D2E/DX2                !
 ! D41   D(9,10,13,14)         135.8179         estimate D2E/DX2                !
 ! D42   D(9,10,13,18)         -51.5512         estimate D2E/DX2                !
 ! D43   D(11,10,13,14)        -51.1895         estimate D2E/DX2                !
 ! D44   D(11,10,13,18)        121.4414         estimate D2E/DX2                !
 ! D45   D(10,11,12,7)          -3.7193         estimate D2E/DX2                !
 ! D46   D(10,11,12,67)       -178.5394         estimate D2E/DX2                !
 ! D47   D(66,11,12,7)         176.0764         estimate D2E/DX2                !
 ! D48   D(66,11,12,67)          1.2563         estimate D2E/DX2                !
 ! D49   D(10,13,14,15)        177.9273         estimate D2E/DX2                !
 ! D50   D(10,13,14,68)         -6.8266         estimate D2E/DX2                !
 ! D51   D(18,13,14,15)          5.0627         estimate D2E/DX2                !
 ! D52   D(18,13,14,68)       -179.6912         estimate D2E/DX2                !
 ! D53   D(10,13,18,17)       -179.4387         estimate D2E/DX2                !
 ! D54   D(10,13,18,70)          4.876          estimate D2E/DX2                !
 ! D55   D(14,13,18,17)         -6.8935         estimate D2E/DX2                !
 ! D56   D(14,13,18,70)        177.4212         estimate D2E/DX2                !
 ! D57   D(13,14,15,16)         -1.9416         estimate D2E/DX2                !
 ! D58   D(13,14,15,69)        176.5667         estimate D2E/DX2                !
 ! D59   D(68,14,15,16)       -177.33           estimate D2E/DX2                !
 ! D60   D(68,14,15,69)          1.1783         estimate D2E/DX2                !
 ! D61   D(14,15,16,17)          0.255          estimate D2E/DX2                !
 ! D62   D(14,15,16,19)       -174.0278         estimate D2E/DX2                !
 ! D63   D(69,15,16,17)       -178.1567         estimate D2E/DX2                !
 ! D64   D(69,15,16,19)          7.5604         estimate D2E/DX2                !
 ! D65   D(15,16,17,18)         -1.6862         estimate D2E/DX2                !
 ! D66   D(19,16,17,18)        172.7841         estimate D2E/DX2                !
 ! D67   D(15,16,19,20)       -113.1611         estimate D2E/DX2                !
 ! D68   D(15,16,19,24)         63.779          estimate D2E/DX2                !
 ! D69   D(17,16,19,20)         72.3979         estimate D2E/DX2                !
 ! D70   D(17,16,19,24)       -110.662          estimate D2E/DX2                !
 ! D71   D(16,17,18,13)          5.1171         estimate D2E/DX2                !
 ! D72   D(16,17,18,70)       -178.7498         estimate D2E/DX2                !
 ! D73   D(16,19,20,21)       -173.3124         estimate D2E/DX2                !
 ! D74   D(24,19,20,21)          9.6038         estimate D2E/DX2                !
 ! D75   D(16,19,24,23)        172.9671         estimate D2E/DX2                !
 ! D76   D(16,19,24,73)          2.1437         estimate D2E/DX2                !
 ! D77   D(20,19,24,23)        -10.1646         estimate D2E/DX2                !
 ! D78   D(20,19,24,73)        179.0121         estimate D2E/DX2                !
 ! D79   D(19,20,21,22)         -8.0497         estimate D2E/DX2                !
 ! D80   D(19,20,21,71)        175.3842         estimate D2E/DX2                !
 ! D81   D(20,21,22,23)          6.8582         estimate D2E/DX2                !
 ! D82   D(20,21,22,25)        179.6547         estimate D2E/DX2                !
 ! D83   D(71,21,22,23)       -176.8215         estimate D2E/DX2                !
 ! D84   D(71,21,22,25)         -4.025          estimate D2E/DX2                !
 ! D85   D(21,22,23,24)         -7.0455         estimate D2E/DX2                !
 ! D86   D(21,22,23,72)       -176.3613         estimate D2E/DX2                !
 ! D87   D(25,22,23,24)       -179.6685         estimate D2E/DX2                !
 ! D88   D(25,22,23,72)         11.0157         estimate D2E/DX2                !
 ! D89   D(21,22,25,26)       -128.8463         estimate D2E/DX2                !
 ! D90   D(21,22,25,30)         48.6555         estimate D2E/DX2                !
 ! D91   D(23,22,25,26)         43.9287         estimate D2E/DX2                !
 ! D92   D(23,22,25,30)       -138.5694         estimate D2E/DX2                !
 ! D93   D(22,23,24,19)          8.7953         estimate D2E/DX2                !
 ! D94   D(22,23,24,73)        179.5166         estimate D2E/DX2                !
 ! D95   D(72,23,24,19)        178.8834         estimate D2E/DX2                !
 ! D96   D(72,23,24,73)        -10.3953         estimate D2E/DX2                !
 ! D97   D(22,25,26,27)       -175.0629         estimate D2E/DX2                !
 ! D98   D(22,25,26,74)         -0.0657         estimate D2E/DX2                !
 ! D99   D(30,25,26,27)          7.2668         estimate D2E/DX2                !
 ! D100  D(30,25,26,74)       -177.736          estimate D2E/DX2                !
 ! D101  D(22,25,30,29)        178.2999         estimate D2E/DX2                !
 ! D102  D(22,25,30,76)         -0.2875         estimate D2E/DX2                !
 ! D103  D(26,25,30,29)         -3.9377         estimate D2E/DX2                !
 ! D104  D(26,25,30,76)        177.4749         estimate D2E/DX2                !
 ! D105  D(25,26,27,28)         -7.5906         estimate D2E/DX2                !
 ! D106  D(25,26,27,75)       -179.5458         estimate D2E/DX2                !
 ! D107  D(74,26,27,28)        177.5054         estimate D2E/DX2                !
 ! D108  D(74,26,27,75)          5.5502         estimate D2E/DX2                !
 ! D109  D(26,27,28,29)          3.9695         estimate D2E/DX2                !
 ! D110  D(26,27,28,31)       -169.4824         estimate D2E/DX2                !
 ! D111  D(75,27,28,29)        176.4235         estimate D2E/DX2                !
 ! D112  D(75,27,28,31)          2.9716         estimate D2E/DX2                !
 ! D113  D(27,28,29,30)         -0.6574         estimate D2E/DX2                !
 ! D114  D(31,28,29,30)        173.008          estimate D2E/DX2                !
 ! D115  D(27,28,31,32)        -77.6198         estimate D2E/DX2                !
 ! D116  D(27,28,31,36)        102.5723         estimate D2E/DX2                !
 ! D117  D(29,28,31,32)        108.8902         estimate D2E/DX2                !
 ! D118  D(29,28,31,36)        -70.9177         estimate D2E/DX2                !
 ! D119  D(28,29,30,25)          0.906          estimate D2E/DX2                !
 ! D120  D(28,29,30,76)        179.696          estimate D2E/DX2                !
 ! D121  D(28,31,32,33)       -177.3917         estimate D2E/DX2                !
 ! D122  D(36,31,32,33)          2.4126         estimate D2E/DX2                !
 ! D123  D(28,31,36,35)        178.15           estimate D2E/DX2                !
 ! D124  D(28,31,36,79)          0.3253         estimate D2E/DX2                !
 ! D125  D(32,31,36,35)         -1.6433         estimate D2E/DX2                !
 ! D126  D(32,31,36,79)       -179.4681         estimate D2E/DX2                !
 ! D127  D(31,32,33,34)         -0.6836         estimate D2E/DX2                !
 ! D128  D(31,32,33,77)        179.3642         estimate D2E/DX2                !
 ! D129  D(32,33,34,35)         -1.7257         estimate D2E/DX2                !
 ! D130  D(32,33,34,37)        174.9332         estimate D2E/DX2                !
 ! D131  D(77,33,34,35)        178.2202         estimate D2E/DX2                !
 ! D132  D(77,33,34,37)         -5.1209         estimate D2E/DX2                !
 ! D133  D(33,34,35,36)          2.4991         estimate D2E/DX2                !
 ! D134  D(33,34,35,78)        177.2101         estimate D2E/DX2                !
 ! D135  D(37,34,35,36)       -173.9789         estimate D2E/DX2                !
 ! D136  D(37,34,35,78)          0.7321         estimate D2E/DX2                !
 ! D137  D(33,34,37,38)        124.5222         estimate D2E/DX2                !
 ! D138  D(33,34,37,42)        -59.4604         estimate D2E/DX2                !
 ! D139  D(35,34,37,38)        -59.0108         estimate D2E/DX2                !
 ! D140  D(35,34,37,42)        117.0065         estimate D2E/DX2                !
 ! D141  D(34,35,36,31)         -0.9128         estimate D2E/DX2                !
 ! D142  D(34,35,36,79)        176.83           estimate D2E/DX2                !
 ! D143  D(78,35,36,31)       -176.0022         estimate D2E/DX2                !
 ! D144  D(78,35,36,79)          1.7405         estimate D2E/DX2                !
 ! D145  D(34,37,38,39)       -177.413          estimate D2E/DX2                !
 ! D146  D(34,37,38,80)         -7.4666         estimate D2E/DX2                !
 ! D147  D(42,37,38,39)          6.1851         estimate D2E/DX2                !
 ! D148  D(42,37,38,80)        176.1315         estimate D2E/DX2                !
 ! D149  D(34,37,42,41)       -178.0628         estimate D2E/DX2                !
 ! D150  D(34,37,42,82)          0.8361         estimate D2E/DX2                !
 ! D151  D(38,37,42,41)         -2.0063         estimate D2E/DX2                !
 ! D152  D(38,37,42,82)        176.8926         estimate D2E/DX2                !
 ! D153  D(37,38,39,40)        -10.4095         estimate D2E/DX2                !
 ! D154  D(37,38,39,81)        178.8726         estimate D2E/DX2                !
 ! D155  D(80,38,39,40)        179.0303         estimate D2E/DX2                !
 ! D156  D(80,38,39,81)          8.3124         estimate D2E/DX2                !
 ! D157  D(38,39,40,41)         10.7366         estimate D2E/DX2                !
 ! D158  D(38,39,40,43)       -172.8091         estimate D2E/DX2                !
 ! D159  D(81,39,40,41)       -178.3079         estimate D2E/DX2                !
 ! D160  D(81,39,40,43)         -1.8535         estimate D2E/DX2                !
 ! D161  D(39,40,41,42)         -6.8456         estimate D2E/DX2                !
 ! D162  D(43,40,41,42)        176.5319         estimate D2E/DX2                !
 ! D163  D(39,40,43,44)         -3.213          estimate D2E/DX2                !
 ! D164  D(39,40,43,48)        175.6392         estimate D2E/DX2                !
 ! D165  D(41,40,43,44)        173.3327         estimate D2E/DX2                !
 ! D166  D(41,40,43,48)         -7.8152         estimate D2E/DX2                !
 ! D167  D(40,41,42,37)          2.44           estimate D2E/DX2                !
 ! D168  D(40,41,42,82)       -176.5284         estimate D2E/DX2                !
 ! D169  D(40,43,44,45)        177.3733         estimate D2E/DX2                !
 ! D170  D(48,43,44,45)         -1.4543         estimate D2E/DX2                !
 ! D171  D(40,43,48,47)       -175.1793         estimate D2E/DX2                !
 ! D172  D(40,43,48,85)          4.0223         estimate D2E/DX2                !
 ! D173  D(44,43,48,47)          3.5839         estimate D2E/DX2                !
 ! D174  D(44,43,48,85)       -177.2145         estimate D2E/DX2                !
 ! D175  D(43,44,45,46)         -1.2371         estimate D2E/DX2                !
 ! D176  D(43,44,45,83)        178.6539         estimate D2E/DX2                !
 ! D177  D(44,45,46,47)          1.6589         estimate D2E/DX2                !
 ! D178  D(44,45,46,49)        178.9284         estimate D2E/DX2                !
 ! D179  D(83,45,46,47)       -178.228          estimate D2E/DX2                !
 ! D180  D(83,45,46,49)         -0.9585         estimate D2E/DX2                !
 ! D181  D(45,46,47,48)          0.4445         estimate D2E/DX2                !
 ! D182  D(45,46,47,84)        177.7648         estimate D2E/DX2                !
 ! D183  D(49,46,47,48)       -176.7655         estimate D2E/DX2                !
 ! D184  D(49,46,47,84)          0.5548         estimate D2E/DX2                !
 ! D185  D(45,46,49,50)        -62.9421         estimate D2E/DX2                !
 ! D186  D(45,46,49,54)        112.7926         estimate D2E/DX2                !
 ! D187  D(47,46,49,50)        114.2569         estimate D2E/DX2                !
 ! D188  D(47,46,49,54)        -70.0083         estimate D2E/DX2                !
 ! D189  D(46,47,48,43)         -2.9844         estimate D2E/DX2                !
 ! D190  D(46,47,48,85)        177.78           estimate D2E/DX2                !
 ! D191  D(84,47,48,43)        179.8085         estimate D2E/DX2                !
 ! D192  D(84,47,48,85)          0.5728         estimate D2E/DX2                !
 ! D193  D(46,49,50,51)        176.8386         estimate D2E/DX2                !
 ! D194  D(46,49,50,86)         -0.2895         estimate D2E/DX2                !
 ! D195  D(54,49,50,51)          1.0026         estimate D2E/DX2                !
 ! D196  D(54,49,50,86)       -176.1255         estimate D2E/DX2                !
 ! D197  D(46,49,54,53)       -179.3889         estimate D2E/DX2                !
 ! D198  D(46,49,54,88)          6.2343         estimate D2E/DX2                !
 ! D199  D(50,49,54,53)         -3.3539         estimate D2E/DX2                !
 ! D200  D(50,49,54,88)       -177.7308         estimate D2E/DX2                !
 ! D201  D(49,50,51,52)          2.1523         estimate D2E/DX2                !
 ! D202  D(49,50,51,87)        178.8729         estimate D2E/DX2                !
 ! D203  D(86,50,51,52)        179.297          estimate D2E/DX2                !
 ! D204  D(86,50,51,87)         -3.9824         estimate D2E/DX2                !
 ! D205  D(50,51,52,53)         -3.1744         estimate D2E/DX2                !
 ! D206  D(50,51,52,55)       -179.5054         estimate D2E/DX2                !
 ! D207  D(87,51,52,53)       -179.7704         estimate D2E/DX2                !
 ! D208  D(87,51,52,55)          3.8987         estimate D2E/DX2                !
 ! D209  D(51,52,53,54)          0.9363         estimate D2E/DX2                !
 ! D210  D(55,52,53,54)        177.2295         estimate D2E/DX2                !
 ! D211  D(51,52,55,56)        -12.8126         estimate D2E/DX2                !
 ! D212  D(51,52,55,60)        170.634          estimate D2E/DX2                !
 ! D213  D(53,52,55,56)        171.145          estimate D2E/DX2                !
 ! D214  D(53,52,55,60)         -5.4084         estimate D2E/DX2                !
 ! D215  D(52,53,54,49)          2.319          estimate D2E/DX2                !
 ! D216  D(52,53,54,88)        177.0848         estimate D2E/DX2                !
 ! D217  D(52,55,56,57)       -178.2505         estimate D2E/DX2                !
 ! D218  D(60,55,56,57)         -1.8593         estimate D2E/DX2                !
 ! D219  D(52,55,60,59)       -179.917          estimate D2E/DX2                !
 ! D220  D(52,55,60,92)         -4.7012         estimate D2E/DX2                !
 ! D221  D(56,55,60,59)          3.5882         estimate D2E/DX2                !
 ! D222  D(56,55,60,92)        178.804          estimate D2E/DX2                !
 ! D223  D(55,56,57,58)         -0.0558         estimate D2E/DX2                !
 ! D224  D(55,56,57,89)       -175.7267         estimate D2E/DX2                !
 ! D225  D(56,57,58,59)          0.182          estimate D2E/DX2                !
 ! D226  D(56,57,58,90)        178.8977         estimate D2E/DX2                !
 ! D227  D(89,57,58,59)        175.4776         estimate D2E/DX2                !
 ! D228  D(89,57,58,90)         -5.8067         estimate D2E/DX2                !
 ! D229  D(57,58,59,60)          1.7694         estimate D2E/DX2                !
 ! D230  D(57,58,59,91)        175.0084         estimate D2E/DX2                !
 ! D231  D(90,58,59,60)       -176.8266         estimate D2E/DX2                !
 ! D232  D(90,58,59,91)         -3.5877         estimate D2E/DX2                !
 ! D233  D(58,59,60,55)         -3.4746         estimate D2E/DX2                !
 ! D234  D(58,59,60,92)       -178.7715         estimate D2E/DX2                !
 ! D235  D(91,59,60,55)       -176.7579         estimate D2E/DX2                !
 ! D236  D(91,59,60,92)          7.9452         estimate D2E/DX2                !
 --------------------------------------------------------------------------------
 Trust Radius=3.00D-01 FncErr=1.00D-07 GrdErr=1.00D-06 EigMax=2.50D+02 EigMin=1.00D-04
 Number of steps in this run=    507 maximum allowed number of steps=    552.
 GradGradGradGradGradGradGradGradGradGradGradGradGradGradGradGradGradGrad

 Leave Link  103 at Sat Jul 25 08:58:26 2020, MaxMem=  4026531840 cpu:               0.2 elap:               0.0
 (Enter /opt/ohpc/pub/libs/gaussian/g16-A.03/sandybridge/g16/l202.exe)
 Stoichiometry    C50H32N10
 Framework group  C1[X(C50H32N10)]
 Deg. of freedom   270
 Full point group                 C1      NOp   1
 Largest Abelian subgroup         C1      NOp   1
 Largest concise Abelian subgroup C1      NOp   1
                         Standard orientation:                         
 ---------------------------------------------------------------------
 Center     Atomic      Atomic             Coordinates (Angstroms)
 Number     Number       Type             X           Y           Z
 ---------------------------------------------------------------------
      1          6           0      -20.378401    1.005273   -0.716693
      2          6           0      -19.572146    2.154835   -0.710281
      3          6           0      -18.191898    2.016656   -0.456432
      4          6           0      -17.577254    0.789862   -0.311082
      5          7           0      -18.388563   -0.404718   -0.355870
      6          6           0      -19.729024   -0.190351   -0.516227
      7          6           0      -16.148322    0.553960   -0.082388
      8          7           0      -15.343048    1.640188   -0.107141
      9          6           0      -14.018171    1.446547    0.085436
     10          6           0      -13.380544    0.221129    0.260788
     11          6           0      -14.244803   -0.827940    0.177450
     12          6           0      -15.643041   -0.706873   -0.034157
     13          6           0      -11.905887    0.136061    0.372873
     14          6           0      -11.382829   -0.667714    1.339745
     15          6           0       -9.948776   -0.828673    1.472160
     16          6           0       -9.137266   -0.154034    0.535454
     17          7           0       -9.718017    0.647804   -0.482391
     18          6           0      -11.076084    0.706461   -0.534303
     19          6           0       -7.779712   -0.342280    0.505954
     20          7           0       -6.987844    0.745045    0.856804
     21          6           0       -5.608818    0.627893    0.699766
     22          6           0       -4.998095   -0.631886    0.354037
     23          6           0       -5.754557   -1.688998    0.042048
     24          6           0       -7.149281   -1.607283    0.197361
     25          6           0       -3.548884   -0.679768    0.198243
     26          6           0       -2.872391   -1.218017   -0.922316
     27          6           0       -1.539287   -1.331779   -0.988740
     28          6           0       -0.690481   -0.750389    0.039013
     29          7           0       -1.287423   -0.134634    1.156547
     30          6           0       -2.692748   -0.129651    1.162826
     31          6           0        0.748844   -0.660917   -0.117056
     32          7           0        1.432070   -1.810017    0.090981
     33          6           0        2.783786   -1.762803    0.009462
     34          6           0        3.472910   -0.598337   -0.288679
     35          6           0        2.755273    0.518677   -0.539209
     36          6           0        1.351411    0.507738   -0.446217
     37          6           0        4.964783   -0.624372   -0.242041
     38          6           0        5.663367   -0.219950   -1.406872
     39          6           0        7.048282   -0.265916   -1.463332
     40          6           0        7.726260   -0.513337   -0.241801
     41          7           0        7.013319   -0.915635    0.885619
     42          6           0        5.694272   -0.917167    0.799986
     43          6           0        9.236657   -0.432795   -0.122366
     44          7           0        9.917343   -0.169467   -1.301414
     45          6           0       11.242010   -0.032608   -1.260045
     46          6           0       11.955268   -0.126248   -0.030440
     47          6           0       11.252988   -0.399346    1.136904
     48          6           0        9.842304   -0.583666    1.045743
     49          6           0       13.445308    0.009756   -0.033026
     50          6           0       14.298948   -0.865711   -0.683889
     51          6           0       15.651744   -0.551088   -0.639342
     52          6           0       16.206033    0.542419    0.039806
     53          7           0       15.292290    1.378676    0.644030
     54          6           0       14.022994    1.105536    0.568222
     55          6           0       17.627028    0.808943    0.029869
     56          7           0       18.465238   -0.092007   -0.401543
     57          6           0       19.830416    0.183391   -0.363080
     58          6           0       20.314765    1.390432    0.121047
     59          6           0       19.431318    2.321374    0.570677
     60          6           0       18.083817    2.100789    0.597288
     61          1           0      -21.444651    1.139183   -0.854982
     62          1           0      -20.015090    3.185340   -0.805258
     63          1           0      -17.548289    2.958285   -0.435074
     64          1           0      -20.324928   -1.128341   -0.547576
     65          1           0      -13.466513    2.364489    0.158075
     66          1           0      -13.834028   -1.901062    0.287160
     67          1           0      -16.219928   -1.567453   -0.059585
     68          1           0      -12.017529   -1.141913    2.075447
     69          1           0       -9.593141   -1.393456    2.236919
     70          1           0      -11.408694    1.305092   -1.330547
     71          1           0       -5.031834    1.523442    0.910375
     72          1           0       -5.342559   -2.697671   -0.175071
     73          1           0       -7.776475   -2.458366   -0.060661
     74          1           0       -3.502692   -1.640404   -1.752165
     75          1           0       -1.044402   -1.727566   -1.830507
     76          1           0       -3.014186    0.367999    2.077770
     77          1           0        3.251182   -2.745827    0.205245
     78          1           0        3.202832    1.474267   -0.735889
     79          1           0        0.748104    1.391671   -0.590188
     80          1           0        5.163114   -0.016169   -2.333794
     81          1           0        7.578957    0.006528   -2.304373
     82          1           0        5.209222   -1.190091    1.756104
     83          1           0       11.724678    0.139323   -2.138256
     84          1           0       11.809628   -0.508124    2.079425
     85          1           0        9.309697   -0.828984    1.937434
     86          1           0       13.925897   -1.739134   -1.249236
     87          1           0       16.316523   -1.266031   -1.143940
     88          1           0       13.372039    1.862997    1.166957
     89          1           0       20.484030   -0.605695   -0.818774
     90          1           0       21.377532    1.503690    0.128165
     91          1           0       19.829656    3.272724    1.045339
     92          1           0       17.421783    2.837612    0.929261
 ---------------------------------------------------------------------
 Rotational constants (GHZ):           0.4143060           0.0043823           0.0043664
 Leave Link  202 at Sat Jul 25 08:58:26 2020, MaxMem=  4026531840 cpu:               0.1 elap:               0.0
 (Enter /opt/ohpc/pub/libs/gaussian/g16-A.03/sandybridge/g16/l301.exe)
 Standard basis: CC-pVDZ (5D, 7F)
 Ernie: Thresh=  0.10000D-02 Tol=  0.10000D-05 Strict=F.
 Ernie:  120 primitive shells out of 1480 were deleted.
 There are  1060 symmetry adapted cartesian basis functions of A   symmetry.
 There are  1000 symmetry adapted basis functions of A   symmetry.
  1000 basis functions,  2204 primitive gaussians,  1060 cartesian basis functions
   201 alpha electrons      201 beta electrons
       nuclear repulsion energy      5845.2406942617 Hartrees.
 IExCor=32609 DFT=T Ex+Corr=LC-wPBE ExCW=0 ScaHFX=  1.000000
 ScaDFX=  1.000000  0.000000  1.000000  1.000000 ScalE2=  1.000000  1.000000
 IRadAn=      5 IRanWt=     -1 IRanGd=            0 ICorTp=0 IEmpDi=  4
 HFx  wShort=  0.000000 wLong=  0.078300 cFull=  0.000000 cShort=  0.000000 cLong=  1.000000
 DFx  wShort=  0.000000 wLong=  0.078300 cFull=  0.000000 cShort=  0.000000 cLong=  1.000000
 NAtoms=   92 NActive=   92 NUniq=   92 SFac= 1.00D+00 NAtFMM=   60 NAOKFM=T Big=T
 Integral buffers will be    131072 words long.
 Raffenetti 2 integral format.
 Two-electron integral symmetry is turned on.
 Leave Link  301 at Sat Jul 25 08:58:26 2020, MaxMem=  4026531840 cpu:               0.4 elap:               0.1
 (Enter /opt/ohpc/pub/libs/gaussian/g16-A.03/sandybridge/g16/l302.exe)
 NPDir=0 NMtPBC=     1 NCelOv=     1 NCel=       1 NClECP=     1 NCelD=      1
         NCelK=      1 NCelE2=     1 NClLst=     1 CellRange=     0.0.
 One-electron integrals computed using PRISM.
 One-electron integral symmetry used in STVInt
 NBasis=  1000 RedAO= T EigKep=  3.51D-04  NBF=  1000
 NBsUse=  1000 1.00D-06 EigRej= -1.00D+00 NBFU=  1000
 Precomputing XC quadrature grid using
 IXCGrd= 4 IRadAn=           5 IRanWt=          -1 IRanGd=           0 AccXCQ= 0.00D+00.
 Generated NRdTot=       0 NPtTot=           0 NUsed=           0 NTot=          32
 NSgBfM=   582   582   582   582   582 MxSgAt=    92 MxSgA2=    79.
 Leave Link  302 at Sat Jul 25 08:58:30 2020, MaxMem=  4026531840 cpu:              26.5 elap:               3.4
 (Enter /opt/ohpc/pub/libs/gaussian/g16-A.03/sandybridge/g16/l303.exe)
 DipDrv:  MaxL=1.
 Leave Link  303 at Sat Jul 25 08:58:30 2020, MaxMem=  4026531840 cpu:               1.5 elap:               0.2
 (Enter /opt/ohpc/pub/libs/gaussian/g16-A.03/sandybridge/g16/l401.exe)
 ExpMin= 1.22D-01 ExpMax= 9.05D+03 ExpMxC= 3.09D+02 IAcc=3 IRadAn=         5 AccDes= 0.00D+00
 Harris functional with IExCor=32609 and IRadAn=       5 diagonalized for initial guess.
 HarFok:  IExCor=32609 AccDes= 0.00D+00 IRadAn=         5 IDoV= 1 UseB2=F ITyADJ=14
 ICtDFT=  3500011 ScaDFX=  1.000000  1.000000  1.000000  1.000000
 FoFCou: FMM=F IPFlag=           0 FMFlag=      100000 FMFlg1=        2001
         NFxFlg=           0 DoJE=T BraDBF=F KetDBF=T FulRan=T
         wScrn=  0.000000 ICntrl=       500 IOpCl=  0 I1Cent=   200000004 NGrid=           0
         NMat0=    1 NMatS0=      1 NMatT0=    0 NMatD0=    1 NMtDS0=    0 NMtDT0=    0
 Petite list used in FoFCou.
 Harris En= -2469.91739317472    
 JPrj=0 DoOrth=F DoCkMO=F.
 Initial guess <Sx>= 0.0000 <Sy>= 0.0000 <Sz>= 0.0000 <S**2>=-0.0000 S=-0.0000
 Leave Link  401 at Sat Jul 25 08:58:41 2020, MaxMem=  4026531840 cpu:              88.1 elap:              11.1
 (Enter /opt/ohpc/pub/libs/gaussian/g16-A.03/sandybridge/g16/l502.exe)
 Integral symmetry usage will be decided dynamically.
 UHF open shell SCF:
 Using DIIS extrapolation, IDIIS=  1040.
 NGot=  4026531840 LenX=  4024265504 LenY=  4023140844
 Requested convergence on RMS density matrix=1.00D-08 within 128 cycles.
 Requested convergence on MAX density matrix=1.00D-06.
 Requested convergence on             energy=1.00D-06.
 No special actions if energy rises.
 Fock matrices will be formed incrementally for  20 cycles.
 Integral accuracy reduced to 1.0D-05 until final iterations.

 Cycle   1  Pass 0  IDiag  1:
 FoFJK:  IHMeth= 1 ICntrl=       0 DoSepK=T KAlg= 0 I1Cent=           0 FoldK=F
 IRaf=         1 NMat=       1 IRICut=       1 DoRegI=T DoRafI=F ISym2E= 0 IDoP0=0 IntGTp=1.
 FoFCou: FMM=T IPFlag=           0 FMFlag=      100000 FMFlg1=        2001
         NFxFlg=           0 DoJE=T BraDBF=F KetDBF=F FulRan=T
         wScrn=  0.000000 ICntrl=       500 IOpCl=  0 I1Cent=           0 NGrid=           0
         NMat0=    1 NMatS0=      1 NMatT0=    0 NMatD0=    1 NMtDS0=    0 NMtDT0=    0
 Symmetry not used in FoFCou.
 FMM levels:  10  Number of levels for PrismC:   9
 E= -2468.89281025302    
 DIIS: error= 1.35D-02 at cycle   1 NSaved=   1.
 NSaved= 1 IEnMin= 1 EnMin= -2468.89281025302     IErMin= 1 ErrMin= 1.35D-02
 ErrMax= 1.35D-02  0.00D+00 EMaxC= 1.00D-01 BMatC= 2.18D+00 BMatP= 2.18D+00
 IDIUse=3 WtCom= 8.65D-01 WtEn= 1.35D-01
 Coeff-Com:  0.100D+01
 Coeff-En:   0.100D+01
 Coeff:      0.100D+01
 Gap=     0.199 Goal=   None    Shift=    0.000
 Gap=     0.199 Goal=   None    Shift=    0.000
 GapD=    0.199 DampG=1.000 DampE=0.500 DampFc=0.5000 IDamp=-1.
 Damping current iteration by 5.00D-01
 RMSDP=1.89D-03 MaxDP=9.26D-02              OVMax= 1.36D-01

 Cycle   2  Pass 0  IDiag  1:
 RMSU=  9.36D-04    CP:  9.87D-01
 E= -2469.20201540074     Delta-E=       -0.309205147722 Rises=F Damp=T
 DIIS: error= 2.41D-03 at cycle   2 NSaved=   2.
 NSaved= 2 IEnMin= 2 EnMin= -2469.20201540074     IErMin= 2 ErrMin= 2.41D-03
 ErrMax= 2.41D-03  0.00D+00 EMaxC= 1.00D-01 BMatC= 1.44D-01 BMatP= 2.18D+00
 IDIUse=3 WtCom= 9.76D-01 WtEn= 2.41D-02
 Coeff-Com:  0.330D-01 0.967D+00
 Coeff-En:   0.000D+00 0.100D+01
 Coeff:      0.322D-01 0.968D+00
 Gap=     0.190 Goal=   None    Shift=    0.000
 Gap=     0.190 Goal=   None    Shift=    0.000
 RMSDP=6.13D-04 MaxDP=3.53D-02 DE=-3.09D-01 OVMax= 1.15D-01

 Cycle   3  Pass 0  IDiag  1:
 RMSU=  5.75D-04    CP:  9.85D-01  1.23D+00
 E= -2469.49780838889     Delta-E=       -0.295792988145 Rises=F Damp=F
 DIIS: error= 3.97D-03 at cycle   3 NSaved=   3.
 NSaved= 3 IEnMin= 3 EnMin= -2469.49780838889     IErMin= 2 ErrMin= 2.41D-03
 ErrMax= 3.97D-03  0.00D+00 EMaxC= 1.00D-01 BMatC= 2.11D-01 BMatP= 1.44D-01
 IDIUse=3 WtCom= 1.37D-01 WtEn= 8.63D-01
 Coeff-Com: -0.352D-01 0.571D+00 0.464D+00
 Coeff-En:   0.000D+00 0.000D+00 0.100D+01
 Coeff:     -0.482D-02 0.782D-01 0.927D+00
 Gap=     0.209 Goal=   None    Shift=    0.000
 Gap=     0.209 Goal=   None    Shift=    0.000
 RMSDP=7.11D-04 MaxDP=5.41D-02 DE=-2.96D-01 OVMax= 9.18D-02

 Cycle   4  Pass 0  IDiag  1:
 RMSU=  3.79D-04    CP:  9.84D-01  1.17D+00 -4.11D-02
 E= -2469.35456222754     Delta-E=        0.143246161348 Rises=F Damp=F
 DIIS: error= 7.71D-03 at cycle   4 NSaved=   4.
 NSaved= 4 IEnMin= 3 EnMin= -2469.49780838889     IErMin= 2 ErrMin= 2.41D-03
 ErrMax= 7.71D-03  0.00D+00 EMaxC= 1.00D-01 BMatC= 7.45D-01 BMatP= 1.44D-01
 IDIUse=3 WtCom= 1.02D-01 WtEn= 8.98D-01
 Coeff-Com:  0.300D-02 0.179D+00 0.570D+00 0.248D+00
 Coeff-En:   0.000D+00 0.000D+00 0.725D+00 0.275D+00
 Coeff:      0.307D-03 0.183D-01 0.710D+00 0.272D+00
 Gap=     0.191 Goal=   None    Shift=    0.000
 Gap=     0.191 Goal=   None    Shift=    0.000
 RMSDP=3.70D-04 MaxDP=2.60D-02 DE= 1.43D-01 OVMax= 5.91D-02

 Cycle   5  Pass 0  IDiag  1:
 RMSU=  6.19D-05    CP:  9.85D-01  1.17D+00  4.72D-01  4.32D-01
 E= -2469.54737398562     Delta-E=       -0.192811758085 Rises=F Damp=F
 DIIS: error= 1.72D-03 at cycle   5 NSaved=   5.
 NSaved= 5 IEnMin= 5 EnMin= -2469.54737398562     IErMin= 5 ErrMin= 1.72D-03
 ErrMax= 1.72D-03  0.00D+00 EMaxC= 1.00D-01 BMatC= 3.01D-02 BMatP= 1.44D-01
 IDIUse=3 WtCom= 9.83D-01 WtEn= 1.72D-02
 Coeff-Com:  0.928D-02 0.360D-01 0.382D+00 0.108D+00 0.465D+00
 Coeff-En:   0.000D+00 0.000D+00 0.146D+00 0.000D+00 0.854D+00
 Coeff:      0.912D-02 0.354D-01 0.378D+00 0.106D+00 0.472D+00
 Gap=     0.190 Goal=   None    Shift=    0.000
 Gap=     0.190 Goal=   None    Shift=    0.000
 RMSDP=9.35D-05 MaxDP=8.53D-03 DE=-1.93D-01 OVMax= 1.34D-02

 Cycle   6  Pass 0  IDiag  1:
 RMSU=  2.70D-05    CP:  9.85D-01  1.18D+00  5.98D-01  3.22D-01  5.02D-01
 E= -2469.55535717558     Delta-E=       -0.007983189957 Rises=F Damp=F
 DIIS: error= 1.68D-04 at cycle   6 NSaved=   6.
 NSaved= 6 IEnMin= 6 EnMin= -2469.55535717558     IErMin= 6 ErrMin= 1.68D-04
 ErrMax= 1.68D-04  0.00D+00 EMaxC= 1.00D-01 BMatC= 3.44D-04 BMatP= 3.01D-02
 IDIUse=3 WtCom= 9.98D-01 WtEn= 1.68D-03
 Coeff-Com:  0.426D-02-0.503D-02 0.112D+00 0.148D-01 0.256D+00 0.618D+00
 Coeff-En:   0.000D+00 0.000D+00 0.000D+00 0.000D+00 0.000D+00 0.100D+01
 Coeff:      0.425D-02-0.502D-02 0.112D+00 0.148D-01 0.256D+00 0.619D+00
 Gap=     0.190 Goal=   None    Shift=    0.000
 Gap=     0.190 Goal=   None    Shift=    0.000
 RMSDP=2.03D-05 MaxDP=1.25D-03 DE=-7.98D-03 OVMax= 1.76D-03

 Cycle   7  Pass 0  IDiag  1:
 RMSU=  1.85D-05    CP:  9.85D-01  1.18D+00  6.01D-01  3.29D-01  6.20D-01
                    CP:  9.00D-01
 E= -2469.55543313901     Delta-E=       -0.000075963428 Rises=F Damp=F
 DIIS: error= 7.41D-05 at cycle   7 NSaved=   7.
 NSaved= 7 IEnMin= 7 EnMin= -2469.55543313901     IErMin= 7 ErrMin= 7.41D-05
 ErrMax= 7.41D-05  0.00D+00 EMaxC= 1.00D-01 BMatC= 6.20D-05 BMatP= 3.44D-04
 IDIUse=1 WtCom= 1.00D+00 WtEn= 0.00D+00
 Coeff-Com:  0.209D-02-0.467D-02 0.451D-01 0.184D-02 0.129D+00 0.383D+00
 Coeff-Com:  0.444D+00
 Coeff:      0.209D-02-0.467D-02 0.451D-01 0.184D-02 0.129D+00 0.383D+00
 Coeff:      0.444D+00
 Gap=     0.190 Goal=   None    Shift=    0.000
 Gap=     0.190 Goal=   None    Shift=    0.000
 RMSDP=1.48D-05 MaxDP=4.36D-04 DE=-7.60D-05 OVMax= 6.77D-04

 Cycle   8  Pass 0  IDiag  1:
 RMSU=  1.27D-05    CP:  9.85D-01  1.18D+00  6.02D-01  3.31D-01  6.38D-01
                    CP:  1.10D+00  1.26D+00
 E= -2469.55544406836     Delta-E=       -0.000010929356 Rises=F Damp=F
 DIIS: error= 7.16D-05 at cycle   8 NSaved=   8.
 NSaved= 8 IEnMin= 8 EnMin= -2469.55544406836     IErMin= 8 ErrMin= 7.16D-05
 ErrMax= 7.16D-05  0.00D+00 EMaxC= 1.00D-01 BMatC= 2.50D-05 BMatP= 6.20D-05
 IDIUse=1 WtCom= 1.00D+00 WtEn= 0.00D+00
 Coeff-Com:  0.167D-02-0.377D-02 0.351D-01 0.111D-02 0.102D+00 0.305D+00
 Coeff-Com:  0.371D+00 0.189D+00
 Coeff:      0.167D-02-0.377D-02 0.351D-01 0.111D-02 0.102D+00 0.305D+00
 Coeff:      0.371D+00 0.189D+00
 Gap=     0.190 Goal=   None    Shift=    0.000
 Gap=     0.190 Goal=   None    Shift=    0.000
 RMSDP=8.59D-06 MaxDP=2.23D-04 DE=-1.09D-05 OVMax= 6.85D-05

[...]
    34 C(13)  Bbb     0.0000     0.000     0.000     0.000 -0.5493  0.3049  0.7780
              Bcc     0.0000     0.000     0.000     0.000 -0.3847  0.7342 -0.5594
 
              Baa    -0.0000    -0.000    -0.000    -0.000 -0.6398  0.6545  0.4028
    35 C(13)  Bbb    -0.0000    -0.000    -0.000    -0.000 -0.0266 -0.5426  0.8396
              Bcc     0.0000     0.000     0.000     0.000  0.7681  0.5264  0.3646
 
              Baa    -0.0000    -0.000    -0.000    -0.000 -0.0116 -0.6821  0.7312
    36 C(13)  Bbb    -0.0000    -0.000    -0.000    -0.000  0.1803  0.7178  0.6725
              Bcc     0.0000     0.000     0.000     0.000  0.9835 -0.1396 -0.1147
 
              Baa    -0.0000    -0.000    -0.000    -0.000  0.7680  0.6309  0.1096
    37 C(13)  Bbb     0.0000     0.000     0.000     0.000 -0.6401  0.7619  0.0993
              Bcc     0.0000     0.000     0.000     0.000 -0.0208 -0.1464  0.9890
 
              Baa    -0.0000    -0.000    -0.000    -0.000 -0.0438  0.9990  0.0123
    38 C(13)  Bbb     0.0000     0.000     0.000     0.000  0.1476 -0.0057  0.9890
              Bcc     0.0000     0.000     0.000     0.000  0.9881  0.0451 -0.1472
 
              Baa    -0.0000    -0.000    -0.000    -0.000  0.9897  0.1424 -0.0130
    39 C(13)  Bbb     0.0000     0.000     0.000     0.000 -0.1386  0.9775  0.1591
              Bcc     0.0000     0.000     0.000     0.000  0.0354 -0.1557  0.9872
 
              Baa    -0.0000    -0.000    -0.000    -0.000 -0.1549  0.9879 -0.0002
    40 C(13)  Bbb     0.0000     0.000     0.000     0.000  0.9820  0.1540 -0.1093
              Bcc     0.0000     0.000     0.000     0.000  0.1080  0.0171  0.9940
 
              Baa    -0.0000    -0.000    -0.000    -0.000 -0.2160  0.9754 -0.0441
    41 N(14)  Bbb    -0.0000    -0.000    -0.000    -0.000  0.9748  0.2180  0.0474
              Bcc     0.0000     0.000     0.000     0.000 -0.0559  0.0328  0.9979
 
              Baa    -0.0000    -0.000    -0.000    -0.000 -0.0223  0.1284  0.9915
    42 C(13)  Bbb    -0.0000    -0.000    -0.000    -0.000 -0.3179  0.9393 -0.1288
              Bcc     0.0000     0.000     0.000     0.000  0.9479  0.3181 -0.0199
 
              Baa    -0.0000    -0.000    -0.000    -0.000  0.9427 -0.3335 -0.0043
    43 C(13)  Bbb    -0.0000    -0.000    -0.000    -0.000  0.3333  0.9424 -0.0276
              Bcc     0.0000     0.000     0.000     0.000  0.0132  0.0246  0.9996
 
              Baa    -0.0000    -0.000    -0.000    -0.000  0.0206 -0.0641  0.9977
    44 N(14)  Bbb    -0.0000    -0.000    -0.000    -0.000  0.3453  0.9370  0.0530
              Bcc     0.0000     0.000     0.000     0.000  0.9383 -0.3434 -0.0415
 
              Baa    -0.0000    -0.000    -0.000    -0.000 -0.5459  0.0462  0.8366
    45 C(13)  Bbb    -0.0000    -0.000    -0.000    -0.000  0.8308 -0.0996  0.5476
              Bcc     0.0000     0.000     0.000     0.000  0.1087  0.9939  0.0160
 
              Baa    -0.0000    -0.000    -0.000    -0.000  0.9168  0.3799  0.1228
    46 C(13)  Bbb     0.0000     0.000     0.000     0.000 -0.3750  0.9250 -0.0616
              Bcc     0.0000     0.000     0.000     0.000 -0.1370  0.0105  0.9905
 
              Baa    -0.0000    -0.000    -0.000    -0.000  0.1900  0.9811  0.0354
    47 C(13)  Bbb    -0.0000    -0.000    -0.000    -0.000  0.0549 -0.0467  0.9974
              Bcc     0.0000     0.000     0.000     0.000  0.9802 -0.1876 -0.0627
 
              Baa    -0.0000    -0.000    -0.000    -0.000 -0.0623  0.9967 -0.0528
    48 C(13)  Bbb    -0.0000    -0.000    -0.000    -0.000 -0.0958  0.0467  0.9943
              Bcc     0.0000     0.000     0.000     0.000  0.9934  0.0670  0.0926
 
              Baa    -0.0000    -0.000    -0.000    -0.000  0.9661  0.0494 -0.2534
    49 C(13)  Bbb     0.0000     0.000     0.000     0.000  0.1977  0.4898  0.8491
              Bcc     0.0000     0.000     0.000     0.000 -0.1661  0.8704 -0.4635
 
              Baa    -0.0000    -0.000    -0.000    -0.000  0.9235  0.2363 -0.3021
    50 C(13)  Bbb     0.0000     0.000     0.000     0.000 -0.2895  0.9461 -0.1450
              Bcc     0.0000     0.000     0.000     0.000  0.2516  0.2214  0.9422
 
              Baa    -0.0000    -0.000    -0.000    -0.000  0.6098  0.6592 -0.4399
    51 C(13)  Bbb     0.0000     0.000     0.000     0.000  0.7343 -0.6788  0.0008
              Bcc     0.0000     0.000     0.000     0.000  0.2981  0.3235  0.8980
 
              Baa    -0.0000    -0.000    -0.000    -0.000  0.9953 -0.0202  0.0949
    52 C(13)  Bbb     0.0000     0.000     0.000     0.000  0.0617  0.8867 -0.4581
              Bcc     0.0000     0.000     0.000     0.000 -0.0748  0.4618  0.8838
 
              Baa    -0.0000    -0.000    -0.000    -0.000 -0.2908  0.9566 -0.0193
    53 N(14)  Bbb    -0.0000    -0.000    -0.000    -0.000  0.8694  0.2557 -0.4228
              Bcc     0.0000     0.000     0.000     0.000  0.3995  0.1397  0.9060
 
              Baa    -0.0000    -0.000    -0.000    -0.000  0.7771 -0.3797  0.5019
    54 C(13)  Bbb    -0.0000    -0.000    -0.000    -0.000  0.6293  0.4564 -0.6291
              Bcc     0.0000     0.000     0.000     0.000  0.0098  0.8047  0.5936
 
              Baa    -0.0000    -0.000    -0.000    -0.000  0.0156 -0.6868  0.7267
    55 C(13)  Bbb    -0.0000    -0.000    -0.000    -0.000 -0.1542  0.7165  0.6804
              Bcc     0.0000     0.000     0.000     0.000  0.9879  0.1227  0.0948
 
              Baa    -0.0000    -0.000    -0.000    -0.000  0.1526  0.3986  0.9043
    56 N(14)  Bbb     0.0000     0.000     0.000     0.000  0.8391 -0.5356  0.0945
              Bcc     0.0000     0.000     0.000     0.000  0.5221  0.7444 -0.4162
 
              Baa    -0.0000    -0.000    -0.000    -0.000  0.0919  0.5670  0.8185
    57 C(13)  Bbb     0.0000     0.000     0.000     0.000  0.9531 -0.2883  0.0927
              Bcc     0.0000     0.000     0.000     0.000  0.2885  0.7716 -0.5669
 
              Baa    -0.0000    -0.000    -0.000    -0.000  0.8658 -0.3848  0.3200
    58 C(13)  Bbb     0.0000     0.000     0.000     0.000 -0.1165  0.4669  0.8766
              Bcc     0.0000     0.000     0.000     0.000  0.4867  0.7962 -0.3594
 
              Baa    -0.0000    -0.000    -0.000    -0.000  0.0152  0.5436  0.8392
    59 C(13)  Bbb     0.0000     0.000     0.000     0.000  0.7306  0.5670 -0.3806
              Bcc     0.0000     0.000     0.000     0.000  0.6827 -0.6189  0.3885
 
              Baa    -0.0000    -0.000    -0.000    -0.000  0.0110  0.5836  0.8120
    60 C(13)  Bbb    -0.0000    -0.000    -0.000    -0.000  0.1187  0.8055 -0.5806
              Bcc     0.0000     0.000     0.000     0.000  0.9929 -0.1028  0.0604
 
              Baa    -0.0000    -0.000    -0.000    -0.000  0.9719 -0.2259  0.0666
    61 H(1)   Bbb     0.0000     0.000     0.000     0.000  0.2219  0.9731  0.0623
              Bcc     0.0000     0.000     0.000     0.000 -0.0789 -0.0458  0.9958
 
              Baa    -0.0000    -0.000    -0.000    -0.000 -0.1906  0.9494  0.2495
    62 H(1)   Bbb     0.0000     0.000     0.000     0.000 -0.5599 -0.3139  0.7668
              Bcc     0.0000     0.000     0.000     0.000  0.8064  0.0064  0.5914
 
              Baa    -0.0000    -0.000    -0.000    -0.000  0.6542  0.7476  0.1142
    63 H(1)   Bbb     0.0000     0.000     0.000     0.000  0.7562 -0.6445 -0.1132
              Bcc     0.0000     0.000     0.000     0.000  0.0110 -0.1604  0.9870
 
              Baa    -0.0000    -0.000    -0.000    -0.000  0.9804 -0.1693 -0.1008
    64 H(1)   Bbb    -0.0000    -0.000    -0.000    -0.000  0.0622 -0.2196  0.9736
              Bcc     0.0000     0.000     0.000     0.000  0.1870  0.9608  0.2048
 
              Baa    -0.0000    -0.000    -0.000    -0.000 -0.5448  0.8355  0.0714
    65 H(1)   Bbb     0.0000     0.000     0.000     0.000 -0.1438 -0.1769  0.9737
              Bcc     0.0000     0.000     0.000     0.000  0.8262  0.5202  0.2165
 
              Baa    -0.0000    -0.000    -0.000    -0.000 -0.4312  0.2122  0.8770
    66 H(1)   Bbb    -0.0000    -0.000    -0.000    -0.000 -0.3482  0.8576 -0.3787
              Bcc     0.0000     0.000     0.000     0.000  0.8324  0.4686  0.2959
 
              Baa    -0.0000    -0.000    -0.000    -0.000  0.0382 -0.2054  0.9779
    67 H(1)   Bbb    -0.0000    -0.000    -0.000    -0.000 -0.6957  0.6971  0.1736
              Bcc     0.0000     0.000     0.000     0.000  0.7173  0.6870  0.1162
 
              Baa    -0.0000    -0.000    -0.000    -0.000  0.4025  0.2772  0.8724
    68 H(1)   Bbb    -0.0000    -0.000    -0.000    -0.000 -0.6427  0.7642  0.0537
              Bcc     0.0000     0.000     0.000     0.000  0.6519  0.5823 -0.4858
 
              Baa    -0.0000    -0.000    -0.000    -0.000 -0.2240  0.5241  0.8217
    69 H(1)   Bbb    -0.0000    -0.000    -0.000    -0.000  0.9468  0.3168  0.0560
              Bcc     0.0000     0.000     0.000     0.000 -0.2309  0.7906 -0.5672
 
              Baa    -0.0000    -0.000    -0.000    -0.000 -0.4476  0.0492  0.8929
    70 H(1)   Bbb    -0.0000    -0.000    -0.000    -0.000  0.5326  0.8167  0.2220
              Bcc     0.0000     0.000     0.000     0.000  0.7183 -0.5749  0.3918
 
              Baa    -0.0000    -0.000    -0.000    -0.000  0.6590  0.7470 -0.0873
    71 H(1)   Bbb     0.0000     0.000     0.000     0.000 -0.2169  0.2999  0.9290
              Bcc     0.0000     0.000     0.000     0.000  0.7202 -0.5933  0.3596
 
              Baa    -0.0000    -0.000    -0.000    -0.000  0.5712  0.1961  0.7970
    72 H(1)   Bbb    -0.0000    -0.000    -0.000    -0.000  0.7511  0.2667 -0.6039
              Bcc     0.0000     0.000     0.000     0.000 -0.3310  0.9436  0.0051
 
              Baa    -0.0000    -0.000    -0.000    -0.000 -0.0703 -0.0497  0.9963
    73 H(1)   Bbb    -0.0000    -0.000    -0.000    -0.000  0.8159 -0.5775  0.0288
              Bcc     0.0000     0.000     0.000     0.000  0.5739  0.8149  0.0812
 
              Baa    -0.0000    -0.000    -0.000    -0.000  0.3538  0.7825  0.5124
    74 H(1)   Bbb     0.0000     0.000     0.000     0.000 -0.4835 -0.3160  0.8163
              Bcc     0.0000     0.000     0.000     0.000  0.8007 -0.5365  0.2665
 
              Baa    -0.0000    -0.000    -0.000    -0.000  0.1114 -0.5116  0.8520
    75 H(1)   Bbb     0.0000     0.000     0.000     0.000  0.9935  0.0387 -0.1067
              Bcc     0.0000     0.000     0.000     0.000  0.0216  0.8584  0.5126
 
              Baa    -0.0000    -0.000    -0.000    -0.000 -0.5470  0.6703  0.5014
    76 H(1)   Bbb     0.0000     0.000     0.000     0.000  0.3773  0.7321 -0.5671
              Bcc     0.0000     0.000     0.000     0.000  0.7472  0.1210  0.6534
 
              Baa    -0.0000    -0.000    -0.000    -0.000  0.4282  0.6568 -0.6207
    77 H(1)   Bbb    -0.0000    -0.000    -0.000    -0.000  0.8716 -0.1186  0.4757
              Bcc     0.0000     0.000     0.000     0.000 -0.2388  0.7447  0.6232
 
              Baa    -0.0000    -0.000    -0.000    -0.000  0.1593 -0.5951  0.7877
    78 H(1)   Bbb    -0.0000    -0.000    -0.000    -0.000  0.9872  0.1030 -0.1218
              Bcc     0.0000     0.000     0.000     0.000 -0.0087  0.7970  0.6039
 
              Baa    -0.0000    -0.000    -0.000    -0.000 -0.6270  0.4231  0.6541
    79 H(1)   Bbb    -0.0000    -0.000    -0.000    -0.000 -0.2259  0.7049 -0.6724
              Bcc     0.0000     0.000     0.000     0.000  0.7456  0.5693  0.3464
 
              Baa    -0.0000    -0.000    -0.000    -0.000 -0.5881  0.8084 -0.0267
    80 H(1)   Bbb     0.0000     0.000     0.000     0.000  0.7178  0.5065 -0.4777
              Bcc     0.0000     0.000     0.000     0.000  0.3726  0.3001  0.8781
 
              Baa    -0.0000    -0.000    -0.000    -0.000  0.3940  0.9191  0.0006
    81 H(1)   Bbb     0.0000     0.000     0.000     0.000  0.0040 -0.0024  1.0000
              Bcc     0.0000     0.000     0.000     0.000  0.9191 -0.3940 -0.0047
 
              Baa    -0.0000    -0.000    -0.000    -0.000  0.7535  0.6550 -0.0566
    82 H(1)   Bbb     0.0000     0.000     0.000     0.000 -0.5968  0.7175  0.3592
              Bcc     0.0000     0.000     0.000     0.000  0.2759 -0.2368  0.9316
 
              Baa    -0.0000    -0.000    -0.000    -0.000  0.9837 -0.0594 -0.1695
    83 H(1)   Bbb    -0.0000    -0.000    -0.000    -0.000  0.0445  0.9949 -0.0906
              Bcc     0.0000     0.000     0.000     0.000  0.1740  0.0815  0.9814
 
              Baa    -0.0000    -0.000    -0.000    -0.000  0.8633 -0.4978 -0.0832
    84 H(1)   Bbb     0.0000     0.000     0.000     0.000  0.4887  0.8657 -0.1084
              Bcc     0.0000     0.000     0.000     0.000  0.1260  0.0529  0.9906
 
              Baa    -0.0000    -0.000    -0.000    -0.000  0.9520 -0.2949 -0.0816
    85 H(1)   Bbb    -0.0000    -0.000    -0.000    -0.000  0.0679 -0.0563  0.9961
              Bcc     0.0000     0.000     0.000     0.000  0.2983  0.9539  0.0335
 
              Baa    -0.0000    -0.000    -0.000    -0.000  0.7540 -0.4071  0.5155
    86 H(1)   Bbb     0.0000     0.000     0.000     0.000  0.6455  0.6046 -0.4667
              Bcc     0.0000     0.000     0.000     0.000 -0.1217  0.6847  0.7186
 
              Baa    -0.0000    -0.000    -0.000    -0.000  0.6421  0.6195 -0.4517
    87 H(1)   Bbb     0.0000     0.000     0.000     0.000  0.0427  0.5593  0.8278
              Bcc     0.0000     0.000     0.000     0.000  0.7654 -0.5508  0.3327
 
              Baa    -0.0000    -0.000    -0.000    -0.000  0.6946 -0.6523  0.3035
    88 H(1)   Bbb    -0.0000    -0.000    -0.000    -0.000  0.1902  0.5734  0.7969
              Bcc     0.0000     0.000     0.000     0.000  0.6938  0.4958 -0.5223
 
              Baa    -0.0000    -0.000    -0.000    -0.000 -0.3310  0.6513  0.6829
    89 H(1)   Bbb    -0.0000    -0.000    -0.000    -0.000  0.8554 -0.0985  0.5086
              Bcc     0.0000     0.000     0.000     0.000  0.3985  0.7524 -0.5245
 
              Baa    -0.0000    -0.000    -0.000    -0.000 -0.4752 -0.4524  0.7547
    90 H(1)   Bbb    -0.0000    -0.000    -0.000    -0.000  0.3644  0.6795  0.6368
              Bcc     0.0000     0.000     0.000     0.000  0.8009 -0.5776  0.1580
 
              Baa    -0.0000    -0.000    -0.000    -0.000 -0.0754  0.5646  0.8219
    91 H(1)   Bbb    -0.0000    -0.000    -0.000    -0.000  0.8900  0.4099 -0.1999
              Bcc     0.0000     0.000     0.000     0.000 -0.4497  0.7164 -0.5334
 
              Baa    -0.0000    -0.000    -0.000    -0.000 -0.1674  0.6164  0.7694
    92 H(1)   Bbb    -0.0000    -0.000    -0.000    -0.000  0.9547 -0.0933  0.2825
              Bcc     0.0000     0.000     0.000     0.000  0.2459  0.7819 -0.5729
 

 ---------------------------------------------------------------------------------

 No NMR shielding tensors so no spin-rotation constants.
 Leave Link  601 at Sat Jul 25 12:14:18 2020, MaxMem=  4026531840 cpu:              30.1 elap:               5.6
 (Enter /opt/ohpc/pub/libs/gaussian/g16-A.03/sandybridge/g16/l9999.exe)

 Test job not archived.
 1\1\GINC-SKYLAKE040\FOpt\ULC-wPBE\CC-pVDZ\C50H32N10\RDU230\25-Jul-2020
 \0\\#P uLC-wPBE/cc-pVDZ iop(3/107=0078300000, 3/108=0078300000) opt\\H
 32 C50 N10\\0,1\C,-20.4396499525,0.6559943279,-0.8689409155\C,-19.5793
 820385,1.5199417187,-1.5622374385\C,-18.1991837473,1.383109557,-1.3845
 882069\C,-17.7245511452,0.3799395687,-0.5144141513\N,-18.5470496484,-0
 .4583604727,0.1590277313\C,-19.8690491467,-0.3101089276,-0.0250846747\
 C,-16.2612197739,0.1972346602,-0.2952236193\N,-15.4319461758,1.0308276
 498,-0.9653394083\C,-14.1133376344,0.8784170225,-0.7886670015\C,-13.52
 06345837,-0.0996781783,0.0450761671\C,-14.4056266884,-0.9521435817,0.7
 405113364\C,-15.7825865836,-0.8039573075,0.574758994\C,-12.0527639802,
 -0.2086592541,0.1795737757\C,-11.4323867709,-0.5393413408,1.4017311941
 \C,-10.0401068697,-0.6271195242,1.4665751909\C,-9.2767389414,-0.375200
 2654,0.3060029304\N,-9.8530008272,-0.0573015493,-0.8764459733\C,-11.18
 85737071,0.0116367407,-0.9209010368\C,-7.7848126395,-0.4341993554,0.32
 97551846\N,-7.1321514892,0.3611227869,-0.5491166534\C,-5.7944430618,0.
 3360223434,-0.5397503192\C,-5.0011872004,-0.4573613143,0.3248660021\C,
 -5.7003360545,-1.2945260994,1.2182221446\C,-7.0968108478,-1.2872309815
 ,1.2197434687\C,-3.5247258878,-0.414056897,0.2761083748\C,-2.729836343
 ,-1.5652098339,0.4677237601\C,-1.3399563384,-1.4637160502,0.4099764544
 \C,-0.7579962929,-0.2048963542,0.1539228879\N,-1.4997629815,0.91324739
 9,-0.0252412173\C,-2.8320337088,0.79764953,0.0396651405\C,0.7201196892
 ,-0.0520451887,0.0689915265\N,1.4619030328,-1.1700752418,0.2493237333\
 C,2.7941172322,-1.0541557179,0.184958057\C,3.4872845241,0.1574864889,-
 0.0506059719\C,2.6921501671,1.3082054919,-0.2447585841\C,1.3022264813,
 1.2064130599,-0.1884335295\C,4.9637526371,0.2028052897,-0.0969299356\C
 ,5.6637190698,1.0465683188,-0.9869899381\C,7.0584809525,1.04682029,-0.
 9875110448\C,7.7415216154,0.1928641903,-0.0968900145\N,7.0916192871,-0
 .617408952,0.7713817628\C,5.7530168553,-0.5986508272,0.7625299395\C,9.
 2290524599,0.1477245401,-0.0743465192\N,9.878542051,0.9542763958,-0.94
 67698852\C,11.2167594432,0.9237368822,-0.948286263\C,12.0063747763,0.1
 021150639,-0.1086569186\C,11.3070854433,-0.7256007284,0.7970638888\C,9
 .9123770569,-0.7019485986,0.8196337406\C,13.4824806106,0.1280170362,-0
 .1779776755\C,14.1788146466,0.2901143282,-1.3958946842\C,15.5736943277
 ,0.3121657122,-1.3965830702\C,16.2603612688,0.1636095487,-0.1742222165
 \N,15.6135977727,0.0133683947,1.0054654215\C,14.275037691,0.0019897754
 ,0.987646573\C,17.7506015154,0.1648836363,-0.1321240153\N,18.389701825
 ,0.3115604873,-1.3165043465\C,19.7325197968,0.3155229325,-1.2999985093
 \C,20.5027131881,0.177004396,-0.1343533379\C,19.8316090096,0.025748577
 9,1.0878786389\C,18.4333247258,0.0193421235,1.0932723633\H,-21.5313251
 099,0.725412487,-0.9765708816\H,-19.9810230465,2.292482151,-2.23435282
 62\H,-17.4690697859,2.024856884,-1.8944131187\H,-20.5133488944,-1.0073
 295595,0.5368703063\H,-13.4720040875,1.5962357837,-1.3275930243\H,-14.
 0094471523,-1.7458558661,1.3916046575\H,-16.5106734733,-1.4462426986,1
 .0866391092\H,-12.0384431844,-0.6938547691,2.3066708199\H,-9.547990909
 1,-0.8505153008,2.423498031\H,-11.6196972907,0.235960257,-1.9118887464
 \H,-5.3018187394,0.9789835151,-1.2895946794\H,-5.1502898567,-1.9387497
 965,1.9200532955\H,-7.6491832364,-1.9509642325,1.8995790073\H,-3.20591
 02597,-2.5426215252,0.6370665056\H,-0.6803768884,-2.3307664576,0.54350
 77704\H,-3.4004807545,1.7352846694,-0.081332357\H,3.3621858518,-1.9921
 738533,0.3053367102\H,3.168179304,2.28533328,-0.4154431457\H,0.6427422
 624,2.0731940463,-0.324147544\H,5.1106895561,1.6832886821,-1.693586696
 1\H,7.6465304643,1.6791264988,-1.665018787\H,5.2607452427,-1.248683976
 4,1.5056598717\H,11.7100289647,1.6160395919,-1.6518354997\H,11.8591969
 523,-1.4042596516,1.4638714095\H,9.3247343247,-1.3317724014,1.49978776
 76\H,13.6242750117,0.3724839006,-2.3423926248\H,16.1602108609,0.426967
 6411,-2.3171517048\H,13.7845563101,-0.0924895402,1.9716491758\H,20.224
 4294695,0.4368241006,-2.2799566068\H,21.6004793553,0.1882072408,-0.188
 4995267\H,20.3932414204,-0.0857146836,2.0270607908\H,17.8443822262,-0.
 0938121399,2.0126022337\\Version=EM64L-G16RevA.03\State=1-A\HF=-2469.7
 373914\S2=0.\S2-1=0.\S2A=0.\RMSD=3.228e-09\RMSF=3.007e-06\Dipole=-0.02
 74821,-0.4661658,0.9040754\Quadrupole=49.528596,-25.8500054,-23.678590
 6,4.4467551,-9.3676162,-9.3986182\PG=C01 [X(C50H32N10)]\\@


 DIATOMIC MOLECULES ARE PECULIAR BECAUSE THEY ONLY HAVE TWO ENDS,
 AND THESE ENDS ARE VERY CLOSE TOGETHER.
 KLAUS RUEDENBERG, REV.MOD.PHYS. PG 176, 32, (1960)
 Job cpu time:       1 days  0 hours 11 minutes 15.6 seconds.
 Elapsed time:       0 days  3 hours 15 minutes 50.1 seconds.
 File lengths (MBytes):  RWF=   1148 Int=      0 D2E=      0 Chk=    104 Scr=      8
 Normal termination of Gaussian 16 at Sat Jul 25 12:14:18 2020.
