 Entering Gaussian System, Link 0=g16
 Input=mols_65_5_20_n-cF-C_opt_0.gjf
 Output=mols_65_5_20_n-cF-C_opt_0.log
 Initial command:
 /opt/ohpc/pub/libs/gaussian/g16-A.03/sandybridge/g16/l1.exe "/mnt/gpfs2_4m/scratch/rdu230/ondemand/projects/dihedral_energies/7trial/wtuning/mols_65_5_20_n-cF-C/Gau-309506.inp" -scrdir="/mnt/gpfs2_4m/scratch/rdu230/ondemand/projects/dihedral_energies/7trial/wtuning/mols_65_5_20_n-cF-C/"
 Entering Link 1 = /opt/ohpc/pub/libs/gaussian/g16-A.03/sandybridge/g16/l1.exe PID=    309507.
  
 Copyright (c) 1988,1990,1992,1993,1995,1998,2003,2009,2016,
            Gaussian, Inc.  All Rights Reserved.
  
 This is part of the Gaussian(R) 16 program.  It is based on
 the Gaussian(R) 09 system (copyright 2009, Gaussian, Inc.),
 the Gaussian(R) 03 system (copyright 2003, Gaussian, Inc.),
 the Gaussian(R) 98 system (copyright 1998, Gaussian, Inc.),
 the Gaussian(R) 94 system (copyright 1995, Gaussian, Inc.),
 the Gaussian 92(TM) system (copyright 1992, Gaussian, Inc.),
 the Gaussian 90(TM) system (copyright 1990, Gaussian, Inc.),
 the Gaussian 88(TM) system (copyright 1988, Gaussian, Inc.),
 the Gaussian 86(TM) system (copyright 1986, Carnegie Mellon
 University), and the Gaussian 82(TM) system (copyright 1983,
 Carnegie Mellon University). Gaussian is a federally registered
 trademark of Gaussian, Inc.
  
 This software contains proprietary and confidential information,
 including trade secrets, belonging to Gaussian, Inc.
  
 This software is provided under written license and may be
 used, copied, transmitted, or stored only in accord with that
 written license.
  
 The following legend is applicable only to US Government
 contracts under FAR:
  
                    RESTRICTED RIGHTS LEGEND
  
 Use, reproduction and disclosure by the US Government is
 subject to restrictions as set forth in subparagraphs (a)
 and (c) of the Commercial Computer Software - Restricted
 Rights clause in FAR 52.227-19.
  
 Gaussian, Inc.
 340 Quinnipiac St., Bldg. 40, Wallingford CT 06492
  
  
 ---------------------------------------------------------------
 Warning -- This program may not be used in any manner that
 competes with the business of Gaussian, Inc. or will provide
 assistance to any competitor of Gaussian, Inc.  The licensee
 of this program is prohibited from giving any competitor of
 Gaussian, Inc. access to this program.  By using this program,
 the user acknowledges that Gaussian, Inc. is engaged in the
 business of creating and licensing software in the field of
 computational chemistry and represents and warrants to the
 licensee that it is not a competitor of Gaussian, Inc. and that
 it will not use this program in any manner prohibited above.
 ---------------------------------------------------------------
  

 Cite this work as:
 Gaussian 16, Revision A.03,
 M. J. Frisch, G. W. Trucks, H. B. Schlegel, G. E. Scuseria, 
 M. A. Robb, J. R. Cheeseman, G. Scalmani, V. Barone, 
 G. A. Petersson, H. Nakatsuji, X. Li, M. Caricato, A. V. Marenich, 
 J. Bloino, B. G. Janesko, R. Gomperts, B. Mennucci, H. P. Hratchian, 
 J. V. Ortiz, A. F. Izmaylov, J. L. Sonnenberg, D. Williams-Young, 
 F. Ding, F. Lipparini, F. Egidi, J. Goings, B. Peng, A. Petrone, 
 T. Henderson, D. Ranasinghe, V. G. Zakrzewski, J. Gao, N. Rega, 
 G. Zheng, W. Liang, M. Hada, M. Ehara, K. Toyota, R. Fukuda, 
 J. Hasegawa, M. Ishida, T. Nakajima, Y. Honda, O. Kitao, H. Nakai, 
 T. Vreven, K. Throssell, J. A. Montgomery, Jr., J. E. Peralta, 
 F. Ogliaro, M. J. Bearpark, J. J. Heyd, E. N. Brothers, K. N. Kudin, 
 V. N. Staroverov, T. A. Keith, R. Kobayashi, J. Normand, 
 K. Raghavachari, A. P. Rendell, J. C. Burant, S. S. Iyengar, 
 J. Tomasi, M. Cossi, J. M. Millam, M. Klene, C. Adamo, R. Cammi, 
 J. W. Ochterski, R. L. Martin, K. Morokuma, O. Farkas, 
 J. B. Foresman, and D. J. Fox, Gaussian, Inc., Wallingford CT, 2016.
 
 ******************************************
 Gaussian 16:  EM64L-G16RevA.03 25-Dec-2016
                24-Jul-2020 
 ******************************************
 %mem=30GB
 %nproc=8
 Will use up to    8 processors via shared memory.
 ---------------------------------------------------------------
 #P uLC-wPBE/cc-pVDZ iop(3/107=0291900000, 3/108=0291900000) opt
 ---------------------------------------------------------------
 1/18=20,19=15,26=3,38=1/1,3;
 2/9=110,12=2,17=6,18=5,40=1/2;
 3/5=16,11=2,25=1,30=1,71=1,74=-41,107=291900000,108=291900000,116=2/1,2,3;
 4//1;
 5/5=2,38=5/2;
 6/7=2,8=2,9=2,10=2,28=1/1;
 7//1,2,3,16;
 1/18=20,19=15,26=3/3(2);
 2/9=110/2;
 99//99;
 2/9=110/2;
 3/5=16,11=2,25=1,30=1,71=1,74=-41,107=291900000,108=291900000,116=2/1,2,3;
 4/5=5,16=3,69=1/1;
 5/5=2,38=5/2;
 7//1,2,3,16;
 1/18=20,19=15,26=3/3(-5);
 2/9=110/2;
 6/7=2,8=2,9=2,10=2,19=2,28=1/1;
 99/9=1/99;
 Leave Link    1 at Fri Jul 24 14:14:50 2020, MaxMem=  4026531840 cpu:               2.1 elap:               0.3
 (Enter /opt/ohpc/pub/libs/gaussian/g16-A.03/sandybridge/g16/l101.exe)
 ----------------
 H22 C45 S5 N5 F5
 ----------------
 Symbolic Z-matrix:
 Charge =  0 Multiplicity = 1
 C                    -17.6864   4.15933   0.32926 
 C                    -16.32867   4.31375  -0.0149 
 N                    -15.44081   3.32054  -0.13001 
 C                    -15.95385   2.02243   0.1338 
 C                    -17.30275   1.79136   0.4692 
 F                    -17.79517   0.63355   0.6817 
 C                    -18.21111   2.9237    0.56241 
 C                    -14.98995   0.96514  -0.08561 
 C                    -15.19666  -0.32867  -0.37388 
 C                    -13.93719  -1.12737  -0.36989 
 C                    -12.88922  -0.31028  -0.12813 
 S                    -13.25582   1.2619    0.1716 
 C                    -11.45237  -0.74161  -0.06429 
 C                    -10.39247   0.10425  -0.57267 
 N                    -9.05909  -0.32072  -0.56538 
 C                    -8.72757  -1.52046  -0.10492 
 C                    -9.77431  -2.4429    0.35604 
 F                    -9.415    -3.59318   0.79127 
 C                    -11.09065  -1.98917   0.40803 
 C                    -7.39528  -1.88711  -0.20322 
 C                    -6.82205  -3.1239   -0.35285 
 C                    -5.32639  -3.07445  -0.40832 
 C                    -4.86543  -1.75816  -0.22951 
 S                    -6.09944  -0.66505   0.01053 
 C                    -3.49892  -1.35239  -0.15961 
 C                    -2.98719  -0.10584  -0.5968 
 N                    -1.77987   0.30703  -0.61151 
 C                    -0.76657  -0.52491  -0.10189 
 C                    -1.09724  -1.83175   0.332 
 F                    -0.25076  -2.61385   0.85385 
 C                    -2.48113  -2.17781   0.37065 
 C                     0.53498   0.00398  -0.22414 
 C                     0.91596   1.35428  -0.53584 
 C                     2.338     1.54522  -0.53137 
 C                     3.02977   0.38658  -0.26975 
 S                     1.93725  -0.95602   0.02542 
 C                     4.47834   0.16856  -0.2063 
 C                     5.11732  -1.00904  -0.62659 
 N                     6.49118  -1.23955  -0.5537 
 C                     7.29955  -0.29743  -0.20405 
 C                     6.7585    1.02318   0.18671 
 F                     7.54884   2.00109   0.65805 
 C                     5.42058   1.16813   0.16373 
 C                     8.71228  -0.57882  -0.19696 
 C                     9.27818  -1.79574  -0.5223 
 C                     10.70867  -1.89005  -0.5079 
 C                     11.21171  -0.55239  -0.22885 
 S                     9.99028   0.49238   0.03126 
 C                     12.62099  -0.16433  -0.14124 
 C                     13.15715   1.01668  -0.58252 
 N                     14.45179   1.41437  -0.51131 
 C                     15.31834   0.59785   0.09177 
 C                     14.92492  -0.70974   0.57943 
 F                     15.81951  -1.5525    1.12267 
 C                     13.52569  -1.08384   0.43722 
 C                     16.68648   1.06303   0.17075 
 C                     17.89322   0.31545   0.22376 
 C                     19.03171   1.18031   0.23266 
 C                     18.65798   2.48663   0.2552 
 S                     17.00469   2.69493   0.12591 
 H                    -18.35053   5.07947   0.39524 
 H                    -15.95455   5.36693  -0.24677 
 H                    -19.26407   2.70228   0.79028 
 H                    -16.20728  -0.77699  -0.53216 
 H                    -13.92639  -2.12316  -0.62327 
 H                    -10.61567   1.02119  -0.94225 
 H                    -11.80799  -2.70695   0.80157 
 H                    -7.3484   -4.04241  -0.42482 
 H                    -4.72404  -3.9838   -0.54317 
 H                    -3.74051   0.57196  -1.0115 
 H                    -2.66958  -3.23083   0.7405 
 H                     0.21749   2.12435  -0.70345 
 H                     2.86365   2.49603  -0.7778 
 H                     4.59115  -1.86679  -0.94554 
 H                     4.94879   2.16689   0.50653 
 H                     8.67246  -2.70948  -0.78651 
 H                     11.27587  -2.76626  -0.74714 
 H                     12.42004   1.74169  -1.10113 
 H                     13.30114  -2.00408   0.87642 
 H                     17.93637  -0.77219   0.2059 
 H                     20.07749   0.7754    0.34258 
 H                     19.40858   3.35845   0.2923 
 
 ITRead=  0  0  0  0  0  0  0  0  0  0  0  0  0  0  0  0  0  0  0  0
 ITRead=  0  0  0  0  0  0  0  0  0  0  0  0  0  0  0  0  0  0  0  0
 ITRead=  0  0  0  0  0  0  0  0  0  0  0  0  0  0  0  0  0  0  0  0
 ITRead=  0  0  0  0  0  0  0  0  0  0  0  0  0  0  0  0  0  0  0  0
 ITRead=  0  0
 MicOpt= -1 -1 -1 -1 -1 -1 -1 -1 -1 -1 -1 -1 -1 -1 -1 -1 -1 -1 -1 -1
 MicOpt= -1 -1 -1 -1 -1 -1 -1 -1 -1 -1 -1 -1 -1 -1 -1 -1 -1 -1 -1 -1
 MicOpt= -1 -1 -1 -1 -1 -1 -1 -1 -1 -1 -1 -1 -1 -1 -1 -1 -1 -1 -1 -1
 MicOpt= -1 -1 -1 -1 -1 -1 -1 -1 -1 -1 -1 -1 -1 -1 -1 -1 -1 -1 -1 -1
 MicOpt= -1 -1
 NAtoms=     82 NQM=       82 NQMF=       0 NMMI=      0 NMMIF=      0
                NMic=       0 NMicF=      0.
                    Isotopes and Nuclear Properties:
 (Nuclear quadrupole moments (NQMom) in fm**2, nuclear magnetic moments (NMagM)
  in nuclear magnetons)

  Atom         1           2           3           4           5           6           7           8           9          10
 IAtWgt=          12          12          14          12          12          19          12          12          12          12
 AtmWgt=  12.0000000  12.0000000  14.0030740  12.0000000  12.0000000  18.9984033  12.0000000  12.0000000  12.0000000  12.0000000
 NucSpn=           0           0           2           0           0           1           0           0           0           0
 AtZEff=  -0.0000000  -0.0000000  -0.0000000  -0.0000000  -0.0000000  -0.0000000  -0.0000000  -0.0000000  -0.0000000  -0.0000000
 NQMom=    0.0000000   0.0000000   2.0440000   0.0000000   0.0000000   0.0000000   0.0000000   0.0000000   0.0000000   0.0000000
 NMagM=    0.0000000   0.0000000   0.4037610   0.0000000   0.0000000   2.6288670   0.0000000   0.0000000   0.0000000   0.0000000
 AtZNuc=   6.0000000   6.0000000   7.0000000   6.0000000   6.0000000   9.0000000   6.0000000   6.0000000   6.0000000   6.0000000

  Atom        11          12          13          14          15          16          17          18          19          20
 IAtWgt=          12          32          12          12          14          12          12          19          12          12
 AtmWgt=  12.0000000  31.9720718  12.0000000  12.0000000  14.0030740  12.0000000  12.0000000  18.9984033  12.0000000  12.0000000
 NucSpn=           0           0           0           0           2           0           0           1           0           0
 AtZEff=  -0.0000000  -0.0000000  -0.0000000  -0.0000000  -0.0000000  -0.0000000  -0.0000000  -0.0000000  -0.0000000  -0.0000000
 NQMom=    0.0000000   0.0000000   0.0000000   0.0000000   2.0440000   0.0000000   0.0000000   0.0000000   0.0000000   0.0000000
 NMagM=    0.0000000   0.0000000   0.0000000   0.0000000   0.4037610   0.0000000   0.0000000   2.6288670   0.0000000   0.0000000
 AtZNuc=   6.0000000  16.0000000   6.0000000   6.0000000   7.0000000   6.0000000   6.0000000   9.0000000   6.0000000   6.0000000

  Atom        21          22          23          24          25          26          27          28          29          30
 IAtWgt=          12          12          12          32          12          12          14          12          12          19
 AtmWgt=  12.0000000  12.0000000  12.0000000  31.9720718  12.0000000  12.0000000  14.0030740  12.0000000  12.0000000  18.9984033
 NucSpn=           0           0           0           0           0           0           2           0           0           1
 AtZEff=  -0.0000000  -0.0000000  -0.0000000  -0.0000000  -0.0000000  -0.0000000  -0.0000000  -0.0000000  -0.0000000  -0.0000000
 NQMom=    0.0000000   0.0000000   0.0000000   0.0000000   0.0000000   0.0000000   2.0440000   0.0000000   0.0000000   0.0000000
 NMagM=    0.0000000   0.0000000   0.0000000   0.0000000   0.0000000   0.0000000   0.4037610   0.0000000   0.0000000   2.6288670
 AtZNuc=   6.0000000   6.0000000   6.0000000  16.0000000   6.0000000   6.0000000   7.0000000   6.0000000   6.0000000   9.0000000

  Atom        31          32          33          34          35          36          37          38          39          40
 IAtWgt=          12          12          12          12          12          32          12          12          14          12
 AtmWgt=  12.0000000  12.0000000  12.0000000  12.0000000  12.0000000  31.9720718  12.0000000  12.0000000  14.0030740  12.0000000
 NucSpn=           0           0           0           0           0           0           0           0           2           0
 AtZEff=  -0.0000000  -0.0000000  -0.0000000  -0.0000000  -0.0000000  -0.0000000  -0.0000000  -0.0000000  -0.0000000  -0.0000000
 NQMom=    0.0000000   0.0000000   0.0000000   0.0000000   0.0000000   0.0000000   0.0000000   0.0000000   2.0440000   0.0000000
 NMagM=    0.0000000   0.0000000   0.0000000   0.0000000   0.0000000   0.0000000   0.0000000   0.0000000   0.4037610   0.0000000
 AtZNuc=   6.0000000   6.0000000   6.0000000   6.0000000   6.0000000  16.0000000   6.0000000   6.0000000   7.0000000   6.0000000

  Atom        41          42          43          44          45          46          47          48          49          50
 IAtWgt=          12          19          12          12          12          12          12          32          12          12
 AtmWgt=  12.0000000  18.9984033  12.0000000  12.0000000  12.0000000  12.0000000  12.0000000  31.9720718  12.0000000  12.0000000
 NucSpn=           0           1           0           0           0           0           0           0           0           0
 AtZEff=  -0.0000000  -0.0000000  -0.0000000  -0.0000000  -0.0000000  -0.0000000  -0.0000000  -0.0000000  -0.0000000  -0.0000000
 NQMom=    0.0000000   0.0000000   0.0000000   0.0000000   0.0000000   0.0000000   0.0000000   0.0000000   0.0000000   0.0000000
 NMagM=    0.0000000   2.6288670   0.0000000   0.0000000   0.0000000   0.0000000   0.0000000   0.0000000   0.0000000   0.0000000
 AtZNuc=   6.0000000   9.0000000   6.0000000   6.0000000   6.0000000   6.0000000   6.0000000  16.0000000   6.0000000   6.0000000

  Atom        51          52          53          54          55          56          57          58          59          60
 IAtWgt=          14          12          12          19          12          12          12          12          12          32
 AtmWgt=  14.0030740  12.0000000  12.0000000  18.9984033  12.0000000  12.0000000  12.0000000  12.0000000  12.0000000  31.9720718
 NucSpn=           2           0           0           1           0           0           0           0           0           0
 AtZEff=  -0.0000000  -0.0000000  -0.0000000  -0.0000000  -0.0000000  -0.0000000  -0.0000000  -0.0000000  -0.0000000  -0.0000000
 NQMom=    2.0440000   0.0000000   0.0000000   0.0000000   0.0000000   0.0000000   0.0000000   0.0000000   0.0000000   0.0000000
 NMagM=    0.4037610   0.0000000   0.0000000   2.6288670   0.0000000   0.0000000   0.0000000   0.0000000   0.0000000   0.0000000
 AtZNuc=   7.0000000   6.0000000   6.0000000   9.0000000   6.0000000   6.0000000   6.0000000   6.0000000   6.0000000  16.0000000

  Atom        61          62          63          64          65          66          67          68          69          70
 IAtWgt=           1           1           1           1           1           1           1           1           1           1
 AtmWgt=   1.0078250   1.0078250   1.0078250   1.0078250   1.0078250   1.0078250   1.0078250   1.0078250   1.0078250   1.0078250
 NucSpn=           1           1           1           1           1           1           1           1           1           1
 AtZEff=  -0.0000000  -0.0000000  -0.0000000  -0.0000000  -0.0000000  -0.0000000  -0.0000000  -0.0000000  -0.0000000  -0.0000000
 NQMom=    0.0000000   0.0000000   0.0000000   0.0000000   0.0000000   0.0000000   0.0000000   0.0000000   0.0000000   0.0000000
 NMagM=    2.7928460   2.7928460   2.7928460   2.7928460   2.7928460   2.7928460   2.7928460   2.7928460   2.7928460   2.7928460
 AtZNuc=   1.0000000   1.0000000   1.0000000   1.0000000   1.0000000   1.0000000   1.0000000   1.0000000   1.0000000   1.0000000

  Atom        71          72          73          74          75          76          77          78          79          80
 IAtWgt=           1           1           1           1           1           1           1           1           1           1
 AtmWgt=   1.0078250   1.0078250   1.0078250   1.0078250   1.0078250   1.0078250   1.0078250   1.0078250   1.0078250   1.0078250
 NucSpn=           1           1           1           1           1           1           1           1           1           1
 AtZEff=  -0.0000000  -0.0000000  -0.0000000  -0.0000000  -0.0000000  -0.0000000  -0.0000000  -0.0000000  -0.0000000  -0.0000000
 NQMom=    0.0000000   0.0000000   0.0000000   0.0000000   0.0000000   0.0000000   0.0000000   0.0000000   0.0000000   0.0000000
 NMagM=    2.7928460   2.7928460   2.7928460   2.7928460   2.7928460   2.7928460   2.7928460   2.7928460   2.7928460   2.7928460
 AtZNuc=   1.0000000   1.0000000   1.0000000   1.0000000   1.0000000   1.0000000   1.0000000   1.0000000   1.0000000   1.0000000

  Atom        81          82
 IAtWgt=           1           1
 AtmWgt=   1.0078250   1.0078250
 NucSpn=           1           1
 AtZEff=  -0.0000000  -0.0000000
 NQMom=    0.0000000   0.0000000
 NMagM=    2.7928460   2.7928460
 AtZNuc=   1.0000000   1.0000000
 Leave Link  101 at Fri Jul 24 14:14:51 2020, MaxMem=  4026531840 cpu:               3.5 elap:               0.5
 (Enter /opt/ohpc/pub/libs/gaussian/g16-A.03/sandybridge/g16/l103.exe)

 GradGradGradGradGradGradGradGradGradGradGradGradGradGradGradGradGradGrad
 Berny optimization.
 Initialization pass.
                           ----------------------------
                           !    Initial Parameters    !
                           ! (Angstroms and Degrees)  !
 --------------------------                            --------------------------
 ! Name  Definition              Value          Derivative Info.                !
 --------------------------------------------------------------------------------
 ! R1    R(1,2)                  1.4092         estimate D2E/DX2                !
 ! R2    R(1,7)                  1.3625         estimate D2E/DX2                !
 ! R3    R(1,61)                 1.1367         estimate D2E/DX2                !
 ! R4    R(2,3)                  1.3372         estimate D2E/DX2                !
 ! R5    R(2,62)                 1.1415         estimate D2E/DX2                !
 ! R6    R(3,4)                  1.4205         estimate D2E/DX2                !
 ! R7    R(4,5)                  1.4091         estimate D2E/DX2                !
 ! R8    R(4,8)                  1.4474         estimate D2E/DX2                !
 ! R9    R(5,6)                  1.276          estimate D2E/DX2                !
 ! R10   R(5,7)                  1.4546         estimate D2E/DX2                !
 ! R11   R(7,63)                 1.0999         estimate D2E/DX2                !
 ! R12   R(8,9)                  1.3416         estimate D2E/DX2                !
 ! R13   R(8,12)                 1.778          estimate D2E/DX2                !
 ! R14   R(9,10)                 1.4914         estimate D2E/DX2                !
 ! R15   R(9,64)                 1.1169         estimate D2E/DX2                !
 ! R16   R(10,11)                1.3507         estimate D2E/DX2                !
 ! R17   R(10,65)                1.0276         estimate D2E/DX2                !
 ! R18   R(11,12)                1.6419         estimate D2E/DX2                !
 ! R19   R(11,13)                1.5016         estimate D2E/DX2                !
 ! R20   R(13,14)                1.4482         estimate D2E/DX2                !
 ! R21   R(13,19)                1.3821         estimate D2E/DX2                !
 ! R22   R(14,15)                1.3995         estimate D2E/DX2                !
 ! R23   R(14,66)                1.0135         estimate D2E/DX2                !
 ! R24   R(15,16)                1.3271         estimate D2E/DX2                !
 ! R25   R(16,17)                1.4694         estimate D2E/DX2                !
 ! R26   R(16,20)                1.3853         estimate D2E/DX2                !
 ! R27   R(17,18)                1.2813         estimate D2E/DX2                !
 ! R28   R(17,19)                1.3933         estimate D2E/DX2                !
 ! R29   R(19,67)                1.0884         estimate D2E/DX2                !
 ! R30   R(20,21)                1.3714         estimate D2E/DX2                !
 ! R31   R(20,24)                1.794          estimate D2E/DX2                !
 ! R32   R(21,22)                1.4975         estimate D2E/DX2                !
 ! R33   R(21,68)                1.0611         estimate D2E/DX2                !
 ! R34   R(22,23)                1.4061         estimate D2E/DX2                !
 ! R35   R(22,69)                1.0991         estimate D2E/DX2                !
 ! R36   R(23,24)                1.6659         estimate D2E/DX2                !
 ! R37   R(23,25)                1.4272         estimate D2E/DX2                !
 ! R38   R(25,26)                1.4166         estimate D2E/DX2                !
 ! R39   R(25,31)                1.4137         estimate D2E/DX2                !
 ! R40   R(26,27)                1.2761         estimate D2E/DX2                !
 ! R41   R(26,70)                1.0949         estimate D2E/DX2                !
 ! R42   R(27,28)                1.4066         estimate D2E/DX2                !
 ! R43   R(28,29)                1.4161         estimate D2E/DX2                !
 ! R44   R(28,32)                1.4102         estimate D2E/DX2                !
 ! R45   R(29,30)                1.2651         estimate D2E/DX2                !
 ! R46   R(29,31)                1.427          estimate D2E/DX2                !
 ! R47   R(31,71)                1.1319         estimate D2E/DX2                !
 ! R48   R(32,33)                1.4372         estimate D2E/DX2                !
 ! R49   R(32,36)                1.7176         estimate D2E/DX2                !
 ! R50   R(33,34)                1.4348         estimate D2E/DX2                !
 ! R51   R(33,72)                1.0531         estimate D2E/DX2                !
 ! R52   R(34,35)                1.3746         estimate D2E/DX2                !
 ! R53   R(34,73)                1.114          estimate D2E/DX2                !
 ! R54   R(35,36)                1.7559         estimate D2E/DX2                !
 ! R55   R(35,37)                1.4663         estimate D2E/DX2                !
 ! R56   R(37,38)                1.4042         estimate D2E/DX2                !
 ! R57   R(37,43)                1.4226         estimate D2E/DX2                !
 ! R58   R(38,39)                1.395          estimate D2E/DX2                !
 ! R59   R(38,74)                1.0556         estimate D2E/DX2                !
 ! R60   R(39,40)                1.2897         estimate D2E/DX2                !
 ! R61   R(40,41)                1.4797         estimate D2E/DX2                !
 ! R62   R(40,44)                1.4405         estimate D2E/DX2                !
 ! R63   R(41,42)                1.3428         estimate D2E/DX2                !
 ! R64   R(41,43)                1.3459         estimate D2E/DX2                !
 ! R65   R(43,75)                1.1566         estimate D2E/DX2                !
 ! R66   R(44,45)                1.3809         estimate D2E/DX2                !
 ! R67   R(44,48)                1.6831         estimate D2E/DX2                !
 ! R68   R(45,46)                1.4337         estimate D2E/DX2                !
 ! R69   R(45,76)                1.1277         estimate D2E/DX2                !
 ! R70   R(46,47)                1.4561         estimate D2E/DX2                !
 ! R71   R(46,77)                1.0708         estimate D2E/DX2                !
 ! R72   R(47,48)                1.6282         estimate D2E/DX2                !
 ! R73   R(47,49)                1.4644         estimate D2E/DX2                !
 ! R74   R(49,50)                1.37           estimate D2E/DX2                !
 ! R75   R(49,55)                1.4137         estimate D2E/DX2                !
 ! R76   R(50,51)                1.3562         estimate D2E/DX2                !
 ! R77   R(50,78)                1.1567         estimate D2E/DX2                !
 ! R78   R(51,52)                1.3347         estimate D2E/DX2                !
 ! R79   R(52,53)                1.45           estimate D2E/DX2                !
 ! R80   R(52,56)                1.4472         estimate D2E/DX2                !
 ! R81   R(53,54)                1.3437         estimate D2E/DX2                !
 ! R82   R(53,55)                1.4553         estimate D2E/DX2                !
 ! R83   R(55,79)                1.0441         estimate D2E/DX2                !
 ! R84   R(56,57)                1.4205         estimate D2E/DX2                !
 ! R85   R(56,60)                1.6632         estimate D2E/DX2                !
 ! R86   R(57,58)                1.4298         estimate D2E/DX2                !
 ! R87   R(57,80)                1.0886         estimate D2E/DX2                !
 ! R88   R(58,59)                1.3589         estimate D2E/DX2                !
 ! R89   R(58,81)                1.1268         estimate D2E/DX2                !
 ! R90   R(59,60)                1.6714         estimate D2E/DX2                !
 ! R91   R(59,82)                1.151          estimate D2E/DX2                !
 ! A1    A(2,1,7)              120.8115         estimate D2E/DX2                !
 ! A2    A(2,1,61)             119.2362         estimate D2E/DX2                !
 ! A3    A(7,1,61)             119.945          estimate D2E/DX2                !
 ! A4    A(1,2,3)              125.4071         estimate D2E/DX2                !
 ! A5    A(1,2,62)             117.8082         estimate D2E/DX2                !
 ! A6    A(3,2,62)             116.7579         estimate D2E/DX2                !
 ! A7    A(2,3,4)              115.0225         estimate D2E/DX2                !
 ! A8    A(3,4,5)              122.6707         estimate D2E/DX2                !
 ! A9    A(3,4,8)              113.5062         estimate D2E/DX2                !
 ! A10   A(5,4,8)              123.6276         estimate D2E/DX2                !
 ! A11   A(4,5,6)              123.9094         estimate D2E/DX2                !
 ! A12   A(4,5,7)              119.0379         estimate D2E/DX2                !
 ! A13   A(6,5,7)              117.0444         estimate D2E/DX2                !
 ! A14   A(1,7,5)              117.0325         estimate D2E/DX2                !
 ! A15   A(1,7,63)             125.9233         estimate D2E/DX2                !
 ! A16   A(5,7,63)             117.0259         estimate D2E/DX2                !
 ! A17   A(4,8,9)              129.3771         estimate D2E/DX2                !
 ! A18   A(4,8,12)             120.3739         estimate D2E/DX2                !
 ! A19   A(9,8,12)             110.0183         estimate D2E/DX2                !
 ! A20   A(8,9,10)             112.6927         estimate D2E/DX2                !
 ! A21   A(8,9,64)             123.8479         estimate D2E/DX2                !
 ! A22   A(10,9,64)            123.338          estimate D2E/DX2                !
 ! A23   A(9,10,11)            109.3743         estimate D2E/DX2                !
 ! A24   A(9,10,65)            121.8163         estimate D2E/DX2                !
 ! A25   A(11,10,65)           128.478          estimate D2E/DX2                !
 ! A26   A(10,11,12)           116.02           estimate D2E/DX2                !
 ! A27   A(10,11,13)           125.1896         estimate D2E/DX2                !
 ! A28   A(12,11,13)           118.7472         estimate D2E/DX2                !
 ! A29   A(8,12,11)             91.8076         estimate D2E/DX2                !
 ! A30   A(11,13,14)           121.1731         estimate D2E/DX2                !
 ! A31   A(11,13,19)           121.6176         estimate D2E/DX2                !
 ! A32   A(14,13,19)           117.1049         estimate D2E/DX2                !
 ! A33   A(13,14,15)           121.2057         estimate D2E/DX2                !
 ! A34   A(13,14,66)           119.6866         estimate D2E/DX2                !
 ! A35   A(15,14,66)           119.1077         estimate D2E/DX2                !
 ! A36   A(14,15,16)           120.9516         estimate D2E/DX2                !
 ! A37   A(15,16,17)           119.8951         estimate D2E/DX2                !
 ! A38   A(15,16,20)           117.0575         estimate D2E/DX2                !
 ! A39   A(17,16,20)           122.7658         estimate D2E/DX2                !
 ! A40   A(16,17,18)           118.0598         estimate D2E/DX2                !
 ! A41   A(16,17,19)           118.7041         estimate D2E/DX2                !
 ! A42   A(18,17,19)           122.9983         estimate D2E/DX2                !
 ! A43   A(13,19,17)           121.8999         estimate D2E/DX2                !
 ! A44   A(13,19,67)           123.1155         estimate D2E/DX2                !
 ! A45   A(17,19,67)           114.9225         estimate D2E/DX2                !
 ! A46   A(16,20,21)           130.4246         estimate D2E/DX2                !
 ! A47   A(16,20,24)           120.3932         estimate D2E/DX2                !
 ! A48   A(21,20,24)           108.9912         estimate D2E/DX2                !
 ! A49   A(20,21,22)           113.0633         estimate D2E/DX2                !
 ! A50   A(20,21,68)           125.5033         estimate D2E/DX2                !
 ! A51   A(22,21,68)           121.4334         estimate D2E/DX2                !
 ! A52   A(21,22,23)           110.7096         estimate D2E/DX2                !
 ! A53   A(21,22,69)           121.6418         estimate D2E/DX2                !
 ! A54   A(23,22,69)           127.6245         estimate D2E/DX2                !
 ! A55   A(22,23,24)           112.9385         estimate D2E/DX2                !
 ! A56   A(22,23,25)           125.8937         estimate D2E/DX2                !
 ! A57   A(24,23,25)           121.0391         estimate D2E/DX2                !
 ! A58   A(20,24,23)            94.0663         estimate D2E/DX2                !
 ! A59   A(23,25,26)           125.5162         estimate D2E/DX2                !
 ! A60   A(23,25,31)           122.8008         estimate D2E/DX2                !
 ! A61   A(26,25,31)           111.683          estimate D2E/DX2                !
 ! A62   A(25,26,27)           129.0527         estimate D2E/DX2                !
 ! A63   A(25,26,70)           114.3975         estimate D2E/DX2                !
 ! A64   A(27,26,70)           116.5059         estimate D2E/DX2                !
 ! A65   A(26,27,28)           119.0802         estimate D2E/DX2                !
 ! A66   A(27,28,29)           119.248          estimate D2E/DX2                !
 ! A67   A(27,28,32)           114.3078         estimate D2E/DX2                !
 ! A68   A(29,28,32)           126.0273         estimate D2E/DX2                !
 ! A69   A(28,29,30)           122.727          estimate D2E/DX2                !
 ! A70   A(28,29,31)           117.2926         estimate D2E/DX2                !
 ! A71   A(30,29,31)           119.1943         estimate D2E/DX2                !
 ! A72   A(25,31,29)           123.1239         estimate D2E/DX2                !
 ! A73   A(25,31,71)           123.087          estimate D2E/DX2                !
 ! A74   A(29,31,71)           113.3235         estimate D2E/DX2                !
 ! A75   A(28,32,33)           128.0115         estimate D2E/DX2                !
 ! A76   A(28,32,36)           122.092          estimate D2E/DX2                !
 ! A77   A(33,32,36)           109.8893         estimate D2E/DX2                !
 ! A78   A(32,33,34)           112.7727         estimate D2E/DX2                !
 ! A79   A(32,33,72)           123.0744         estimate D2E/DX2                !
 ! A80   A(34,33,72)           124.094          estimate D2E/DX2                !
 ! A81   A(33,34,35)           112.7809         estimate D2E/DX2                !
 ! A82   A(33,34,73)           125.4876         estimate D2E/DX2                !
 ! A83   A(35,34,73)           121.6047         estimate D2E/DX2                !
 ! A84   A(34,35,36)           111.3071         estimate D2E/DX2                !
 ! A85   A(34,35,37)           129.1067         estimate D2E/DX2                !
 ! A86   A(36,35,37)           119.5849         estimate D2E/DX2                !
 ! A87   A(32,36,35)            93.2207         estimate D2E/DX2                !
 ! A88   A(35,37,38)           124.147          estimate D2E/DX2                !
 ! A89   A(35,37,43)           124.1328         estimate D2E/DX2                !
 ! A90   A(38,37,43)           111.4511         estimate D2E/DX2                !
 ! A91   A(37,38,39)           124.828          estimate D2E/DX2                !
 ! A92   A(37,38,74)           123.0293         estimate D2E/DX2                !
 ! A93   A(39,38,74)           111.865          estimate D2E/DX2                !
 ! A94   A(38,39,40)           120.7149         estimate D2E/DX2                !
 ! A95   A(39,40,41)           119.6283         estimate D2E/DX2                !
 ! A96   A(39,40,44)           118.2521         estimate D2E/DX2                !
 ! A97   A(41,40,44)           122.117          estimate D2E/DX2                !
 ! A98   A(40,41,42)           121.8336         estimate D2E/DX2                !
 ! A99   A(40,41,43)           117.0704         estimate D2E/DX2                !
 ! A100  A(42,41,43)           120.8392         estimate D2E/DX2                !
 ! A101  A(37,43,41)           125.9548         estimate D2E/DX2                !
 ! A102  A(37,43,75)           114.4359         estimate D2E/DX2                !
 ! A103  A(41,43,75)           119.5664         estimate D2E/DX2                !
 ! A104  A(40,44,45)           124.9509         estimate D2E/DX2                !
 ! A105  A(40,44,48)           128.3906         estimate D2E/DX2                !
 ! A106  A(45,44,48)           106.3579         estimate D2E/DX2                !
 ! A107  A(44,45,46)           117.6771         estimate D2E/DX2                !
 ! A108  A(44,45,76)           123.3079         estimate D2E/DX2                !
 ! A109  A(46,45,76)           119.0127         estimate D2E/DX2                !
 ! A110  A(45,46,47)           106.6304         estimate D2E/DX2                !
 ! A111  A(45,46,77)           125.4565         estimate D2E/DX2                !
 ! A112  A(47,46,77)           127.6992         estimate D2E/DX2                !
 ! A113  A(46,47,48)           111.1569         estimate D2E/DX2                !
 ! A114  A(46,47,49)           125.9722         estimate D2E/DX2                !
 ! A115  A(48,47,49)           122.8434         estimate D2E/DX2                !
 ! A116  A(44,48,47)            98.0227         estimate D2E/DX2                !
 ! A117  A(47,49,50)           125.8601         estimate D2E/DX2                !
 ! A118  A(47,49,55)           117.9036         estimate D2E/DX2                !
 ! A119  A(50,49,55)           116.2338         estimate D2E/DX2                !
 ! A120  A(49,50,51)           127.5497         estimate D2E/DX2                !
 ! A121  A(49,50,78)           115.8067         estimate D2E/DX2                !
 ! A122  A(51,50,78)           116.6201         estimate D2E/DX2                !
 ! A123  A(50,51,52)           117.6532         estimate D2E/DX2                !
 ! A124  A(51,52,53)           121.8375         estimate D2E/DX2                !
 ! A125  A(51,52,56)           116.219          estimate D2E/DX2                !
 ! A126  A(53,52,56)           121.8723         estimate D2E/DX2                !
 ! A127  A(52,53,54)           121.3937         estimate D2E/DX2                !
 ! A128  A(52,53,55)           117.3757         estimate D2E/DX2                !
 ! A129  A(54,53,55)           121.2228         estimate D2E/DX2                !
 ! A130  A(49,55,53)           119.2132         estimate D2E/DX2                !
 ! A131  A(49,55,79)           127.427          estimate D2E/DX2                !
 ! A132  A(53,55,79)           113.0929         estimate D2E/DX2                !
 ! A133  A(52,56,57)           129.4912         estimate D2E/DX2                !
 ! A134  A(52,56,60)           119.6545         estimate D2E/DX2                !
 ! A135  A(57,56,60)           110.7831         estimate D2E/DX2                !
 ! A136  A(56,57,58)           110.9979         estimate D2E/DX2                !
 ! A137  A(56,57,80)           123.9755         estimate D2E/DX2                !
 ! A138  A(58,57,80)           124.9516         estimate D2E/DX2                !
 ! A139  A(57,58,59)           111.26           estimate D2E/DX2                !
 ! A140  A(57,58,81)           121.4838         estimate D2E/DX2                !
 ! A141  A(59,58,81)           126.8025         estimate D2E/DX2                !
 ! A142  A(58,59,60)           112.9896         estimate D2E/DX2                !
 ! A143  A(58,59,82)           123.3198         estimate D2E/DX2                !
 ! A144  A(60,59,82)           123.5837         estimate D2E/DX2                !
 ! A145  A(56,60,59)            93.72           estimate D2E/DX2                !
 ! D1    D(7,1,2,3)             -0.8527         estimate D2E/DX2                !
 ! D2    D(7,1,2,62)           177.1979         estimate D2E/DX2                !
 ! D3    D(61,1,2,3)          -179.8704         estimate D2E/DX2                !
 ! D4    D(61,1,2,62)           -1.8198         estimate D2E/DX2                !
 ! D5    D(2,1,7,5)              1.3618         estimate D2E/DX2                !
 ! D6    D(2,1,7,63)          -177.0278         estimate D2E/DX2                !
 ! D7    D(61,1,7,5)          -179.6275         estimate D2E/DX2                !
 ! D8    D(61,1,7,63)            1.9829         estimate D2E/DX2                !
 ! D9    D(1,2,3,4)             -0.3963         estimate D2E/DX2                !
 ! D10   D(62,2,3,4)          -178.4652         estimate D2E/DX2                !
 ! D11   D(2,3,4,5)              1.0671         estimate D2E/DX2                !
 ! D12   D(2,3,4,8)            176.1527         estimate D2E/DX2                !
 ! D13   D(3,4,5,6)            178.3858         estimate D2E/DX2                !
 ! D14   D(3,4,5,7)             -0.539          estimate D2E/DX2                !
 ! D15   D(8,4,5,6)              3.7995         estimate D2E/DX2                !
 ! D16   D(8,4,5,7)           -175.1253         estimate D2E/DX2                !
 ! D17   D(3,4,8,9)           -155.3032         estimate D2E/DX2                !
 ! D18   D(3,4,8,12)            30.7998         estimate D2E/DX2                !
 ! D19   D(5,4,8,9)             19.7284         estimate D2E/DX2                !
 ! D20   D(5,4,8,12)          -154.1687         estimate D2E/DX2                !
 ! D21   D(4,5,7,1)             -0.7011         estimate D2E/DX2                !
 ! D22   D(4,5,7,63)           177.835          estimate D2E/DX2                !
 ! D23   D(6,5,7,1)           -179.6992         estimate D2E/DX2                !
 ! D24   D(6,5,7,63)            -1.1631         estimate D2E/DX2                !
 ! D25   D(4,8,9,10)          -173.3918         estimate D2E/DX2                !
 ! D26   D(4,8,9,64)             2.7148         estimate D2E/DX2                !
 ! D27   D(12,8,9,10)            1.006          estimate D2E/DX2                !
 ! D28   D(12,8,9,64)          177.1126         estimate D2E/DX2                !
 ! D29   D(4,8,12,11)          175.6423         estimate D2E/DX2                !
 ! D30   D(9,8,12,11)            0.6601         estimate D2E/DX2                !
 ! D31   D(8,9,10,11)           -2.6518         estimate D2E/DX2                !
 ! D32   D(8,9,10,65)         -176.5658         estimate D2E/DX2                !
 ! D33   D(64,9,10,11)        -178.7814         estimate D2E/DX2                !
 ! D34   D(64,9,10,65)           7.3045         estimate D2E/DX2                !
 ! D35   D(9,10,11,12)           3.2542         estimate D2E/DX2                !
 ! D36   D(9,10,11,13)        -179.1775         estimate D2E/DX2                !
 ! D37   D(65,10,11,12)        176.6459         estimate D2E/DX2                !
 ! D38   D(65,10,11,13)         -5.7858         estimate D2E/DX2                !
 ! D39   D(10,11,12,8)          -2.3765         estimate D2E/DX2                !
 ! D40   D(13,11,12,8)         179.8901         estimate D2E/DX2                !
 ! D41   D(10,11,13,14)        143.2191         estimate D2E/DX2                !
 ! D42   D(10,11,13,19)        -32.9592         estimate D2E/DX2                !
 ! D43   D(12,11,13,14)        -39.2734         estimate D2E/DX2                !
 ! D44   D(12,11,13,19)        144.5483         estimate D2E/DX2                !
 ! D45   D(11,13,14,15)       -177.2569         estimate D2E/DX2                !
 ! D46   D(11,13,14,66)          2.6875         estimate D2E/DX2                !
 ! D47   D(19,13,14,15)         -0.9126         estimate D2E/DX2                !
 ! D48   D(19,13,14,66)        179.0318         estimate D2E/DX2                !
 ! D49   D(11,13,19,17)        173.982          estimate D2E/DX2                !
 ! D50   D(11,13,19,67)         -3.0061         estimate D2E/DX2                !
 ! D51   D(14,13,19,17)         -2.345          estimate D2E/DX2                !
 ! D52   D(14,13,19,67)       -179.333          estimate D2E/DX2                !
 ! D53   D(13,14,15,16)          0.7617         estimate D2E/DX2                !
 ! D54   D(66,14,15,16)       -179.183          estimate D2E/DX2                !
 ! D55   D(14,15,16,17)          2.4667         estimate D2E/DX2                !
 ! D56   D(14,15,16,20)        176.5402         estimate D2E/DX2                !
 ! D57   D(15,16,17,18)        179.8667         estimate D2E/DX2                !
 ! D58   D(15,16,17,19)         -5.5646         estimate D2E/DX2                !
 ! D59   D(20,16,17,18)          6.1446         estimate D2E/DX2                !
 ! D60   D(20,16,17,19)       -179.2867         estimate D2E/DX2                !
 ! D61   D(15,16,20,21)       -149.9609         estimate D2E/DX2                !
 ! D62   D(15,16,20,24)         35.6537         estimate D2E/DX2                !
 ! D63   D(17,16,20,21)         23.9284         estimate D2E/DX2                !
 ! D64   D(17,16,20,24)       -150.457          estimate D2E/DX2                !
 ! D65   D(16,17,19,13)          5.4934         estimate D2E/DX2                !
 ! D66   D(16,17,19,67)       -177.2882         estimate D2E/DX2                !
 ! D67   D(18,17,19,13)        179.7777         estimate D2E/DX2                !
 ! D68   D(18,17,19,67)         -3.0038         estimate D2E/DX2                !
 ! D69   D(16,20,21,22)       -179.6275         estimate D2E/DX2                !
 ! D70   D(16,20,21,68)          0.3311         estimate D2E/DX2                !
 ! D71   D(24,20,21,22)         -4.7479         estimate D2E/DX2                !
 ! D72   D(24,20,21,68)        175.2107         estimate D2E/DX2                !
 ! D73   D(16,20,24,23)       -179.9545         estimate D2E/DX2                !
 ! D74   D(21,20,24,23)          4.5632         estimate D2E/DX2                !
 ! D75   D(20,21,22,23)          2.7247         estimate D2E/DX2                !
 ! D76   D(20,21,22,69)       -178.9347         estimate D2E/DX2                !
 ! D77   D(68,21,22,23)       -177.2358         estimate D2E/DX2                !
 ! D78   D(68,21,22,69)          1.1048         estimate D2E/DX2                !
 ! D79   D(21,22,23,24)          0.8685         estimate D2E/DX2                !
 ! D80   D(21,22,23,25)        176.7526         estimate D2E/DX2                !
 ! D81   D(69,22,23,24)       -177.3478         estimate D2E/DX2                !
 ! D82   D(69,22,23,25)         -1.4637         estimate D2E/DX2                !
 ! D83   D(22,23,24,20)         -3.0617         estimate D2E/DX2                !
 ! D84   D(25,23,24,20)       -179.1706         estimate D2E/DX2                !
 ! D85   D(22,23,25,26)        148.5169         estimate D2E/DX2                !
 ! D86   D(22,23,25,31)        -31.5196         estimate D2E/DX2                !
 ! D87   D(24,23,25,26)        -35.9075         estimate D2E/DX2                !
 ! D88   D(24,23,25,31)        144.056          estimate D2E/DX2                !
 ! D89   D(23,25,26,27)       -177.1892         estimate D2E/DX2                !
 ! D90   D(23,25,26,70)          0.2849         estimate D2E/DX2                !
 ! D91   D(31,25,26,27)          2.8438         estimate D2E/DX2                !
 ! D92   D(31,25,26,70)       -179.6821         estimate D2E/DX2                !
 ! D93   D(23,25,31,29)        174.0228         estimate D2E/DX2                !
 ! D94   D(23,25,31,71)          2.379          estimate D2E/DX2                !
 ! D95   D(26,25,31,29)         -6.0092         estimate D2E/DX2                !
 ! D96   D(26,25,31,71)       -177.6529         estimate D2E/DX2                !
 ! D97   D(25,26,27,28)         -2.063          estimate D2E/DX2                !
 ! D98   D(70,26,27,28)       -179.4925         estimate D2E/DX2                !
 ! D99   D(26,27,28,29)          4.1627         estimate D2E/DX2                !
 ! D100  D(26,27,28,32)        177.1978         estimate D2E/DX2                !
 ! D101  D(27,28,29,30)       -176.8773         estimate D2E/DX2                !
 ! D102  D(27,28,29,31)         -7.1273         estimate D2E/DX2                !
 ! D103  D(32,28,29,30)         10.9766         estimate D2E/DX2                !
 ! D104  D(32,28,29,31)       -179.2734         estimate D2E/DX2                !
 ! D105  D(27,28,32,33)         13.9764         estimate D2E/DX2                !
 ! D106  D(27,28,32,36)       -167.1054         estimate D2E/DX2                !
 ! D107  D(29,28,32,33)       -173.5408         estimate D2E/DX2                !
 ! D108  D(29,28,32,36)          5.3773         estimate D2E/DX2                !
 ! D109  D(28,29,31,25)          8.4334         estimate D2E/DX2                !
 ! D110  D(28,29,31,71)       -179.1863         estimate D2E/DX2                !
 ! D111  D(30,29,31,25)        178.5596         estimate D2E/DX2                !
 ! D112  D(30,29,31,71)         -9.0601         estimate D2E/DX2                !
 ! D113  D(28,32,33,34)        177.9424         estimate D2E/DX2                !
 ! D114  D(28,32,33,72)          0.6339         estimate D2E/DX2                !
 ! D115  D(36,32,33,34)         -1.0829         estimate D2E/DX2                !
 ! D116  D(36,32,33,72)       -178.3914         estimate D2E/DX2                !
 ! D117  D(28,32,36,35)       -179.0035         estimate D2E/DX2                !
 ! D118  D(33,32,36,35)          0.09           estimate D2E/DX2                !
 ! D119  D(32,33,34,35)          1.8447         estimate D2E/DX2                !
 ! D120  D(32,33,34,73)        177.7849         estimate D2E/DX2                !
 ! D121  D(72,33,34,35)        179.1212         estimate D2E/DX2                !
 ! D122  D(72,33,34,73)         -4.9385         estimate D2E/DX2                !
 ! D123  D(33,34,35,36)         -1.7379         estimate D2E/DX2                !
 ! D124  D(33,34,35,37)        178.6878         estimate D2E/DX2                !
 ! D125  D(73,34,35,36)       -177.857          estimate D2E/DX2                !
 ! D126  D(73,34,35,37)          2.5688         estimate D2E/DX2                !
 ! D127  D(34,35,36,32)          0.9553         estimate D2E/DX2                !
 ! D128  D(37,35,36,32)       -179.4246         estimate D2E/DX2                !
 ! D129  D(34,35,37,38)       -144.8193         estimate D2E/DX2                !
 ! D130  D(34,35,37,43)         28.7082         estimate D2E/DX2                !
 ! D131  D(36,35,37,38)         35.6368         estimate D2E/DX2                !
 ! D132  D(36,35,37,43)       -150.8357         estimate D2E/DX2                !
 ! D133  D(35,37,38,39)       -178.9626         estimate D2E/DX2                !
 ! D134  D(35,37,38,74)         -5.5137         estimate D2E/DX2                !
 ! D135  D(43,37,38,39)          6.7911         estimate D2E/DX2                !
 ! D136  D(43,37,38,74)       -179.76           estimate D2E/DX2                !
 ! D137  D(35,37,43,41)       -177.3864         estimate D2E/DX2                !
 ! D138  D(35,37,43,75)          5.0215         estimate D2E/DX2                !
 ! D139  D(38,37,43,41)         -3.1391         estimate D2E/DX2                !
 ! D140  D(38,37,43,75)        179.2687         estimate D2E/DX2                !
 ! D141  D(37,38,39,40)         -7.1343         estimate D2E/DX2                !
 ! D142  D(74,38,39,40)        178.7814         estimate D2E/DX2                !
 ! D143  D(38,39,40,41)          2.9618         estimate D2E/DX2                !
 ! D144  D(38,39,40,44)       -177.6114         estimate D2E/DX2                !
 ! D145  D(39,40,41,42)        174.677          estimate D2E/DX2                !
 ! D146  D(39,40,41,43)          0.4552         estimate D2E/DX2                !
 ! D147  D(44,40,41,42)         -4.7269         estimate D2E/DX2                !
 ! D148  D(44,40,41,43)       -178.9487         estimate D2E/DX2                !
 ! D149  D(39,40,44,45)         -0.8559         estimate D2E/DX2                !
 ! D150  D(39,40,44,48)        171.9697         estimate D2E/DX2                !
 ! D151  D(41,40,44,45)        178.5559         estimate D2E/DX2                !
 ! D152  D(41,40,44,48)         -8.6186         estimate D2E/DX2                !
 ! D153  D(40,41,43,37)         -0.2193         estimate D2E/DX2                !
 ! D154  D(40,41,43,75)        177.2603         estimate D2E/DX2                !
 ! D155  D(42,41,43,37)       -174.502          estimate D2E/DX2                !
 ! D156  D(42,41,43,75)          2.9776         estimate D2E/DX2                !
 ! D157  D(40,44,45,46)        177.8651         estimate D2E/DX2                !
 ! D158  D(40,44,45,76)         -2.6911         estimate D2E/DX2                !
 ! D159  D(48,44,45,46)          3.7205         estimate D2E/DX2                !
 ! D160  D(48,44,45,76)       -176.8357         estimate D2E/DX2                !
 ! D161  D(40,44,48,47)       -175.3666         estimate D2E/DX2                !
 ! D162  D(45,44,48,47)         -1.4908         estimate D2E/DX2                !
 ! D163  D(44,45,46,47)         -4.3795         estimate D2E/DX2                !
 ! D164  D(44,45,46,77)       -179.3959         estimate D2E/DX2                !
 ! D165  D(76,45,46,47)        176.152          estimate D2E/DX2                !
 ! D166  D(76,45,46,77)          1.1356         estimate D2E/DX2                !
 ! D167  D(45,46,47,48)          2.9488         estimate D2E/DX2                !
 ! D168  D(45,46,47,49)       -178.9238         estimate D2E/DX2                !
 ! D169  D(77,46,47,48)        177.8179         estimate D2E/DX2                !
 ! D170  D(77,46,47,49)         -4.0548         estimate D2E/DX2                !
 ! D171  D(46,47,48,44)         -0.9274         estimate D2E/DX2                !
 ! D172  D(49,47,48,44)       -179.1235         estimate D2E/DX2                !
 ! D173  D(46,47,49,50)        142.6325         estimate D2E/DX2                !
 ! D174  D(46,47,49,55)        -36.7708         estimate D2E/DX2                !
 ! D175  D(48,47,49,50)        -39.4462         estimate D2E/DX2                !
 ! D176  D(48,47,49,55)        141.1504         estimate D2E/DX2                !
 ! D177  D(47,49,50,51)        179.5397         estimate D2E/DX2                !
 ! D178  D(47,49,50,78)         -2.2957         estimate D2E/DX2                !
 ! D179  D(55,49,50,51)         -1.0481         estimate D2E/DX2                !
 ! D180  D(55,49,50,78)        177.1165         estimate D2E/DX2                !
 ! D181  D(47,49,55,53)       -177.9604         estimate D2E/DX2                !
 ! D182  D(47,49,55,79)         -4.3321         estimate D2E/DX2                !
 ! D183  D(50,49,55,53)          2.5787         estimate D2E/DX2                !
 ! D184  D(50,49,55,79)        176.2069         estimate D2E/DX2                !
 ! D185  D(49,50,51,52)         -2.333          estimate D2E/DX2                !
 ! D186  D(78,50,51,52)        179.5153         estimate D2E/DX2                !
 ! D187  D(50,51,52,53)          4.0482         estimate D2E/DX2                !
 ! D188  D(50,51,52,56)       -178.9671         estimate D2E/DX2                !
 ! D189  D(51,52,53,54)        176.4953         estimate D2E/DX2                !
 ! D190  D(51,52,53,55)         -2.4969         estimate D2E/DX2                !
 ! D191  D(56,52,53,54)         -0.3192         estimate D2E/DX2                !
 ! D192  D(56,52,53,55)       -179.3114         estimate D2E/DX2                !
 ! D193  D(51,52,56,57)       -151.671          estimate D2E/DX2                !
 ! D194  D(51,52,56,60)         24.9578         estimate D2E/DX2                !
 ! D195  D(53,52,56,57)         25.3125         estimate D2E/DX2                !
 ! D196  D(53,52,56,60)       -158.0587         estimate D2E/DX2                !
 ! D197  D(52,53,55,49)         -0.965          estimate D2E/DX2                !
 ! D198  D(52,53,55,79)       -175.4672         estimate D2E/DX2                !
 ! D199  D(54,53,55,49)       -179.9591         estimate D2E/DX2                !
 ! D200  D(54,53,55,79)          5.5388         estimate D2E/DX2                !
 ! D201  D(52,56,57,58)        177.2686         estimate D2E/DX2                !
 ! D202  D(52,56,57,80)          0.2855         estimate D2E/DX2                !
 ! D203  D(60,56,57,58)          0.402          estimate D2E/DX2                !
 ! D204  D(60,56,57,80)       -176.5811         estimate D2E/DX2                !
 ! D205  D(52,56,60,59)        179.9355         estimate D2E/DX2                !
 ! D206  D(57,56,60,59)         -2.8468         estimate D2E/DX2                !
 ! D207  D(56,57,58,59)          3.0355         estimate D2E/DX2                !
 ! D208  D(56,57,58,81)        175.8048         estimate D2E/DX2                !
 ! D209  D(80,57,58,59)        179.9831         estimate D2E/DX2                !
 ! D210  D(80,57,58,81)         -7.2476         estimate D2E/DX2                !
 ! D211  D(57,58,59,60)         -5.2133         estimate D2E/DX2                !
 ! D212  D(57,58,59,82)        178.4271         estimate D2E/DX2                !
 ! D213  D(81,58,59,60)       -177.5095         estimate D2E/DX2                !
 ! D214  D(81,58,59,82)          6.131          estimate D2E/DX2                !
 ! D215  D(58,59,60,56)          4.765          estimate D2E/DX2                !
 ! D216  D(82,59,60,56)       -178.8866         estimate D2E/DX2                !
 --------------------------------------------------------------------------------
 Trust Radius=3.00D-01 FncErr=1.00D-07 GrdErr=1.00D-06 EigMax=2.50D+02 EigMin=1.00D-04
 Number of steps in this run=    462 maximum allowed number of steps=    492.
 GradGradGradGradGradGradGradGradGradGradGradGradGradGradGradGradGradGrad

 Leave Link  103 at Fri Jul 24 14:14:51 2020, MaxMem=  4026531840 cpu:               0.2 elap:               0.0
 (Enter /opt/ohpc/pub/libs/gaussian/g16-A.03/sandybridge/g16/l202.exe)
 Stoichiometry    C45H22F5N5S5
 Framework group  C1[X(C45H22F5N5S5)]
 Deg. of freedom   240
 Full point group                 C1      NOp   1
 Largest Abelian subgroup         C1      NOp   1
 Largest concise Abelian subgroup C1      NOp   1
                         Standard orientation:                         
 ---------------------------------------------------------------------
 Center     Atomic      Atomic             Coordinates (Angstroms)
 Number     Number       Type             X           Y           Z
 ---------------------------------------------------------------------
      1          6           0      -17.688207    4.157186    0.319037
      2          6           0      -16.330447    4.311263   -0.025175
      3          7           0      -15.442597    3.317934   -0.139290
      4          6           0      -15.955661    2.020088    0.125715
      5          6           0      -17.304594    1.789344    0.461246
      6          9           0      -17.797039    0.631742    0.674807
      7          6           0      -18.212943    2.921784    0.553324
      8          6           0      -14.991763    0.962579   -0.092631
      9          6           0      -15.198467   -0.331505   -0.379690
     10          6           0      -13.939010   -1.130212   -0.374859
     11          6           0      -12.891039   -0.312899   -0.133803
     12         16           0      -13.257642    1.259564    0.164406
     13          6           0      -11.454200   -0.744191   -0.069463
     14          6           0      -10.394256    0.101177   -0.578576
     15          7           0       -9.060880   -0.323794   -0.570792
     16          6           0       -8.729408   -1.523100   -0.109174
     17          6           0       -9.776184   -2.445095    0.352589
     18          9           0       -9.416920   -3.594969    0.788928
     19          6           0      -11.092526   -1.991305    0.404056
     20          6           0       -7.397115   -1.889866   -0.207037
     21          6           0       -6.823890   -3.126798   -0.355464
     22          6           0       -5.328224   -3.077417   -0.410885
     23          6           0       -4.867260   -1.760967   -0.233291
     24         16           0       -6.101272   -0.667615    0.005638
     25          6           0       -3.500752   -1.355137   -0.163680
     26          6           0       -2.988978   -0.109010   -0.602012
     27          7           0       -1.781651    0.303833   -0.617038
     28          6           0       -0.768393   -0.527639   -0.106565
     29          6           0       -1.099107   -1.834064    0.328536
     30          9           0       -0.252668   -2.615679    0.851184
     31          6           0       -2.483000   -2.180074    0.367429
     32          6           0        0.533167    0.001123   -0.229233
     33          6           0        0.914185    1.351122   -0.542184
     34          6           0        2.336226    1.542051   -0.537796
     35          6           0        3.027965    0.383660   -0.275038
     36         16           0        1.935410   -0.958655    0.021327
     37          6           0        4.476523    0.165682   -0.211282
     38          6           0        5.115520   -1.012323   -0.630420
     39          7           0        6.489374   -1.242779   -0.557217
     40          6           0        7.297737   -0.300337   -0.208409
     41          6           0        6.756669    1.020652    0.181063
     42          9           0        7.546984    1.998996    0.651530
     43          6           0        5.418750    1.165592    0.157863
     44          6           0        8.710464   -0.581732   -0.200961
     45          6           0        9.276368   -1.798963   -0.525104
     46          6           0       10.706861   -1.893274   -0.510526
     47          6           0       11.209894   -0.555361   -0.232710
     48         16           0        9.988456    0.489665    0.026333
     49          6           0       12.619167   -0.167226   -0.145373
     50          6           0       13.155373    1.013359   -0.587739
     51          7           0       14.450005    1.411102   -0.516820
     52          6           0       15.316516    0.595136    0.087091
     53          6           0       14.923041   -0.711982    0.575966
     54          9           0       15.817590   -1.554236    1.120065
     55          6           0       13.523819   -1.086200    0.434016
     56          6           0       16.684650    1.060379    0.165723
     57          6           0       17.891379    0.312841    0.219523
     58          6           0       19.029875    1.177697    0.227671
     59          6           0       18.656165    2.484040    0.248955
     60         16           0       17.002879    2.692239    0.119357
     61          1           0      -18.352330    5.077399    0.384104
     62          1           0      -15.956304    5.364222   -0.258025
     63          1           0      -19.265925    2.700594    0.781328
     64          1           0      -16.209085   -0.779957   -0.537609
     65          1           0      -13.928200   -2.126244   -0.627298
     66          1           0      -10.617422    1.017766   -0.949033
     67          1           0      -11.809896   -2.708700    0.798230
     68          1           0       -7.350238   -4.045371   -0.426601
     69          1           0       -4.725878   -3.986902   -0.544827
     70          1           0       -3.742262    0.568407   -1.017407
     71          1           0       -2.671486   -3.232741    0.738263
     72          1           0        0.215730    2.121040   -0.710568
     73          1           0        2.861898    2.492630   -0.785095
     74          1           0        4.589368   -1.870366   -0.948588
     75          1           0        4.946951    2.164681    0.499687
     76          1           0        8.670658   -2.712948   -0.788493
     77          1           0       11.274064   -2.769717   -0.748899
     78          1           0       12.418303    1.737879   -1.107080
     79          1           0       13.299231   -2.006022    0.874076
     80          1           0       17.934517   -0.774818    0.202688
     81          1           0       20.075643    0.772878    0.338050
     82          1           0       19.406768    3.355888    0.285275
 ---------------------------------------------------------------------
 Rotational constants (GHZ):           0.1715652           0.0043924           0.0042947
 Leave Link  202 at Fri Jul 24 14:14:51 2020, MaxMem=  4026531840 cpu:               0.1 elap:               0.0
 (Enter /opt/ohpc/pub/libs/gaussian/g16-A.03/sandybridge/g16/l301.exe)
 Standard basis: CC-pVDZ (5D, 7F)
 Ernie: Thresh=  0.10000D-02 Tol=  0.10000D-05 Strict=F.
 Ernie:  160 primitive shells out of 1570 were deleted.
 There are  1030 symmetry adapted cartesian basis functions of A   symmetry.
 There are   970 symmetry adapted basis functions of A   symmetry.
   970 basis functions,  2324 primitive gaussians,  1030 cartesian basis functions
   226 alpha electrons      226 beta electrons
       nuclear repulsion energy      7334.8319997314 Hartrees.
 IExCor=32609 DFT=T Ex+Corr=LC-wPBE ExCW=0 ScaHFX=  1.000000
 ScaDFX=  1.000000  0.000000  1.000000  1.000000 ScalE2=  1.000000  1.000000
 IRadAn=      5 IRanWt=     -1 IRanGd=            0 ICorTp=0 IEmpDi=  4
 HFx  wShort=  0.000000 wLong=  0.291900 cFull=  0.000000 cShort=  0.000000 cLong=  1.000000
 DFx  wShort=  0.000000 wLong=  0.291900 cFull=  0.000000 cShort=  0.000000 cLong=  1.000000
 NAtoms=   82 NActive=   82 NUniq=   82 SFac= 1.00D+00 NAtFMM=   60 NAOKFM=T Big=T
 Integral buffers will be    131072 words long.
 Raffenetti 2 integral format.
 Two-electron integral symmetry is turned on.
 Leave Link  301 at Fri Jul 24 14:14:51 2020, MaxMem=  4026531840 cpu:               0.5 elap:               0.1
 (Enter /opt/ohpc/pub/libs/gaussian/g16-A.03/sandybridge/g16/l302.exe)
 NPDir=0 NMtPBC=     1 NCelOv=     1 NCel=       1 NClECP=     1 NCelD=      1
         NCelK=      1 NCelE2=     1 NClLst=     1 CellRange=     0.0.
 One-electron integrals computed using PRISM.
 One-electron integral symmetry used in STVInt
 NBasis=   970 RedAO= T EigKep=  3.17D-04  NBF=   970
 NBsUse=   970 1.00D-06 EigRej= -1.00D+00 NBFU=   970
 Precomputing XC quadrature grid using
 IXCGrd= 4 IRadAn=           5 IRanWt=          -1 IRanGd=           0 AccXCQ= 0.00D+00.
 Generated NRdTot=       0 NPtTot=           0 NUsed=           0 NTot=          32
 NSgBfM=   604   604   604   604   604 MxSgAt=    82 MxSgA2=    75.
 Leave Link  302 at Fri Jul 24 14:14:56 2020, MaxMem=  4026531840 cpu:              36.7 elap:               4.6
 (Enter /opt/ohpc/pub/libs/gaussian/g16-A.03/sandybridge/g16/l303.exe)
 DipDrv:  MaxL=1.
 Leave Link  303 at Fri Jul 24 14:14:56 2020, MaxMem=  4026531840 cpu:               2.3 elap:               0.3
 (Enter /opt/ohpc/pub/libs/gaussian/g16-A.03/sandybridge/g16/l401.exe)
 ExpMin= 1.22D-01 ExpMax= 1.11D+05 ExpMxC= 1.07D+03 IAcc=3 IRadAn=         5 AccDes= 0.00D+00
 Harris functional with IExCor=32609 and IRadAn=       5 diagonalized for initial guess.
 HarFok:  IExCor=32609 AccDes= 0.00D+00 IRadAn=         5 IDoV= 1 UseB2=F ITyADJ=14
 ICtDFT=  3500011 ScaDFX=  1.000000  1.000000  1.000000  1.000000
 FoFCou: FMM=F IPFlag=           0 FMFlag=      100000 FMFlg1=        2001
         NFxFlg=           0 DoJE=T BraDBF=F KetDBF=T FulRan=T
         wScrn=  0.000000 ICntrl=       500 IOpCl=  0 I1Cent=   200000004 NGrid=           0
         NMat0=    1 NMatS0=      1 NMatT0=    0 NMatD0=    1 NMtDS0=    0 NMtDT0=    0
 Petite list used in FoFCou.
 Harris En= -4488.90583951254    
 JPrj=0 DoOrth=F DoCkMO=F.
 Initial guess <Sx>= 0.0000 <Sy>= 0.0000 <Sz>= 0.0000 <S**2>=-0.0000 S=-0.0000
 Leave Link  401 at Fri Jul 24 14:15:11 2020, MaxMem=  4026531840 cpu:             123.3 elap:              15.5
 (Enter /opt/ohpc/pub/libs/gaussian/g16-A.03/sandybridge/g16/l502.exe)
 Integral symmetry usage will be decided dynamically.
 UHF open shell SCF:
 Using DIIS extrapolation, IDIIS=  1040.
 NGot=  4026531840 LenX=  4024391664 LenY=  4023329734
 Requested convergence on RMS density matrix=1.00D-08 within 128 cycles.
 Requested convergence on MAX density matrix=1.00D-06.
 Requested convergence on             energy=1.00D-06.
 No special actions if energy rises.
 Fock matrices will be formed incrementally for  20 cycles.
 Integral accuracy reduced to 1.0D-05 until final iterations.

 Cycle   1  Pass 0  IDiag  1:
 FoFJK:  IHMeth= 1 ICntrl=       0 DoSepK=T KAlg= 0 I1Cent=           0 FoldK=F
 IRaf=         1 NMat=       1 IRICut=       1 DoRegI=T DoRafI=F ISym2E= 0 IDoP0=0 IntGTp=1.
 FoFCou: FMM=T IPFlag=           0 FMFlag=      100000 FMFlg1=        2001
         NFxFlg=           0 DoJE=T BraDBF=F KetDBF=F FulRan=T
         wScrn=  0.000000 ICntrl=       500 IOpCl=  0 I1Cent=           0 NGrid=           0
         NMat0=    1 NMatS0=      1 NMatT0=    0 NMatD0=    1 NMtDS0=    0 NMtDT0=    0
 Symmetry not used in FoFCou.
 FMM levels:  10  Number of levels for PrismC:   9
 E= -4488.24515077972    
 DIIS: error= 1.69D-02 at cycle   1 NSaved=   1.
 NSaved= 1 IEnMin= 1 EnMin= -4488.24515077972     IErMin= 1 ErrMin= 1.69D-02
 ErrMax= 1.69D-02  0.00D+00 EMaxC= 1.00D-01 BMatC= 3.90D+00 BMatP= 3.90D+00
 IDIUse=3 WtCom= 8.31D-01 WtEn= 1.69D-01
 Coeff-Com:  0.100D+01
 Coeff-En:   0.100D+01
 Coeff:      0.100D+01
 Gap=     0.193 Goal=   None    Shift=    0.000
 Gap=     0.193 Goal=   None    Shift=    0.000
 GapD=    0.193 DampG=1.000 DampE=0.500 DampFc=0.5000 IDamp=-1.
 Damping current iteration by 5.00D-01
 RMSDP=2.25D-03 MaxDP=1.59D-01              OVMax= 2.24D-01

 Cycle   2  Pass 0  IDiag  1:
 RMSU=  1.12D-03    CP:  9.89D-01
 E= -4488.79335929312     Delta-E=       -0.548208513403 Rises=F Damp=T
 DIIS: error= 4.72D-03 at cycle   2 NSaved=   2.
 NSaved= 2 IEnMin= 2 EnMin= -4488.79335929312     IErMin= 2 ErrMin= 4.72D-03
 ErrMax= 4.72D-03  0.00D+00 EMaxC= 1.00D-01 BMatC= 1.88D-01 BMatP= 3.90D+00
 IDIUse=3 WtCom= 9.53D-01 WtEn= 4.72D-02
 Coeff-Com:  0.268D-02 0.997D+00
 Coeff-En:   0.000D+00 0.100D+01
 Coeff:      0.255D-02 0.997D+00
 Gap=     0.238 Goal=   None    Shift=    0.000
 Gap=     0.238 Goal=   None    Shift=    0.000
 RMSDP=6.51D-04 MaxDP=2.63D-02 DE=-5.48D-01 OVMax= 1.41D-01

 Cycle   3  Pass 0  IDiag  1:
 RMSU=  6.36D-04    CP:  9.82D-01  1.10D+00
 E= -4489.36461243513     Delta-E=       -0.571253142009 Rises=F Damp=F
 DIIS: error= 2.24D-03 at cycle   3 NSaved=   3.
 NSaved= 3 IEnMin= 3 EnMin= -4489.36461243513     IErMin= 3 ErrMin= 2.24D-03
 ErrMax= 2.24D-03  0.00D+00 EMaxC= 1.00D-01 BMatC= 6.33D-02 BMatP= 1.88D-01
 IDIUse=3 WtCom= 9.78D-01 WtEn= 2.24D-02
 Coeff-Com: -0.243D-01 0.343D+00 0.681D+00
 Coeff-En:   0.000D+00 0.000D+00 0.100D+01
 Coeff:     -0.238D-01 0.336D+00 0.688D+00
 Gap=     0.238 Goal=   None    Shift=    0.000
 Gap=     0.238 Goal=   None    Shift=    0.000
 RMSDP=1.92D-04 MaxDP=1.20D-02 DE=-5.71D-01 OVMax= 2.85D-02

 Cycle   4  Pass 0  IDiag  1:
 RMSU=  1.72D-04    CP:  9.82D-01  1.14D+00  8.83D-01
 E= -4489.37983391365     Delta-E=       -0.015221478521 Rises=F Damp=F
 DIIS: error= 9.92D-04 at cycle   4 NSaved=   4.
 NSaved= 4 IEnMin= 4 EnMin= -4489.37983391365     IErMin= 4 ErrMin= 9.92D-04
 ErrMax= 9.92D-04  0.00D+00 EMaxC= 1.00D-01 BMatC= 1.26D-02 BMatP= 6.33D-02
 IDIUse=3 WtCom= 9.90D-01 WtEn= 9.92D-03
 Coeff-Com: -0.223D-02 0.326D-01 0.301D+00 0.669D+00
 Coeff-En:   0.000D+00 0.000D+00 0.103D-01 0.990D+00
 Coeff:     -0.221D-02 0.323D-01 0.298D+00 0.672D+00
 Gap=     0.241 Goal=   None    Shift=    0.000
 Gap=     0.241 Goal=   None    Shift=    0.000
 RMSDP=7.45D-05 MaxDP=5.23D-03 DE=-1.52D-02 OVMax= 9.37D-03

 Cycle   5  Pass 0  IDiag  1:
 RMSU=  5.99D-05    CP:  9.81D-01  1.13D+00  9.41D-01  8.65D-01
 E= -4489.38330975822     Delta-E=       -0.003475844569 Rises=F Damp=F
 DIIS: error= 4.08D-04 at cycle   5 NSaved=   5.
 NSaved= 5 IEnMin= 5 EnMin= -4489.38330975822     IErMin= 5 ErrMin= 4.08D-04
 ErrMax= 4.08D-04  0.00D+00 EMaxC= 1.00D-01 BMatC= 1.58D-03 BMatP= 1.26D-02
 IDIUse=3 WtCom= 9.96D-01 WtEn= 4.08D-03
 Coeff-Com:  0.541D-02-0.340D-01 0.430D-01 0.282D+00 0.704D+00
 Coeff-En:   0.000D+00 0.000D+00 0.000D+00 0.000D+00 0.100D+01
 Coeff:      0.539D-02-0.339D-01 0.428D-01 0.281D+00 0.705D+00
 Gap=     0.242 Goal=   None    Shift=    0.000
 Gap=     0.242 Goal=   None    Shift=    0.000
 RMSDP=3.31D-05 MaxDP=1.67D-03 DE=-3.48D-03 OVMax= 4.63D-03

 Cycle   6  Pass 0  IDiag  1:
 RMSU=  2.55D-05    CP:  9.81D-01  1.13D+00  9.59D-01  9.66D-01  9.94D-01
 E= -4489.38388411765     Delta-E=       -0.000574359430 Rises=F Damp=F
 DIIS: error= 1.89D-04 at cycle   6 NSaved=   6.
 NSaved= 6 IEnMin= 6 EnMin= -4489.38388411765     IErMin= 6 ErrMin= 1.89D-04
 ErrMax= 1.89D-04  0.00D+00 EMaxC= 1.00D-01 BMatC= 2.56D-04 BMatP= 1.58D-03
 IDIUse=3 WtCom= 9.98D-01 WtEn= 1.89D-03
 Coeff-Com:  0.413D-02-0.232D-01-0.323D-01 0.335D-02 0.274D+00 0.774D+00
 Coeff-En:   0.000D+00 0.000D+00 0.000D+00 0.000D+00 0.000D+00 0.100D+01
 Coeff:      0.412D-02-0.231D-01-0.322D-01 0.334D-02 0.274D+00 0.774D+00
 Gap=     0.243 Goal=   None    Shift=    0.000
 Gap=     0.243 Goal=   None    Shift=    0.000
 RMSDP=1.83D-05 MaxDP=1.28D-03 DE=-5.74D-04 OVMax= 3.50D-03

 Cycle   7  Pass 0  IDiag  1:
 RMSU=  1.29D-05    CP:  9.81D-01  1.13D+00  9.70D-01  9.99D-01  1.15D+00
                    CP:  1.07D+00
 E= -4489.38402655041     Delta-E=       -0.000142432753 Rises=F Damp=F
 DIIS: error= 6.17D-05 at cycle   7 NSaved=   7.
 NSaved= 7 IEnMin= 7 EnMin= -4489.38402655041     IErMin= 7 ErrMin= 6.17D-05
 ErrMax= 6.17D-05  0.00D+00 EMaxC= 1.00D-01 BMatC= 5.04D-05 BMatP= 2.56D-04
 IDIUse=1 WtCom= 1.00D+00 WtEn= 0.00D+00
 Coeff-Com:  0.111D-02-0.401D-02-0.186D-01-0.472D-01-0.301D-01 0.299D+00
 Coeff-Com:  0.800D+00
 Coeff:      0.111D-02-0.401D-02-0.186D-01-0.472D-01-0.301D-01 0.299D+00
 Coeff:      0.800D+00
 Gap=     0.244 Goal=   None    Shift=    0.000
 Gap=     0.244 Goal=   None    Shift=    0.000
 RMSDP=1.15D-05 MaxDP=6.36D-04 DE=-1.42D-04 OVMax= 1.93D-03

 Cycle   8  Pass 0  IDiag  1:
 RMSU=  8.32D-06    CP:  9.81D-01  1.13D+00  9.72D-01  1.02D+00  1.21D+00
                    CP:  1.30D+00  1.16D+00
 E= -4489.38406063338     Delta-E=       -0.000034082970 Rises=F Damp=F
 DIIS: error= 3.65D-05 at cycle   8 NSaved=   8.
 NSaved= 8 IEnMin= 8 EnMin= -4489.38406063338     IErMin= 8 ErrMin= 3.65D-05
 ErrMax= 3.65D-05  0.00D+00 EMaxC= 1.00D-01 BMatC= 1.21D-05 BMatP= 5.04D-05
 IDIUse=1 WtCom= 1.00D+00 WtEn= 0.00D+00
 Coeff-Com: -0.194D-03 0.235D-02-0.129D-02-0.202D-01-0.686D-01-0.275D-01
 Coeff-Com:  0.351D+00 0.764D+00
 Coeff:     -0.194D-03 0.235D-02-0.129D-02-0.202D-01-0.686D-01-0.275D-01
 Coeff:      0.351D+00 0.764D+00
 Gap=     0.244 Goal=   None    Shift=    0.000
 Gap=     0.244 Goal=   None    Shift=    0.000
 RMSDP=9.50D-06 MaxDP=3.31D-04 DE=-3.41D-05 OVMax= 8.89D-04

 Initial convergence to 1.0D-05 achieved.  Increase integral accuracy.
 Cycle   9  Pass 1  IDiag  1:
 E= -4489.38320184616     Delta-E=        0.000858787213 Rises=F Damp=F
 DIIS: error= 1.88D-04 at cycle   1 NSaved=   1.
 NSaved= 1 IEnMin= 1 EnMin= -4489.38320184616     IErMin= 1 ErrMin= 1.88D-04
 ErrMax= 1.88D-04  0.00D+00 EMaxC= 1.00D-01 BMatC= 1.33D-04 BMatP= 1.33D-04
 IDIUse=3 WtCom= 9.98D-01 WtEn= 1.88D-03
 Coeff-Com:  0.100D+01
 Coeff-En:   0.100D+01
 Coeff:      0.100D+01
 Gap=     0.244 Goal=   None    Shift=    0.000
 Gap=     0.244 Goal=   None    Shift=    0.000
 RMSDP=9.50D-06 MaxDP=3.31D-04 DE= 8.59D-04 OVMax= 4.69D-04

 Cycle  10  Pass 1  IDiag  1:
 RMSU=  1.14D-04    CP:  1.00D+00
 E= -4489.38323006793     Delta-E=       -0.000028221766 Rises=F Damp=F
 DIIS: error= 1.33D-05 at cycle   2 NSaved=   2.
 NSaved= 2 IEnMin= 2 EnMin= -4489.38323006793     IErMin= 2 ErrMin= 1.33D-05
 ErrMax= 1.33D-05  0.00D+00 EMaxC= 1.00D-01 BMatC= 1.66D-06 BMatP= 1.33D-04
 IDIUse=1 WtCom= 1.00D+00 WtEn= 0.00D+00
 Coeff-Com: -0.200D-01 0.102D+01
 Coeff:     -0.200D-01 0.102D+01
 Gap=     0.244 Goal=   None    Shift=    0.000
 Gap=     0.244 Goal=   None    Shift=    0.000
 RMSDP=6.23D-06 MaxDP=3.28D-04 DE=-2.82D-05 OVMax= 2.45D-04

 Cycle  11  Pass 1  IDiag  1:
 RMSU=  2.32D-06    CP:  1.00D+00  1.05D+00
 E= -4489.38322996439     Delta-E=        0.000000103542 Rises=F Damp=F
 DIIS: error= 2.20D-05 at cycle   3 NSaved=   3.
 NSaved= 3 IEnMin= 2 EnMin= -4489.38323006793     IErMin= 2 ErrMin= 1.33D-05
 ErrMax= 2.20D-05  0.00D+00 EMaxC= 1.00D-01 BMatC= 2.67D-06 BMatP= 1.66D-06
 IDIUse=1 WtCom= 1.00D+00 WtEn= 0.00D+00
 Coeff-Com: -0.229D-01 0.585D+00 0.437D+00
 Coeff:     -0.229D-01 0.585D+00 0.437D+00
 Gap=     0.244 Goal=   None    Shift=    0.000
 Gap=     0.244 Goal=   None    Shift=    0.000
 RMSDP=9.06D-07 MaxDP=9.44D-05 DE= 1.04D-07 OVMax= 1.36D-04

 Cycle  12  Pass 1  IDiag  1:
 RMSU=  8.08D-07    CP:  1.00D+00  1.05D+00  8.52D-01
 E= -4489.38323070570     Delta-E=       -0.000000741316 Rises=F Damp=F
 DIIS: error= 2.37D-06 at cycle   4 NSaved=   4.
 NSaved= 4 IEnMin= 4 EnMin= -4489.38323070570     IErMin= 4 ErrMin= 2.37D-06
 ErrMax= 2.37D-06  0.00D+00 EMaxC= 1.00D-01 BMatC= 4.39D-08 BMatP= 1.66D-06
 IDIUse=1 WtCom= 1.00D+00 WtEn= 0.00D+00
 Coeff-Com: -0.205D-02 0.215D-01 0.551D-01 0.925D+00
 Coeff:     -0.205D-02 0.215D-01 0.551D-01 0.925D+00
 Gap=     0.244 Goal=   None    Shift=    0.000
 Gap=     0.244 Goal=   None    Shift=    0.000
 RMSDP=3.31D-07 MaxDP=2.21D-05 DE=-7.41D-07 OVMax= 6.11D-05

 Cycle  13  Pass 1  IDiag  1:
 RMSU=  2.41D-07    CP:  1.00D+00  1.05D+00  9.25D-01  1.12D+00
 E= -4489.38323074877     Delta-E=       -0.000000043065 Rises=F Damp=F
 DIIS: error= 1.82D-06 at cycle   5 NSaved=   5.
 NSaved= 5 IEnMin= 5 EnMin= -4489.38323074877     IErMin= 5 ErrMin= 1.82D-06
 ErrMax= 1.82D-06  0.00D+00 EMaxC= 1.00D-01 BMatC= 2.21D-08 BMatP= 4.39D-08
 IDIUse=1 WtCom= 1.00D+00 WtEn= 0.00D+00
 Coeff-Com:  0.638D-02-0.179D+00-0.117D+00 0.455D+00 0.834D+00
 Coeff:      0.638D-02-0.179D+00-0.117D+00 0.455D+00 0.834D+00
 Gap=     0.244 Goal=   None    Shift=    0.000
 Gap=     0.244 Goal=   None    Shift=    0.000
 RMSDP=2.31D-07 MaxDP=1.52D-05 DE=-4.31D-08 OVMax= 5.93D-05

 Cycle  14  Pass 1  IDiag  1:
 RMSU=  1.40D-07    CP:  1.00D+00  1.05D+00  9.63D-01  1.26D+00  1.46D+00
 E= -4489.38323076898     Delta-E=       -0.000000020214 Rises=F Damp=F
 DIIS: error= 6.17D-07 at cycle   6 NSaved=   6.
 NSaved= 6 IEnMin= 6 EnMin= -4489.38323076898     IErMin= 6 ErrMin= 6.17D-07
 ErrMax= 6.17D-07  0.00D+00 EMaxC= 1.00D-01 BMatC= 3.49D-09 BMatP= 2.21D-08
 IDIUse=1 WtCom= 1.00D+00 WtEn= 0.00D+00
 Coeff-Com:  0.244D-02-0.614D-01-0.490D-01-0.387D-01 0.298D+00 0.848D+00
 Coeff:      0.244D-02-0.614D-01-0.490D-01-0.387D-01 0.298D+00 0.848D+00
 Gap=     0.244 Goal=   None    Shift=    0.000
 Gap=     0.244 Goal=   None    Shift=    0.000
 RMSDP=9.37D-08 MaxDP=6.06D-06 DE=-2.02D-08 OVMax= 2.35D-05

 Cycle  15  Pass 1  IDiag  1:
 RMSU=  4.37D-08    CP:  1.00D+00  1.05D+00  9.69D-01  1.28D+00  1.77D+00
                    CP:  1.18D+00
 E= -4489.38323077229     Delta-E=       -0.000000003311 Rises=F Damp=F
 DIIS: error= 2.72D-07 at cycle   7 NSaved=   7.
 NSaved= 7 IEnMin= 7 EnMin= -4489.38323077229     IErMin= 7 ErrMin= 2.72D-07
 ErrMax= 2.72D-07  0.00D+00 EMaxC= 1.00D-01 BMatC= 7.83D-10 BMatP= 3.49D-09
 IDIUse=1 WtCom= 1.00D+00 WtEn= 0.00D+00
 Coeff-Com: -0.315D-03 0.120D-01 0.312D-02-0.126D+00-0.499D-01 0.390D+00
 Coeff-Com:  0.771D+00
 Coeff:     -0.315D-03 0.120D-01 0.312D-02-0.126D+00-0.499D-01 0.390D+00
 Coeff:      0.771D+00
 Gap=     0.244 Goal=   None    Shift=    0.000
 Gap=     0.244 Goal=   None    Shift=    0.000
 RMSDP=4.25D-08 MaxDP=2.89D-06 DE=-3.31D-09 OVMax= 1.06D-05

 Cycle  16  Pass 1  IDiag  1:
 RMSU=  1.83D-08    CP:  1.00D+00  1.05D+00  9.68D-01  1.28D+00  1.89D+00
                    CP:  1.34D+00  1.02D+00
 E= -4489.38323077265     Delta-E=       -0.000000000357 Rises=F Damp=F
 DIIS: error= 9.11D-08 at cycle   8 NSaved=   8.
 NSaved= 8 IEnMin= 8 EnMin= -4489.38323077265     IErMin= 8 ErrMin= 9.11D-08
 ErrMax= 9.11D-08  0.00D+00 EMaxC= 1.00D-01 BMatC= 6.10D-11 BMatP= 7.83D-10
 IDIUse=1 WtCom= 1.00D+00 WtEn= 0.00D+00
 Coeff-Com: -0.280D-03 0.870D-02 0.424D-02-0.485D-01-0.397D-01 0.103D+00
 Coeff-Com:  0.309D+00 0.663D+00
 Coeff:     -0.280D-03 0.870D-02 0.424D-02-0.485D-01-0.397D-01 0.103D+00
 Coeff:      0.309D+00 0.663D+00
 Gap=     0.244 Goal=   None    Shift=    0.000
 Gap=     0.244 Goal=   None    Shift=    0.000
 RMSDP=8.47D-09 MaxDP=4.52D-07 DE=-3.57D-10 OVMax= 2.47D-06

 SCF Done:  E(ULC-wPBE) =  -4489.38323077     A.U. after   16 cycles
            NFock= 16  Conv=0.85D-08     -V/T= 2.0045
 <Sx>= 0.0000 <Sy>= 0.0000 <Sz>= 0.0000 <S**2>=-0.0000 S=-0.0000
 <L.S>= 0.000000000000E+00
 KE= 4.469201489653D+03 PE=-2.523384675958D+04 EE= 8.940430039423D+03
 Annihilation of the first spin contaminant:
 S**2 before annihilation    -0.0000,   after    -0.0000
[...]
 
              Baa    -0.0000    -0.000    -0.000    -0.000  0.1621 -0.0812  0.9834
    23 C(13)  Bbb     0.0000     0.000     0.000     0.000 -0.6960  0.6971  0.1722
              Bcc     0.0000     0.000     0.000     0.000  0.6995  0.7124 -0.0565
 
              Baa    -0.0000    -0.000    -0.000    -0.000  0.8137 -0.4796  0.3284
    24 S(33)  Bbb    -0.0000    -0.000    -0.000    -0.000 -0.1716  0.3416  0.9240
              Bcc     0.0000     0.000     0.000     0.000  0.5554  0.8082 -0.1957
 
              Baa    -0.0000    -0.000    -0.000    -0.000  0.9384  0.2629 -0.2242
    25 C(13)  Bbb     0.0000     0.000     0.000     0.000 -0.2784  0.9596 -0.0402
              Bcc     0.0000     0.000     0.000     0.000  0.2046  0.1001  0.9737
 
              Baa    -0.0000    -0.000    -0.000    -0.000 -0.4353 -0.2665  0.8599
    26 C(13)  Bbb     0.0000     0.000     0.000     0.000  0.0779  0.9405  0.3308
              Bcc     0.0000     0.000     0.000     0.000  0.8969 -0.2110  0.3887
 
              Baa    -0.0000    -0.000    -0.000    -0.000 -0.5903 -0.0487  0.8057
    27 N(14)  Bbb    -0.0000    -0.000    -0.000    -0.000  0.6215  0.6096  0.4921
              Bcc     0.0000     0.000     0.000     0.000 -0.5152  0.7912 -0.3295
 
              Baa    -0.0000    -0.000    -0.000    -0.000  0.7115  0.5758  0.4029
    28 C(13)  Bbb    -0.0000    -0.000    -0.000    -0.000 -0.5527  0.1044  0.8268
              Bcc     0.0000     0.000     0.000     0.000 -0.4340  0.8109 -0.3925
 
              Baa    -0.0000    -0.000    -0.000    -0.000  0.9807 -0.1371  0.1395
    29 C(13)  Bbb     0.0000     0.000     0.000     0.000 -0.1951 -0.6347  0.7478
              Bcc     0.0000     0.000     0.000     0.000  0.0140  0.7605  0.6492
 
              Baa    -0.0000    -0.000    -0.000    -0.000  0.2163  0.2050  0.9546
    30 F(19)  Bbb    -0.0000    -0.000    -0.000    -0.000  0.7878 -0.6142 -0.0466
              Bcc     0.0000     0.000     0.000     0.000  0.5767  0.7621 -0.2943
 
              Baa    -0.0000    -0.000    -0.000    -0.000 -0.1419  0.5223  0.8409
    31 C(13)  Bbb     0.0000     0.000     0.000     0.000  0.7425  0.6180 -0.2585
              Bcc     0.0000     0.000     0.000     0.000  0.6546 -0.5877  0.4755
 
              Baa    -0.0000    -0.000    -0.000    -0.000  0.5539  0.7812 -0.2881
    32 C(13)  Bbb    -0.0000    -0.000    -0.000    -0.000  0.4284  0.0293  0.9031
              Bcc     0.0000     0.000     0.000     0.000  0.7139 -0.6237 -0.3184
 
              Baa    -0.0000    -0.000    -0.000    -0.000  0.0775  0.8691 -0.4885
    33 C(13)  Bbb    -0.0000    -0.000    -0.000    -0.000  0.1000  0.4808  0.8711
              Bcc     0.0000     0.000     0.000     0.000  0.9920 -0.1164 -0.0496
 
              Baa    -0.0000    -0.000    -0.000    -0.000  0.0184  0.9375 -0.3476
    34 C(13)  Bbb     0.0000     0.000     0.000     0.000  0.9579 -0.1162 -0.2626
              Bcc     0.0000     0.000     0.000     0.000  0.2866  0.3281  0.9001
 
              Baa    -0.0000    -0.000    -0.000    -0.000  0.2562  0.2083  0.9439
    35 C(13)  Bbb    -0.0000    -0.000    -0.000    -0.000 -0.2410  0.9594 -0.1463
              Bcc     0.0000     0.000     0.000     0.000  0.9361  0.1900 -0.2960
 
              Baa    -0.0000    -0.000    -0.000    -0.000  0.2698 -0.4290  0.8621
    36 S(33)  Bbb     0.0000     0.000     0.000     0.000 -0.5695  0.6508  0.5021
              Bcc     0.0000     0.000     0.000     0.000  0.7764  0.6264  0.0687
 
              Baa    -0.0000    -0.000    -0.000    -0.000  0.8787 -0.4608  0.1248
    37 C(13)  Bbb     0.0000     0.000     0.000     0.000 -0.0871  0.1023  0.9909
              Bcc     0.0000     0.000     0.000     0.000  0.4694  0.8816 -0.0497
 
              Baa    -0.0000    -0.000    -0.000    -0.000 -0.0490  0.1853  0.9815
    38 C(13)  Bbb    -0.0000    -0.000    -0.000    -0.000  0.3904  0.9080 -0.1520
              Bcc     0.0000     0.000     0.000     0.000  0.9193 -0.3757  0.1168
 
              Baa    -0.0000    -0.000    -0.000    -0.000  0.9977 -0.0664 -0.0151
    39 N(14)  Bbb     0.0000     0.000     0.000     0.000  0.0545  0.6456  0.7617
              Bcc     0.0000     0.000     0.000     0.000  0.0408  0.7608 -0.6477
 
              Baa    -0.0000    -0.000    -0.000    -0.000  0.9566  0.2700 -0.1097
    40 C(13)  Bbb    -0.0000    -0.000    -0.000    -0.000  0.0791  0.1216  0.9894
              Bcc     0.0000     0.000     0.000     0.000 -0.2805  0.9551 -0.0950
 
              Baa    -0.0000    -0.000    -0.000    -0.000 -0.2004 -0.3486  0.9156
    41 C(13)  Bbb    -0.0000    -0.000    -0.000    -0.000 -0.1058  0.9368  0.3335
              Bcc     0.0000     0.000     0.000     0.000  0.9740  0.0301  0.2247
 
              Baa    -0.0000    -0.000    -0.000    -0.000  0.8059 -0.5818  0.1099
    42 F(19)  Bbb     0.0000     0.000     0.000     0.000  0.0156  0.2065  0.9783
              Bcc     0.0000     0.000     0.000     0.000  0.5919  0.7867 -0.1755
 
              Baa    -0.0000    -0.000    -0.000    -0.000 -0.1936  0.9794 -0.0573
    43 C(13)  Bbb     0.0000     0.000     0.000     0.000  0.9732  0.1991  0.1151
              Bcc     0.0000     0.000     0.000     0.000 -0.1241  0.0335  0.9917
 
              Baa    -0.0000    -0.000    -0.000    -0.000  0.6954  0.7186 -0.0030
    44 C(13)  Bbb     0.0000     0.000     0.000     0.000  0.6516 -0.6288  0.4242
              Bcc     0.0000     0.000     0.000     0.000 -0.3029  0.2969  0.9056
 
              Baa    -0.0000    -0.000    -0.000    -0.000 -0.0171  0.8657 -0.5002
    45 C(13)  Bbb    -0.0000    -0.000    -0.000    -0.000 -0.4213  0.4475  0.7888
              Bcc     0.0000     0.000     0.000     0.000  0.9068  0.2242  0.3571
 
              Baa    -0.0000    -0.000    -0.000    -0.000 -0.0042  0.1490  0.9888
    46 C(13)  Bbb    -0.0000    -0.000    -0.000    -0.000  0.9212 -0.3842  0.0618
              Bcc     0.0000     0.000     0.000     0.000  0.3891  0.9111 -0.1356
 
              Baa    -0.0000    -0.000    -0.000    -0.000  0.3161  0.9216 -0.2252
    47 C(13)  Bbb     0.0000     0.000     0.000     0.000  0.9289 -0.2523  0.2713
              Bcc     0.0000     0.000     0.000     0.000 -0.1932  0.2949  0.9358
 
              Baa    -0.0000    -0.000    -0.000    -0.000  0.8763 -0.4342  0.2086
    48 S(33)  Bbb    -0.0000    -0.000    -0.000    -0.000 -0.1474  0.1705  0.9743
              Bcc     0.0000     0.000     0.000     0.000  0.4586  0.8845 -0.0854
 
              Baa    -0.0000    -0.000    -0.000    -0.000 -0.4713  0.7055 -0.5293
    49 C(13)  Bbb     0.0000     0.000     0.000     0.000  0.8812  0.3514 -0.3162
              Bcc     0.0000     0.000     0.000     0.000  0.0371  0.6154  0.7873
 
              Baa    -0.0000    -0.000    -0.000    -0.000  0.4290  0.6291  0.6482
    50 C(13)  Bbb    -0.0000    -0.000    -0.000    -0.000  0.8905 -0.1743 -0.4202
              Bcc     0.0000     0.000     0.000     0.000 -0.1514  0.7575 -0.6350
 
              Baa    -0.0000    -0.000    -0.000    -0.000  0.6322  0.7719 -0.0665
    51 N(14)  Bbb    -0.0000    -0.000    -0.000    -0.000  0.7744 -0.6323  0.0228
              Bcc     0.0000     0.000     0.000     0.000  0.0244  0.0659  0.9975
 
              Baa    -0.0000    -0.000    -0.000    -0.000  0.9523  0.1899  0.2389
    52 C(13)  Bbb    -0.0000    -0.000    -0.000    -0.000 -0.2954  0.7701  0.5654
              Bcc     0.0000     0.000     0.000     0.000 -0.0766 -0.6090  0.7894
 
              Baa    -0.0000    -0.000    -0.000    -0.000  0.1114  0.8383  0.5337
    53 C(13)  Bbb    -0.0000    -0.000    -0.000    -0.000  0.9931 -0.1142 -0.0280
              Bcc     0.0000     0.000     0.000     0.000 -0.0375 -0.5331  0.8452
 
              Baa    -0.0000    -0.000    -0.000    -0.000  0.3132 -0.6498  0.6926
    54 F(19)  Bbb     0.0000     0.000     0.000     0.000  0.9171  0.3963 -0.0430
              Bcc     0.0000     0.000     0.000     0.000 -0.2466  0.6486  0.7200
 
              Baa    -0.0000    -0.000    -0.000    -0.000  0.3781  0.8092 -0.4496
    55 C(13)  Bbb     0.0000     0.000     0.000     0.000 -0.4961  0.5872  0.6396
              Bcc     0.0000     0.000     0.000     0.000  0.7816 -0.0188  0.6235
 
              Baa    -0.0000    -0.000    -0.000    -0.000 -0.1737  0.6954  0.6973
    56 C(13)  Bbb    -0.0000    -0.000    -0.000    -0.000  0.1787  0.7186 -0.6721
              Bcc     0.0000     0.000     0.000     0.000  0.9685 -0.0079  0.2491
 
              Baa    -0.0000    -0.000    -0.000    -0.000  0.9104 -0.3871  0.1458
    57 C(13)  Bbb     0.0000     0.000     0.000     0.000  0.1054  0.5579  0.8232
              Bcc     0.0000     0.000     0.000     0.000  0.4000  0.7341 -0.5487
 
              Baa    -0.0000    -0.000    -0.000    -0.000 -0.5438 -0.3794  0.7486
    58 C(13)  Bbb     0.0000     0.000     0.000     0.000  0.5643  0.4950  0.6607
              Bcc     0.0000     0.000     0.000     0.000 -0.6212  0.7817 -0.0551
 
              Baa    -0.0000    -0.000    -0.000    -0.000 -0.1250  0.9910  0.0485
    59 C(13)  Bbb    -0.0000    -0.000    -0.000    -0.000  0.8868  0.1335 -0.4425
              Bcc     0.0000     0.000     0.000     0.000  0.4449  0.0123  0.8955
 
              Baa    -0.0000    -0.000    -0.000    -0.000  0.6779 -0.3330  0.6554
    60 S(33)  Bbb     0.0000     0.000     0.000     0.000 -0.7012 -0.0249  0.7125
              Bcc     0.0000     0.000     0.000     0.000  0.2210  0.9426  0.2504
 
              Baa    -0.0000    -0.000    -0.000    -0.000  0.9590 -0.0602  0.2769
    61 H(1)   Bbb    -0.0000    -0.000    -0.000    -0.000 -0.2819 -0.3027  0.9104
              Bcc     0.0000     0.000     0.000     0.000 -0.0290  0.9512  0.3073
 
              Baa    -0.0000    -0.000    -0.000    -0.000 -0.5230 -0.2216  0.8231
    62 H(1)   Bbb    -0.0000    -0.000    -0.000    -0.000  0.7213 -0.6295  0.2889
              Bcc     0.0000     0.000     0.000     0.000  0.4541  0.7447  0.4890
 
              Baa    -0.0000    -0.000    -0.000    -0.000  0.7269 -0.0034 -0.6867
    63 H(1)   Bbb     0.0000     0.000     0.000     0.000  0.6759 -0.1731  0.7164
              Bcc     0.0000     0.000     0.000     0.000  0.1213  0.9849  0.1235
 
              Baa    -0.0000    -0.000    -0.000    -0.000  0.0086 -0.5805  0.8142
    64 H(1)   Bbb    -0.0000    -0.000    -0.000    -0.000 -0.3403  0.7640  0.5482
              Bcc     0.0000     0.000     0.000     0.000  0.9403  0.2818  0.1910
 
              Baa    -0.0000    -0.000    -0.000    -0.000 -0.2467 -0.2267  0.9422
    65 H(1)   Bbb    -0.0000    -0.000    -0.000    -0.000  0.9145 -0.3761  0.1490
              Bcc     0.0000     0.000     0.000     0.000  0.3206  0.8984  0.3001
 
              Baa    -0.0000    -0.000    -0.000    -0.000  0.1740  0.2318  0.9571
    66 H(1)   Bbb    -0.0000    -0.000    -0.000    -0.000  0.9386  0.2550 -0.2324
              Bcc     0.0000     0.000     0.000     0.000 -0.2979  0.9388 -0.1732
 
              Baa    -0.0000    -0.000    -0.000    -0.000 -0.0885  0.9447 -0.3158
    67 H(1)   Bbb    -0.0000    -0.000    -0.000    -0.000 -0.0190  0.3154  0.9488
              Bcc     0.0000     0.000     0.000     0.000  0.9959  0.0900 -0.0099
 
              Baa    -0.0000    -0.000    -0.000    -0.000  0.0453  0.1619  0.9858
    68 H(1)   Bbb    -0.0000    -0.000    -0.000    -0.000  0.8546 -0.5173  0.0456
              Bcc     0.0000     0.000     0.000     0.000  0.5173  0.8404 -0.1618
 
              Baa    -0.0000    -0.000    -0.000    -0.000  0.2281  0.9640 -0.1365
    69 H(1)   Bbb     0.0000     0.000     0.000     0.000  0.2365  0.0811  0.9682
              Bcc     0.0000     0.000     0.000     0.000  0.9445 -0.2531 -0.2095
 
              Baa    -0.0000    -0.000    -0.000    -0.000 -0.6007  0.6734  0.4309
    70 H(1)   Bbb     0.0000     0.000     0.000     0.000  0.7154  0.6933 -0.0863
              Bcc     0.0000     0.000     0.000     0.000  0.3568 -0.2565  0.8983
 
              Baa    -0.0000    -0.000    -0.000    -0.000 -0.1675  0.9763 -0.1372
    71 H(1)   Bbb    -0.0000    -0.000    -0.000    -0.000  0.3550  0.1895  0.9154
              Bcc     0.0000     0.000     0.000     0.000  0.9197  0.1046 -0.3784
 
              Baa    -0.0000    -0.000    -0.000    -0.000  0.9233  0.2370 -0.3022
    72 H(1)   Bbb    -0.0000    -0.000    -0.000    -0.000  0.3802 -0.4542  0.8057
              Bcc     0.0000     0.000     0.000     0.000 -0.0537  0.8588  0.5095
 
              Baa    -0.0000    -0.000    -0.000    -0.000 -0.3453 -0.6172  0.7070
    73 H(1)   Bbb     0.0000     0.000     0.000     0.000  0.9359 -0.2822  0.2108
              Bcc     0.0000     0.000     0.000     0.000  0.0694  0.7345  0.6751
 
              Baa    -0.0000    -0.000    -0.000    -0.000  0.7620 -0.6456 -0.0504
    74 H(1)   Bbb    -0.0000    -0.000    -0.000    -0.000  0.1155  0.0589  0.9916
              Bcc     0.0000     0.000     0.000     0.000  0.6371  0.7614 -0.1195
 
              Baa    -0.0000    -0.000    -0.000    -0.000 -0.3191  0.9317 -0.1738
    75 H(1)   Bbb     0.0000     0.000     0.000     0.000 -0.0440  0.1686  0.9847
              Bcc     0.0000     0.000     0.000     0.000  0.9467  0.3218 -0.0128
 
              Baa    -0.0000    -0.000    -0.000    -0.000  0.7224  0.6881  0.0682
    76 H(1)   Bbb     0.0000     0.000     0.000     0.000 -0.1459  0.0553  0.9878
              Bcc     0.0000     0.000     0.000     0.000 -0.6759  0.7235 -0.1403
 
              Baa    -0.0000    -0.000    -0.000    -0.000  0.7554  0.6543 -0.0340
    77 H(1)   Bbb    -0.0000    -0.000    -0.000    -0.000 -0.0231  0.0784  0.9967
              Bcc     0.0000     0.000     0.000     0.000 -0.6548  0.7521 -0.0744
 
              Baa    -0.0000    -0.000    -0.000    -0.000 -0.5081  0.8468 -0.1574
    78 H(1)   Bbb     0.0000     0.000     0.000     0.000  0.1316  0.2570  0.9574
              Bcc     0.0000     0.000     0.000     0.000  0.8512  0.4657 -0.2420
 
              Baa    -0.0000    -0.000    -0.000    -0.000  0.1641 -0.6613  0.7320
    79 H(1)   Bbb     0.0000     0.000     0.000     0.000 -0.0598  0.7340  0.6765
              Bcc     0.0000     0.000     0.000     0.000  0.9846  0.1548 -0.0809
 
              Baa    -0.0000    -0.000    -0.000    -0.000  0.8086  0.0928  0.5809
    80 H(1)   Bbb    -0.0000    -0.000    -0.000    -0.000 -0.4665 -0.5006  0.7292
              Bcc     0.0000     0.000     0.000     0.000 -0.3585  0.8607  0.3616
 
              Baa    -0.0000    -0.000    -0.000    -0.000  0.7136  0.0527 -0.6986
    81 H(1)   Bbb    -0.0000    -0.000    -0.000    -0.000  0.0435  0.9919  0.1193
              Bcc     0.0000     0.000     0.000     0.000  0.6992 -0.1155  0.7055
 
              Baa    -0.0000    -0.000    -0.000    -0.000 -0.5115  0.3790  0.7711
    82 H(1)   Bbb    -0.0000    -0.000    -0.000    -0.000  0.7701 -0.1957  0.6071
              Bcc     0.0000     0.000     0.000     0.000  0.3811  0.9044 -0.1918
 

 ---------------------------------------------------------------------------------

 No NMR shielding tensors so no spin-rotation constants.
 Leave Link  601 at Fri Jul 24 19:25:10 2020, MaxMem=  4026531840 cpu:              19.0 elap:               2.5
 (Enter /opt/ohpc/pub/libs/gaussian/g16-A.03/sandybridge/g16/l9999.exe)

 Test job not archived.
 1\1\GINC-SKYLAKE052\FOpt\ULC-wPBE\CC-pVDZ\C45H22F5N5S5\RDU230\24-Jul-2
 020\0\\#P uLC-wPBE/cc-pVDZ iop(3/107=0291900000, 3/108=0291900000) opt
 \\H22 C45 S5 N5 F5\\0,1\C,-17.036246515,4.6788861554,1.2204330744\C,-1
 5.6566732142,4.575686763,1.3962590501\N,-14.9529968346,3.4936822475,1.
 0658504517\C,-15.5840619378,2.4347445677,0.5346975984\C,-16.9699443799
 ,2.471693116,0.3314605413\F,-17.6080476719,1.4098521872,-0.2013527858\
 C,-17.7100472116,3.592057362,0.6711441649\C,-14.740946738,1.2786136372
 ,0.197748444\C,-15.0540931417,0.056511851,-0.3546051344\C,-13.91833824
 65,-0.7804459995,-0.511093854\C,-12.7515605848,-0.1908585083,-0.079260
 3869\S,-13.0446723602,1.4017624532,0.5326834498\C,-11.3966073366,-0.76
 45995485,-0.0979774895\C,-10.2480689812,0.0331984402,-0.2247649645\N,-
 9.0083785195,-0.4441426727,-0.2524227898\C,-8.801750888,-1.76738924,-0
 .1641523477\C,-9.8976960809,-2.6311771072,-0.0416300802\F,-9.707507482
 2,-3.9627865233,0.0539922998\C,-11.1912858128,-2.1452397374,-0.0009070
 655\C,-7.4040441613,-2.2152803338,-0.2006037661\C,-6.8542368124,-3.476
 7781347,-0.1377240238\C,-5.436769518,-3.4598858089,-0.2064497137\C,-4.
 9180483763,-2.1896890766,-0.3220644999\S,-6.1756420429,-0.9999252787,-
 0.3392119144\C,-3.5013349751,-1.8053671814,-0.422556488\C,-3.085356832
 4,-0.6528016112,-1.1099400201\N,-1.8196892107,-0.2683723673,-1.2326961
 455\C,-0.8464507388,-1.0120569151,-0.6831749218\C,-1.1806153118,-2.179
 661906,0.0129542987\F,-0.2062761712,-2.9273305863,0.5719312293\C,-2.49
 45711384,-2.5838571548,0.1573751585\C,0.5304158776,-0.5220932238,-0.86
 25325609\C,0.8706974755,0.6234339872,-1.5459217052\C,2.2669013765,0.86
 31609593,-1.5669415106\C,2.9891088208,-0.101773448,-0.9006215088\S,1.9
 423910448,-1.3093522197,-0.2351972957\C,4.447543908,-0.1773420978,-0.7
 242237656\C,5.1240948899,-1.4014536669,-0.5922436497\N,6.4379977077,-1
 .5197194769,-0.4361107149\C,7.2026626834,-0.4165780234,-0.4080024183\C
 ,6.602563188,0.8413916003,-0.5409261458\F,7.3658504142,1.9533703347,-0
 .507816348\C,5.2353530767,0.9778877952,-0.6915310268\C,8.6491379361,-0
 .6280019338,-0.2335896054\C,9.250314026,-1.8599048093,-0.1069628295\C,
 10.6561893033,-1.7781605124,0.0490525311\C,11.1248465899,-0.4832166321
 ,0.0395310331\S,9.8254984443,0.6438386025,-0.1541529505\C,12.516658004
 6,-0.0249360139,0.1723898\C,12.9767612313,1.1585192914,-0.4254391402\N
 ,14.2253468818,1.6045536926,-0.3341278617\C,15.1363727476,0.9018752248
 ,0.3571148974\C,14.7555815236,-0.2961150249,0.9771953961\F,15.65427219
 8,-1.0150486837,1.6806137161\C,13.457237204,-0.7635492467,0.8991587858
 \C,16.4941175579,1.4586855448,0.4122246424\C,17.6370745654,0.995178548
 2,1.0260640608\C,18.7538492047,1.8548894561,0.8270173842\C,18.43736122
 59,2.9507599916,0.0682838938\S,16.7895550702,2.9566012662,-0.413492176
 5\H,-17.5715722038,5.589067692,1.5066676546\H,-15.0836694574,5.4072678
 836,1.8258389101\H,-18.7910107239,3.5919178966,0.5005150942\H,-16.0656
 565867,-0.2276586945,-0.6450734762\H,-13.9591100275,-1.7785150842,-0.9
 555932277\H,-10.3435087065,1.1229367481,-0.3197179075\H,-12.019234259,
 -2.8493759594,0.1241116516\H,-7.4500819618,-4.3857045522,-0.0522513812
 \H,-4.8200176831,-4.3626125356,-0.1983883765\H,-3.8294557207,-0.009570
 2187,-1.5985631121\H,-2.7140275432,-3.4874519128,0.7336788775\H,0.1119
 174478,1.2520771979,-2.0157301182\H,2.7306128088,1.7089256046,-2.08150
 38152\H,4.5607512423,-2.3437071458,-0.6262388947\H,4.8043437701,1.9808
 358911,-0.7629843568\H,8.6679790699,-2.7827816645,-0.1364382955\H,11.3
 095849106,-2.649977506,0.1391301011\H,12.2916848758,1.7749094453,-1.02
 28072129\H,13.1936989113,-1.6882111508,1.4212492422\H,17.6734175342,0.
 0690317263,1.6003101495\H,19.7511442663,1.6650970993,1.2320247188\H,19
 .0970060858,3.765844869,-0.2364935209\\Version=EM64L-G16RevA.03\State=
 1-A\HF=-4489.5445276\S2=0.\S2-1=0.\S2A=0.\RMSD=3.683e-09\RMSF=3.085e-0
 6\Dipole=-3.6217987,-0.2503034,0.2285332\Quadrupole=48.3707508,-10.889
 9762,-37.4807746,-23.4941091,1.3233269,-0.7201573\PG=C01 [X(C45H22F5N5
 S5)]\\@


      LET US REMEMBER, PLEASE, THAT THE SEARCH FOR THE CONSTITUTION
      OF THE WORLD IS ONE OF THE GREATEST AND NOBLEST PROBLEMS PRESENTED 
      BY NATURE.

                                                  -- GALILEO
 Job cpu time:       1 days 16 hours 41 minutes 40.6 seconds.
 Elapsed time:       0 days  5 hours 10 minutes 17.2 seconds.
 File lengths (MBytes):  RWF=   1084 Int=      0 D2E=      0 Chk=     96 Scr=      8
 Normal termination of Gaussian 16 at Fri Jul 24 19:25:10 2020.
