 Entering Gaussian System, Link 0=g16
 Input=mols_65_3_30_cF-cF-CF_opt_0.gjf
 Output=mols_65_3_30_cF-cF-CF_opt_0.log
 Initial command:
 /opt/ohpc/pub/libs/gaussian/g16-A.03/sandybridge/g16/l1.exe "/mnt/gpfs2_4m/scratch/rdu230/ondemand/projects/dihedral_energies/7trial/wtuning/mols_65_3_30_cF-cF-CF/Gau-57845.inp" -scrdir="/mnt/gpfs2_4m/scratch/rdu230/ondemand/projects/dihedral_energies/7trial/wtuning/mols_65_3_30_cF-cF-CF/"
 Entering Link 1 = /opt/ohpc/pub/libs/gaussian/g16-A.03/sandybridge/g16/l1.exe PID=     57846.
  
 Copyright (c) 1988,1990,1992,1993,1995,1998,2003,2009,2016,
            Gaussian, Inc.  All Rights Reserved.
  
 This is part of the Gaussian(R) 16 program.  It is based on
 the Gaussian(R) 09 system (copyright 2009, Gaussian, Inc.),
 the Gaussian(R) 03 system (copyright 2003, Gaussian, Inc.),
 the Gaussian(R) 98 system (copyright 1998, Gaussian, Inc.),
 the Gaussian(R) 94 system (copyright 1995, Gaussian, Inc.),
 the Gaussian 92(TM) system (copyright 1992, Gaussian, Inc.),
 the Gaussian 90(TM) system (copyright 1990, Gaussian, Inc.),
 the Gaussian 88(TM) system (copyright 1988, Gaussian, Inc.),
 the Gaussian 86(TM) system (copyright 1986, Carnegie Mellon
 University), and the Gaussian 82(TM) system (copyright 1983,
 Carnegie Mellon University). Gaussian is a federally registered
 trademark of Gaussian, Inc.
  
 This software contains proprietary and confidential information,
 including trade secrets, belonging to Gaussian, Inc.
  
 This software is provided under written license and may be
 used, copied, transmitted, or stored only in accord with that
 written license.
  
 The following legend is applicable only to US Government
 contracts under FAR:
  
                    RESTRICTED RIGHTS LEGEND
  
 Use, reproduction and disclosure by the US Government is
 subject to restrictions as set forth in subparagraphs (a)
 and (c) of the Commercial Computer Software - Restricted
 Rights clause in FAR 52.227-19.
  
 Gaussian, Inc.
 340 Quinnipiac St., Bldg. 40, Wallingford CT 06492
  
  
 ---------------------------------------------------------------
 Warning -- This program may not be used in any manner that
 competes with the business of Gaussian, Inc. or will provide
 assistance to any competitor of Gaussian, Inc.  The licensee
 of this program is prohibited from giving any competitor of
 Gaussian, Inc. access to this program.  By using this program,
 the user acknowledges that Gaussian, Inc. is engaged in the
 business of creating and licensing software in the field of
 computational chemistry and represents and warrants to the
 licensee that it is not a competitor of Gaussian, Inc. and that
 it will not use this program in any manner prohibited above.
 ---------------------------------------------------------------
  

 Cite this work as:
 Gaussian 16, Revision A.03,
 M. J. Frisch, G. W. Trucks, H. B. Schlegel, G. E. Scuseria, 
 M. A. Robb, J. R. Cheeseman, G. Scalmani, V. Barone, 
 G. A. Petersson, H. Nakatsuji, X. Li, M. Caricato, A. V. Marenich, 
 J. Bloino, B. G. Janesko, R. Gomperts, B. Mennucci, H. P. Hratchian, 
 J. V. Ortiz, A. F. Izmaylov, J. L. Sonnenberg, D. Williams-Young, 
 F. Ding, F. Lipparini, F. Egidi, J. Goings, B. Peng, A. Petrone, 
 T. Henderson, D. Ranasinghe, V. G. Zakrzewski, J. Gao, N. Rega, 
 G. Zheng, W. Liang, M. Hada, M. Ehara, K. Toyota, R. Fukuda, 
 J. Hasegawa, M. Ishida, T. Nakajima, Y. Honda, O. Kitao, H. Nakai, 
 T. Vreven, K. Throssell, J. A. Montgomery, Jr., J. E. Peralta, 
 F. Ogliaro, M. J. Bearpark, J. J. Heyd, E. N. Brothers, K. N. Kudin, 
 V. N. Staroverov, T. A. Keith, R. Kobayashi, J. Normand, 
 K. Raghavachari, A. P. Rendell, J. C. Burant, S. S. Iyengar, 
 J. Tomasi, M. Cossi, J. M. Millam, M. Klene, C. Adamo, R. Cammi, 
 J. W. Ochterski, R. L. Martin, K. Morokuma, O. Farkas, 
 J. B. Foresman, and D. J. Fox, Gaussian, Inc., Wallingford CT, 2016.
 
 ******************************************
 Gaussian 16:  EM64L-G16RevA.03 25-Dec-2016
                25-Jul-2020 
 ******************************************
 %mem=30GB
 %nproc=8
 Will use up to    8 processors via shared memory.
 ---------------------------------------------------------------
 #P uLC-wPBE/cc-pVDZ iop(3/107=0265200000, 3/108=0265200000) opt
 ---------------------------------------------------------------
 1/18=20,19=15,26=3,38=1/1,3;
 2/9=110,12=2,17=6,18=5,40=1/2;
 3/5=16,11=2,25=1,30=1,71=1,74=-41,107=265200000,108=265200000,116=2/1,2,3;
 4//1;
 5/5=2,38=5/2;
 6/7=2,8=2,9=2,10=2,28=1/1;
 7//1,2,3,16;
 1/18=20,19=15,26=3/3(2);
 2/9=110/2;
 99//99;
 2/9=110/2;
 3/5=16,11=2,25=1,30=1,71=1,74=-41,107=265200000,108=265200000,116=2/1,2,3;
 4/5=5,16=3,69=1/1;
 5/5=2,38=5/2;
 7//1,2,3,16;
 1/18=20,19=15,26=3/3(-5);
 2/9=110/2;
 6/7=2,8=2,9=2,10=2,19=2,28=1/1;
 99/9=1/99;
 Leave Link    1 at Sat Jul 25 06:21:40 2020, MaxMem=  4026531840 cpu:               1.0 elap:               0.1
 (Enter /opt/ohpc/pub/libs/gaussian/g16-A.03/sandybridge/g16/l101.exe)
 -------------
 H11 C30 S3 F9
 -------------
 Symbolic Z-matrix:
 Charge =  0 Multiplicity = 1
 C                    -11.38674   0.61268  -0.17456 
 C                    -10.46061   1.26152  -0.96731 
 C                    -9.12268   0.87931  -1.06451 
 F                    -8.37208   1.52434  -1.92996 
 C                    -8.65876  -0.15465  -0.18882 
 C                    -9.56834  -0.80375   0.57986 
 F                    -9.10708  -1.7617    1.39419 
 C                    -10.88709  -0.37717   0.63823 
 C                    -7.23507  -0.55238  -0.31935 
 C                    -6.68713  -1.78402  -0.50929 
 F                    -7.50266  -2.82259  -0.82301 
 C                    -5.31057  -1.78561  -0.50802 
 C                    -4.76185  -0.57982  -0.20678 
 S                    -6.00156   0.59434   0.02284 
 C                    -3.38198  -0.18512   0.01006 
 C                    -2.47452  -1.07505   0.76506 
 C                    -1.10598  -0.75286   0.89346 
 F                    -0.41878  -1.6308    1.61968 
 C                    -0.63899   0.38283   0.38717 
 C                    -1.45199   1.23176  -0.32015 
 F                    -0.98205   2.43582  -0.85852 
 C                    -2.811     0.99836  -0.49505 
 C                     0.74094   0.77382   0.53221 
 C                     1.35057   1.95111   1.12318 
 F                     0.62054   2.89566   1.70265 
 C                     2.79262   1.94797   1.11821 
 C                     3.24291   0.78955   0.55294 
 S                     1.99572  -0.28748  -0.0178 
 C                     4.68044   0.49635   0.26736 
 C                     5.54156   1.4444   -0.23192 
 C                     6.94217   1.09259  -0.42343 
 F                     7.6502    2.03174  -1.00524 
 C                     7.39302  -0.13503  -0.11237 
 C                     6.50086  -1.10949   0.46268 
 F                     6.93607  -2.30339   0.76873 
 C                     5.16434  -0.76487   0.61978 
 C                     8.82379  -0.52897  -0.32876 
 C                     9.91475   0.20935   0.10548 
 F                     9.87217   1.25073   0.97514 
 C                     11.17379  -0.3609   -0.25526 
 C                     11.01066  -1.47369  -1.12519 
 S                     9.29595  -1.78145  -1.3868 
 H                    -12.40143   0.93252  -0.0461 
 H                    -10.8429   2.14204  -1.62426 
 H                    -11.62678  -0.93667   1.35203 
 H                    -4.7321   -2.70392  -0.7105 
 H                    -2.83635  -2.04857   1.16395 
 H                    -3.43293   1.68843  -1.09926 
 H                     3.38083   2.7144    1.49778 
 H                     5.21596   2.34135  -0.52995 
 H                     4.55976  -1.55383   1.03326 
 H                     12.1327  -0.04886  -0.05372 
 H                     11.70325  -2.05703  -1.57256 
 
 ITRead=  0  0  0  0  0  0  0  0  0  0  0  0  0  0  0  0  0  0  0  0
 ITRead=  0  0  0  0  0  0  0  0  0  0  0  0  0  0  0  0  0  0  0  0
 ITRead=  0  0  0  0  0  0  0  0  0  0  0  0  0
 MicOpt= -1 -1 -1 -1 -1 -1 -1 -1 -1 -1 -1 -1 -1 -1 -1 -1 -1 -1 -1 -1
 MicOpt= -1 -1 -1 -1 -1 -1 -1 -1 -1 -1 -1 -1 -1 -1 -1 -1 -1 -1 -1 -1
 MicOpt= -1 -1 -1 -1 -1 -1 -1 -1 -1 -1 -1 -1 -1
 NAtoms=     53 NQM=       53 NQMF=       0 NMMI=      0 NMMIF=      0
                NMic=       0 NMicF=      0.
                    Isotopes and Nuclear Properties:
 (Nuclear quadrupole moments (NQMom) in fm**2, nuclear magnetic moments (NMagM)
  in nuclear magnetons)

  Atom         1           2           3           4           5           6           7           8           9          10
 IAtWgt=          12          12          12          19          12          12          19          12          12          12
 AtmWgt=  12.0000000  12.0000000  12.0000000  18.9984033  12.0000000  12.0000000  18.9984033  12.0000000  12.0000000  12.0000000
 NucSpn=           0           0           0           1           0           0           1           0           0           0
 AtZEff=  -0.0000000  -0.0000000  -0.0000000  -0.0000000  -0.0000000  -0.0000000  -0.0000000  -0.0000000  -0.0000000  -0.0000000
 NQMom=    0.0000000   0.0000000   0.0000000   0.0000000   0.0000000   0.0000000   0.0000000   0.0000000   0.0000000   0.0000000
 NMagM=    0.0000000   0.0000000   0.0000000   2.6288670   0.0000000   0.0000000   2.6288670   0.0000000   0.0000000   0.0000000
 AtZNuc=   6.0000000   6.0000000   6.0000000   9.0000000   6.0000000   6.0000000   9.0000000   6.0000000   6.0000000   6.0000000

  Atom        11          12          13          14          15          16          17          18          19          20
 IAtWgt=          19          12          12          32          12          12          12          19          12          12
 AtmWgt=  18.9984033  12.0000000  12.0000000  31.9720718  12.0000000  12.0000000  12.0000000  18.9984033  12.0000000  12.0000000
 NucSpn=           1           0           0           0           0           0           0           1           0           0
 AtZEff=  -0.0000000  -0.0000000  -0.0000000  -0.0000000  -0.0000000  -0.0000000  -0.0000000  -0.0000000  -0.0000000  -0.0000000
 NQMom=    0.0000000   0.0000000   0.0000000   0.0000000   0.0000000   0.0000000   0.0000000   0.0000000   0.0000000   0.0000000
 NMagM=    2.6288670   0.0000000   0.0000000   0.0000000   0.0000000   0.0000000   0.0000000   2.6288670   0.0000000   0.0000000
 AtZNuc=   9.0000000   6.0000000   6.0000000  16.0000000   6.0000000   6.0000000   6.0000000   9.0000000   6.0000000   6.0000000

  Atom        21          22          23          24          25          26          27          28          29          30
 IAtWgt=          19          12          12          12          19          12          12          32          12          12
 AtmWgt=  18.9984033  12.0000000  12.0000000  12.0000000  18.9984033  12.0000000  12.0000000  31.9720718  12.0000000  12.0000000
 NucSpn=           1           0           0           0           1           0           0           0           0           0
 AtZEff=  -0.0000000  -0.0000000  -0.0000000  -0.0000000  -0.0000000  -0.0000000  -0.0000000  -0.0000000  -0.0000000  -0.0000000
 NQMom=    0.0000000   0.0000000   0.0000000   0.0000000   0.0000000   0.0000000   0.0000000   0.0000000   0.0000000   0.0000000
 NMagM=    2.6288670   0.0000000   0.0000000   0.0000000   2.6288670   0.0000000   0.0000000   0.0000000   0.0000000   0.0000000
 AtZNuc=   9.0000000   6.0000000   6.0000000   6.0000000   9.0000000   6.0000000   6.0000000  16.0000000   6.0000000   6.0000000

  Atom        31          32          33          34          35          36          37          38          39          40
 IAtWgt=          12          19          12          12          19          12          12          12          19          12
 AtmWgt=  12.0000000  18.9984033  12.0000000  12.0000000  18.9984033  12.0000000  12.0000000  12.0000000  18.9984033  12.0000000
 NucSpn=           0           1           0           0           1           0           0           0           1           0
 AtZEff=  -0.0000000  -0.0000000  -0.0000000  -0.0000000  -0.0000000  -0.0000000  -0.0000000  -0.0000000  -0.0000000  -0.0000000
 NQMom=    0.0000000   0.0000000   0.0000000   0.0000000   0.0000000   0.0000000   0.0000000   0.0000000   0.0000000   0.0000000
 NMagM=    0.0000000   2.6288670   0.0000000   0.0000000   2.6288670   0.0000000   0.0000000   0.0000000   2.6288670   0.0000000
 AtZNuc=   6.0000000   9.0000000   6.0000000   6.0000000   9.0000000   6.0000000   6.0000000   6.0000000   9.0000000   6.0000000

  Atom        41          42          43          44          45          46          47          48          49          50
 IAtWgt=          12          32           1           1           1           1           1           1           1           1
 AtmWgt=  12.0000000  31.9720718   1.0078250   1.0078250   1.0078250   1.0078250   1.0078250   1.0078250   1.0078250   1.0078250
 NucSpn=           0           0           1           1           1           1           1           1           1           1
 AtZEff=  -0.0000000  -0.0000000  -0.0000000  -0.0000000  -0.0000000  -0.0000000  -0.0000000  -0.0000000  -0.0000000  -0.0000000
 NQMom=    0.0000000   0.0000000   0.0000000   0.0000000   0.0000000   0.0000000   0.0000000   0.0000000   0.0000000   0.0000000
 NMagM=    0.0000000   0.0000000   2.7928460   2.7928460   2.7928460   2.7928460   2.7928460   2.7928460   2.7928460   2.7928460
 AtZNuc=   6.0000000  16.0000000   1.0000000   1.0000000   1.0000000   1.0000000   1.0000000   1.0000000   1.0000000   1.0000000

  Atom        51          52          53
 IAtWgt=           1           1           1
 AtmWgt=   1.0078250   1.0078250   1.0078250
 NucSpn=           1           1           1
 AtZEff=  -0.0000000  -0.0000000  -0.0000000
 NQMom=    0.0000000   0.0000000   0.0000000
 NMagM=    2.7928460   2.7928460   2.7928460
 AtZNuc=   1.0000000   1.0000000   1.0000000
 Leave Link  101 at Sat Jul 25 06:21:40 2020, MaxMem=  4026531840 cpu:               3.2 elap:               0.4
 (Enter /opt/ohpc/pub/libs/gaussian/g16-A.03/sandybridge/g16/l103.exe)

 GradGradGradGradGradGradGradGradGradGradGradGradGradGradGradGradGradGrad
 Berny optimization.
 Initialization pass.
                           ----------------------------
                           !    Initial Parameters    !
                           ! (Angstroms and Degrees)  !
 --------------------------                            --------------------------
 ! Name  Definition              Value          Derivative Info.                !
 --------------------------------------------------------------------------------
 ! R1    R(1,2)                  1.381          estimate D2E/DX2                !
 ! R2    R(1,8)                  1.3748         estimate D2E/DX2                !
 ! R3    R(1,43)                 1.0716         estimate D2E/DX2                !
 ! R4    R(2,3)                  1.3948         estimate D2E/DX2                !
 ! R5    R(2,44)                 1.1632         estimate D2E/DX2                !
 ! R6    R(3,4)                  1.3147         estimate D2E/DX2                !
 ! R7    R(3,5)                  1.4322         estimate D2E/DX2                !
 ! R8    R(5,6)                  1.3563         estimate D2E/DX2                !
 ! R9    R(5,9)                  1.484          estimate D2E/DX2                !
 ! R10   R(6,7)                  1.3392         estimate D2E/DX2                !
 ! R11   R(6,8)                  1.3872         estimate D2E/DX2                !
 ! R12   R(8,45)                 1.1703         estimate D2E/DX2                !
 ! R13   R(9,10)                 1.3613         estimate D2E/DX2                !
 ! R14   R(9,14)                 1.7186         estimate D2E/DX2                !
 ! R15   R(10,11)                1.3573         estimate D2E/DX2                !
 ! R16   R(10,12)                1.3766         estimate D2E/DX2                !
 ! R17   R(12,13)                1.3586         estimate D2E/DX2                !
 ! R18   R(12,46)                1.104          estimate D2E/DX2                !
 ! R19   R(13,14)                1.7229         estimate D2E/DX2                !
 ! R20   R(13,15)                1.4515         estimate D2E/DX2                !
 ! R21   R(15,16)                1.4783         estimate D2E/DX2                !
 ! R22   R(15,22)                1.4078         estimate D2E/DX2                !
 ! R23   R(16,17)                1.4118         estimate D2E/DX2                !
 ! R24   R(16,47)                1.1126         estimate D2E/DX2                !
 ! R25   R(17,18)                1.3306         estimate D2E/DX2                !
 ! R26   R(17,19)                1.3282         estimate D2E/DX2                !
 ! R27   R(19,20)                1.3718         estimate D2E/DX2                !
 ! R28   R(19,23)                1.4416         estimate D2E/DX2                !
 ! R29   R(20,21)                1.4002         estimate D2E/DX2                !
 ! R30   R(20,22)                1.3899         estimate D2E/DX2                !
 ! R31   R(22,48)                1.1082         estimate D2E/DX2                !
 ! R32   R(23,24)                1.4515         estimate D2E/DX2                !
 ! R33   R(23,28)                1.733          estimate D2E/DX2                !
 ! R34   R(24,25)                1.327          estimate D2E/DX2                !
 ! R35   R(24,26)                1.4421         estimate D2E/DX2                !
 ! R36   R(26,27)                1.3654         estimate D2E/DX2                !
 ! R37   R(26,49)                1.038          estimate D2E/DX2                !
 ! R38   R(27,28)                1.7439         estimate D2E/DX2                !
 ! R39   R(27,29)                1.4947         estimate D2E/DX2                !
 ! R40   R(29,30)                1.3746         estimate D2E/DX2                !
 ! R41   R(29,36)                1.3961         estimate D2E/DX2                !
 ! R42   R(30,31)                1.4568         estimate D2E/DX2                !
 ! R43   R(30,50)                0.9997         estimate D2E/DX2                !
 ! R44   R(31,32)                1.3122         estimate D2E/DX2                !
 ! R45   R(31,33)                1.3443         estimate D2E/DX2                !
 ! R46   R(33,34)                1.4409         estimate D2E/DX2                !
 ! R47   R(33,37)                1.4997         estimate D2E/DX2                !
 ! R48   R(34,35)                1.3071         estimate D2E/DX2                !
 ! R49   R(34,36)                1.3891         estimate D2E/DX2                !
 ! R50   R(36,51)                1.0765         estimate D2E/DX2                !
 ! R51   R(37,38)                1.387          estimate D2E/DX2                !
 ! R52   R(37,42)                1.7062         estimate D2E/DX2                !
 ! R53   R(38,39)                1.3574         estimate D2E/DX2                !
 ! R54   R(38,40)                1.4285         estimate D2E/DX2                !
 ! R55   R(40,41)                1.4219         estimate D2E/DX2                !
 ! R56   R(40,52)                1.0283         estimate D2E/DX2                !
 ! R57   R(41,42)                1.7616         estimate D2E/DX2                !
 ! R58   R(41,53)                1.01           estimate D2E/DX2                !
 ! A1    A(2,1,8)              115.7166         estimate D2E/DX2                !
 ! A2    A(2,1,43)             124.3038         estimate D2E/DX2                !
 ! A3    A(8,1,43)             119.2185         estimate D2E/DX2                !
 ! A4    A(1,2,3)              123.6778         estimate D2E/DX2                !
 ! A5    A(1,2,44)             117.3518         estimate D2E/DX2                !
 ! A6    A(3,2,44)             118.9018         estimate D2E/DX2                !
 ! A7    A(2,3,4)              117.3267         estimate D2E/DX2                !
 ! A8    A(2,3,5)              117.7701         estimate D2E/DX2                !
 ! A9    A(4,3,5)              124.8737         estimate D2E/DX2                !
 ! A10   A(3,5,6)              118.3473         estimate D2E/DX2                !
 ! A11   A(3,5,9)              116.7749         estimate D2E/DX2                !
 ! A12   A(6,5,9)              124.4007         estimate D2E/DX2                !
 ! A13   A(5,6,7)              117.1271         estimate D2E/DX2                !
 ! A14   A(5,6,8)              120.9437         estimate D2E/DX2                !
 ! A15   A(7,6,8)              121.4517         estimate D2E/DX2                !
 ! A16   A(1,8,6)              122.8209         estimate D2E/DX2                !
 ! A17   A(1,8,45)             118.3644         estimate D2E/DX2                !
 ! A18   A(6,8,45)             118.6513         estimate D2E/DX2                !
 ! A19   A(5,9,10)             129.8602         estimate D2E/DX2                !
 ! A20   A(5,9,14)             119.488          estimate D2E/DX2                !
 ! A21   A(10,9,14)            110.0325         estimate D2E/DX2                !
 ! A22   A(9,10,11)            118.8616         estimate D2E/DX2                !
 ! A23   A(9,10,12)            113.7924         estimate D2E/DX2                !
 ! A24   A(11,10,12)           126.8834         estimate D2E/DX2                !
 ! A25   A(10,12,13)           113.7697         estimate D2E/DX2                !
 ! A26   A(10,12,46)           121.6518         estimate D2E/DX2                !
 ! A27   A(13,12,46)           124.5593         estimate D2E/DX2                !
 ! A28   A(12,13,14)           110.1079         estimate D2E/DX2                !
 ! A29   A(12,13,15)           131.1798         estimate D2E/DX2                !
 ! A30   A(14,13,15)           118.6088         estimate D2E/DX2                !
 ! A31   A(9,14,13)             92.0169         estimate D2E/DX2                !
 ! A32   A(13,15,16)           119.7456         estimate D2E/DX2                !
 ! A33   A(13,15,22)           124.0961         estimate D2E/DX2                !
 ! A34   A(16,15,22)           116.126          estimate D2E/DX2                !
 ! A35   A(15,16,17)           120.2716         estimate D2E/DX2                !
 ! A36   A(15,16,47)           120.6787         estimate D2E/DX2                !
 ! A37   A(17,16,47)           118.8384         estimate D2E/DX2                !
 ! A38   A(16,17,18)           113.56           estimate D2E/DX2                !
 ! A39   A(16,17,19)           120.0845         estimate D2E/DX2                !
 ! A40   A(18,17,19)           126.2015         estimate D2E/DX2                !
 ! A41   A(17,19,20)           121.1504         estimate D2E/DX2                !
 ! A42   A(17,19,23)           122.0134         estimate D2E/DX2                !
 ! A43   A(20,19,23)           116.8288         estimate D2E/DX2                !
 ! A44   A(19,20,21)           122.1066         estimate D2E/DX2                !
 ! A45   A(19,20,22)           122.7111         estimate D2E/DX2                !
 ! A46   A(21,20,22)           115.099          estimate D2E/DX2                !
 ! A47   A(15,22,20)           119.5108         estimate D2E/DX2                !
 ! A48   A(15,22,48)           119.4393         estimate D2E/DX2                !
 ! A49   A(20,22,48)           120.848          estimate D2E/DX2                !
 ! A50   A(19,23,24)           131.5281         estimate D2E/DX2                !
 ! A51   A(19,23,28)           119.673          estimate D2E/DX2                !
 ! A52   A(24,23,28)           108.7734         estimate D2E/DX2                !
 ! A53   A(23,24,25)           121.6052         estimate D2E/DX2                !
 ! A54   A(23,24,26)           114.634          estimate D2E/DX2                !
 ! A55   A(25,24,26)           123.5857         estimate D2E/DX2                !
 ! A56   A(24,26,27)           109.455          estimate D2E/DX2                !
 ! A57   A(24,26,49)           124.3183         estimate D2E/DX2                !
 ! A58   A(27,26,49)           126.2249         estimate D2E/DX2                !
 ! A59   A(26,27,28)           115.0635         estimate D2E/DX2                !
 ! A60   A(26,27,29)           124.2447         estimate D2E/DX2                !
 ! A61   A(28,27,29)           120.2746         estimate D2E/DX2                !
 ! A62   A(23,28,27)            92.0475         estimate D2E/DX2                !
 ! A63   A(27,29,30)           122.4521         estimate D2E/DX2                !
 ! A64   A(27,29,36)           117.539          estimate D2E/DX2                !
 ! A65   A(30,29,36)           119.8422         estimate D2E/DX2                !
 ! A66   A(29,30,31)           118.9129         estimate D2E/DX2                !
 ! A67   A(29,30,50)           121.5375         estimate D2E/DX2                !
 ! A68   A(31,30,50)           119.3827         estimate D2E/DX2                !
 ! A69   A(30,31,32)           113.8425         estimate D2E/DX2                !
 ! A70   A(30,31,33)           120.8361         estimate D2E/DX2                !
 ! A71   A(32,31,33)           125.1165         estimate D2E/DX2                !
 ! A72   A(31,33,34)           120.1509         estimate D2E/DX2                !
 ! A73   A(31,33,37)           121.767          estimate D2E/DX2                !
 ! A74   A(34,33,37)           118.0765         estimate D2E/DX2                !
 ! A75   A(33,34,35)           120.3314         estimate D2E/DX2                !
 ! A76   A(33,34,36)           118.234          estimate D2E/DX2                !
 ! A77   A(35,34,36)           121.3639         estimate D2E/DX2                !
 ! A78   A(29,36,34)           121.9413         estimate D2E/DX2                !
 ! A79   A(29,36,51)           124.3587         estimate D2E/DX2                !
 ! A80   A(34,36,51)           113.6998         estimate D2E/DX2                !
 ! A81   A(33,37,38)           124.4298         estimate D2E/DX2                !
 ! A82   A(33,37,42)           123.1144         estimate D2E/DX2                !
 ! A83   A(38,37,42)           111.5446         estimate D2E/DX2                !
 ! A84   A(37,38,39)           125.7511         estimate D2E/DX2                !
 ! A85   A(37,38,40)           113.6845         estimate D2E/DX2                !
 ! A86   A(39,38,40)           119.7159         estimate D2E/DX2                !
 ! A87   A(38,40,41)           111.4576         estimate D2E/DX2                !
 ! A88   A(38,40,52)           130.6367         estimate D2E/DX2                !
 ! A89   A(41,40,52)           117.6692         estimate D2E/DX2                !
 ! A90   A(40,41,42)           109.8318         estimate D2E/DX2                !
 ! A91   A(40,41,53)           130.1168         estimate D2E/DX2                !
 ! A92   A(42,41,53)           120.0514         estimate D2E/DX2                !
 ! A93   A(37,42,41)            92.81           estimate D2E/DX2                !
 ! D1    D(8,1,2,3)              6.2283         estimate D2E/DX2                !
 ! D2    D(8,1,2,44)          -176.8214         estimate D2E/DX2                !
 ! D3    D(43,1,2,3)           176.1206         estimate D2E/DX2                !
 ! D4    D(43,1,2,44)           -6.9291         estimate D2E/DX2                !
 ! D5    D(2,1,8,6)             -6.4249         estimate D2E/DX2                !
 ! D6    D(2,1,8,45)           178.2877         estimate D2E/DX2                !
 ! D7    D(43,1,8,6)          -176.8632         estimate D2E/DX2                !
 ! D8    D(43,1,8,45)            7.8494         estimate D2E/DX2                !
 ! D9    D(1,2,3,4)            175.1962         estimate D2E/DX2                !
 ! D10   D(1,2,3,5)             -6.6824         estimate D2E/DX2                !
 ! D11   D(44,2,3,4)            -1.7096         estimate D2E/DX2                !
 ! D12   D(44,2,3,5)           176.4118         estimate D2E/DX2                !
 ! D13   D(2,3,5,6)              7.0383         estimate D2E/DX2                !
 ! D14   D(2,3,5,9)            179.4672         estimate D2E/DX2                !
 ! D15   D(4,3,5,6)           -174.9961         estimate D2E/DX2                !
 ! D16   D(4,3,5,9)             -2.5671         estimate D2E/DX2                !
 ! D17   D(3,5,6,7)           -179.6943         estimate D2E/DX2                !
 ! D18   D(3,5,6,8)             -7.5098         estimate D2E/DX2                !
 ! D19   D(9,5,6,7)              8.5019         estimate D2E/DX2                !
 ! D20   D(9,5,6,8)           -179.3136         estimate D2E/DX2                !
 ! D21   D(3,5,9,10)          -126.6956         estimate D2E/DX2                !
 ! D22   D(3,5,9,14)            63.2963         estimate D2E/DX2                !
 ! D23   D(6,5,9,10)            45.2256         estimate D2E/DX2                !
 ! D24   D(6,5,9,14)          -124.7825         estimate D2E/DX2                !
 ! D25   D(5,6,8,1)              7.4901         estimate D2E/DX2                !
 ! D26   D(5,6,8,45)          -177.2354         estimate D2E/DX2                !
 ! D27   D(7,6,8,1)            179.3341         estimate D2E/DX2                !
 ! D28   D(7,6,8,45)            -5.3914         estimate D2E/DX2                !
 ! D29   D(5,9,10,11)           10.7774         estimate D2E/DX2                !
 ! D30   D(5,9,10,12)         -176.4904         estimate D2E/DX2                !
 ! D31   D(14,9,10,11)        -178.4735         estimate D2E/DX2                !
 ! D32   D(14,9,10,12)          -5.7413         estimate D2E/DX2                !
 ! D33   D(5,9,14,13)          175.6431         estimate D2E/DX2                !
 ! D34   D(10,9,14,13)           3.7931         estimate D2E/DX2                !
 ! D35   D(9,10,12,13)           5.2035         estimate D2E/DX2                !
 ! D36   D(9,10,12,46)        -176.3197         estimate D2E/DX2                !
 ! D37   D(11,10,12,13)        177.2415         estimate D2E/DX2                !
 ! D38   D(11,10,12,46)         -4.2817         estimate D2E/DX2                !
 ! D39   D(10,12,13,14)         -2.1165         estimate D2E/DX2                !
 ! D40   D(10,12,13,15)        174.0462         estimate D2E/DX2                !
 ! D41   D(46,12,13,14)        179.458          estimate D2E/DX2                !
 ! D42   D(46,12,13,15)         -4.3794         estimate D2E/DX2                !
 ! D43   D(12,13,14,9)          -0.9788         estimate D2E/DX2                !
 ! D44   D(15,13,14,9)        -177.6896         estimate D2E/DX2                !
 ! D45   D(12,13,15,16)        -40.1092         estimate D2E/DX2                !
 ! D46   D(12,13,15,22)        137.7412         estimate D2E/DX2                !
 ! D47   D(14,13,15,16)        135.7858         estimate D2E/DX2                !
 ! D48   D(14,13,15,22)        -46.3638         estimate D2E/DX2                !
 ! D49   D(13,15,16,17)        175.0507         estimate D2E/DX2                !
 ! D50   D(13,15,16,47)          0.3945         estimate D2E/DX2                !
 ! D51   D(22,15,16,17)         -2.9667         estimate D2E/DX2                !
 ! D52   D(22,15,16,47)       -177.6229         estimate D2E/DX2                !
 ! D53   D(13,15,22,20)       -174.901          estimate D2E/DX2                !
 ! D54   D(13,15,22,48)         -0.0183         estimate D2E/DX2                !
 ! D55   D(16,15,22,20)          3.0203         estimate D2E/DX2                !
 ! D56   D(16,15,22,48)        177.9031         estimate D2E/DX2                !
 ! D57   D(15,16,17,18)        178.7937         estimate D2E/DX2                !
 ! D58   D(15,16,17,19)          3.0299         estimate D2E/DX2                !
 ! D59   D(47,16,17,18)         -6.4526         estimate D2E/DX2                !
 ! D60   D(47,16,17,19)        177.7836         estimate D2E/DX2                !
 ! D61   D(16,17,19,20)         -3.0879         estimate D2E/DX2                !
 ! D62   D(16,17,19,23)        177.93           estimate D2E/DX2                !
 ! D63   D(18,17,19,20)       -178.2746         estimate D2E/DX2                !
 ! D64   D(18,17,19,23)          2.7433         estimate D2E/DX2                !
 ! D65   D(17,19,20,21)        179.774          estimate D2E/DX2                !
 ! D66   D(17,19,20,22)          3.2554         estimate D2E/DX2                !
 ! D67   D(23,19,20,21)         -1.1933         estimate D2E/DX2                !
 ! D68   D(23,19,20,22)       -177.7118         estimate D2E/DX2                !
 ! D69   D(17,19,23,24)       -121.801          estimate D2E/DX2                !
 ! D70   D(17,19,23,28)         56.1364         estimate D2E/DX2                !
 ! D71   D(20,19,23,24)         59.1753         estimate D2E/DX2                !
 ! D72   D(20,19,23,28)       -122.8874         estimate D2E/DX2                !
 ! D73   D(19,20,22,15)         -3.2573         estimate D2E/DX2                !
 ! D74   D(19,20,22,48)       -178.0663         estimate D2E/DX2                !
 ! D75   D(21,20,22,15)        179.9989         estimate D2E/DX2                !
 ! D76   D(21,20,22,48)          5.19           estimate D2E/DX2                !
 ! D77   D(19,23,24,25)          2.3461         estimate D2E/DX2                !
 ! D78   D(19,23,24,26)        177.7013         estimate D2E/DX2                !
 ! D79   D(28,23,24,25)       -175.7611         estimate D2E/DX2                !
 ! D80   D(28,23,24,26)         -0.4059         estimate D2E/DX2                !
 ! D81   D(19,23,28,27)       -177.2934         estimate D2E/DX2                !
 ! D82   D(24,23,28,27)          1.0758         estimate D2E/DX2                !
 ! D83   D(23,24,26,27)         -0.7435         estimate D2E/DX2                !
 ! D84   D(23,24,26,49)        179.719          estimate D2E/DX2                !
 ! D85   D(25,24,26,27)        174.5076         estimate D2E/DX2                !
 ! D86   D(25,24,26,49)         -5.0299         estimate D2E/DX2                !
 ! D87   D(24,26,27,28)          1.6032         estimate D2E/DX2                !
 ! D88   D(24,26,27,29)        174.1806         estimate D2E/DX2                !
 ! D89   D(49,26,27,28)       -178.8703         estimate D2E/DX2                !
 ! D90   D(49,26,27,29)         -6.2928         estimate D2E/DX2                !
 ! D91   D(26,27,28,23)         -1.6273         estimate D2E/DX2                !
 ! D92   D(29,27,28,23)       -174.5242         estimate D2E/DX2                !
 ! D93   D(26,27,29,30)        -40.5365         estimate D2E/DX2                !
 ! D94   D(26,27,29,36)        134.7574         estimate D2E/DX2                !
 ! D95   D(28,27,29,30)        131.6759         estimate D2E/DX2                !
 ! D96   D(28,27,29,36)        -53.0302         estimate D2E/DX2                !
 ! D97   D(27,29,30,31)        177.1764         estimate D2E/DX2                !
 ! D98   D(27,29,30,50)         -7.5486         estimate D2E/DX2                !
 ! D99   D(36,29,30,31)          1.9875         estimate D2E/DX2                !
 ! D100  D(36,29,30,50)        177.2625         estimate D2E/DX2                !
 ! D101  D(27,29,36,34)       -176.4582         estimate D2E/DX2                !
 ! D102  D(27,29,36,51)          3.416          estimate D2E/DX2                !
 ! D103  D(30,29,36,34)         -1.0362         estimate D2E/DX2                !
 ! D104  D(30,29,36,51)        178.838          estimate D2E/DX2                !
 ! D105  D(29,30,31,32)        174.7078         estimate D2E/DX2                !
 ! D106  D(29,30,31,33)         -0.3485         estimate D2E/DX2                !
 ! D107  D(50,30,31,32)         -0.6708         estimate D2E/DX2                !
 ! D108  D(50,30,31,33)       -175.7271         estimate D2E/DX2                !
 ! D109  D(30,31,33,34)         -2.2289         estimate D2E/DX2                !
 ! D110  D(30,31,33,37)        178.6522         estimate D2E/DX2                !
 ! D111  D(32,31,33,34)       -176.6992         estimate D2E/DX2                !
 ! D112  D(32,31,33,37)          4.1819         estimate D2E/DX2                !
 ! D113  D(31,33,34,35)       -179.8753         estimate D2E/DX2                !
 ! D114  D(31,33,34,36)          3.1412         estimate D2E/DX2                !
 ! D115  D(37,33,34,35)         -0.7243         estimate D2E/DX2                !
 ! D116  D(37,33,34,36)       -177.7078         estimate D2E/DX2                !
 ! D117  D(31,33,37,38)         50.3438         estimate D2E/DX2                !
 ! D118  D(31,33,37,42)       -117.7971         estimate D2E/DX2                !
 ! D119  D(34,33,37,38)       -128.7926         estimate D2E/DX2                !
 ! D120  D(34,33,37,42)         63.0665         estimate D2E/DX2                !
 ! D121  D(33,34,36,29)         -1.5152         estimate D2E/DX2                !
 ! D122  D(33,34,36,51)        178.5983         estimate D2E/DX2                !
 ! D123  D(35,34,36,29)       -178.466          estimate D2E/DX2                !
 ! D124  D(35,34,36,51)          1.6475         estimate D2E/DX2                !
 ! D125  D(33,37,38,39)         12.22           estimate D2E/DX2                !
 ! D126  D(33,37,38,40)       -178.4318         estimate D2E/DX2                !
 ! D127  D(42,37,38,39)       -178.4445         estimate D2E/DX2                !
 ! D128  D(42,37,38,40)         -9.0962         estimate D2E/DX2                !
 ! D129  D(33,37,42,41)        175.9813         estimate D2E/DX2                !
 ! D130  D(38,37,42,41)          6.4814         estimate D2E/DX2                !
 ! D131  D(37,38,40,41)          7.336          estimate D2E/DX2                !
 ! D132  D(37,38,40,52)       -178.4916         estimate D2E/DX2                !
 ! D133  D(39,38,40,41)        177.3899         estimate D2E/DX2                !
 ! D134  D(39,38,40,52)         -8.4378         estimate D2E/DX2                !
 ! D135  D(38,40,41,42)         -2.3169         estimate D2E/DX2                !
 ! D136  D(38,40,41,53)        177.6169         estimate D2E/DX2                !
 ! D137  D(52,40,41,42)       -177.3259         estimate D2E/DX2                !
 ! D138  D(52,40,41,53)          2.6079         estimate D2E/DX2                !
 ! D139  D(40,41,42,37)         -2.311          estimate D2E/DX2                !
 ! D140  D(53,41,42,37)        177.7474         estimate D2E/DX2                !
 --------------------------------------------------------------------------------
 Trust Radius=3.00D-01 FncErr=1.00D-07 GrdErr=1.00D-06 EigMax=2.50D+02 EigMin=1.00D-04
 Number of steps in this run=    301 maximum allowed number of steps=    318.
 GradGradGradGradGradGradGradGradGradGradGradGradGradGradGradGradGradGrad

 Leave Link  103 at Sat Jul 25 06:21:40 2020, MaxMem=  4026531840 cpu:               0.1 elap:               0.0
 (Enter /opt/ohpc/pub/libs/gaussian/g16-A.03/sandybridge/g16/l202.exe)
 Stoichiometry    C30H11F9S3
 Framework group  C1[X(C30H11F9S3)]
 Deg. of freedom   153
 Full point group                 C1      NOp   1
 Largest Abelian subgroup         C1      NOp   1
 Largest concise Abelian subgroup C1      NOp   1
                         Standard orientation:                         
 ---------------------------------------------------------------------
 Center     Atomic      Atomic             Coordinates (Angstroms)
 Number     Number       Type             X           Y           Z
 ---------------------------------------------------------------------
      1          6           0       11.386317    0.618733    0.163253
      2          6           0       10.460359    1.261481    0.961149
      3          6           0        9.122905    0.877315    1.057230
      4          9           0        8.372552    1.515960    1.927621
      5          6           0        8.659114   -0.151399    0.175319
      6          6           0        9.568546   -0.794588   -0.598495
      7          9           0        9.107398   -1.747686   -1.418561
      8          6           0       10.886803   -0.366320   -0.655441
      9          6           0        7.235954   -0.551396    0.304718
     10          6           0        6.689432   -1.784782    0.487206
     11          9           0        7.506314   -2.824558    0.793343
     12          6           0        5.312869   -1.787747    0.487342
     13          6           0        4.762641   -0.580567    0.194500
     14         16           0        6.000953    0.596289   -0.028755
     15          6           0        3.382159   -0.185847   -0.018360
     16          6           0        2.474803   -1.071761   -0.778191
     17          6           0        1.105821   -0.750113   -0.903099
     18          9           0        0.418739   -1.624003   -1.634304
     19          6           0        0.638221    0.381794   -0.388963
     20          6           0        1.451110    1.226929    0.323022
     21          9           0        0.980529    2.426998    0.869679
     22          6           0        2.810525    0.993751    0.495012
     23          6           0       -0.742246    0.772348   -0.530051
     24          6           0       -1.353645    1.952835   -1.112734
     25          9           0       -0.625158    2.901862   -1.686798
     26          6           0       -2.795693    1.948224   -1.106307
     27          6           0       -3.244251    0.785713   -0.548117
     28         16           0       -1.995406   -0.293760    0.014335
     29          6           0       -4.681191    0.489221   -0.262978
     30          6           0       -5.542734    1.433149    0.243327
     31          6           0       -6.942804    1.078701    0.433980
     32          9           0       -7.651161    2.013345    1.022607
     33          6           0       -7.392756   -0.147318    0.115418
     34          6           0       -6.500213   -1.117131   -0.466865
     35          9           0       -6.934556   -2.309446   -0.780214
     36          6           0       -5.164199   -0.770162   -0.623089
     37          6           0       -8.822906   -0.544080    0.330704
     38          6           0       -9.915049    0.195950   -0.097609
     39          9           0       -9.874398    1.243001   -0.960532
     40          6           0      -11.173147   -0.377884    0.260705
     41          6           0      -11.008016   -1.496137    1.123220
     42         16           0       -9.292733   -1.803884    1.381066
     43          1           0       12.400549    0.940410    0.035827
     44          1           0       10.842451    2.138101    1.623410
     45          1           0       11.626317   -0.920432   -1.373614
     46          1           0        4.735516   -2.707927    0.684435
     47          1           0        2.837190   -2.042307   -1.183776
     48          1           0        3.432394    1.680507    1.103055
     49          1           0       -3.385049    2.716519   -1.480292
     50          1           0       -5.217721    2.328467    0.546844
     51          1           0       -4.559262   -1.555816   -1.042301
     52          1           0      -12.132570   -0.065506    0.062182
     53          1           0      -11.699563   -2.083066    1.567503
 ---------------------------------------------------------------------
 Rotational constants (GHZ):           0.2781640           0.0164943           0.0160596
 Leave Link  202 at Sat Jul 25 06:21:41 2020, MaxMem=  4026531840 cpu:               0.1 elap:               0.0
 (Enter /opt/ohpc/pub/libs/gaussian/g16-A.03/sandybridge/g16/l301.exe)
 Standard basis: CC-pVDZ (5D, 7F)
 Ernie: Thresh=  0.10000D-02 Tol=  0.10000D-05 Strict=F.
 Ernie:  108 primitive shells out of 1063 were deleted.
 There are   697 symmetry adapted cartesian basis functions of A   symmetry.
 There are   655 symmetry adapted basis functions of A   symmetry.
   655 basis functions,  1577 primitive gaussians,   697 cartesian basis functions
   160 alpha electrons      160 beta electrons
       nuclear repulsion energy      4870.7268589782 Hartrees.
 IExCor=32609 DFT=T Ex+Corr=LC-wPBE ExCW=0 ScaHFX=  1.000000
 ScaDFX=  1.000000  0.000000  1.000000  1.000000 ScalE2=  1.000000  1.000000
 IRadAn=      5 IRanWt=     -1 IRanGd=            0 ICorTp=0 IEmpDi=  4
 HFx  wShort=  0.000000 wLong=  0.265200 cFull=  0.000000 cShort=  0.000000 cLong=  1.000000
 DFx  wShort=  0.000000 wLong=  0.265200 cFull=  0.000000 cShort=  0.000000 cLong=  1.000000
 NAtoms=   53 NActive=   53 NUniq=   53 SFac= 1.00D+00 NAtFMM=   60 NAOKFM=F Big=F
 Integral buffers will be    131072 words long.
 Raffenetti 2 integral format.
 Two-electron integral symmetry is turned on.
 Leave Link  301 at Sat Jul 25 06:21:41 2020, MaxMem=  4026531840 cpu:               0.5 elap:               0.1
 (Enter /opt/ohpc/pub/libs/gaussian/g16-A.03/sandybridge/g16/l302.exe)
 NPDir=0 NMtPBC=     1 NCelOv=     1 NCel=       1 NClECP=     1 NCelD=      1
         NCelK=      1 NCelE2=     1 NClLst=     1 CellRange=     0.0.
 One-electron integrals computed using PRISM.
 One-electron integral symmetry used in STVInt
 NBasis=   655 RedAO= T EigKep=  3.58D-04  NBF=   655
 NBsUse=   655 1.00D-06 EigRej= -1.00D+00 NBFU=   655
 Precomputing XC quadrature grid using
 IXCGrd= 4 IRadAn=           5 IRanWt=          -1 IRanGd=           0 AccXCQ= 0.00D+00.
 Generated NRdTot=       0 NPtTot=           0 NUsed=           0 NTot=          32
 NSgBfM=   590   590   590   590   590 MxSgAt=    53 MxSgA2=    53.
 Leave Link  302 at Sat Jul 25 06:21:42 2020, MaxMem=  4026531840 cpu:              10.9 elap:               1.4
 (Enter /opt/ohpc/pub/libs/gaussian/g16-A.03/sandybridge/g16/l303.exe)
 DipDrv:  MaxL=1.
 Leave Link  303 at Sat Jul 25 06:21:42 2020, MaxMem=  4026531840 cpu:               0.9 elap:               0.1
 (Enter /opt/ohpc/pub/libs/gaussian/g16-A.03/sandybridge/g16/l401.exe)
 ExpMin= 1.22D-01 ExpMax= 1.11D+05 ExpMxC= 1.07D+03 IAcc=3 IRadAn=         5 AccDes= 0.00D+00
 Harris functional with IExCor=32609 and IRadAn=       5 diagonalized for initial guess.
 HarFok:  IExCor=32609 AccDes= 0.00D+00 IRadAn=         5 IDoV= 1 UseB2=F ITyADJ=14
 ICtDFT=  3500011 ScaDFX=  1.000000  1.000000  1.000000  1.000000
 FoFCou: FMM=F IPFlag=           0 FMFlag=      100000 FMFlg1=           0
         NFxFlg=           0 DoJE=T BraDBF=F KetDBF=T FulRan=T
         wScrn=  0.000000 ICntrl=       500 IOpCl=  0 I1Cent=   200000004 NGrid=           0
         NMat0=    1 NMatS0=      1 NMatT0=    0 NMatD0=    1 NMtDS0=    0 NMtDT0=    0
 Petite list used in FoFCou.
 Harris En= -3240.71173550007    
 JPrj=0 DoOrth=F DoCkMO=F.
 Initial guess <Sx>= 0.0000 <Sy>= 0.0000 <Sz>= 0.0000 <S**2>=-0.0000 S=-0.0000
 Leave Link  401 at Sat Jul 25 06:21:48 2020, MaxMem=  4026531840 cpu:              47.1 elap:               5.9
 (Enter /opt/ohpc/pub/libs/gaussian/g16-A.03/sandybridge/g16/l502.exe)
 Integral symmetry usage will be decided dynamically.
 UHF open shell SCF:
 Using DIIS extrapolation, IDIIS=  1040.
 NGot=  4026531840 LenX=  4025547809 LenY=  4025061303
 Requested convergence on RMS density matrix=1.00D-08 within 128 cycles.
 Requested convergence on MAX density matrix=1.00D-06.
 Requested convergence on             energy=1.00D-06.
 No special actions if energy rises.
 Fock matrices will be formed incrementally for  20 cycles.
 Integral accuracy reduced to 1.0D-05 until final iterations.

 Cycle   1  Pass 0  IDiag  1:
 FoFJK:  IHMeth= 1 ICntrl=       0 DoSepK=T KAlg= 0 I1Cent=           0 FoldK=F
 IRaf=         1 NMat=       1 IRICut=       1 DoRegI=T DoRafI=F ISym2E= 0 IDoP0=0 IntGTp=1.
 FoFCou: FMM=F IPFlag=           0 FMFlag=      100000 FMFlg1=           0
         NFxFlg=           0 DoJE=T BraDBF=F KetDBF=F FulRan=T
         wScrn=  0.000000 ICntrl=       500 IOpCl=  0 I1Cent=           0 NGrid=           0
         NMat0=    1 NMatS0=      1 NMatT0=    0 NMatD0=    1 NMtDS0=    0 NMtDT0=    0
 Symmetry not used in FoFCou.
 E= -3240.29303774456    
 DIIS: error= 1.57D-02 at cycle   1 NSaved=   1.
 NSaved= 1 IEnMin= 1 EnMin= -3240.29303774456     IErMin= 1 ErrMin= 1.57D-02
 ErrMax= 1.57D-02  0.00D+00 EMaxC= 1.00D-01 BMatC= 2.61D+00 BMatP= 2.61D+00
 IDIUse=3 WtCom= 8.43D-01 WtEn= 1.57D-01
 Coeff-Com:  0.100D+01
 Coeff-En:   0.100D+01
 Coeff:      0.100D+01
 Gap=     0.316 Goal=   None    Shift=    0.000
 Gap=     0.316 Goal=   None    Shift=    0.000
 GapD=    0.316 DampG=1.000 DampE=0.500 DampFc=0.5000 IDamp=-1.
 Damping current iteration by 5.00D-01
 RMSDP=2.63D-03 MaxDP=1.44D-01              OVMax= 2.13D-01

 Cycle   2  Pass 0  IDiag  1:
 RMSU=  1.31D-03    CP:  9.95D-01
 E= -3240.64650188679     Delta-E=       -0.353464142223 Rises=F Damp=T
 DIIS: error= 3.88D-03 at cycle   2 NSaved=   2.
 NSaved= 2 IEnMin= 2 EnMin= -3240.64650188679     IErMin= 2 ErrMin= 3.88D-03
 ErrMax= 3.88D-03  0.00D+00 EMaxC= 1.00D-01 BMatC= 1.11D-01 BMatP= 2.61D+00
 IDIUse=3 WtCom= 9.61D-01 WtEn= 3.88D-02
 Coeff-Com: -0.107D-01 0.101D+01
 Coeff-En:   0.000D+00 0.100D+01
 Coeff:     -0.103D-01 0.101D+01
 Gap=     0.305 Goal=   None    Shift=    0.000
 Gap=     0.305 Goal=   None    Shift=    0.000
 RMSDP=8.13D-04 MaxDP=2.34D-02 DE=-3.53D-01 OVMax= 1.26D-01

 Cycle   3  Pass 0  IDiag  1:
 RMSU=  7.89D-04    CP:  9.95D-01  1.15D+00
 E= -3241.00100949101     Delta-E=       -0.354507604226 Rises=F Damp=F
 DIIS: error= 2.04D-03 at cycle   3 NSaved=   3.
 NSaved= 3 IEnMin= 3 EnMin= -3241.00100949101     IErMin= 3 ErrMin= 2.04D-03
 ErrMax= 2.04D-03  0.00D+00 EMaxC= 1.00D-01 BMatC= 4.83D-02 BMatP= 1.11D-01
 IDIUse=3 WtCom= 9.80D-01 WtEn= 2.04D-02
 Coeff-Com: -0.227D-01 0.387D+00 0.636D+00
 Coeff-En:   0.000D+00 0.000D+00 0.100D+01
 Coeff:     -0.222D-01 0.379D+00 0.643D+00
 Gap=     0.282 Goal=   None    Shift=    0.000
 Gap=     0.282 Goal=   None    Shift=    0.000
 RMSDP=2.45D-04 MaxDP=1.24D-02 DE=-3.55D-01 OVMax= 2.90D-02

 Cycle   4  Pass 0  IDiag  1:
 RMSU=  2.08D-04    CP:  9.95D-01  1.19D+00  8.49D-01
 E= -3241.01134200995     Delta-E=       -0.010332518941 Rises=F Damp=F
 DIIS: error= 1.16D-03 at cycle   4 NSaved=   4.
 NSaved= 4 IEnMin= 4 EnMin= -3241.01134200995     IErMin= 4 ErrMin= 1.16D-03
 ErrMax= 1.16D-03  0.00D+00 EMaxC= 1.00D-01 BMatC= 1.09D-02 BMatP= 4.83D-02
 IDIUse=3 WtCom= 9.88D-01 WtEn= 1.16D-02
 Coeff-Com: -0.148D-02 0.468D-01 0.318D+00 0.637D+00
 Coeff-En:   0.000D+00 0.000D+00 0.115D+00 0.885D+00
 Coeff:     -0.146D-02 0.462D-01 0.316D+00 0.639D+00
 Gap=     0.282 Goal=   None    Shift=    0.000
 Gap=     0.282 Goal=   None    Shift=    0.000
 RMSDP=1.01D-04 MaxDP=6.82D-03 DE=-1.03D-02 OVMax= 1.24D-02

 Cycle   5  Pass 0  IDiag  1:
 RMSU=  7.66D-05    CP:  9.95D-01  1.18D+00  9.09D-01  7.84D-01
 E= -3241.01424833883     Delta-E=       -0.002906328877 Rises=F Damp=F
 DIIS: error= 2.29D-04 at cycle   5 NSaved=   5.
 NSaved= 5 IEnMin= 5 EnMin= -3241.01424833883     IErMin= 5 ErrMin= 2.29D-04
 ErrMax= 2.29D-04  0.00D+00 EMaxC= 1.00D-01 BMatC= 1.15D-03 BMatP= 1.09D-02
 IDIUse=3 WtCom= 9.98D-01 WtEn= 2.29D-03
 Coeff-Com:  0.539D-02-0.302D-01 0.682D-01 0.283D+00 0.674D+00
 Coeff-En:   0.000D+00 0.000D+00 0.000D+00 0.000D+00 0.100D+01
 Coeff:      0.538D-02-0.301D-01 0.680D-01 0.282D+00 0.674D+00
 Gap=     0.284 Goal=   None    Shift=    0.000
 Gap=     0.284 Goal=   None    Shift=    0.000
 RMSDP=4.17D-05 MaxDP=2.40D-03 DE=-2.91D-03 OVMax= 5.60D-03

 Cycle   6  Pass 0  IDiag  1:
 RMSU=  3.02D-05    CP:  9.95D-01  1.18D+00  9.32D-01  8.87D-01  9.51D-01
 E= -3241.01463485618     Delta-E=       -0.000386517354 Rises=F Damp=F
 DIIS: error= 1.09D-04 at cycle   6 NSaved=   6.
 NSaved= 6 IEnMin= 6 EnMin= -3241.01463485618     IErMin= 6 ErrMin= 1.09D-04
 ErrMax= 1.09D-04  0.00D+00 EMaxC= 1.00D-01 BMatC= 1.59D-04 BMatP= 1.15D-03
 IDIUse=3 WtCom= 9.99D-01 WtEn= 1.09D-03
 Coeff-Com:  0.421D-02-0.234D-01-0.306D-01-0.798D-02 0.237D+00 0.821D+00
 Coeff-En:   0.000D+00 0.000D+00 0.000D+00 0.000D+00 0.000D+00 0.100D+01
 Coeff:      0.421D-02-0.234D-01-0.306D-01-0.797D-02 0.237D+00 0.821D+00
 Gap=     0.284 Goal=   None    Shift=    0.000
 Gap=     0.284 Goal=   None    Shift=    0.000
 RMSDP=2.14D-05 MaxDP=1.34D-03 DE=-3.87D-04 OVMax= 3.44D-03

 Cycle   7  Pass 0  IDiag  1:
 RMSU=  1.25D-05    CP:  9.95D-01  1.18D+00  9.40D-01  9.18D-01  1.13D+00
                    CP:  1.13D+00
 E= -3241.01472829730     Delta-E=       -0.000093441121 Rises=F Damp=F
 DIIS: error= 5.18D-05 at cycle   7 NSaved=   7.
 NSaved= 7 IEnMin= 7 EnMin= -3241.01472829730     IErMin= 7 ErrMin= 5.18D-05
 ErrMax= 5.18D-05  0.00D+00 EMaxC= 1.00D-01 BMatC= 3.36D-05 BMatP= 1.59D-04
 IDIUse=1 WtCom= 1.00D+00 WtEn= 0.00D+00
 Coeff-Com:  0.106D-02-0.508D-02-0.207D-01-0.492D-01-0.432D-01 0.321D+00
 Coeff-Com:  0.797D+00
 Coeff:      0.106D-02-0.508D-02-0.207D-01-0.492D-01-0.432D-01 0.321D+00
 Coeff:      0.797D+00
 Gap=     0.284 Goal=   None    Shift=    0.000
 Gap=     0.284 Goal=   None    Shift=    0.000
 RMSDP=1.10D-05 MaxDP=5.48D-04 DE=-9.34D-05 OVMax= 1.60D-03

 Cycle   8  Pass 0  IDiag  1:
 RMSU=  5.85D-06    CP:  9.95D-01  1.18D+00  9.45D-01  9.36D-01  1.18D+00
                    CP:  1.35D+00  1.11D+00
 E= -3241.01474873480     Delta-E=       -0.000020437493 Rises=F Damp=F
 DIIS: error= 2.01D-05 at cycle   8 NSaved=   8.
 NSaved= 8 IEnMin= 8 EnMin= -3241.01474873480     IErMin= 8 ErrMin= 2.01D-05
 ErrMax= 2.01D-05  0.00D+00 EMaxC= 1.00D-01 BMatC= 5.23D-06 BMatP= 3.36D-05
 IDIUse=1 WtCom= 1.00D+00 WtEn= 0.00D+00
 Coeff-Com: -0.311D-03 0.246D-02-0.999D-03-0.158D-01-0.674D-01-0.460D-01
 Coeff-Com:  0.297D+00 0.831D+00
 Coeff:     -0.311D-03 0.246D-02-0.999D-03-0.158D-01-0.674D-01-0.460D-01
 Coeff:      0.297D+00 0.831D+00
 Gap=     0.284 Goal=   None    Shift=    0.000
 Gap=     0.284 Goal=   None    Shift=    0.000
 RMSDP=4.94D-06 MaxDP=2.52D-04 DE=-2.04D-05 OVMax= 7.62D-04

 Initial convergence to 1.0D-05 achieved.  Increase integral accuracy.
 Cycle   9  Pass 1  IDiag  1:
 E= -3241.01418504847     Delta-E=        0.000563686323 Rises=F Damp=F
 DIIS: error= 1.36D-04 at cycle   1 NSaved=   1.
 NSaved= 1 IEnMin= 1 EnMin= -3241.01418504847     IErMin= 1 ErrMin= 1.36D-04
 ErrMax= 1.36D-04  0.00D+00 EMaxC= 1.00D-01 BMatC= 4.60D-05 BMatP= 4.60D-05
 IDIUse=3 WtCom= 9.99D-01 WtEn= 1.36D-03
 Coeff-Com:  0.100D+01
 Coeff-En:   0.100D+01
 Coeff:      0.100D+01
 Gap=     0.284 Goal=   None    Shift=    0.000
 Gap=     0.284 Goal=   None    Shift=    0.000
 RMSDP=4.94D-06 MaxDP=2.52D-04 DE= 5.64D-04 OVMax= 2.46D-04

 Cycle  10  Pass 1  IDiag  1:
 RMSU=  1.05D-04    CP:  1.00D+00
 E= -3241.01419449287     Delta-E=       -0.000009444396 Rises=F Damp=F
 DIIS: error= 9.25D-06 at cycle   2 NSaved=   2.
 NSaved= 2 IEnMin= 2 EnMin= -3241.01419449287     IErMin= 2 ErrMin= 9.25D-06
 ErrMax= 9.25D-06  0.00D+00 EMaxC= 1.00D-01 BMatC= 8.75D-07 BMatP= 4.60D-05
 IDIUse=1 WtCom= 1.00D+00 WtEn= 0.00D+00
 Coeff-Com: -0.499D-02 0.100D+01
 Coeff:     -0.499D-02 0.100D+01
 Gap=     0.284 Goal=   None    Shift=    0.000
 Gap=     0.284 Goal=   None    Shift=    0.000
 RMSDP=5.47D-06 MaxDP=2.94D-04 DE=-9.44D-06 OVMax= 2.36D-04

 Cycle  11  Pass 1  IDiag  1:
 RMSU=  2.20D-06    CP:  1.00D+00  1.05D+00
 E= -3241.01419429286     Delta-E=        0.000000200013 Rises=F Damp=F
 DIIS: error= 1.33D-05 at cycle   3 NSaved=   3.
 NSaved= 3 IEnMin= 2 EnMin= -3241.01419449287     IErMin= 2 ErrMin= 9.25D-06
 ErrMax= 1.33D-05  0.00D+00 EMaxC= 1.00D-01 BMatC= 1.51D-06 BMatP= 8.75D-07
 IDIUse=1 WtCom= 1.00D+00 WtEn= 0.00D+00
 Coeff-Com: -0.215D-01 0.585D+00 0.437D+00
 Coeff:     -0.215D-01 0.585D+00 0.437D+00
 Gap=     0.284 Goal=   None    Shift=    0.000
 Gap=     0.284 Goal=   None    Shift=    0.000
 RMSDP=9.95D-07 MaxDP=7.32D-05 DE= 2.00D-07 OVMax= 1.27D-04

 Cycle  12  Pass 1  IDiag  1:
 RMSU=  7.13D-07    CP:  1.00D+00  1.05D+00  6.99D-01
 E= -3241.01419464312     Delta-E=       -0.000000350265 Rises=F Damp=F
 DIIS: error= 9.69D-07 at cycle   4 NSaved=   4.
 NSaved= 4 IEnMin= 4 EnMin= -3241.01419464312     IErMin= 4 ErrMin= 9.69D-07
 ErrMax= 9.69D-07  0.00D+00 EMaxC= 1.00D-01 BMatC= 1.37D-08 BMatP= 8.75D-07
 IDIUse=1 WtCom= 1.00D+00 WtEn= 0.00D+00
 Coeff-Com: -0.553D-02 0.122D+00 0.114D+00 0.770D+00
 Coeff:     -0.553D-02 0.122D+00 0.114D+00 0.770D+00
 Gap=     0.284 Goal=   None    Shift=    0.000
 Gap=     0.284 Goal=   None    Shift=    0.000
 RMSDP=2.12D-07 MaxDP=9.90D-06 DE=-3.50D-07 OVMax= 2.75D-05

 Cycle  13  Pass 1  IDiag  1:
 RMSU=  1.60D-07    CP:  1.00D+00  1.05D+00  7.44D-01  1.09D+00
 E= -3241.01419465738     Delta-E=       -0.000000014260 Rises=F Damp=F
 DIIS: error= 5.74D-07 at cycle   5 NSaved=   5.
 NSaved= 5 IEnMin= 5 EnMin= -3241.01419465738     IErMin= 5 ErrMin= 5.74D-07
 ErrMax= 5.74D-07  0.00D+00 EMaxC= 1.00D-01 BMatC= 3.93D-09 BMatP= 1.37D-08
 IDIUse=1 WtCom= 1.00D+00 WtEn= 0.00D+00
 Coeff-Com:  0.447D-02-0.132D+00-0.915D-01 0.252D+00 0.967D+00
 Coeff:      0.447D-02-0.132D+00-0.915D-01 0.252D+00 0.967D+00
 Gap=     0.284 Goal=   None    Shift=    0.000
 Gap=     0.284 Goal=   None    Shift=    0.000
 RMSDP=1.75D-07 MaxDP=7.80D-06 DE=-1.43D-08 OVMax= 3.35D-05

 Cycle  14  Pass 1  IDiag  1:
 RMSU=  1.16D-07    CP:  1.00D+00  1.05D+00  7.71D-01  1.21D+00  1.44D+00
 E= -3241.01419465125     Delta-E=        0.000000006134 Rises=F Damp=F
 DIIS: error= 2.66D-07 at cycle   6 NSaved=   6.
 NSaved= 6 IEnMin= 5 EnMin= -3241.01419465738     IErMin= 6 ErrMin= 2.66D-07
 ErrMax= 2.66D-07  0.00D+00 EMaxC= 1.00D-01 BMatC= 7.75D-10 BMatP= 3.93D-09
 IDIUse=1 WtCom= 1.00D+00 WtEn= 0.00D+00
 Coeff-Com:  0.235D-02-0.632D-01-0.485D-01-0.357D-01 0.361D+00 0.784D+00
 Coeff:      0.235D-02-0.632D-01-0.485D-01-0.357D-01 0.361D+00 0.784D+00
 Gap=     0.284 Goal=   None    Shift=    0.000
 Gap=     0.284 Goal=   None    Shift=    0.000
 RMSDP=5.97D-08 MaxDP=2.64D-06 DE= 6.13D-09 OVMax= 1.05D-05

 Cycle  15  Pass 1  IDiag  1:
 RMSU=  3.22D-08    CP:  1.00D+00  1.05D+00  7.75D-01  1.23D+00  1.70D+00
                    CP:  1.18D+00
 E= -3241.01419465184     Delta-E=       -0.000000000592 Rises=F Damp=F
 DIIS: error= 1.41D-07 at cycle   7 NSaved=   7.
 NSaved= 7 IEnMin= 5 EnMin= -3241.01419465738     IErMin= 7 ErrMin= 1.41D-07
 ErrMax= 1.41D-07  0.00D+00 EMaxC= 1.00D-01 BMatC= 1.93D-10 BMatP= 7.75D-10
 IDIUse=1 WtCom= 1.00D+00 WtEn= 0.00D+00
 Coeff-Com:  0.610D-04 0.105D-02-0.162D-02-0.826D-01-0.519D-01 0.387D+00
 Coeff-Com:  0.748D+00
 Coeff:      0.610D-04 0.105D-02-0.162D-02-0.826D-01-0.519D-01 0.387D+00
 Coeff:      0.748D+00
 Gap=     0.284 Goal=   None    Shift=    0.000
 Gap=     0.284 Goal=   None    Shift=    0.000
 RMSDP=2.94D-08 MaxDP=1.39D-06 DE=-5.92D-10 OVMax= 5.23D-06

 Cycle  16  Pass 1  IDiag  1:
 RMSU=  1.18D-08    CP:  1.00D+00  1.05D+00  7.75D-01  1.23D+00  1.80D+00
                    CP:  1.35D+00  9.09D-01
 E= -3241.01419465183     Delta-E=        0.000000000005 Rises=F Damp=F
 DIIS: error= 4.43D-08 at cycle   8 NSaved=   8.
 NSaved= 8 IEnMin= 5 EnMin= -3241.01419465738     IErMin= 8 ErrMin= 4.43D-08
 ErrMax= 4.43D-08  0.00D+00 EMaxC= 1.00D-01 BMatC= 2.62D-11 BMatP= 1.93D-10
 IDIUse=1 WtCom= 1.00D+00 WtEn= 0.00D+00
 Coeff-Com: -0.207D-03 0.697D-02 0.409D-02-0.400D-01-0.634D-01 0.117D+00
 Coeff-Com:  0.385D+00 0.590D+00
 Coeff:     -0.207D-03 0.697D-02 0.409D-02-0.400D-01-0.634D-01 0.117D+00
 Coeff:      0.385D+00 0.590D+00
 Gap=     0.284 Goal=   None    Shift=    0.000
 Gap=     0.284 Goal=   None    Shift=    0.000
 RMSDP=6.76D-09 MaxDP=2.85D-07 DE= 4.55D-12 OVMax= 8.29D-07

 SCF Done:  E(ULC-wPBE) =  -3241.01419465     A.U. after   16 cycles
            NFock= 16  Conv=0.68D-08     -V/T= 2.0043
 <Sx>= 0.0000 <Sy>= 0.0000 <Sz>= 0.0000 <S**2>=-0.0000 S=-0.0000
 <L.S>= 0.000000000000E+00
 KE= 3.227085346100D+03 PE=-1.738752814000D+04 EE= 6.048701740272D+03
 Annihilation of the first spin contaminant:
 S**2 before annihilation    -0.0000,   after    -0.0000
 Leave Link  502 at Sat Jul 25 06:29:24 2020, MaxMem=  4026531840 cpu:            3634.3 elap:             456.0
 (Enter /opt/ohpc/pub/libs/gaussian/g16-A.03/sandybridge/g16/l601.exe)
 Copying SCF densities to generalized density rwf, IOpCl= 1 IROHF=0.

 **********************************************************************

            Population analysis using the SCF density.

 **********************************************************************

 Orbital symmetries:
 Alpha Orbitals:
       Occupied  (A) (A) (A) (A) (A) (A) (A) (A) (A) (A) (A) (A)
                 (A) (A) (A) (A) (A) (A) (A) (A) (A) (A) (A) (A)
                 (A) (A) (A) (A) (A) (A) (A) (A) (A) (A) (A) (A)
                 (A) (A) (A) (A) (A) (A) (A) (A) (A) (A) (A) (A)
                 (A) (A) (A) (A) (A) (A) (A) (A) (A) (A) (A) (A)
                 (A) (A) (A) (A) (A) (A) (A) (A) (A) (A) (A) (A)
                 (A) (A) (A) (A) (A) (A) (A) (A) (A) (A) (A) (A)
                 (A) (A) (A) (A) (A) (A) (A) (A) (A) (A) (A) (A)
                 (A) (A) (A) (A) (A) (A) (A) (A) (A) (A) (A) (A)
                 (A) (A) (A) (A) (A) (A) (A) (A) (A) (A) (A) (A)
                 (A) (A) (A) (A) (A) (A) (A) (A) (A) (A) (A) (A)
                 (A) (A) (A) (A) (A) (A) (A) (A) (A) (A) (A) (A)
                 (A) (A) (A) (A) (A) (A) (A) (A) (A) (A) (A) (A)
                 (A) (A) (A) (A)
       Virtual   (A) (A) (A) (A) (A) (A) (A) (A) (A) (A) (A) (A)
                 (A) (A) (A) (A) (A) (A) (A) (A) (A) (A) (A) (A)
                 (A) (A) (A) (A) (A) (A) (A) (A) (A) (A) (A) (A)
                 (A) (A) (A) (A) (A) (A) (A) (A) (A) (A) (A) (A)
                 (A) (A) (A) (A) (A) (A) (A) (A) (A) (A) (A) (A)
                 (A) (A) (A) (A) (A) (A) (A) (A) (A) (A) (A) (A)
                 (A) (A) (A) (A) (A) (A) (A) (A) (A) (A) (A) (A)
                 (A) (A) (A) (A) (A) (A) (A) (A) (A) (A) (A) (A)
                 (A) (A) (A) (A) (A) (A) (A) (A) (A) (A) (A) (A)
                 (A) (A) (A) (A) (A) (A) (A) (A) (A) (A) (A) (A)
                 (A) (A) (A) (A) (A) (A) (A) (A) (A) (A) (A) (A)
                 (A) (A) (A) (A) (A) (A) (A) (A) (A) (A) (A) (A)
                 (A) (A) (A) (A) (A) (A) (A) (A) (A) (A) (A) (A)
                 (A) (A) (A) (A) (A) (A) (A) (A) (A) (A) (A) (A)
                 (A) (A) (A) (A) (A) (A) (A) (A) (A) (A) (A) (A)
                 (A) (A) (A) (A) (A) (A) (A) (A) (A) (A) (A) (A)
                 (A) (A) (A) (A) (A) (A) (A) (A) (A) (A) (A) (A)
                 (A) (A) (A) (A) (A) (A) (A) (A) (A) (A) (A) (A)
                 (A) (A) (A) (A) (A) (A) (A) (A) (A) (A) (A) (A)
                 (A) (A) (A) (A) (A) (A) (A) (A) (A) (A) (A) (A)
                 (A) (A) (A) (A) (A) (A) (A) (A) (A) (A) (A) (A)
                 (A) (A) (A) (A) (A) (A) (A) (A) (A) (A) (A) (A)
                 (A) (A) (A) (A) (A) (A) (A) (A) (A) (A) (A) (A)
                 (A) (A) (A) (A) (A) (A) (A) (A) (A) (A) (A) (A)
                 (A) (A) (A) (A) (A) (A) (A) (A) (A) (A) (A) (A)
                 (A) (A) (A) (A) (A) (A) (A) (A) (A) (A) (A) (A)
                 (A) (A) (A) (A) (A) (A) (A) (A) (A) (A) (A) (A)
                 (A) (A) (A) (A) (A) (A) (A) (A) (A) (A) (A) (A)
                 (A) (A) (A) (A) (A) (A) (A) (A) (A) (A) (A) (A)
                 (A) (A) (A) (A) (A) (A) (A) (A) (A) (A) (A) (A)
                 (A) (A) (A) (A) (A) (A) (A) (A) (A) (A) (A) (A)
                 (A) (A) (A) (A) (A) (A) (A) (A) (A) (A) (A) (A)
                 (A) (A) (A) (A) (A) (A) (A) (A) (A) (A) (A) (A)
                 (A) (A) (A) (A) (A) (A) (A) (A) (A) (A) (A) (A)
                 (A) (A) (A) (A) (A) (A) (A) (A) (A) (A) (A) (A)
                 (A) (A) (A) (A) (A) (A) (A) (A) (A) (A) (A) (A)
                 (A) (A) (A) (A) (A) (A) (A) (A) (A) (A) (A) (A)
                 (A) (A) (A) (A) (A) (A) (A) (A) (A) (A) (A) (A)
                 (A) (A) (A) (A) (A) (A) (A) (A) (A) (A) (A) (A)
                 (A) (A) (A) (A) (A) (A) (A) (A) (A) (A) (A) (A)
                 (A) (A) (A) (A) (A) (A) (A) (A) (A) (A) (A) (A)
                 (A) (A) (A)
 Beta  Orbitals:
       Occupied  (A) (A) (A) (A) (A) (A) (A) (A) (A) (A) (A) (A)
                 (A) (A) (A) (A) (A) (A) (A) (A) (A) (A) (A) (A)
                 (A) (A) (A) (A) (A) (A) (A) (A) (A) (A) (A) (A)
                 (A) (A) (A) (A) (A) (A) (A) (A) (A) (A) (A) (A)
                 (A) (A) (A) (A) (A) (A) (A) (A) (A) (A) (A) (A)
                 (A) (A) (A) (A) (A) (A) (A) (A) (A) (A) (A) (A)
                 (A) (A) (A) (A) (A) (A) (A) (A) (A) (A) (A) (A)
                 (A) (A) (A) (A) (A) (A) (A) (A) (A) (A) (A) (A)
                 (A) (A) (A) (A) (A) (A) (A) (A) (A) (A) (A) (A)
                 (A) (A) (A) (A) (A) (A) (A) (A) (A) (A) (A) (A)
                 (A) (A) (A) (A) (A) (A) (A) (A) (A) (A) (A) (A)
                 (A) (A) (A) (A) (A) (A) (A) (A) (A) (A) (A) (A)
                 (A) (A) (A) (A) (A) (A) (A) (A) (A) (A) (A) (A)
                 (A) (A) (A) (A)
       Virtual   (A) (A) (A) (A) (A) (A) (A) (A) (A) (A) (A) (A)
                 (A) (A) (A) (A) (A) (A) (A) (A) (A) (A) (A) (A)
                 (A) (A) (A) (A) (A) (A) (A) (A) (A) (A) (A) (A)
                 (A) (A) (A) (A) (A) (A) (A) (A) (A) (A) (A) (A)
                 (A) (A) (A) (A) (A) (A) (A) (A) (A) (A) (A) (A)
                 (A) (A) (A) (A) (A) (A) (A) (A) (A) (A) (A) (A)
                 (A) (A) (A) (A) (A) (A) (A) (A) (A) (A) (A) (A)
                 (A) (A) (A) (A) (A) (A) (A) (A) (A) (A) (A) (A)
                 (A) (A) (A) (A) (A) (A) (A) (A) (A) (A) (A) (A)
                 (A) (A) (A) (A) (A) (A) (A) (A) (A) (A) (A) (A)
                 (A) (A) (A) (A) (A) (A) (A) (A) (A) (A) (A) (A)
                 (A) (A) (A) (A) (A) (A) (A) (A) (A) (A) (A) (A)
                 (A) (A) (A) (A) (A) (A) (A) (A) (A) (A) (A) (A)
                 (A) (A) (A) (A) (A) (A) (A) (A) (A) (A) (A) (A)
                 (A) (A) (A) (A) (A) (A) (A) (A) (A) (A) (A) (A)
                 (A) (A) (A) (A) (A) (A) (A) (A) (A) (A) (A) (A)
                 (A) (A) (A) (A) (A) (A) (A) (A) (A) (A) (A) (A)
                 (A) (A) (A) (A) (A) (A) (A) (A) (A) (A) (A) (A)
                 (A) (A) (A) (A) (A) (A) (A) (A) (A) (A) (A) (A)
                 (A) (A) (A) (A) (A) (A) (A) (A) (A) (A) (A) (A)
                 (A) (A) (A) (A) (A) (A) (A) (A) (A) (A) (A) (A)
                 (A) (A) (A) (A) (A) (A) (A) (A) (A) (A) (A) (A)
                 (A) (A) (A) (A) (A) (A) (A) (A) (A) (A) (A) (A)
                 (A) (A) (A) (A) (A) (A) (A) (A) (A) (A) (A) (A)
                 (A) (A) (A) (A) (A) (A) (A) (A) (A) (A) (A) (A)
                 (A) (A) (A) (A) (A) (A) (A) (A) (A) (A) (A) (A)
                 (A) (A) (A) (A) (A) (A) (A) (A) (A) (A) (A) (A)
                 (A) (A) (A) (A) (A) (A) (A) (A) (A) (A) (A) (A)
                 (A) (A) (A) (A) (A) (A) (A) (A) (A) (A) (A) (A)
                 (A) (A) (A) (A) (A) (A) (A) (A) (A) (A) (A) (A)
                 (A) (A) (A) (A) (A) (A) (A) (A) (A) (A) (A) (A)
                 (A) (A) (A) (A) (A) (A) (A) (A) (A) (A) (A) (A)
                 (A) (A) (A) (A) (A) (A) (A) (A) (A) (A) (A) (A)
                 (A) (A) (A) (A) (A) (A) (A) (A) (A) (A) (A) (A)
                 (A) (A) (A) (A) (A) (A) (A) (A) (A) (A) (A) (A)
                 (A) (A) (A) (A) (A) (A) (A) (A) (A) (A) (A) (A)
                 (A) (A) (A) (A) (A) (A) (A) (A) (A) (A) (A) (A)
                 (A) (A) (A) (A) (A) (A) (A) (A) (A) (A) (A) (A)
                 (A) (A) (A) (A) (A) (A) (A) (A) (A) (A) (A) (A)
                 (A) (A) (A) (A) (A) (A) (A) (A) (A) (A) (A) (A)
                 (A) (A) (A) (A) (A) (A) (A) (A) (A) (A) (A) (A)
                 (A) (A) (A)
 The electronic state is 1-A.
 Alpha  occ. eigenvalues --  -88.26522 -88.26323 -88.26186 -24.46153 -24.45773
 Alpha  occ. eigenvalues --  -24.45473 -24.45375 -24.44759 -24.44370 -24.43986
 Alpha  occ. eigenvalues --  -24.43886 -24.43836 -10.15444 -10.15262 -10.15231
 Alpha  occ. eigenvalues --  -10.15184 -10.15145 -10.15049 -10.14448 -10.13966
 Alpha  occ. eigenvalues --  -10.13573 -10.10316 -10.10213 -10.10113 -10.09890
 Alpha  occ. eigenvalues --  -10.09522 -10.09335 -10.08993 -10.08849 -10.08718
 Alpha  occ. eigenvalues --  -10.08674 -10.08616 -10.07897 -10.07611 -10.07165
 Alpha  occ. eigenvalues --  -10.06957 -10.06855 -10.06830 -10.06711 -10.06530
 Alpha  occ. eigenvalues --  -10.06240 -10.06077  -7.86946  -7.86870  -7.86619
 Alpha  occ. eigenvalues --   -5.88860  -5.88769  -5.88529  -5.88390  -5.88287
 Alpha  occ. eigenvalues --   -5.88041  -5.87956  -5.87888  -5.87650  -1.31413
 Alpha  occ. eigenvalues --   -1.30776  -1.30610  -1.30112  -1.29194  -1.28770
 Alpha  occ. eigenvalues --   -1.27510  -1.27284  -1.26256  -1.00310  -0.99132
 Alpha  occ. eigenvalues --   -0.98035  -0.97147  -0.96464  -0.95429  -0.90652
 Alpha  occ. eigenvalues --   -0.88755  -0.87633  -0.84945  -0.84700  -0.84199
 Alpha  occ. eigenvalues --   -0.84009  -0.83620  -0.83107  -0.82530  -0.81388
 Alpha  occ. eigenvalues --   -0.79016  -0.75136  -0.73613  -0.73206  -0.72916
 Alpha  occ. eigenvalues --   -0.71976  -0.71778  -0.68276  -0.67952  -0.67668
 Alpha  occ. eigenvalues --   -0.67651  -0.66733  -0.66242  -0.65575  -0.64880
 Alpha  occ. eigenvalues --   -0.63790  -0.63402  -0.62652  -0.62597  -0.61880
 Alpha  occ. eigenvalues --   -0.61441  -0.60808  -0.59315  -0.58666  -0.58502
 Alpha  occ. eigenvalues --   -0.58101  -0.57735  -0.57620  -0.57485  -0.57111
 Alpha  occ. eigenvalues --   -0.56669  -0.56264  -0.55520  -0.55377  -0.55250
 Alpha  occ. eigenvalues --   -0.54893  -0.54624  -0.54441  -0.54140  -0.53648
 Alpha  occ. eigenvalues --   -0.53392  -0.53186  -0.52723  -0.52673  -0.51496
 Alpha  occ. eigenvalues --   -0.51286  -0.50511  -0.49600  -0.48942  -0.48133
 Alpha  occ. eigenvalues --   -0.47798  -0.47076  -0.46830  -0.46680  -0.46572
 Alpha  occ. eigenvalues --   -0.46443  -0.46350  -0.45909  -0.45729  -0.45552
 Alpha  occ. eigenvalues --   -0.45177  -0.44985  -0.44701  -0.44380  -0.43843
 Alpha  occ. eigenvalues --   -0.43490  -0.43355  -0.42961  -0.38444  -0.37278
 Alpha  occ. eigenvalues --   -0.36338  -0.34646  -0.34537  -0.34041  -0.33774
 Alpha  occ. eigenvalues --   -0.33504  -0.33355  -0.31959  -0.31059  -0.29421
 Alpha virt. eigenvalues --   -0.00989   0.01142   0.03331   0.04003   0.04195
 Alpha virt. eigenvalues --    0.04679   0.05672   0.06369   0.07153   0.09475
 Alpha virt. eigenvalues --    0.09858   0.09955   0.11719   0.12050   0.12312
 Alpha virt. eigenvalues --    0.12914   0.13837   0.14947   0.15238   0.15926
 Alpha virt. eigenvalues --    0.16540   0.17275   0.17473   0.17683   0.18161
 Alpha virt. eigenvalues --    0.18782   0.19143   0.19196   0.20237   0.20792
 Alpha virt. eigenvalues --    0.20810   0.21299   0.21824   0.22063   0.22501
 Alpha virt. eigenvalues --    0.24025   0.24867   0.25038   0.25318   0.26035
 Alpha virt. eigenvalues --    0.26165   0.29757   0.29994   0.31009   0.31670
 Alpha virt. eigenvalues --    0.32610   0.33444   0.33771   0.34295   0.34741
 Alpha virt. eigenvalues --    0.35473   0.35712   0.36447   0.36925   0.37480
 Alpha virt. eigenvalues --    0.39217   0.39956   0.40574   0.42489   0.42835
 Alpha virt. eigenvalues --    0.43932   0.44156   0.44691   0.44797   0.45023
 Alpha virt. eigenvalues --    0.45674   0.46446   0.47024   0.48263   0.48396
 Alpha virt. eigenvalues --    0.48833   0.49473   0.49774   0.50381   0.50498
 Alpha virt. eigenvalues --    0.50695   0.50982   0.51130   0.51333   0.51754
 Alpha virt. eigenvalues --    0.51777   0.52128   0.52482   0.52616   0.53052
 Alpha virt. eigenvalues --    0.53070   0.53447   0.53810   0.54075   0.54181
 Alpha virt. eigenvalues --    0.54619   0.54939   0.55241   0.55586   0.55773
 Alpha virt. eigenvalues --    0.56171   0.56458   0.56492   0.56722   0.56857
 Alpha virt. eigenvalues --    0.57020   0.57516   0.57718   0.57854   0.58156
 Alpha virt. eigenvalues --    0.58306   0.58561   0.58724   0.59121   0.59207
 Alpha virt. eigenvalues --    0.59436   0.59884   0.60318   0.61004   0.61329
 Alpha virt. eigenvalues --    0.61484   0.61867   0.62265   0.62677   0.62929
 Alpha virt. eigenvalues --    0.63299   0.64195   0.64988   0.65074   0.65541
 Alpha virt. eigenvalues --    0.65569   0.65949   0.66879   0.67253   0.67587
 Alpha virt. eigenvalues --    0.68239   0.68410   0.69078   0.69831   0.69857
 Alpha virt. eigenvalues --    0.70382   0.71129   0.71505   0.72125   0.72829
 Alpha virt. eigenvalues --    0.72945   0.73127   0.73375   0.73947   0.74296
 Alpha virt. eigenvalues --    0.74399   0.74817   0.75264   0.75373   0.76280
 Alpha virt. eigenvalues --    0.76674   0.77709   0.78121   0.78236   0.78740
 Alpha virt. eigenvalues --    0.79374   0.79671   0.80367   0.80851   0.81698
 Alpha virt. eigenvalues --    0.81833   0.82460   0.82791   0.83214   0.83597
 Alpha virt. eigenvalues --    0.84053   0.84950   0.85325   0.85685   0.85989
 Alpha virt. eigenvalues --    0.86373   0.86852   0.87059   0.88552   0.88628
 Alpha virt. eigenvalues --    0.88989   0.89598   0.91733   0.91962   0.92357
 Alpha virt. eigenvalues --    0.93239   0.93798   0.94277   0.95111   0.96032
 Alpha virt. eigenvalues --    0.96320   0.97110   0.97351   0.97803   0.98840
 Alpha virt. eigenvalues --    0.99779   1.00537   1.00866   1.01582   1.02023
 Alpha virt. eigenvalues --    1.02268   1.02506   1.03000   1.03498   1.04368
 Alpha virt. eigenvalues --    1.04881   1.04962   1.05302   1.05775   1.06518
 Alpha virt. eigenvalues --    1.07366   1.07787   1.08105   1.08421   1.09448
 Alpha virt. eigenvalues --    1.09469   1.09870   1.10105   1.10522   1.11187
 Alpha virt. eigenvalues --    1.11503   1.12770   1.12883   1.13434   1.13610
 Alpha virt. eigenvalues --    1.14391   1.14728   1.14901   1.15967   1.16430
 Alpha virt. eigenvalues --    1.16544   1.17875   1.18193   1.18488   1.19119
 Alpha virt. eigenvalues --    1.20094   1.20289   1.20870   1.22239   1.22486
 Alpha virt. eigenvalues --    1.22950   1.23081   1.23534   1.24040   1.24846
 Alpha virt. eigenvalues --    1.25520   1.26107   1.26452   1.27239   1.27475
 Alpha virt. eigenvalues --    1.28832   1.29797   1.30461   1.31361   1.32086
 Alpha virt. eigenvalues --    1.32394   1.34057   1.35154   1.35578   1.35693
 Alpha virt. eigenvalues --    1.35918   1.36340   1.36596   1.37260   1.37488
 Alpha virt. eigenvalues --    1.37805   1.38298   1.38464   1.39292   1.39787
 Alpha virt. eigenvalues --    1.40153   1.40987   1.41338   1.42337   1.42854
 Alpha virt. eigenvalues --    1.43121   1.44360   1.45102   1.46988   1.47785
 Alpha virt. eigenvalues --    1.48504   1.49005   1.49263   1.49459   1.49741
 Alpha virt. eigenvalues --    1.51010   1.51903   1.52187   1.52720   1.53300
 Alpha virt. eigenvalues --    1.54282   1.54393   1.54951   1.55699   1.56337
 Alpha virt. eigenvalues --    1.56758   1.57032   1.57642   1.58005   1.58412
 Alpha virt. eigenvalues --    1.59016   1.59379   1.60136   1.60403   1.60971
 Alpha virt. eigenvalues --    1.61352   1.61682   1.62404   1.63347   1.63608
 Alpha virt. eigenvalues --    1.64322   1.64414   1.65200   1.65387   1.66231
 Alpha virt. eigenvalues --    1.67166   1.67322   1.67799   1.68085   1.68458
 Alpha virt. eigenvalues --    1.69214   1.69435   1.69615   1.70116   1.70798
 Alpha virt. eigenvalues --    1.71301   1.71348   1.71812   1.72050   1.72558
 Alpha virt. eigenvalues --    1.73436   1.74477   1.74922   1.75642   1.76143
 Alpha virt. eigenvalues --    1.76213   1.76819   1.76946   1.77646   1.77948
 Alpha virt. eigenvalues --    1.79128   1.79606   1.79614   1.80146   1.80470
 Alpha virt. eigenvalues --    1.82095   1.82404   1.83386   1.84370   1.84836
 Alpha virt. eigenvalues --    1.85017   1.86237   1.86832   1.87026   1.87784
 Alpha virt. eigenvalues --    1.88175   1.89263   1.89588   1.89896   1.90688
 Alpha virt. eigenvalues --    1.91022   1.91458   1.91855   1.92323   1.93149
 Alpha virt. eigenvalues --    1.93424   1.94234   1.94567   1.94860   1.95168
 Alpha virt. eigenvalues --    1.95532   1.96634   1.97628   1.97942   1.99354
 Alpha virt. eigenvalues --    1.99672   2.00998   2.01557   2.02272   2.03192
 Alpha virt. eigenvalues --    2.03870   2.05648   2.06622   2.07772   2.08407
 Alpha virt. eigenvalues --    2.09210   2.10299   2.10801   2.12567   2.12662
 Alpha virt. eigenvalues --    2.14146   2.14982   2.15385   2.16138   2.18484
 Alpha virt. eigenvalues --    2.19189   2.20215   2.20948   2.22345   2.23767
 Alpha virt. eigenvalues --    2.24527   2.25153   2.25848   2.26068   2.27345
 Alpha virt. eigenvalues --    2.28009   2.28440   2.29894   2.31288   2.33937
 Alpha virt. eigenvalues --    2.35930   2.36464   2.37029   2.37938   2.38790
 Alpha virt. eigenvalues --    2.39362   2.40777   2.42453   2.45184   2.46212
 Alpha virt. eigenvalues --    2.48891   2.49504   2.51076   2.53468   2.53940
 Alpha virt. eigenvalues --    2.54047   2.55228   2.55506   2.56722   2.57220
 Alpha virt. eigenvalues --    2.58221   2.59568   2.59852   2.60570   2.60637
 Alpha virt. eigenvalues --    2.61442   2.63332   2.64266   2.66423   2.68834
 Alpha virt. eigenvalues --    2.70412   2.71178   2.73546   2.74313   2.76178
 Alpha virt. eigenvalues --    2.79292   2.79504   2.80165   2.89666   2.99152
 Alpha virt. eigenvalues --    3.06028   3.10142   3.22311   3.31942   3.32238
 Alpha virt. eigenvalues --    3.58643   3.59085   3.59385   3.60058   3.60349
 Alpha virt. eigenvalues --    3.61019   3.61022   3.61339   3.61394   3.61585
 Alpha virt. eigenvalues --    3.62048   3.62361   3.62481   3.62886   3.63119
 Alpha virt. eigenvalues --    3.64356   3.64724   3.64877   3.75909   3.79337
 Alpha virt. eigenvalues --    3.79847   3.80439   3.80566   3.80827   3.81973
 Alpha virt. eigenvalues --    3.82599   3.83625   3.96624   3.97468   3.98260
 Alpha virt. eigenvalues --    3.98612   4.01577   4.02749   4.03569   4.03972
 Alpha virt. eigenvalues --    4.05781   4.13536   4.15653   4.16184   4.20041
 Alpha virt. eigenvalues --    4.20346   4.22152   4.29030   4.30684   4.30823
  Beta  occ. eigenvalues --  -88.26522 -88.26323 -88.26186 -24.46153 -24.45773
  Beta  occ. eigenvalues --  -24.45473 -24.45375 -24.44759 -24.44370 -24.43986
  Beta  occ. eigenvalues --  -24.43886 -24.43836 -10.15444 -10.15262 -10.15231
  Beta  occ. eigenvalues --  -10.15184 -10.15145 -10.15049 -10.14448 -10.13966
  Beta  occ. eigenvalues --  -10.13573 -10.10316 -10.10213 -10.10113 -10.09890
  Beta  occ. eigenvalues --  -10.09522 -10.09335 -10.08993 -10.08849 -10.08718
  Beta  occ. eigenvalues --  -10.08674 -10.08616 -10.07897 -10.07611 -10.07165
  Beta  occ. eigenvalues --  -10.06957 -10.06855 -10.06830 -10.06711 -10.06530
  Beta  occ. eigenvalues --  -10.06240 -10.06077  -7.86946  -7.86870  -7.86619
  Beta  occ. eigenvalues --   -5.88860  -5.88769  -5.88529  -5.88390  -5.88287
  Beta  occ. eigenvalues --   -5.88041  -5.87956  -5.87888  -5.87650  -1.31413
  Beta  occ. eigenvalues --   -1.30776  -1.30610  -1.30112  -1.29194  -1.28770
  Beta  occ. eigenvalues --   -1.27510  -1.27284  -1.26256  -1.00310  -0.99132
  Beta  occ. eigenvalues --   -0.98035  -0.97147  -0.96464  -0.95429  -0.90652
  Beta  occ. eigenvalues --   -0.88755  -0.87633  -0.84945  -0.84700  -0.84199
  Beta  occ. eigenvalues --   -0.84009  -0.83620  -0.83107  -0.82530  -0.81388
  Beta  occ. eigenvalues --   -0.79016  -0.75136  -0.73613  -0.73206  -0.72916
  Beta  occ. eigenvalues --   -0.71976  -0.71778  -0.68276  -0.67952  -0.67668
  Beta  occ. eigenvalues --   -0.67651  -0.66733  -0.66242  -0.65575  -0.64880
  Beta  occ. eigenvalues --   -0.63790  -0.63402  -0.62652  -0.62597  -0.61880
  Beta  occ. eigenvalues --   -0.61441  -0.60808  -0.59315  -0.58666  -0.58502
  Beta  occ. eigenvalues --   -0.58101  -0.57735  -0.57620  -0.57485  -0.57111
  Beta  occ. eigenvalues --   -0.56669  -0.56264  -0.55520  -0.55377  -0.55250
  Beta  occ. eigenvalues --   -0.54893  -0.54624  -0.54441  -0.54140  -0.53648
  Beta  occ. eigenvalues --   -0.53392  -0.53186  -0.52723  -0.52673  -0.51496
  Beta  occ. eigenvalues --   -0.51286  -0.50511  -0.49600  -0.48942  -0.48133
[...]
     7   Atom        0.000000      0.000000     -0.000000
     8   Atom       -0.000000     -0.000000     -0.000000
     9   Atom       -0.000000      0.000000      0.000000
    10   Atom       -0.000000     -0.000000      0.000000
    11   Atom        0.000000     -0.000000     -0.000000
    12   Atom        0.000000     -0.000000     -0.000000
    13   Atom       -0.000000     -0.000000     -0.000000
    14   Atom        0.000000      0.000000      0.000000
    15   Atom       -0.000000      0.000000      0.000000
    16   Atom       -0.000000      0.000000     -0.000000
    17   Atom       -0.000000      0.000000      0.000000
    18   Atom        0.000000      0.000000     -0.000000
    19   Atom       -0.000000     -0.000000     -0.000000
    20   Atom        0.000000     -0.000000     -0.000000
    21   Atom       -0.000000     -0.000000      0.000000
    22   Atom        0.000000      0.000000      0.000000
    23   Atom       -0.000000      0.000000     -0.000000
    24   Atom       -0.000000      0.000000     -0.000000
    25   Atom        0.000000     -0.000000      0.000000
    26   Atom        0.000000     -0.000000      0.000000
    27   Atom       -0.000000      0.000000      0.000000
    28   Atom        0.000000     -0.000000     -0.000000
    29   Atom       -0.000000     -0.000000      0.000000
    30   Atom       -0.000000      0.000000     -0.000000
    31   Atom       -0.000000     -0.000000      0.000000
    32   Atom        0.000000     -0.000000      0.000000
    33   Atom        0.000000      0.000000     -0.000000
    34   Atom       -0.000000     -0.000000      0.000000
    35   Atom        0.000000     -0.000000     -0.000000
    36   Atom       -0.000000     -0.000000      0.000000
    37   Atom       -0.000000      0.000000     -0.000000
    38   Atom        0.000000     -0.000000      0.000000
    39   Atom        0.000000      0.000000      0.000000
    40   Atom       -0.000000      0.000000     -0.000000
    41   Atom       -0.000000      0.000000      0.000000
    42   Atom        0.000000     -0.000000      0.000000
    43   Atom       -0.000000      0.000000     -0.000000
    44   Atom       -0.000000     -0.000000     -0.000000
    45   Atom        0.000000      0.000000     -0.000000
    46   Atom       -0.000000      0.000000      0.000000
    47   Atom       -0.000000      0.000000      0.000000
    48   Atom       -0.000000     -0.000000     -0.000000
    49   Atom        0.000000     -0.000000     -0.000000
    50   Atom        0.000000      0.000000      0.000000
    51   Atom       -0.000000     -0.000000      0.000000
    52   Atom        0.000000     -0.000000      0.000000
    53   Atom        0.000000     -0.000000     -0.000000
 --------------------------------------------------------


 ---------------------------------------------------------------------------------
              Anisotropic Spin Dipole Couplings in Principal Axis System
 ---------------------------------------------------------------------------------

       Atom             a.u.   MegaHertz   Gauss  10(-4) cm-1        Axes

              Baa    -0.0000    -0.000    -0.000    -0.000  0.9805  0.1376 -0.1402
     1 C(13)  Bbb    -0.0000    -0.000    -0.000    -0.000  0.0087  0.6825  0.7308
              Bcc     0.0000     0.000     0.000     0.000 -0.1963  0.7178 -0.6680
 
              Baa    -0.0000    -0.000    -0.000    -0.000 -0.2193  0.9529  0.2095
     2 C(13)  Bbb    -0.0000    -0.000    -0.000    -0.000  0.2296 -0.1583  0.9603
              Bcc     0.0000     0.000     0.000     0.000  0.9483  0.2587 -0.1841
 
              Baa    -0.0000    -0.000    -0.000    -0.000  0.9528  0.2086  0.2203
     3 C(13)  Bbb     0.0000     0.000     0.000     0.000 -0.2075 -0.0819  0.9748
              Bcc     0.0000     0.000     0.000     0.000 -0.2214  0.9746  0.0347
 
              Baa    -0.0000    -0.000    -0.000    -0.000  0.3012  0.7966  0.5242
     4 F(19)  Bbb     0.0000     0.000     0.000     0.000  0.9531 -0.2350 -0.1907
              Bcc     0.0000     0.000     0.000     0.000  0.0287 -0.5570  0.8300
 
              Baa    -0.0000    -0.000    -0.000    -0.000 -0.0587  0.7514 -0.6572
     5 C(13)  Bbb     0.0000     0.000     0.000     0.000  0.5169  0.5861  0.6239
              Bcc     0.0000     0.000     0.000     0.000  0.8540 -0.3031 -0.4228
 
              Baa    -0.0000    -0.000    -0.000    -0.000  0.9819 -0.0407 -0.1848
     6 C(13)  Bbb     0.0000     0.000     0.000     0.000  0.1548 -0.3883  0.9084
              Bcc     0.0000     0.000     0.000     0.000  0.1087  0.9206  0.3750
 
              Baa    -0.0000    -0.000    -0.000    -0.000  0.8877 -0.4198 -0.1889
     7 F(19)  Bbb     0.0000     0.000     0.000     0.000  0.4496  0.7027  0.5513
              Bcc     0.0000     0.000     0.000     0.000 -0.0987 -0.5744  0.8126
 
              Baa    -0.0000    -0.000    -0.000    -0.000  0.1154  0.7405  0.6620
     8 C(13)  Bbb    -0.0000    -0.000    -0.000    -0.000  0.9930 -0.0692 -0.0956
              Bcc     0.0000     0.000     0.000     0.000  0.0250 -0.6684  0.7433
 
              Baa    -0.0000    -0.000    -0.000    -0.000  0.3125  0.9056 -0.2866
     9 C(13)  Bbb     0.0000     0.000     0.000     0.000  0.6672  0.0055  0.7448
              Bcc     0.0000     0.000     0.000     0.000  0.6761 -0.4240 -0.6026
 
              Baa    -0.0000    -0.000    -0.000    -0.000  0.3242  0.9440 -0.0615
    10 C(13)  Bbb     0.0000     0.000     0.000     0.000  0.9422 -0.3164  0.1105
              Bcc     0.0000     0.000     0.000     0.000 -0.0849  0.0938  0.9920
 
              Baa    -0.0000    -0.000    -0.000    -0.000  0.8090 -0.5685  0.1493
    11 F(19)  Bbb    -0.0000    -0.000    -0.000    -0.000 -0.0390  0.2014  0.9787
              Bcc     0.0000     0.000     0.000     0.000  0.5865  0.7976 -0.1408
 
              Baa    -0.0000    -0.000    -0.000    -0.000  0.9726 -0.2326  0.0025
    12 C(13)  Bbb     0.0000     0.000     0.000     0.000  0.2298  0.9624  0.1449
              Bcc     0.0000     0.000     0.000     0.000 -0.0361 -0.1403  0.9894
 
              Baa    -0.0000    -0.000    -0.000    -0.000  0.6739  0.2188  0.7057
    13 C(13)  Bbb    -0.0000    -0.000    -0.000    -0.000 -0.6809 -0.1868  0.7081
              Bcc     0.0000     0.000     0.000     0.000 -0.2868  0.9577 -0.0231
 
              Baa    -0.0000    -0.000    -0.000    -0.000 -0.6892  0.7227 -0.0518
    14 S(33)  Bbb    -0.0000    -0.000    -0.000    -0.000 -0.0656  0.0090  0.9978
              Bcc     0.0000     0.000     0.000     0.000  0.7216  0.6911  0.0412
 
              Baa    -0.0000    -0.000    -0.000    -0.000 -0.3110 -0.4894  0.8148
    15 C(13)  Bbb     0.0000     0.000     0.000     0.000 -0.0021  0.8576  0.5143
              Bcc     0.0000     0.000     0.000     0.000  0.9504 -0.1583  0.2677
 
              Baa    -0.0000    -0.000    -0.000    -0.000 -0.2964 -0.3175  0.9008
    16 C(13)  Bbb    -0.0000    -0.000    -0.000    -0.000  0.0525  0.9363  0.3473
              Bcc     0.0000     0.000     0.000     0.000  0.9536 -0.1503  0.2608
 
              Baa    -0.0000    -0.000    -0.000    -0.000 -0.2764 -0.2098  0.9379
    17 C(13)  Bbb     0.0000     0.000     0.000     0.000  0.9551  0.0483  0.2923
              Bcc     0.0000     0.000     0.000     0.000 -0.1066  0.9766  0.1870
 
              Baa    -0.0000    -0.000    -0.000    -0.000  0.8693 -0.4640 -0.1706
    18 F(19)  Bbb     0.0000     0.000     0.000     0.000 -0.0420 -0.4133  0.9096
              Bcc     0.0000     0.000     0.000     0.000  0.4925  0.7835  0.3788
 
              Baa    -0.0000    -0.000    -0.000    -0.000  0.6813  0.2942  0.6703
    19 C(13)  Bbb     0.0000     0.000     0.000     0.000  0.7138 -0.4703 -0.5190
              Bcc     0.0000     0.000     0.000     0.000  0.1626  0.8320 -0.5304
 
              Baa    -0.0000    -0.000    -0.000    -0.000  0.8587 -0.5104  0.0465
    20 C(13)  Bbb    -0.0000    -0.000    -0.000    -0.000  0.4232  0.7573  0.4973
              Bcc     0.0000     0.000     0.000     0.000 -0.2891 -0.4074  0.8663
 
              Baa    -0.0000    -0.000    -0.000    -0.000  0.9836  0.0529  0.1724
    21 F(19)  Bbb     0.0000     0.000     0.000     0.000 -0.0077  0.9675 -0.2529
              Bcc     0.0000     0.000     0.000     0.000 -0.1801  0.2474  0.9520
 
              Baa    -0.0000    -0.000    -0.000    -0.000  0.7795 -0.0487 -0.6246
    22 C(13)  Bbb     0.0000     0.000     0.000     0.000  0.5392 -0.4555  0.7084
              Bcc     0.0000     0.000     0.000     0.000  0.3190  0.8889  0.3288
 
              Baa    -0.0000    -0.000    -0.000    -0.000 -0.1203  0.1976  0.9729
    23 C(13)  Bbb    -0.0000    -0.000    -0.000    -0.000  0.5463  0.8314 -0.1013
              Bcc     0.0000     0.000     0.000     0.000  0.8289 -0.5193  0.2080
 
              Baa    -0.0000    -0.000    -0.000    -0.000  0.9594  0.2799 -0.0345
    24 C(13)  Bbb    -0.0000    -0.000    -0.000    -0.000 -0.0478  0.2820  0.9582
              Bcc     0.0000     0.000     0.000     0.000 -0.2779  0.9177 -0.2840
 
              Baa    -0.0000    -0.000    -0.000    -0.000 -0.1985  0.7653 -0.6123
    25 F(19)  Bbb     0.0000     0.000     0.000     0.000  0.1921  0.6430  0.7414
              Bcc     0.0000     0.000     0.000     0.000  0.9611  0.0296 -0.2746
 
              Baa    -0.0000    -0.000    -0.000    -0.000 -0.0579  0.9042 -0.4233
    26 C(13)  Bbb     0.0000     0.000     0.000     0.000  0.9865  0.1168  0.1146
              Bcc     0.0000     0.000     0.000     0.000 -0.1531  0.4109  0.8987
 
              Baa    -0.0000    -0.000    -0.000    -0.000  0.4972  0.7945 -0.3487
    27 C(13)  Bbb    -0.0000    -0.000    -0.000    -0.000  0.8395 -0.5421 -0.0380
              Bcc     0.0000     0.000     0.000     0.000  0.2192  0.2738  0.9365
 
              Baa    -0.0000    -0.000    -0.000    -0.000 -0.6127  0.7716 -0.1713
    28 S(33)  Bbb    -0.0000    -0.000    -0.000    -0.000  0.5164  0.5548  0.6523
              Bcc     0.0000     0.000     0.000     0.000 -0.5983 -0.3112  0.7383
 
              Baa    -0.0000    -0.000    -0.000    -0.000  0.1467 -0.1278  0.9809
    29 C(13)  Bbb    -0.0000    -0.000    -0.000    -0.000  0.7851  0.6182 -0.0368
              Bcc     0.0000     0.000     0.000     0.000 -0.6017  0.7755  0.1911
 
              Baa    -0.0000    -0.000    -0.000    -0.000 -0.0167  0.7529  0.6579
    30 C(13)  Bbb    -0.0000    -0.000    -0.000    -0.000 -0.3499 -0.6207  0.7016
              Bcc     0.0000     0.000     0.000     0.000  0.9366 -0.2185  0.2738
 
              Baa    -0.0000    -0.000    -0.000    -0.000  0.8212  0.5571  0.1233
    31 C(13)  Bbb    -0.0000    -0.000    -0.000    -0.000 -0.0549 -0.1379  0.9889
              Bcc     0.0000     0.000     0.000     0.000 -0.5679  0.8189  0.0826
 
              Baa    -0.0000    -0.000    -0.000    -0.000 -0.6023  0.7458 -0.2847
    32 F(19)  Bbb    -0.0000    -0.000    -0.000    -0.000 -0.2453  0.1665  0.9550
              Bcc     0.0000     0.000     0.000     0.000  0.7596  0.6451  0.0827
 
              Baa    -0.0000    -0.000    -0.000    -0.000  0.7321 -0.6361 -0.2438
    33 C(13)  Bbb     0.0000     0.000     0.000     0.000  0.2331 -0.1023  0.9671
              Bcc     0.0000     0.000     0.000     0.000  0.6401  0.7648 -0.0734
 
              Baa    -0.0000    -0.000    -0.000    -0.000 -0.2663 -0.5184  0.8126
    34 C(13)  Bbb    -0.0000    -0.000    -0.000    -0.000  0.5706  0.5946  0.5664
              Bcc     0.0000     0.000     0.000     0.000  0.7768 -0.6145 -0.1374
 
              Baa    -0.0000    -0.000    -0.000    -0.000 -0.4318  0.8861  0.1683
    35 F(19)  Bbb    -0.0000    -0.000    -0.000    -0.000  0.1554 -0.1107  0.9816
              Bcc     0.0000     0.000     0.000     0.000  0.8885  0.4500 -0.0899
 
              Baa    -0.0000    -0.000    -0.000    -0.000  0.0976 -0.1651  0.9814
    36 C(13)  Bbb    -0.0000    -0.000    -0.000    -0.000  0.4137  0.9036  0.1109
              Bcc     0.0000     0.000     0.000     0.000  0.9052 -0.3952 -0.1565
 
              Baa    -0.0000    -0.000    -0.000    -0.000  0.9120  0.4084  0.0388
    37 C(13)  Bbb    -0.0000    -0.000    -0.000    -0.000 -0.2112  0.3863  0.8979
              Bcc     0.0000     0.000     0.000     0.000 -0.3517  0.8270 -0.4386
 
              Baa    -0.0000    -0.000    -0.000    -0.000  0.6050 -0.5052  0.6155
    38 C(13)  Bbb    -0.0000    -0.000    -0.000    -0.000  0.7813  0.5255 -0.3367
              Bcc     0.0000     0.000     0.000     0.000 -0.1533  0.6846  0.7126
 
              Baa    -0.0000    -0.000    -0.000    -0.000 -0.5445  0.7425 -0.3901
    39 F(19)  Bbb    -0.0000    -0.000    -0.000    -0.000  0.7529  0.2277 -0.6175
              Bcc     0.0000     0.000     0.000     0.000  0.3697  0.6299  0.6830
 
              Baa    -0.0000    -0.000    -0.000    -0.000 -0.0814  0.6179  0.7821
    40 C(13)  Bbb     0.0000     0.000     0.000     0.000  0.9592  0.2616 -0.1068
              Bcc     0.0000     0.000     0.000     0.000 -0.2706  0.7415 -0.6140
 
              Baa    -0.0000    -0.000    -0.000    -0.000  0.4715  0.6842 -0.5563
    41 C(13)  Bbb     0.0000     0.000     0.000     0.000  0.5194  0.2943  0.8022
              Bcc     0.0000     0.000     0.000     0.000  0.7127 -0.6672 -0.2166
 
              Baa    -0.0000    -0.000    -0.000    -0.000  0.7056 -0.4012  0.5840
    42 S(33)  Bbb    -0.0000    -0.000    -0.000    -0.000  0.2194  0.9075  0.3583
              Bcc     0.0000     0.000     0.000     0.000 -0.6738 -0.1247  0.7284
 
              Baa    -0.0000    -0.000    -0.000    -0.000  0.9440  0.3295  0.0138
    43 H(1)   Bbb     0.0000     0.000     0.000     0.000 -0.2602  0.7186  0.6449
              Bcc     0.0000     0.000     0.000     0.000  0.2026 -0.6124  0.7641
 
              Baa    -0.0000    -0.000    -0.000    -0.000  0.4365  0.7405  0.5111
    44 H(1)   Bbb     0.0000     0.000     0.000     0.000  0.0495 -0.5870  0.8081
              Bcc     0.0000     0.000     0.000     0.000  0.8984 -0.3274 -0.2929
 
              Baa    -0.0000    -0.000    -0.000    -0.000 -0.3363  0.5686  0.7507
    45 H(1)   Bbb     0.0000     0.000     0.000     0.000  0.9413  0.1775  0.2873
              Bcc     0.0000     0.000     0.000     0.000  0.0301  0.8032 -0.5949
 
              Baa    -0.0000    -0.000    -0.000    -0.000  0.7053  0.7042 -0.0821
    46 H(1)   Bbb     0.0000     0.000     0.000     0.000 -0.5598  0.6242  0.5450
              Bcc     0.0000     0.000     0.000     0.000  0.4350 -0.3384  0.8344
 
              Baa    -0.0000    -0.000    -0.000    -0.000 -0.1573 -0.4976  0.8530
    47 H(1)   Bbb    -0.0000    -0.000    -0.000    -0.000  0.3106  0.7950  0.5210
              Bcc     0.0000     0.000     0.000     0.000  0.9374 -0.3469 -0.0294
 
              Baa    -0.0000    -0.000    -0.000    -0.000  0.5453  0.6879  0.4790
    48 H(1)   Bbb     0.0000     0.000     0.000     0.000 -0.1156 -0.5043  0.8558
              Bcc     0.0000     0.000     0.000     0.000  0.8302 -0.5220 -0.1955
 
              Baa    -0.0000    -0.000    -0.000    -0.000  0.7980 -0.6026  0.0050
    49 H(1)   Bbb    -0.0000    -0.000    -0.000    -0.000  0.2377  0.3224  0.9163
              Bcc     0.0000     0.000     0.000     0.000  0.5538  0.7300 -0.4005
 
              Baa    -0.0000    -0.000    -0.000    -0.000  0.9964 -0.0098 -0.0843
    50 H(1)   Bbb     0.0000     0.000     0.000     0.000  0.0740 -0.3862  0.9194
              Bcc     0.0000     0.000     0.000     0.000  0.0415  0.9224  0.3841
 
              Baa    -0.0000    -0.000    -0.000    -0.000  0.3547 -0.1528  0.9224
    51 H(1)   Bbb    -0.0000    -0.000    -0.000    -0.000  0.8876  0.3652 -0.2808
              Bcc     0.0000     0.000     0.000     0.000 -0.2939  0.9183  0.2652
 
              Baa    -0.0000    -0.000    -0.000    -0.000  0.7403 -0.4818  0.4689
    52 H(1)   Bbb     0.0000     0.000     0.000     0.000  0.6719  0.5538 -0.4917
              Bcc     0.0000     0.000     0.000     0.000 -0.0227  0.6791  0.7337
 
              Baa    -0.0000    -0.000    -0.000    -0.000  0.9518 -0.1414  0.2720
    53 H(1)   Bbb    -0.0000    -0.000    -0.000    -0.000 -0.1045  0.6844  0.7216
              Bcc     0.0000     0.000     0.000     0.000  0.2882  0.7153 -0.6367
 

 ---------------------------------------------------------------------------------

 No NMR shielding tensors so no spin-rotation constants.
 Leave Link  601 at Sat Jul 25 08:24:13 2020, MaxMem=  4026531840 cpu:               6.0 elap:               0.8
 (Enter /opt/ohpc/pub/libs/gaussian/g16-A.03/sandybridge/g16/l9999.exe)

 Test job not archived.
 1\1\GINC-SKYLAKE040\FOpt\ULC-wPBE\CC-pVDZ\C30H11F9S3\RDU230\25-Jul-202
 0\0\\#P uLC-wPBE/cc-pVDZ iop(3/107=0265200000, 3/108=0265200000) opt\\
 H11 C30 S3 F9\\0,1\C,-11.4829459635,0.6216640947,-0.2117896564\C,-10.5
 750958542,1.3286605359,-1.0004472137\C,-9.2365509195,0.9596816494,-0.9
 689143055\F,-8.358951473,1.6439989996,-1.7294491254\C,-8.7478357079,-0
 .0917616334,-0.1806699671\C,-9.7009593087,-0.7595122661,0.602739988\F,
 -9.2857590076,-1.7567703721,1.4026127823\C,-11.0509353152,-0.428537663
 1,0.5973122125\C,-7.3295077018,-0.4808376791,-0.1663980597\C,-6.802460
 5138,-1.7474370014,-0.2540418984\F,-7.5587243116,-2.8410383229,-0.4252
 68337\C,-5.3884562125,-1.8205236465,-0.1788093157\C,-4.8235222449,-0.5
 749577,-0.0339370098\S,-6.0363044965,0.6635276784,0.015238022\C,-3.392
 2479391,-0.2376157895,0.0697181577\C,-2.496147838,-1.1563023723,0.6358
 644932\C,-1.1510579592,-0.8314433898,0.7210556418\F,-0.3107747363,-1.7
 305554645,1.2692994854\C,-0.6176834304,0.3866234074,0.2764699584\C,-1.
 5464681332,1.2717852107,-0.2902002958\F,-1.1013513397,2.4429187683,-0.
 774185236\C,-2.9010395406,0.9891999704,-0.3980080054\C,0.8076723573,0.
 7240521989,0.3904580195\C,1.3626327432,1.9034737495,0.8286072872\F,0.6
 288518615,2.9301039076,1.2805292747\C,2.7792479985,1.9528545241,0.7992
 149628\C,3.3179638977,0.7776151905,0.3302574113\S,2.0782814507,-0.3654
 60581,-0.0742033613\C,4.743206355,0.4398130041,0.1621154018\C,5.671171
 4145,1.44866634,-0.1317149267\C,7.0125252785,1.1240841711,-0.278260562
 6\F,7.8733972281,2.1081889393,-0.5869007037\C,7.5092258809,-0.18088072
 94,-0.1443031594\C,6.5449185584,-1.158343434,0.1361263683\F,6.95318254
 9,-2.4348092864,0.2689680351\C,5.1947632568,-0.8813013051,0.2923792004
 \C,8.9396079404,-0.4862347061,-0.2905233925\C,10.001677165,0.185378604
 8,0.2675925838\F,9.848918763,1.2325367905,1.0920968603\C,11.2843296037
 ,-0.3221284935,-0.0745051289\C,11.1757115114,-1.4012817598,-0.90958536
 52\S,9.5394273031,-1.7934555328,-1.2664777921\H,-12.5432767591,0.89633
 3082,-0.2255733413\H,-10.8827377215,2.1582729512,-1.6439094189\H,-11.7
 377696796,-0.995265002,1.2330265546\H,-4.8298777658,-2.7553377974,-0.2
 674112164\H,-2.832188663,-2.1152982265,1.0404476938\H,-3.5522409796,1.
 7273349177,-0.8768617487\H,3.3580285374,2.8111967318,1.1484329613\H,5.
 363825997,2.4877725559,-0.2812657783\H,4.5158722947,-1.7030410142,0.54
 13940283\H,12.2219367094,0.1007348525,0.2935677329\H,11.9820558605,-2.
 0030246574,-1.3344227955\\Version=EM64L-G16RevA.03\State=1-A\HF=-3241.
 1090899\S2=0.\S2-1=0.\S2A=0.\RMSD=6.760e-09\RMSF=9.075e-06\Dipole=-0.6
 026147,-0.107495,-0.2253585\Quadrupole=31.6687234,-13.699813,-17.96891
 04,-10.7910056,-3.5943547,0.7654202\PG=C01 [X(C30H11F9S3)]\\@


 WE HAVE LEFT UNDONE THOSE THINGS WHICH WE OUGHT TO HAVE DONE,
 AND WE HAVE DONE THOSE THINGS WHICH WE OUGHT NOT TO HAVE DONE.
                   BOOK OF COMMON PRAYER                      
 Job cpu time:       0 days 16 hours 15 minutes 27.9 seconds.
 Elapsed time:       0 days  2 hours  2 minutes 31.9 seconds.
 File lengths (MBytes):  RWF=    528 Int=      0 D2E=      0 Chk=     48 Scr=      8
 Normal termination of Gaussian 16 at Sat Jul 25 08:24:13 2020.
