 Entering Gaussian System, Link 0=g16
 Input=mols_65_1_24_n-cOC-C_opt_0.gjf
 Output=mols_65_1_24_n-cOC-C_opt_0.log
 Initial command:
 /opt/ohpc/pub/libs/gaussian/g16-A.03/sandybridge/g16/l1.exe "/mnt/gpfs2_4m/scratch/rdu230/ondemand/projects/dihedral_energies/7trial/wtuning/mols_65_1_24_n-cOC-C/Gau-64730.inp" -scrdir="/mnt/gpfs2_4m/scratch/rdu230/ondemand/projects/dihedral_energies/7trial/wtuning/mols_65_1_24_n-cOC-C/"
 Entering Link 1 = /opt/ohpc/pub/libs/gaussian/g16-A.03/sandybridge/g16/l1.exe PID=     64732.
  
 Copyright (c) 1988,1990,1992,1993,1995,1998,2003,2009,2016,
            Gaussian, Inc.  All Rights Reserved.
  
 This is part of the Gaussian(R) 16 program.  It is based on
 the Gaussian(R) 09 system (copyright 2009, Gaussian, Inc.),
 the Gaussian(R) 03 system (copyright 2003, Gaussian, Inc.),
 the Gaussian(R) 98 system (copyright 1998, Gaussian, Inc.),
 the Gaussian(R) 94 system (copyright 1995, Gaussian, Inc.),
 the Gaussian 92(TM) system (copyright 1992, Gaussian, Inc.),
 the Gaussian 90(TM) system (copyright 1990, Gaussian, Inc.),
 the Gaussian 88(TM) system (copyright 1988, Gaussian, Inc.),
 the Gaussian 86(TM) system (copyright 1986, Carnegie Mellon
 University), and the Gaussian 82(TM) system (copyright 1983,
 Carnegie Mellon University). Gaussian is a federally registered
 trademark of Gaussian, Inc.
  
 This software contains proprietary and confidential information,
 including trade secrets, belonging to Gaussian, Inc.
  
 This software is provided under written license and may be
 used, copied, transmitted, or stored only in accord with that
 written license.
  
 The following legend is applicable only to US Government
 contracts under FAR:
  
                    RESTRICTED RIGHTS LEGEND
  
 Use, reproduction and disclosure by the US Government is
 subject to restrictions as set forth in subparagraphs (a)
 and (c) of the Commercial Computer Software - Restricted
 Rights clause in FAR 52.227-19.
  
 Gaussian, Inc.
 340 Quinnipiac St., Bldg. 40, Wallingford CT 06492
  
  
 ---------------------------------------------------------------
 Warning -- This program may not be used in any manner that
 competes with the business of Gaussian, Inc. or will provide
 assistance to any competitor of Gaussian, Inc.  The licensee
 of this program is prohibited from giving any competitor of
 Gaussian, Inc. access to this program.  By using this program,
 the user acknowledges that Gaussian, Inc. is engaged in the
 business of creating and licensing software in the field of
 computational chemistry and represents and warrants to the
 licensee that it is not a competitor of Gaussian, Inc. and that
 it will not use this program in any manner prohibited above.
 ---------------------------------------------------------------
  

 Cite this work as:
 Gaussian 16, Revision A.03,
 M. J. Frisch, G. W. Trucks, H. B. Schlegel, G. E. Scuseria, 
 M. A. Robb, J. R. Cheeseman, G. Scalmani, V. Barone, 
 G. A. Petersson, H. Nakatsuji, X. Li, M. Caricato, A. V. Marenich, 
 J. Bloino, B. G. Janesko, R. Gomperts, B. Mennucci, H. P. Hratchian, 
 J. V. Ortiz, A. F. Izmaylov, J. L. Sonnenberg, D. Williams-Young, 
 F. Ding, F. Lipparini, F. Egidi, J. Goings, B. Peng, A. Petrone, 
 T. Henderson, D. Ranasinghe, V. G. Zakrzewski, J. Gao, N. Rega, 
 G. Zheng, W. Liang, M. Hada, M. Ehara, K. Toyota, R. Fukuda, 
 J. Hasegawa, M. Ishida, T. Nakajima, Y. Honda, O. Kitao, H. Nakai, 
 T. Vreven, K. Throssell, J. A. Montgomery, Jr., J. E. Peralta, 
 F. Ogliaro, M. J. Bearpark, J. J. Heyd, E. N. Brothers, K. N. Kudin, 
 V. N. Staroverov, T. A. Keith, R. Kobayashi, J. Normand, 
 K. Raghavachari, A. P. Rendell, J. C. Burant, S. S. Iyengar, 
 J. Tomasi, M. Cossi, J. M. Millam, M. Klene, C. Adamo, R. Cammi, 
 J. W. Ochterski, R. L. Martin, K. Morokuma, O. Farkas, 
 J. B. Foresman, and D. J. Fox, Gaussian, Inc., Wallingford CT, 2016.
 
 ******************************************
 Gaussian 16:  EM64L-G16RevA.03 25-Dec-2016
                23-Jul-2020 
 ******************************************
 %mem=30GB
 %nproc=8
 Will use up to    8 processors via shared memory.
 ---------------------------------------------------------------
 #P uLC-wPBE/cc-pVDZ iop(3/107=0115600000, 3/108=0115600000) opt
 ---------------------------------------------------------------
 1/18=20,19=15,26=3,38=1/1,3;
 2/9=110,12=2,17=6,18=5,40=1/2;
 3/5=16,11=2,25=1,30=1,71=1,74=-41,107=115600000,108=115600000,116=2/1,2,3;
 4//1;
 5/5=2,38=5/2;
 6/7=2,8=2,9=2,10=2,28=1/1;
 7//1,2,3,16;
 1/18=20,19=15,26=3/3(2);
 2/9=110/2;
 99//99;
 2/9=110/2;
 3/5=16,11=2,25=1,30=1,71=1,74=-41,107=115600000,108=115600000,116=2/1,2,3;
 4/5=5,16=3,69=1/1;
 5/5=2,38=5/2;
 7//1,2,3,16;
 1/18=20,19=15,26=3/3(-5);
 2/9=110/2;
 6/7=2,8=2,9=2,10=2,19=2,28=1/1;
 99/9=1/99;
 Leave Link    1 at Thu Jul 23 23:40:55 2020, MaxMem=  4026531840 cpu:               1.4 elap:               0.2
 (Enter /opt/ohpc/pub/libs/gaussian/g16-A.03/sandybridge/g16/l101.exe)
 ---------------
 H9 C10 S1 N1 O1
 ---------------
 Symbolic Z-matrix:
 Charge =  0 Multiplicity = 1
 C                     2.91836  -1.42443   0.16329 
 C                     1.88884  -2.24609   0.24017 
 N                     0.62025  -1.84128   0.29279 
 C                     0.35113  -0.48422   0.10949 
 C                     1.43263   0.47994  -0.05969 
 O                     1.08444   1.7718   -0.14054 
 C                     2.19299   2.72701  -0.45424 
 C                     2.71967  -0.02339  -0.05011 
 C                    -0.98297  -0.07366   0.20281 
 C                    -1.6486    1.03561   0.84734 
 C                    -2.97888   1.05368   0.64521 
 C                    -3.47822   0.06151  -0.22369 
 S                    -2.2036   -0.93071  -0.6498 
 H                     3.92706  -1.86757   0.15581 
 H                     2.0095   -3.35691   0.40061 
 H                     2.72648   2.3846   -1.40025 
 H                     2.88133   2.68365   0.40728 
 H                     1.71983   3.6428   -0.58915 
 H                     3.62453   0.56488  -0.17879 
 H                    -1.00796   1.69302   1.46296 
 H                    -3.70057   1.85309   1.11431 
 H                    -4.49833  -0.12066  -0.44897 
 
 ITRead=  0  0  0  0  0  0  0  0  0  0  0  0  0  0  0  0  0  0  0  0
 ITRead=  0  0
 MicOpt= -1 -1 -1 -1 -1 -1 -1 -1 -1 -1 -1 -1 -1 -1 -1 -1 -1 -1 -1 -1
 MicOpt= -1 -1
 NAtoms=     22 NQM=       22 NQMF=       0 NMMI=      0 NMMIF=      0
                NMic=       0 NMicF=      0.
                    Isotopes and Nuclear Properties:
 (Nuclear quadrupole moments (NQMom) in fm**2, nuclear magnetic moments (NMagM)
  in nuclear magnetons)

  Atom         1           2           3           4           5           6           7           8           9          10
 IAtWgt=          12          12          14          12          12          16          12          12          12          12
 AtmWgt=  12.0000000  12.0000000  14.0030740  12.0000000  12.0000000  15.9949146  12.0000000  12.0000000  12.0000000  12.0000000
 NucSpn=           0           0           2           0           0           0           0           0           0           0
 AtZEff=  -0.0000000  -0.0000000  -0.0000000  -0.0000000  -0.0000000  -0.0000000  -0.0000000  -0.0000000  -0.0000000  -0.0000000
 NQMom=    0.0000000   0.0000000   2.0440000   0.0000000   0.0000000   0.0000000   0.0000000   0.0000000   0.0000000   0.0000000
 NMagM=    0.0000000   0.0000000   0.4037610   0.0000000   0.0000000   0.0000000   0.0000000   0.0000000   0.0000000   0.0000000
 AtZNuc=   6.0000000   6.0000000   7.0000000   6.0000000   6.0000000   8.0000000   6.0000000   6.0000000   6.0000000   6.0000000

  Atom        11          12          13          14          15          16          17          18          19          20
 IAtWgt=          12          12          32           1           1           1           1           1           1           1
 AtmWgt=  12.0000000  12.0000000  31.9720718   1.0078250   1.0078250   1.0078250   1.0078250   1.0078250   1.0078250   1.0078250
 NucSpn=           0           0           0           1           1           1           1           1           1           1
 AtZEff=  -0.0000000  -0.0000000  -0.0000000  -0.0000000  -0.0000000  -0.0000000  -0.0000000  -0.0000000  -0.0000000  -0.0000000
 NQMom=    0.0000000   0.0000000   0.0000000   0.0000000   0.0000000   0.0000000   0.0000000   0.0000000   0.0000000   0.0000000
 NMagM=    0.0000000   0.0000000   0.0000000   2.7928460   2.7928460   2.7928460   2.7928460   2.7928460   2.7928460   2.7928460
 AtZNuc=   6.0000000   6.0000000  16.0000000   1.0000000   1.0000000   1.0000000   1.0000000   1.0000000   1.0000000   1.0000000

  Atom        21          22
 IAtWgt=           1           1
 AtmWgt=   1.0078250   1.0078250
 NucSpn=           1           1
 AtZEff=  -0.0000000  -0.0000000
 NQMom=    0.0000000   0.0000000
 NMagM=    2.7928460   2.7928460
 AtZNuc=   1.0000000   1.0000000
 Leave Link  101 at Thu Jul 23 23:40:56 2020, MaxMem=  4026531840 cpu:               2.8 elap:               0.4
 (Enter /opt/ohpc/pub/libs/gaussian/g16-A.03/sandybridge/g16/l103.exe)

 GradGradGradGradGradGradGradGradGradGradGradGradGradGradGradGradGradGrad
 Berny optimization.
 Initialization pass.
                           ----------------------------
                           !    Initial Parameters    !
                           ! (Angstroms and Degrees)  !
 --------------------------                            --------------------------
 ! Name  Definition              Value          Derivative Info.                !
 --------------------------------------------------------------------------------
 ! R1    R(1,2)                  1.3195         estimate D2E/DX2                !
 ! R2    R(1,8)                  1.4311         estimate D2E/DX2                !
 ! R3    R(1,14)                 1.1018         estimate D2E/DX2                !
 ! R4    R(2,3)                  1.3327         estimate D2E/DX2                !
 ! R5    R(2,15)                 1.1288         estimate D2E/DX2                !
 ! R6    R(3,4)                  1.3956         estimate D2E/DX2                !
 ! R7    R(4,5)                  1.4587         estimate D2E/DX2                !
 ! R8    R(4,9)                  1.399          estimate D2E/DX2                !
 ! R9    R(5,6)                  1.3404         estimate D2E/DX2                !
 ! R10   R(5,8)                  1.382          estimate D2E/DX2                !
 ! R11   R(6,7)                  1.4966         estimate D2E/DX2                !
 ! R12   R(7,16)                 1.1388         estimate D2E/DX2                !
 ! R13   R(7,17)                 1.1036         estimate D2E/DX2                !
 ! R14   R(7,18)                 1.0396         estimate D2E/DX2                !
 ! R15   R(8,19)                 1.0869         estimate D2E/DX2                !
 ! R16   R(9,10)                 1.4453         estimate D2E/DX2                !
 ! R17   R(9,13)                 1.718          estimate D2E/DX2                !
 ! R18   R(10,11)                1.3457         estimate D2E/DX2                !
 ! R19   R(10,20)                1.1053         estimate D2E/DX2                !
 ! R20   R(11,12)                1.4102         estimate D2E/DX2                !
 ! R21   R(11,21)                1.1747         estimate D2E/DX2                !
 ! R22   R(12,13)                1.6705         estimate D2E/DX2                !
 ! R23   R(12,22)                1.0604         estimate D2E/DX2                !
 ! A1    A(2,1,8)              120.6657         estimate D2E/DX2                !
 ! A2    A(2,1,14)             117.6631         estimate D2E/DX2                !
 ! A3    A(8,1,14)             121.3237         estimate D2E/DX2                !
 ! A4    A(1,2,3)              123.7718         estimate D2E/DX2                !
 ! A5    A(1,2,15)             122.5266         estimate D2E/DX2                !
 ! A6    A(3,2,15)             113.2698         estimate D2E/DX2                !
 ! A7    A(2,3,4)              118.2791         estimate D2E/DX2                !
 ! A8    A(3,4,5)              120.9962         estimate D2E/DX2                !
 ! A9    A(3,4,9)              117.4203         estimate D2E/DX2                !
 ! A10   A(5,4,9)              121.3851         estimate D2E/DX2                !
 ! A11   A(4,5,6)              116.8356         estimate D2E/DX2                !
 ! A12   A(4,5,8)              116.6754         estimate D2E/DX2                !
 ! A13   A(6,5,8)              126.395          estimate D2E/DX2                !
 ! A14   A(5,6,7)              115.8096         estimate D2E/DX2                !
 ! A15   A(6,7,16)             109.2221         estimate D2E/DX2                !
 ! A16   A(6,7,17)             105.8612         estimate D2E/DX2                !
 ! A17   A(6,7,18)             104.6153         estimate D2E/DX2                !
 ! A18   A(16,7,17)            110.1513         estimate D2E/DX2                !
 ! A19   A(16,7,18)            111.733          estimate D2E/DX2                !
 ! A20   A(17,7,18)            114.8221         estimate D2E/DX2                !
 ! A21   A(1,8,5)              119.1369         estimate D2E/DX2                !
 ! A22   A(1,8,19)             115.591          estimate D2E/DX2                !
 ! A23   A(5,8,19)             125.2654         estimate D2E/DX2                !
 ! A24   A(4,9,10)             133.9617         estimate D2E/DX2                !
 ! A25   A(4,9,13)             119.8712         estimate D2E/DX2                !
 ! A26   A(10,9,13)            106.0798         estimate D2E/DX2                !
 ! A27   A(9,10,11)            113.4904         estimate D2E/DX2                !
 ! A28   A(9,10,20)            115.9733         estimate D2E/DX2                !
 ! A29   A(11,10,20)           130.4417         estimate D2E/DX2                !
 ! A30   A(10,11,12)           115.667          estimate D2E/DX2                !
 ! A31   A(10,11,21)           123.8131         estimate D2E/DX2                !
 ! A32   A(12,11,21)           120.4834         estimate D2E/DX2                !
 ! A33   A(11,12,13)           107.7503         estimate D2E/DX2                !
 ! A34   A(11,12,22)           126.325          estimate D2E/DX2                !
 ! A35   A(13,12,22)           125.2928         estimate D2E/DX2                !
 ! A36   A(9,13,12)             96.8472         estimate D2E/DX2                !
 ! D1    D(8,1,2,3)             -8.483          estimate D2E/DX2                !
 ! D2    D(8,1,2,15)           179.5708         estimate D2E/DX2                !
 ! D3    D(14,1,2,3)           178.1972         estimate D2E/DX2                !
 ! D4    D(14,1,2,15)            6.251          estimate D2E/DX2                !
 ! D5    D(2,1,8,5)              5.5598         estimate D2E/DX2                !
 ! D6    D(2,1,8,19)          -175.3318         estimate D2E/DX2                !
 ! D7    D(14,1,8,5)           178.6325         estimate D2E/DX2                !
 ! D8    D(14,1,8,19)           -2.2591         estimate D2E/DX2                !
 ! D9    D(1,2,3,4)              7.312          estimate D2E/DX2                !
 ! D10   D(15,2,3,4)           179.924          estimate D2E/DX2                !
 ! D11   D(2,3,4,5)             -3.4296         estimate D2E/DX2                !
 ! D12   D(2,3,4,9)           -178.3793         estimate D2E/DX2                !
 ! D13   D(3,4,5,6)           -175.6896         estimate D2E/DX2                !
 ! D14   D(3,4,5,8)              1.014          estimate D2E/DX2                !
 ! D15   D(9,4,5,6)             -0.9413         estimate D2E/DX2                !
 ! D16   D(9,4,5,8)            175.7622         estimate D2E/DX2                !
 ! D17   D(3,4,9,10)           135.6465         estimate D2E/DX2                !
 ! D18   D(3,4,9,13)           -48.2783         estimate D2E/DX2                !
 ! D19   D(5,4,9,10)           -39.2824         estimate D2E/DX2                !
 ! D20   D(5,4,9,13)           136.7929         estimate D2E/DX2                !
 ! D21   D(4,5,6,7)           -173.9453         estimate D2E/DX2                !
 ! D22   D(8,5,6,7)              9.7145         estimate D2E/DX2                !
 ! D23   D(4,5,8,1)             -1.947          estimate D2E/DX2                !
 ! D24   D(4,5,8,19)           179.0379         estimate D2E/DX2                !
 ! D25   D(6,5,8,1)            174.3984         estimate D2E/DX2                !
 ! D26   D(6,5,8,19)            -4.6167         estimate D2E/DX2                !
 ! D27   D(5,6,7,16)            53.577          estimate D2E/DX2                !
 ! D28   D(5,6,7,17)           -65.0005         estimate D2E/DX2                !
 ! D29   D(5,6,7,18)           173.3244         estimate D2E/DX2                !
 ! D30   D(4,9,10,11)          178.5964         estimate D2E/DX2                !
 ! D31   D(4,9,10,20)           -4.5665         estimate D2E/DX2                !
 ! D32   D(13,9,10,11)           2.1377         estimate D2E/DX2                !
 ! D33   D(13,9,10,20)         178.9748         estimate D2E/DX2                !
 ! D34   D(4,9,13,12)         -176.7386         estimate D2E/DX2                !
 ! D35   D(10,9,13,12)           0.3223         estimate D2E/DX2                !
 ! D36   D(9,10,11,12)          -4.2942         estimate D2E/DX2                !
 ! D37   D(9,10,11,21)         177.8991         estimate D2E/DX2                !
 ! D38   D(20,10,11,12)        179.4426         estimate D2E/DX2                !
 ! D39   D(20,10,11,21)          1.636          estimate D2E/DX2                !
 ! D40   D(10,11,12,13)          4.317          estimate D2E/DX2                !
 ! D41   D(10,11,12,22)        175.5493         estimate D2E/DX2                !
 ! D42   D(21,11,12,13)       -177.7976         estimate D2E/DX2                !
 ! D43   D(21,11,12,22)         -6.5653         estimate D2E/DX2                !
 ! D44   D(11,12,13,9)          -2.5036         estimate D2E/DX2                !
 ! D45   D(22,12,13,9)        -173.85           estimate D2E/DX2                !
 --------------------------------------------------------------------------------
 Trust Radius=3.00D-01 FncErr=1.00D-07 GrdErr=1.00D-06 EigMax=2.50D+02 EigMin=1.00D-04
 Number of steps in this run=    114 maximum allowed number of steps=    132.
 GradGradGradGradGradGradGradGradGradGradGradGradGradGradGradGradGradGrad

 Leave Link  103 at Thu Jul 23 23:40:56 2020, MaxMem=  4026531840 cpu:               0.2 elap:               0.1
 (Enter /opt/ohpc/pub/libs/gaussian/g16-A.03/sandybridge/g16/l202.exe)
                          Input orientation:                          
 ---------------------------------------------------------------------
 Center     Atomic      Atomic             Coordinates (Angstroms)
 Number     Number       Type             X           Y           Z
 ---------------------------------------------------------------------
      1          6           0        2.918359   -1.424425    0.163294
      2          6           0        1.888843   -2.246093    0.240173
      3          7           0        0.620253   -1.841277    0.292790
      4          6           0        0.351131   -0.484223    0.109488
      5          6           0        1.432627    0.479935   -0.059688
      6          8           0        1.084438    1.771795   -0.140541
      7          6           0        2.192990    2.727006   -0.454237
      8          6           0        2.719671   -0.023392   -0.050111
      9          6           0       -0.982966   -0.073661    0.202812
     10          6           0       -1.648597    1.035608    0.847343
     11          6           0       -2.978877    1.053679    0.645212
     12          6           0       -3.478221    0.061508   -0.223690
     13         16           0       -2.203602   -0.930709   -0.649801
     14          1           0        3.927055   -1.867569    0.155813
     15          1           0        2.009496   -3.356905    0.400607
     16          1           0        2.726475    2.384603   -1.400252
     17          1           0        2.881333    2.683651    0.407283
     18          1           0        1.719830    3.642801   -0.589154
     19          1           0        3.624526    0.564876   -0.178785
     20          1           0       -1.007962    1.693024    1.462957
     21          1           0       -3.700565    1.853086    1.114309
     22          1           0       -4.498327   -0.120655   -0.448967
 ---------------------------------------------------------------------
                    Distance matrix (angstroms):
                    1          2          3          4          5
     1  C    0.000000
     2  C    1.319451   0.000000
     3  N    2.339193   1.332653   0.000000
     4  C    2.734508   2.342183   1.395572   0.000000
     5  C    2.425635   2.780158   2.484395   1.458717   0.000000
     6  O    3.697486   4.115268   3.668451   2.385345   1.340401
     7  C    4.259329   5.030549   4.888840   3.744626   2.404818
     8  C    1.431053   2.390594   2.798186   2.418226   1.381996
     9  C    4.128736   3.601131   2.388069   1.398959   2.492080
    10  C    5.232282   4.863301   3.705628   2.617867   3.259665
    11  C    6.414876   5.894680   4.632355   3.706898   4.504157
    12  C    6.578297   5.860509   4.548058   3.882366   4.931370
    13  S    5.209545   4.389806   3.113161   2.702319   3.944656
    14  H    1.101771   2.074778   3.309742   3.834452   3.432111
    15  H    2.148681   1.128804   2.058822   3.329749   3.907172
    16  H    4.121916   4.983570   5.016037   4.018922   2.664379
    17  H    4.115482   5.031435   5.059700   4.065222   2.678278
    18  H    5.261124   5.949405   5.662332   4.403835   3.219711
    19  H    2.138459   3.330115   3.877836   3.449467   2.196775
    20  H    5.179151   5.040171   4.063454   2.901623   3.121940
    21  H    7.446923   6.986334   5.743925   4.784237   5.441826
    22  H    7.555257   6.766708   5.450744   4.895028   5.973982
                    6          7          8          9         10
     6  O    0.000000
     7  C    1.496570   0.000000
     8  C    2.429992   2.829382   0.000000
     9  C    2.792447   4.285107   3.711606   0.000000
    10  C    2.997894   4.394625   4.583522   1.445324   0.000000
    11  C    4.200432   5.545901   5.840976   2.334582   1.345670
    12  C    4.873382   6.270619   6.200903   2.535049   2.333132
    13  S    4.286500   5.722512   5.041971   1.717973   2.532957
    14  H    4.627447   4.948663   2.213859   5.227678   6.324124
    15  H    5.239479   6.146414   3.437994   4.446756   5.733706
    16  H    2.158400   1.138767   2.760682   4.729992   5.100267
    17  H    2.088163   1.103591   2.750168   4.751567   4.840451
    18  H    2.026238   1.039598   3.838127   4.663090   4.495251
    19  H    2.812501   2.607676   1.086913   4.667154   5.392620
    20  H    2.637337   3.871801   4.373866   2.170200   1.105255
    21  H    4.947475   6.161012   6.789438   3.453770   2.224885
    22  H    5.902860   7.272065   7.229664   3.575582   3.337413
                   11         12         13         14         15
    11  C    0.000000
    12  C    1.410226   0.000000
    13  S    2.493172   1.670544   0.000000
    14  H    7.514326   7.661819   6.253933   0.000000
    15  H    6.663103   6.495409   4.973930   2.440303   0.000000
    16  H    6.205346   6.728991   5.988333   4.684410   6.059873
    17  H    6.087321   6.907799   6.327526   4.676577   6.103152
    18  H    5.505003   6.322892   6.026109   5.982558   7.075268
    19  H    6.672543   7.120703   6.035371   2.473918   4.280699
    20  H    2.227549   3.407169   3.574532   6.224214   5.977911
    21  H    1.174707   2.247094   3.619737   8.540643   7.762614
    22  H    2.210207   1.060448   2.441779   8.625806   7.317571
                   16         17         18         19         20
    16  H    0.000000
    17  H    1.838639   0.000000
    18  H    1.803961   1.806085   0.000000
    19  H    2.368519   2.320564   3.642786   0.000000
    20  H    4.756287   4.149989   3.931112   5.042616   0.000000
    21  H    6.921876   6.671664   5.956975   7.549075   2.719795
    22  H    7.705779   7.940824   7.269713   8.156206   4.373503
                   21         22
    21  H    0.000000
    22  H    2.641195   0.000000
 Stoichiometry    C10H9NOS
 Framework group  C1[X(C10H9NOS)]
 Deg. of freedom    60
 Full point group                 C1      NOp   1
 Largest Abelian subgroup         C1      NOp   1
 Largest concise Abelian subgroup C1      NOp   1
                         Standard orientation:                         
 ---------------------------------------------------------------------
 Center     Atomic      Atomic             Coordinates (Angstroms)
 Number     Number       Type             X           Y           Z
 ---------------------------------------------------------------------
      1          6           0        2.924210   -1.418707    0.165202
      2          6           0        1.897750   -2.244859    0.234514
      3          7           0        0.627394   -1.845378    0.285266
      4          6           0        0.353426   -0.488457    0.108261
      5          6           0        1.431584    0.480876   -0.052433
      6          8           0        1.078490    1.771748   -0.127582
      7          6           0        2.184192    2.733005   -0.432756
      8          6           0        2.720593   -0.017369   -0.041452
      9          6           0       -0.982586   -0.083706    0.199543
     10          6           0       -1.654657    1.019490    0.847804
     11          6           0       -2.984360    1.033334    0.641583
     12          6           0       -3.477016    0.043780   -0.234096
     13         16           0       -2.197115   -0.941095   -0.661407
     14          1           0        3.934687   -1.857787    0.158565
     15          1           0        2.022338   -3.356013    0.389479
     16          1           0        2.721997    2.397722   -1.378875
     17          1           0        2.870005    2.687845    0.430687
     18          1           0        1.707801    3.647608   -0.564341
     19          1           0        3.623488    0.575165   -0.164179
     20          1           0       -1.018583    1.676194    1.468883
     21          1           0       -3.710700    1.827377    1.112606
     22          1           0       -4.495676   -0.141250   -0.463539
 ---------------------------------------------------------------------
 Rotational constants (GHZ):           1.2066868           0.5497591           0.4015314
 Leave Link  202 at Thu Jul 23 23:40:56 2020, MaxMem=  4026531840 cpu:               0.3 elap:               0.1
 (Enter /opt/ohpc/pub/libs/gaussian/g16-A.03/sandybridge/g16/l301.exe)
 Standard basis: CC-pVDZ (5D, 7F)
 Ernie: Thresh=  0.10000D-02 Tol=  0.10000D-05 Strict=F.
 Ernie:  34 primitive shells out of 359 were deleted.
 There are   244 symmetry adapted cartesian basis functions of A   symmetry.
 There are   231 symmetry adapted basis functions of A   symmetry.
   231 basis functions,   530 primitive gaussians,   244 cartesian basis functions
    50 alpha electrons       50 beta electrons
       nuclear repulsion energy       840.9040625615 Hartrees.
 IExCor=32609 DFT=T Ex+Corr=LC-wPBE ExCW=0 ScaHFX=  1.000000
 ScaDFX=  1.000000  0.000000  1.000000  1.000000 ScalE2=  1.000000  1.000000
 IRadAn=      5 IRanWt=     -1 IRanGd=            0 ICorTp=0 IEmpDi=  4
 HFx  wShort=  0.000000 wLong=  0.115600 cFull=  0.000000 cShort=  0.000000 cLong=  1.000000
 DFx  wShort=  0.000000 wLong=  0.115600 cFull=  0.000000 cShort=  0.000000 cLong=  1.000000
 NAtoms=   22 NActive=   22 NUniq=   22 SFac= 1.00D+00 NAtFMM=   60 NAOKFM=F Big=F
 Integral buffers will be    131072 words long.
 Raffenetti 2 integral format.
 Two-electron integral symmetry is turned on.
 Leave Link  301 at Thu Jul 23 23:40:56 2020, MaxMem=  4026531840 cpu:               0.4 elap:               0.1
 (Enter /opt/ohpc/pub/libs/gaussian/g16-A.03/sandybridge/g16/l302.exe)
 NPDir=0 NMtPBC=     1 NCelOv=     1 NCel=       1 NClECP=     1 NCelD=      1
         NCelK=      1 NCelE2=     1 NClLst=     1 CellRange=     0.0.
 One-electron integrals computed using PRISM.
 One-electron integral symmetry used in STVInt
 NBasis=   231 RedAO= T EigKep=  6.00D-04  NBF=   231
 NBsUse=   231 1.00D-06 EigRej= -1.00D+00 NBFU=   231
 Precomputing XC quadrature grid using
 IXCGrd= 4 IRadAn=           5 IRanWt=          -1 IRanGd=           0 AccXCQ= 0.00D+00.
 Generated NRdTot=       0 NPtTot=           0 NUsed=           0 NTot=          32
 NSgBfM=   244   244   244   244   244 MxSgAt=    22 MxSgA2=    22.
 Leave Link  302 at Thu Jul 23 23:40:56 2020, MaxMem=  4026531840 cpu:               2.0 elap:               0.3
 (Enter /opt/ohpc/pub/libs/gaussian/g16-A.03/sandybridge/g16/l303.exe)
 DipDrv:  MaxL=1.
 Leave Link  303 at Thu Jul 23 23:40:56 2020, MaxMem=  4026531840 cpu:               0.4 elap:               0.1
 (Enter /opt/ohpc/pub/libs/gaussian/g16-A.03/sandybridge/g16/l401.exe)
 ExpMin= 1.22D-01 ExpMax= 1.11D+05 ExpMxC= 1.07D+03 IAcc=3 IRadAn=         5 AccDes= 0.00D+00
 Harris functional with IExCor=32609 and IRadAn=       5 diagonalized for initial guess.
 HarFok:  IExCor=32609 AccDes= 0.00D+00 IRadAn=         5 IDoV= 1 UseB2=F ITyADJ=14
 ICtDFT=  3500011 ScaDFX=  1.000000  1.000000  1.000000  1.000000
 FoFCou: FMM=F IPFlag=           0 FMFlag=      100000 FMFlg1=           0
         NFxFlg=           0 DoJE=T BraDBF=F KetDBF=T FulRan=T
         wScrn=  0.000000 ICntrl=       500 IOpCl=  0 I1Cent=   200000004 NGrid=           0
         NMat0=    1 NMatS0=      1 NMatT0=    0 NMatD0=    1 NMtDS0=    0 NMtDT0=    0
 Petite list used in FoFCou.
 Harris En= -914.023377628844    
 JPrj=0 DoOrth=F DoCkMO=F.
 Initial guess <Sx>= 0.0000 <Sy>= 0.0000 <Sz>= 0.0000 <S**2>= 0.0000 S= 0.0000
 Leave Link  401 at Thu Jul 23 23:40:58 2020, MaxMem=  4026531840 cpu:              11.3 elap:               1.5
 (Enter /opt/ohpc/pub/libs/gaussian/g16-A.03/sandybridge/g16/l502.exe)
 Integral symmetry usage will be decided dynamically.
 UHF open shell SCF:
 Using DIIS extrapolation, IDIIS=  1040.
 NGot=  4026531840 LenX=  4026408160 LenY=  4026348183
 Requested convergence on RMS density matrix=1.00D-08 within 128 cycles.
 Requested convergence on MAX density matrix=1.00D-06.
 Requested convergence on             energy=1.00D-06.
 No special actions if energy rises.
 Fock matrices will be formed incrementally for  20 cycles.
 Integral accuracy reduced to 1.0D-05 until final iterations.

 Cycle   1  Pass 0  IDiag  1:
 FoFJK:  IHMeth= 1 ICntrl=       0 DoSepK=T KAlg= 0 I1Cent=           0 FoldK=F
 IRaf=         1 NMat=       1 IRICut=       1 DoRegI=T DoRafI=F ISym2E= 0 IDoP0=0 IntGTp=1.
 FoFCou: FMM=F IPFlag=           0 FMFlag=      100000 FMFlg1=           0
         NFxFlg=           0 DoJE=T BraDBF=F KetDBF=F FulRan=T
         wScrn=  0.000000 ICntrl=       500 IOpCl=  0 I1Cent=           0 NGrid=           0
         NMat0=    1 NMatS0=      1 NMatT0=    0 NMatD0=    1 NMtDS0=    0 NMtDT0=    0
 Symmetry not used in FoFCou.
 E= -913.671425301382    
 DIIS: error= 2.11D-02 at cycle   1 NSaved=   1.
 NSaved= 1 IEnMin= 1 EnMin= -913.671425301382     IErMin= 1 ErrMin= 2.11D-02
 ErrMax= 2.11D-02  0.00D+00 EMaxC= 1.00D-01 BMatC= 9.70D-01 BMatP= 9.70D-01
 IDIUse=3 WtCom= 7.89D-01 WtEn= 2.11D-01
 Coeff-Com:  0.100D+01
 Coeff-En:   0.100D+01
 Coeff:      0.100D+01
 Gap=     0.223 Goal=   None    Shift=    0.000
 Gap=     0.223 Goal=   None    Shift=    0.000
 GapD=    0.223 DampG=1.000 DampE=0.500 DampFc=0.5000 IDamp=-1.
 Damping current iteration by 5.00D-01
 RMSDP=5.28D-03 MaxDP=1.68D-01              OVMax= 2.22D-01

 Cycle   2  Pass 0  IDiag  1:
 RMSU=  2.63D-03    CP:  9.89D-01
 E= -913.781512607083     Delta-E=       -0.110087305701 Rises=F Damp=T
 DIIS: error= 6.28D-03 at cycle   2 NSaved=   2.
 NSaved= 2 IEnMin= 2 EnMin= -913.781512607083     IErMin= 2 ErrMin= 6.28D-03
 ErrMax= 6.28D-03  0.00D+00 EMaxC= 1.00D-01 BMatC= 7.25D-02 BMatP= 9.70D-01
 IDIUse=3 WtCom= 9.37D-01 WtEn= 6.28D-02
 Coeff-Com:  0.144D+00 0.856D+00
 Coeff-En:   0.230D+00 0.770D+00
 Coeff:      0.149D+00 0.851D+00
 Gap=     0.229 Goal=   None    Shift=    0.000
 Gap=     0.229 Goal=   None    Shift=    0.000
 RMSDP=1.39D-03 MaxDP=3.29D-02 DE=-1.10D-01 OVMax= 2.45D-01

 Cycle   3  Pass 0  IDiag  1:
 RMSU=  1.32D-03    CP:  9.86D-01  8.44D-01
 E= -913.946929119840     Delta-E=       -0.165416512757 Rises=F Damp=F
 DIIS: error= 3.67D-03 at cycle   3 NSaved=   3.
 NSaved= 3 IEnMin= 3 EnMin= -913.946929119840     IErMin= 3 ErrMin= 3.67D-03
 ErrMax= 3.67D-03  0.00D+00 EMaxC= 1.00D-01 BMatC= 4.06D-02 BMatP= 7.25D-02
 IDIUse=3 WtCom= 9.63D-01 WtEn= 3.67D-02
 Coeff-Com:  0.471D-01 0.426D+00 0.527D+00
 Coeff-En:   0.000D+00 0.000D+00 0.100D+01
 Coeff:      0.453D-01 0.410D+00 0.545D+00
 Gap=     0.219 Goal=   None    Shift=    0.000
 Gap=     0.219 Goal=   None    Shift=    0.000
 RMSDP=6.37D-04 MaxDP=1.76D-02 DE=-1.65D-01 OVMax= 3.90D-02

 Cycle   4  Pass 0  IDiag  1:
 RMSU=  4.37D-04    CP:  9.87D-01  8.84D-01  6.60D-01
 E= -913.956464890454     Delta-E=       -0.009535770615 Rises=F Damp=F
 DIIS: error= 1.61D-03 at cycle   4 NSaved=   4.
 NSaved= 4 IEnMin= 4 EnMin= -913.956464890454     IErMin= 4 ErrMin= 1.61D-03
 ErrMax= 1.61D-03  0.00D+00 EMaxC= 1.00D-01 BMatC= 6.84D-03 BMatP= 4.06D-02
 IDIUse=3 WtCom= 9.84D-01 WtEn= 1.61D-02
 Coeff-Com:  0.154D-01 0.110D+00 0.300D+00 0.574D+00
 Coeff-En:   0.000D+00 0.000D+00 0.115D+00 0.885D+00
 Coeff:      0.152D-01 0.109D+00 0.297D+00 0.579D+00
 Gap=     0.219 Goal=   None    Shift=    0.000
 Gap=     0.219 Goal=   None    Shift=    0.000
 RMSDP=2.19D-04 MaxDP=9.19D-03 DE=-9.54D-03 OVMax= 1.63D-02

 Cycle   5  Pass 0  IDiag  1:
 RMSU=  1.49D-04    CP:  9.87D-01  8.85D-01  7.30D-01  7.01D-01
 E= -913.957985979904     Delta-E=       -0.001521089450 Rises=F Damp=F
 DIIS: error= 7.30D-04 at cycle   5 NSaved=   5.
 NSaved= 5 IEnMin= 5 EnMin= -913.957985979904     IErMin= 5 ErrMin= 7.30D-04
 ErrMax= 7.30D-04  0.00D+00 EMaxC= 1.00D-01 BMatC= 1.14D-03 BMatP= 6.84D-03
 IDIUse=3 WtCom= 9.93D-01 WtEn= 7.30D-03
 Coeff-Com:  0.664D-02 0.143D-01 0.117D+00 0.353D+00 0.509D+00
 Coeff-En:   0.000D+00 0.000D+00 0.000D+00 0.973D-01 0.903D+00
 Coeff:      0.659D-02 0.142D-01 0.117D+00 0.351D+00 0.512D+00
 Gap=     0.220 Goal=   None    Shift=    0.000
 Gap=     0.220 Goal=   None    Shift=    0.000
 RMSDP=8.81D-05 MaxDP=3.07D-03 DE=-1.52D-03 OVMax= 6.79D-03

 Cycle   6  Pass 0  IDiag  1:
 RMSU=  5.82D-05    CP:  9.87D-01  8.77D-01  7.35D-01  7.76D-01  6.51D-01
 E= -913.958265836954     Delta-E=       -0.000279857050 Rises=F Damp=F
 DIIS: error= 2.03D-04 at cycle   6 NSaved=   6.
 NSaved= 6 IEnMin= 6 EnMin= -913.958265836954     IErMin= 6 ErrMin= 2.03D-04
 ErrMax= 2.03D-04  0.00D+00 EMaxC= 1.00D-01 BMatC= 1.13D-04 BMatP= 1.14D-03
 IDIUse=3 WtCom= 9.98D-01 WtEn= 2.03D-03
 Coeff-Com:  0.249D-02-0.131D-01 0.173D-01 0.107D+00 0.279D+00 0.607D+00
 Coeff-En:   0.000D+00 0.000D+00 0.000D+00 0.000D+00 0.717D-02 0.993D+00
 Coeff:      0.248D-02-0.130D-01 0.172D-01 0.107D+00 0.278D+00 0.608D+00
 Gap=     0.220 Goal=   None    Shift=    0.000
 Gap=     0.220 Goal=   None    Shift=    0.000
 RMSDP=2.73D-05 MaxDP=1.20D-03 DE=-2.80D-04 OVMax= 1.92D-03

 Cycle   7  Pass 0  IDiag  1:
 RMSU=  1.96D-05    CP:  9.87D-01  8.76D-01  7.41D-01  7.83D-01  7.40D-01
                    CP:  8.28D-01
 E= -913.958294049196     Delta-E=       -0.000028212242 Rises=F Damp=F
 DIIS: error= 7.49D-05 at cycle   7 NSaved=   7.
 NSaved= 7 IEnMin= 7 EnMin= -913.958294049196     IErMin= 7 ErrMin= 7.49D-05
 ErrMax= 7.49D-05  0.00D+00 EMaxC= 1.00D-01 BMatC= 1.10D-05 BMatP= 1.13D-04
 IDIUse=1 WtCom= 1.00D+00 WtEn= 0.00D+00
 Coeff-Com:  0.101D-02-0.795D-02-0.104D-02 0.203D-01 0.841D-01 0.301D+00
 Coeff-Com:  0.602D+00
 Coeff:      0.101D-02-0.795D-02-0.104D-02 0.203D-01 0.841D-01 0.301D+00
 Coeff:      0.602D+00
 Gap=     0.220 Goal=   None    Shift=    0.000
 Gap=     0.220 Goal=   None    Shift=    0.000
 RMSDP=9.97D-06 MaxDP=3.15D-04 DE=-2.82D-05 OVMax= 6.81D-04

 Initial convergence to 1.0D-05 achieved.  Increase integral accuracy.
 Cycle   8  Pass 1  IDiag  1:
 E= -913.958136267686     Delta-E=        0.000157781510 Rises=F Damp=F
 DIIS: error= 4.39D-05 at cycle   1 NSaved=   1.
 NSaved= 1 IEnMin= 1 EnMin= -913.958136267686     IErMin= 1 ErrMin= 4.39D-05
 ErrMax= 4.39D-05  0.00D+00 EMaxC= 1.00D-01 BMatC= 2.58D-06 BMatP= 2.58D-06
 IDIUse=1 WtCom= 1.00D+00 WtEn= 0.00D+00
 Coeff-Com:  0.100D+01
 Coeff:      0.100D+01
 Gap=     0.220 Goal=   None    Shift=    0.000
 Gap=     0.220 Goal=   None    Shift=    0.000
 RMSDP=9.97D-06 MaxDP=3.15D-04 DE= 1.58D-04 OVMax= 4.29D-04

 Cycle   9  Pass 1  IDiag  1:
 RMSU=  2.80D-05    CP:  1.00D+00
 E= -913.958136150793     Delta-E=        0.000000116893 Rises=F Damp=F
 DIIS: error= 4.39D-05 at cycle   2 NSaved=   2.
 NSaved= 2 IEnMin= 1 EnMin= -913.958136267686     IErMin= 1 ErrMin= 4.39D-05
 ErrMax= 4.39D-05  0.00D+00 EMaxC= 1.00D-01 BMatC= 3.70D-06 BMatP= 2.58D-06
 IDIUse=1 WtCom= 1.00D+00 WtEn= 0.00D+00
 Coeff-Com:  0.554D+00 0.446D+00
 Coeff:      0.554D+00 0.446D+00
 Gap=     0.220 Goal=   None    Shift=    0.000
 Gap=     0.220 Goal=   None    Shift=    0.000
 RMSDP=5.08D-06 MaxDP=1.60D-04 DE= 1.17D-07 OVMax= 3.37D-04

 Cycle  10  Pass 1  IDiag  1:
 RMSU=  5.06D-06    CP:  1.00D+00  9.83D-01
 E= -913.958136954180     Delta-E=       -0.000000803387 Rises=F Damp=F
 DIIS: error= 1.29D-05 at cycle   3 NSaved=   3.
 NSaved= 3 IEnMin= 3 EnMin= -913.958136954180     IErMin= 3 ErrMin= 1.29D-05
 ErrMax= 1.29D-05  0.00D+00 EMaxC= 1.00D-01 BMatC= 3.69D-07 BMatP= 2.58D-06
 IDIUse=1 WtCom= 1.00D+00 WtEn= 0.00D+00
 Coeff-Com:  0.434D-01 0.236D+00 0.721D+00
 Coeff:      0.434D-01 0.236D+00 0.721D+00
 Gap=     0.220 Goal=   None    Shift=    0.000
 Gap=     0.220 Goal=   None    Shift=    0.000
 RMSDP=1.81D-06 MaxDP=4.33D-05 DE=-8.03D-07 OVMax= 1.13D-04

 Cycle  11  Pass 1  IDiag  1:
 RMSU=  1.27D-06    CP:  1.00D+00  1.02D+00  8.50D-01
 E= -913.958137114696     Delta-E=       -0.000000160516 Rises=F Damp=F
 DIIS: error= 5.30D-06 at cycle   4 NSaved=   4.
 NSaved= 4 IEnMin= 4 EnMin= -913.958137114696     IErMin= 4 ErrMin= 5.30D-06
 ErrMax= 5.30D-06  0.00D+00 EMaxC= 1.00D-01 BMatC= 7.57D-08 BMatP= 3.69D-07
 IDIUse=1 WtCom= 1.00D+00 WtEn= 0.00D+00
 Coeff-Com: -0.239D-01 0.107D+00 0.441D+00 0.475D+00
 Coeff:     -0.239D-01 0.107D+00 0.441D+00 0.475D+00
 Gap=     0.220 Goal=   None    Shift=    0.000
 Gap=     0.220 Goal=   None    Shift=    0.000
 RMSDP=6.93D-07 MaxDP=2.28D-05 DE=-1.61D-07 OVMax= 6.26D-05

 Cycle  12  Pass 1  IDiag  1:
 RMSU=  5.83D-07    CP:  1.00D+00  1.02D+00  8.69D-01  7.42D-01
 E= -913.958137110263     Delta-E=        0.000000004433 Rises=F Damp=F
 DIIS: error= 1.52D-06 at cycle   5 NSaved=   5.
 NSaved= 5 IEnMin= 4 EnMin= -913.958137114696     IErMin= 5 ErrMin= 1.52D-06
 ErrMax= 1.52D-06  0.00D+00 EMaxC= 1.00D-01 BMatC= 2.90D-09 BMatP= 7.57D-08
 IDIUse=1 WtCom= 1.00D+00 WtEn= 0.00D+00
 Coeff-Com: -0.122D-01 0.185D-01 0.870D-01 0.175D+00 0.732D+00
 Coeff:     -0.122D-01 0.185D-01 0.870D-01 0.175D+00 0.732D+00
 Gap=     0.220 Goal=   None    Shift=    0.000
 Gap=     0.220 Goal=   None    Shift=    0.000
 RMSDP=2.48D-07 MaxDP=4.83D-06 DE= 4.43D-09 OVMax= 2.36D-05

 Cycle  13  Pass 1  IDiag  1:
 RMSU=  1.85D-07    CP:  1.00D+00  1.03D+00  8.70D-01  8.60D-01  1.10D+00
 E= -913.958137111625     Delta-E=       -0.000000001362 Rises=F Damp=F
 DIIS: error= 7.91D-07 at cycle   6 NSaved=   6.
 NSaved= 6 IEnMin= 4 EnMin= -913.958137114696     IErMin= 6 ErrMin= 7.91D-07
 ErrMax= 7.91D-07  0.00D+00 EMaxC= 1.00D-01 BMatC= 1.45D-09 BMatP= 2.90D-09
 IDIUse=1 WtCom= 1.00D+00 WtEn= 0.00D+00
 Coeff-Com: -0.458D-03-0.212D-01-0.832D-01-0.351D-01 0.475D+00 0.665D+00
 Coeff:     -0.458D-03-0.212D-01-0.832D-01-0.351D-01 0.475D+00 0.665D+00
 Gap=     0.220 Goal=   None    Shift=    0.000
 Gap=     0.220 Goal=   None    Shift=    0.000
 RMSDP=1.75D-07 MaxDP=3.42D-06 DE=-1.36D-09 OVMax= 1.46D-05

 Cycle  14  Pass 1  IDiag  1:
 RMSU=  8.81D-08    CP:  1.00D+00  1.03D+00  8.75D-01  9.24D-01  1.30D+00
                    CP:  7.75D-01
 E= -913.958137115636     Delta-E=       -0.000000004012 Rises=F Damp=F
 DIIS: error= 3.06D-07 at cycle   7 NSaved=   7.
 NSaved= 7 IEnMin= 7 EnMin= -913.958137115636     IErMin= 7 ErrMin= 3.06D-07
 ErrMax= 3.06D-07  0.00D+00 EMaxC= 1.00D-01 BMatC= 2.63D-10 BMatP= 1.45D-09
 IDIUse=1 WtCom= 1.00D+00 WtEn= 0.00D+00
 Coeff-Com:  0.182D-02-0.167D-01-0.676D-01-0.522D-01 0.161D+00 0.405D+00
 Coeff-Com:  0.569D+00
 Coeff:      0.182D-02-0.167D-01-0.676D-01-0.522D-01 0.161D+00 0.405D+00
 Coeff:      0.569D+00
 Gap=     0.220 Goal=   None    Shift=    0.000
 Gap=     0.220 Goal=   None    Shift=    0.000
 RMSDP=5.80D-08 MaxDP=1.27D-06 DE=-4.01D-09 OVMax= 6.50D-06

 Cycle  15  Pass 1  IDiag  1:
 RMSU=  2.97D-08    CP:  1.00D+00  1.03D+00  8.76D-01  9.41D-01  1.35D+00
                    CP:  9.04D-01  7.80D-01
 E= -913.958137115737     Delta-E=       -0.000000000100 Rises=F Damp=F
 DIIS: error= 1.09D-07 at cycle   8 NSaved=   8.
 NSaved= 8 IEnMin= 8 EnMin= -913.958137115737     IErMin= 8 ErrMin= 1.09D-07
 ErrMax= 1.09D-07  0.00D+00 EMaxC= 1.00D-01 BMatC= 1.60D-11 BMatP= 2.63D-10
 IDIUse=1 WtCom= 1.00D+00 WtEn= 0.00D+00
 Coeff-Com:  0.911D-03-0.622D-02-0.252D-01-0.207D-01 0.394D-01 0.146D+00
 Coeff-Com:  0.283D+00 0.583D+00
 Coeff:      0.911D-03-0.622D-02-0.252D-01-0.207D-01 0.394D-01 0.146D+00
 Coeff:      0.283D+00 0.583D+00
 Gap=     0.220 Goal=   None    Shift=    0.000
 Gap=     0.220 Goal=   None    Shift=    0.000
 RMSDP=1.11D-08 MaxDP=2.50D-07 DE=-1.00D-10 OVMax= 6.94D-07

 Cycle  16  Pass 1  IDiag  1:
 RMSU=  8.04D-09    CP:  1.00D+00  1.03D+00  8.76D-01  9.43D-01  1.36D+00
                    CP:  9.19D-01  8.44D-01  9.42D-01
 E= -913.958137115744     Delta-E=       -0.000000000008 Rises=F Damp=F
 DIIS: error= 2.42D-08 at cycle   9 NSaved=   9.
 NSaved= 9 IEnMin= 9 EnMin= -913.958137115744     IErMin= 9 ErrMin= 2.42D-08
 ErrMax= 2.42D-08  0.00D+00 EMaxC= 1.00D-01 BMatC= 1.59D-12 BMatP= 1.60D-11
 IDIUse=1 WtCom= 1.00D+00 WtEn= 0.00D+00
 Coeff-Com:  0.142D-03-0.454D-03-0.164D-02-0.132D-02-0.750D-02 0.646D-02
 Coeff-Com:  0.497D-01 0.235D+00 0.720D+00
 Coeff:      0.142D-03-0.454D-03-0.164D-02-0.132D-02-0.750D-02 0.646D-02
 Coeff:      0.497D-01 0.235D+00 0.720D+00
 Gap=     0.220 Goal=   None    Shift=    0.000
 Gap=     0.220 Goal=   None    Shift=    0.000
 RMSDP=5.45D-09 MaxDP=1.13D-07 DE=-7.50D-12 OVMax= 5.62D-07

 SCF Done:  E(ULC-wPBE) =  -913.958137116     A.U. after   16 cycles
            NFock= 16  Conv=0.54D-08     -V/T= 2.0044
 <Sx>= 0.0000 <Sy>= 0.0000 <Sz>= 0.0000 <S**2>=-0.0000 S=-0.0000
 <L.S>= 0.000000000000E+00
 KE= 9.099865545090D+02 PE=-3.829316196072D+03 EE= 1.164467441885D+03
 Annihilation of the first spin contaminant:
 S**2 before annihilation    -0.0000,   after    -0.0000
 Leave Link  502 at Thu Jul 23 23:42:09 2020, MaxMem=  4026531840 cpu:             562.3 elap:              70.6
 (Enter /opt/ohpc/pub/libs/gaussian/g16-A.03/sandybridge/g16/l601.exe)
 Copying SCF densities to generalized density rwf, IOpCl= 1 IROHF=0.

 **********************************************************************

            Population analysis using the SCF density.

 **********************************************************************

 Orbital symmetries:
 Alpha Orbitals:
       Occupied  (A) (A) (A) (A) (A) (A) (A) (A) (A) (A) (A) (A)
                 (A) (A) (A) (A) (A) (A) (A) (A) (A) (A) (A) (A)
                 (A) (A) (A) (A) (A) (A) (A) (A) (A) (A) (A) (A)
                 (A) (A) (A) (A) (A) (A) (A) (A) (A) (A) (A) (A)
                 (A) (A)
       Virtual   (A) (A) (A) (A) (A) (A) (A) (A) (A) (A) (A) (A)
                 (A) (A) (A) (A) (A) (A) (A) (A) (A) (A) (A) (A)
                 (A) (A) (A) (A) (A) (A) (A) (A) (A) (A) (A) (A)
                 (A) (A) (A) (A) (A) (A) (A) (A) (A) (A) (A) (A)
                 (A) (A) (A) (A) (A) (A) (A) (A) (A) (A) (A) (A)
                 (A) (A) (A) (A) (A) (A) (A) (A) (A) (A) (A) (A)
                 (A) (A) (A) (A) (A) (A) (A) (A) (A) (A) (A) (A)
                 (A) (A) (A) (A) (A) (A) (A) (A) (A) (A) (A) (A)
                 (A) (A) (A) (A) (A) (A) (A) (A) (A) (A) (A) (A)
                 (A) (A) (A) (A) (A) (A) (A) (A) (A) (A) (A) (A)
                 (A) (A) (A) (A) (A) (A) (A) (A) (A) (A) (A) (A)
                 (A) (A) (A) (A) (A) (A) (A) (A) (A) (A) (A) (A)
                 (A) (A) (A) (A) (A) (A) (A) (A) (A) (A) (A) (A)
                 (A) (A) (A) (A) (A) (A) (A) (A) (A) (A) (A) (A)
                 (A) (A) (A) (A) (A) (A) (A) (A) (A) (A) (A) (A)
                 (A)
 Beta  Orbitals:
       Occupied  (A) (A) (A) (A) (A) (A) (A) (A) (A) (A) (A) (A)
                 (A) (A) (A) (A) (A) (A) (A) (A) (A) (A) (A) (A)
                 (A) (A) (A) (A) (A) (A) (A) (A) (A) (A) (A) (A)
                 (A) (A) (A) (A) (A) (A) (A) (A) (A) (A) (A) (A)
                 (A) (A)
       Virtual   (A) (A) (A) (A) (A) (A) (A) (A) (A) (A) (A) (A)
                 (A) (A) (A) (A) (A) (A) (A) (A) (A) (A) (A) (A)
                 (A) (A) (A) (A) (A) (A) (A) (A) (A) (A) (A) (A)
                 (A) (A) (A) (A) (A) (A) (A) (A) (A) (A) (A) (A)
                 (A) (A) (A) (A) (A) (A) (A) (A) (A) (A) (A) (A)
                 (A) (A) (A) (A) (A) (A) (A) (A) (A) (A) (A) (A)
                 (A) (A) (A) (A) (A) (A) (A) (A) (A) (A) (A) (A)
                 (A) (A) (A) (A) (A) (A) (A) (A) (A) (A) (A) (A)
                 (A) (A) (A) (A) (A) (A) (A) (A) (A) (A) (A) (A)
                 (A) (A) (A) (A) (A) (A) (A) (A) (A) (A) (A) (A)
                 (A) (A) (A) (A) (A) (A) (A) (A) (A) (A) (A) (A)
                 (A) (A) (A) (A) (A) (A) (A) (A) (A) (A) (A) (A)
                 (A) (A) (A) (A) (A) (A) (A) (A) (A) (A) (A) (A)
                 (A) (A) (A) (A) (A) (A) (A) (A) (A) (A) (A) (A)
                 (A) (A) (A) (A) (A) (A) (A) (A) (A) (A) (A) (A)
                 (A)
 The electronic state is 1-A.
 Alpha  occ. eigenvalues --  -88.15702 -18.87806 -14.05467 -10.03239 -10.03209
 Alpha  occ. eigenvalues --  -10.00578  -9.98409  -9.97904  -9.97837  -9.97744
 Alpha  occ. eigenvalues --   -9.96563  -9.96511  -9.96194  -7.76107  -5.78126
 Alpha  occ. eigenvalues --   -5.77650  -5.77453  -1.05149  -0.91615  -0.87275
 Alpha  occ. eigenvalues --   -0.78777  -0.78057  -0.73220  -0.72518  -0.70354
 Alpha  occ. eigenvalues --   -0.64258  -0.61045  -0.56693  -0.55894  -0.53620
 Alpha  occ. eigenvalues --   -0.51795  -0.51307  -0.48760  -0.48267  -0.46185
 Alpha  occ. eigenvalues --   -0.44470  -0.43182  -0.42123  -0.41452  -0.40140
 Alpha  occ. eigenvalues --   -0.39684  -0.37737  -0.36908  -0.36216  -0.34844
 Alpha  occ. eigenvalues --   -0.31060  -0.28309  -0.27798  -0.26625  -0.23851
 Alpha virt. eigenvalues --   -0.01880   0.02350   0.04461   0.08746   0.09397
 Alpha virt. eigenvalues --    0.09712   0.09955   0.11159   0.11580   0.13684
 Alpha virt. eigenvalues --    0.14643   0.14890   0.16252   0.16826   0.17862
 Alpha virt. eigenvalues --    0.18653   0.19787   0.24454   0.26365   0.26998
 Alpha virt. eigenvalues --    0.30320   0.32810   0.34526   0.35260   0.37768
 Alpha virt. eigenvalues --    0.40200   0.41534   0.44062   0.44520   0.45614
 Alpha virt. eigenvalues --    0.46208   0.47316   0.48192   0.48682   0.49433
 Alpha virt. eigenvalues --    0.49844   0.50613   0.50932   0.51846   0.52197
 Alpha virt. eigenvalues --    0.52926   0.53214   0.53897   0.54615   0.55446
 Alpha virt. eigenvalues --    0.56120   0.57803   0.58301   0.59371   0.60412
 Alpha virt. eigenvalues --    0.61267   0.62450   0.64154   0.65838   0.66507
 Alpha virt. eigenvalues --    0.66670   0.67502   0.67731   0.68478   0.69763
 Alpha virt. eigenvalues --    0.71027   0.71934   0.73622   0.75897   0.76141
 Alpha virt. eigenvalues --    0.78340   0.81162   0.82743   0.85174   0.88141
 Alpha virt. eigenvalues --    0.89696   0.90371   0.92149   0.93061   0.93692
 Alpha virt. eigenvalues --    0.94818   0.95743   0.96396   0.97420   0.97824
 Alpha virt. eigenvalues --    0.99764   1.00621   1.02102   1.03914   1.04872
 Alpha virt. eigenvalues --    1.07300   1.08873   1.09242   1.10347   1.12322
 Alpha virt. eigenvalues --    1.13292   1.15927   1.18899   1.20011   1.21369
 Alpha virt. eigenvalues --    1.23977   1.28781   1.30730   1.31295   1.33568
 Alpha virt. eigenvalues --    1.36310   1.36542   1.39385   1.41492   1.42827
 Alpha virt. eigenvalues --    1.45115   1.47826   1.48171   1.49451   1.50726
 Alpha virt. eigenvalues --    1.52259   1.53771   1.55153   1.55352   1.55903
 Alpha virt. eigenvalues --    1.56746   1.59037   1.61317   1.62488   1.63340
 Alpha virt. eigenvalues --    1.64539   1.65043   1.66238   1.67170   1.67467
 Alpha virt. eigenvalues --    1.69032   1.70007   1.71396   1.72874   1.75447
 Alpha virt. eigenvalues --    1.77394   1.80051   1.81464   1.81899   1.83109
 Alpha virt. eigenvalues --    1.85324   1.87543   1.87790   1.89561   1.90690
 Alpha virt. eigenvalues --    1.92594   1.93113   1.94773   1.98061   2.00020
 Alpha virt. eigenvalues --    2.03598   2.04281   2.05564   2.08512   2.10522
 Alpha virt. eigenvalues --    2.12544   2.13464   2.15606   2.19310   2.23682
 Alpha virt. eigenvalues --    2.26904   2.27584   2.33182   2.34015   2.35906
 Alpha virt. eigenvalues --    2.37721   2.38565   2.39793   2.44513   2.46327
 Alpha virt. eigenvalues --    2.51621   2.53893   2.55392   2.59324   2.67048
 Alpha virt. eigenvalues --    2.69309   2.73983   2.81500   2.84179   2.88098
 Alpha virt. eigenvalues --    2.95040   2.97239   3.09917   3.24421   3.33029
 Alpha virt. eigenvalues --    3.52051
  Beta  occ. eigenvalues --  -88.15702 -18.87806 -14.05467 -10.03239 -10.03209
  Beta  occ. eigenvalues --  -10.00578  -9.98409  -9.97904  -9.97837  -9.97744
  Beta  occ. eigenvalues --   -9.96563  -9.96511  -9.96194  -7.76107  -5.78126
  Beta  occ. eigenvalues --   -5.77650  -5.77453  -1.05149  -0.91615  -0.87275
  Beta  occ. eigenvalues --   -0.78777  -0.78057  -0.73220  -0.72518  -0.70354
  Beta  occ. eigenvalues --   -0.64258  -0.61045  -0.56693  -0.55894  -0.53620
  Beta  occ. eigenvalues --   -0.51795  -0.51307  -0.48760  -0.48267  -0.46185
  Beta  occ. eigenvalues --   -0.44470  -0.43182  -0.42123  -0.41452  -0.40140
  Beta  occ. eigenvalues --   -0.39684  -0.37737  -0.36908  -0.36216  -0.34844
  Beta  occ. eigenvalues --   -0.31060  -0.28309  -0.27798  -0.26625  -0.23851
  Beta virt. eigenvalues --   -0.01880   0.02350   0.04461   0.08746   0.09397
  Beta virt. eigenvalues --    0.09712   0.09955   0.11159   0.11580   0.13684
  Beta virt. eigenvalues --    0.14643   0.14890   0.16252   0.16826   0.17862
  Beta virt. eigenvalues --    0.18653   0.19787   0.24454   0.26365   0.26998
  Beta virt. eigenvalues --    0.30320   0.32810   0.34526   0.35260   0.37768
  Beta virt. eigenvalues --    0.40200   0.41534   0.44062   0.44520   0.45614
  Beta virt. eigenvalues --    0.46208   0.47316   0.48192   0.48682   0.49433
  Beta virt. eigenvalues --    0.49844   0.50613   0.50932   0.51846   0.52197
  Beta virt. eigenvalues --    0.52926   0.53214   0.53897   0.54615   0.55446
  Beta virt. eigenvalues --    0.56120   0.57803   0.58301   0.59371   0.60412
  Beta virt. eigenvalues --    0.61267   0.62450   0.64154   0.65838   0.66507
  Beta virt. eigenvalues --    0.66670   0.67502   0.67731   0.68478   0.69763
  Beta virt. eigenvalues --    0.71027   0.71934   0.73622   0.75897   0.76141
  Beta virt. eigenvalues --    0.78340   0.81162   0.82743   0.85174   0.88141
  Beta virt. eigenvalues --    0.89696   0.90371   0.92149   0.93061   0.93692
  Beta virt. eigenvalues --    0.94818   0.95743   0.96396   0.97420   0.97824
  Beta virt. eigenvalues --    0.99764   1.00621   1.02102   1.03914   1.04872
  Beta virt. eigenvalues --    1.07300   1.08873   1.09242   1.10347   1.12322
  Beta virt. eigenvalues --    1.13292   1.15927   1.18899   1.20011   1.21369
  Beta virt. eigenvalues --    1.23977   1.28781   1.30730   1.31295   1.33568
  Beta virt. eigenvalues --    1.36310   1.36542   1.39385   1.41492   1.42827
  Beta virt. eigenvalues --    1.45115   1.47826   1.48171   1.49451   1.50726
  Beta virt. eigenvalues --    1.52259   1.53771   1.55153   1.55352   1.55903
  Beta virt. eigenvalues --    1.56746   1.59037   1.61317   1.62488   1.63340
  Beta virt. eigenvalues --    1.64539   1.65043   1.66238   1.67170   1.67467
  Beta virt. eigenvalues --    1.69032   1.70007   1.71396   1.72874   1.75447
  Beta virt. eigenvalues --    1.77394   1.80051   1.81464   1.81899   1.83109
  Beta virt. eigenvalues --    1.85324   1.87543   1.87790   1.89561   1.90690
  Beta virt. eigenvalues --    1.92594   1.93113   1.94773   1.98061   2.00020
  Beta virt. eigenvalues --    2.03598   2.04281   2.05564   2.08512   2.10522
  Beta virt. eigenvalues --    2.12544   2.13464   2.15606   2.19310   2.23682
  Beta virt. eigenvalues --    2.26904   2.27584   2.33182   2.34015   2.35906
  Beta virt. eigenvalues --    2.37721   2.38565   2.39793   2.44513   2.46327
  Beta virt. eigenvalues --    2.51621   2.53893   2.55392   2.59324   2.67048
  Beta virt. eigenvalues --    2.69309   2.73983   2.81500   2.84179   2.88098
  Beta virt. eigenvalues --    2.95040   2.97239   3.09917   3.24421   3.33029
  Beta virt. eigenvalues --    3.52051
          Condensed to atoms (all electrons):
               1          2          3          4          5          6
     1  C    4.817937   0.509743  -0.039242  -0.034470   0.006318   0.003362
     2  C    0.509743   4.659881   0.566948  -0.090440  -0.048196   0.000327
     3  N   -0.039242   0.566948   6.286172   0.562038  -0.051032   0.001072
     4  C   -0.034470  -0.090440   0.562038   5.160889   0.382431  -0.053411
     5  C    0.006318  -0.048196  -0.051032   0.382431   5.048329   0.436439
     6  O    0.003362   0.000327   0.001072  -0.053411   0.436439   7.672744
     7  C    0.001180   0.000002  -0.000139   0.005451  -0.072665   0.313751
     8  C    0.472129  -0.032155  -0.041539  -0.063911   0.355095  -0.068887
     9  C    0.002818   0.003055  -0.066161   0.218970  -0.097679  -0.001758
    10  C   -0.000059  -0.000057   0.000886  -0.063597  -0.013213   0.003299
    11  C   -0.000001   0.000004  -0.000157   0.013440  -0.000444   0.000024
    12  C    0.000001   0.000005   0.000394   0.002322   0.000112   0.000019
    13  S    0.000161   0.000836   0.008245  -0.069791   0.006154  -0.000096
    14  H    0.364156  -0.035805   0.007704   0.001285   0.009522  -0.000060
    15  H   -0.061810   0.383349  -0.034404   0.004590   0.001009   0.000009
    16  H    0.000041  -0.000050  -0.000018   0.000982  -0.005300  -0.024683
    17  H    0.000359  -0.000053  -0.000002  -0.000161  -0.009518  -0.028926
    18  H   -0.000068   0.000005   0.000004  -0.000372   0.003563  -0.015733
    19  H   -0.033882   0.010804  -0.000192   0.005620  -0.066535  -0.006607
    20  H   -0.000012  -0.000010   0.000086  -0.021644   0.000980   0.010748
    21  H    0.000000  -0.000000   0.000002  -0.000360   0.000013  -0.000008
    22  H    0.000000  -0.000000   0.000001  -0.000289   0.000004   0.000000
               7          8          9         10         11         12
     1  C    0.001180   0.472129   0.002818  -0.000059  -0.000001   0.000001
     2  C    0.000002  -0.032155   0.003055  -0.000057   0.000004   0.000005
     3  N   -0.000139  -0.041539  -0.066161   0.000886  -0.000157   0.000394
     4  C    0.005451  -0.063911   0.218970  -0.063597   0.013440   0.002322
     5  C   -0.072665   0.355095  -0.097679  -0.013213  -0.000444   0.000112
     6  O    0.313751  -0.068887  -0.001758   0.003299   0.000024   0.000019
     7  C    4.498523  -0.000654  -0.000151  -0.000149  -0.000009  -0.000001
     8  C   -0.000654   4.989381   0.010956   0.000908  -0.000007   0.000005
     9  C   -0.000151   0.010956   5.303347   0.538402  -0.018886  -0.096874
    10  C   -0.000149   0.000908   0.538402   4.751156   0.484092  -0.020394
    11  C   -0.000009  -0.000007  -0.018886   0.484092   4.803319   0.506743
    12  C   -0.000001   0.000005  -0.096874  -0.020394   0.506743   4.994112
    13  S    0.000022  -0.000336   0.359349  -0.103327  -0.096053   0.365282
    14  H   -0.000051  -0.047233   0.000080   0.000001   0.000000  -0.000000
    15  H   -0.000001   0.008398  -0.001133   0.000013   0.000000  -0.000001
    16  H    0.377732   0.008707   0.000011   0.000009   0.000002   0.000000
    17  H    0.386902   0.013429   0.000120   0.000023  -0.000002   0.000000
    18  H    0.401281  -0.000367   0.000013   0.000077   0.000002  -0.000001
    19  H    0.006441   0.389154  -0.000418  -0.000011  -0.000000   0.000000
    20  H   -0.000272   0.000034  -0.046506   0.403001  -0.059282   0.009320
    21  H    0.000000  -0.000000   0.007978  -0.042501   0.384102  -0.056185
    22  H    0.000000  -0.000000   0.001805   0.010328  -0.024279   0.394389
              13         14         15         16         17         18
     1  C    0.000161   0.364156  -0.061810   0.000041   0.000359  -0.000068
     2  C    0.000836  -0.035805   0.383349  -0.000050  -0.000053   0.000005
     3  N    0.008245   0.007704  -0.034404  -0.000018  -0.000002   0.000004
     4  C   -0.069791   0.001285   0.004590   0.000982  -0.000161  -0.000372
     5  C    0.006154   0.009522   0.001009  -0.005300  -0.009518   0.003563
     6  O   -0.000096  -0.000060   0.000009  -0.024683  -0.028926  -0.015733
     7  C    0.000022  -0.000051  -0.000001   0.377732   0.386902   0.401281
     8  C   -0.000336  -0.047233   0.008398   0.008707   0.013429  -0.000367
     9  C    0.359349   0.000080  -0.001133   0.000011   0.000120   0.000013
    10  C   -0.103327   0.000001   0.000013   0.000009   0.000023   0.000077
    11  C   -0.096053   0.000000   0.000000   0.000002  -0.000002   0.000002
    12  C    0.365282  -0.000000  -0.000001   0.000000   0.000000  -0.000001
    13  S   15.354277  -0.000005  -0.000095  -0.000006   0.000002  -0.000002
    14  H   -0.000005   0.750913  -0.012147   0.000010   0.000034  -0.000000
    15  H   -0.000095  -0.012147   0.718120   0.000000  -0.000000   0.000000
    16  H   -0.000006   0.000010   0.000000   0.647475  -0.042153  -0.025319
    17  H    0.000002   0.000034  -0.000000  -0.042153   0.643128  -0.024484
    18  H   -0.000002  -0.000000   0.000000  -0.025319  -0.024484   0.618941
    19  H    0.000007  -0.015730  -0.000308   0.002026   0.002337  -0.000244
    20  H    0.009981   0.000000  -0.000002   0.000112  -0.000102  -0.000110
    21  H    0.009171  -0.000000   0.000000   0.000000  -0.000000   0.000000
    22  H   -0.044347  -0.000000  -0.000000  -0.000000   0.000000  -0.000000
              19         20         21         22
     1  C   -0.033882  -0.000012   0.000000   0.000000
     2  C    0.010804  -0.000010  -0.000000  -0.000000
     3  N   -0.000192   0.000086   0.000002   0.000001
     4  C    0.005620  -0.021644  -0.000360  -0.000289
     5  C   -0.066535   0.000980   0.000013   0.000004
     6  O   -0.006607   0.010748  -0.000008   0.000000
     7  C    0.006441  -0.000272   0.000000   0.000000
     8  C    0.389154   0.000034  -0.000000  -0.000000
     9  C   -0.000418  -0.046506   0.007978   0.001805
    10  C   -0.000011   0.403001  -0.042501   0.010328
    11  C   -0.000000  -0.059282   0.384102  -0.024279
    12  C    0.000000   0.009320  -0.056185   0.394389
    13  S    0.000007   0.009981   0.009171  -0.044347
    14  H   -0.015730   0.000000  -0.000000  -0.000000
    15  H   -0.000308  -0.000002   0.000000  -0.000000
    16  H    0.002026   0.000112   0.000000  -0.000000
    17  H    0.002337  -0.000102  -0.000000   0.000000
    18  H   -0.000244  -0.000110   0.000000  -0.000000
    19  H    0.726782   0.000013  -0.000000   0.000000
    20  H    0.000013   0.728898  -0.007828  -0.000175
    21  H   -0.000000  -0.007828   0.713096  -0.009174
    22  H    0.000000  -0.000175  -0.009174   0.669077
          Atomic-Atomic Spin Densities.
               1          2          3          4          5          6
     1  C   -0.000000  -0.000000   0.000000   0.000000   0.000000   0.000000
     2  C   -0.000000   0.000000  -0.000000   0.000000  -0.000000  -0.000000
     3  N    0.000000  -0.000000   0.000000   0.000000  -0.000000  -0.000000
     4  C    0.000000   0.000000   0.000000  -0.000000  -0.000000   0.000000
     5  C    0.000000  -0.000000  -0.000000  -0.000000   0.000000  -0.000000
     6  O    0.000000  -0.000000  -0.000000   0.000000  -0.000000   0.000000
     7  C   -0.000000   0.000000  -0.000000  -0.000000  -0.000000  -0.000000
     8  C   -0.000000   0.000000   0.000000   0.000000  -0.000000  -0.000000
     9  C   -0.000000   0.000000   0.000000   0.000000  -0.000000  -0.000000
    10  C   -0.000000   0.000000  -0.000000  -0.000000  -0.000000   0.000000
    11  C   -0.000000  -0.000000   0.000000  -0.000000   0.000000  -0.000000
    12  C   -0.000000   0.000000  -0.000000   0.000000  -0.000000   0.000000
    13  S    0.000000  -0.000000  -0.000000  -0.000000   0.000000   0.000000
    14  H    0.000000  -0.000000   0.000000   0.000000   0.000000   0.000000
    15  H    0.000000  -0.000000   0.000000   0.000000   0.000000  -0.000000
    16  H   -0.000000   0.000000   0.000000   0.000000   0.000000   0.000000
    17  H   -0.000000   0.000000   0.000000   0.000000  -0.000000   0.000000
    18  H   -0.000000  -0.000000  -0.000000  -0.000000   0.000000  -0.000000
    19  H   -0.000000   0.000000  -0.000000   0.000000  -0.000000  -0.000000
    20  H   -0.000000   0.000000   0.000000  -0.000000  -0.000000   0.000000
    21  H   -0.000000   0.000000   0.000000  -0.000000  -0.000000  -0.000000
    22  H    0.000000   0.000000  -0.000000   0.000000  -0.000000   0.000000
               7          8          9         10         11         12
     1  C   -0.000000  -0.000000  -0.000000  -0.000000  -0.000000  -0.000000
     2  C    0.000000   0.000000   0.000000   0.000000  -0.000000   0.000000
     3  N   -0.000000   0.000000   0.000000  -0.000000   0.000000  -0.000000
     4  C   -0.000000   0.000000   0.000000  -0.000000  -0.000000   0.000000
     5  C   -0.000000  -0.000000  -0.000000  -0.000000   0.000000  -0.000000
     6  O   -0.000000  -0.000000  -0.000000   0.000000  -0.000000   0.000000
     7  C   -0.000000   0.000000   0.000000  -0.000000   0.000000   0.000000
     8  C    0.000000   0.000000  -0.000000   0.000000  -0.000000   0.000000
     9  C    0.000000  -0.000000  -0.000000   0.000000  -0.000000   0.000000
    10  C   -0.000000   0.000000   0.000000  -0.000000   0.000000  -0.000000
    11  C    0.000000  -0.000000  -0.000000   0.000000   0.000000   0.000000
    12  C    0.000000   0.000000   0.000000  -0.000000   0.000000  -0.000000
    13  S    0.000000  -0.000000   0.000000   0.000000  -0.000000   0.000000
    14  H   -0.000000  -0.000000   0.000000  -0.000000  -0.000000   0.000000
    15  H    0.000000  -0.000000  -0.000000  -0.000000   0.000000  -0.000000
    16  H   -0.000000  -0.000000  -0.000000   0.000000  -0.000000   0.000000
    17  H    0.000000  -0.000000  -0.000000   0.000000  -0.000000   0.000000
    18  H    0.000000  -0.000000   0.000000  -0.000000   0.000000  -0.000000
    19  H    0.000000   0.000000  -0.000000   0.000000   0.000000   0.000000
    20  H   -0.000000  -0.000000   0.000000  -0.000000   0.000000  -0.000000
    21  H    0.000000  -0.000000  -0.000000   0.000000  -0.000000   0.000000
    22  H   -0.000000  -0.000000   0.000000  -0.000000   0.000000  -0.000000
              13         14         15         16         17         18
     1  C    0.000000   0.000000   0.000000  -0.000000  -0.000000  -0.000000
     2  C   -0.000000  -0.000000  -0.000000   0.000000   0.000000  -0.000000
     3  N   -0.000000   0.000000   0.000000   0.000000   0.000000  -0.000000
     4  C   -0.000000   0.000000   0.000000   0.000000   0.000000  -0.000000
     5  C    0.000000   0.000000   0.000000   0.000000  -0.000000   0.000000
     6  O    0.000000   0.000000  -0.000000   0.000000   0.000000  -0.000000
     7  C    0.000000  -0.000000   0.000000  -0.000000   0.000000   0.000000
     8  C   -0.000000  -0.000000  -0.000000  -0.000000  -0.000000  -0.000000
     9  C    0.000000   0.000000  -0.000000  -0.000000  -0.000000   0.000000
    10  C    0.000000  -0.000000  -0.000000   0.000000   0.000000  -0.000000
    11  C   -0.000000  -0.000000   0.000000  -0.000000  -0.000000   0.000000
    12  C    0.000000   0.000000  -0.000000   0.000000   0.000000  -0.000000
    13  S    0.000000   0.000000  -0.000000   0.000000   0.000000   0.000000
    14  H    0.000000   0.000000  -0.000000  -0.000000  -0.000000   0.000000
    15  H   -0.000000  -0.000000  -0.000000   0.000000   0.000000   0.000000
    16  H    0.000000  -0.000000   0.000000  -0.000000  -0.000000   0.000000
    17  H    0.000000  -0.000000   0.000000  -0.000000   0.000000  -0.000000
    18  H    0.000000   0.000000   0.000000   0.000000  -0.000000   0.000000
    19  H   -0.000000  -0.000000   0.000000   0.000000   0.000000  -0.000000
    20  H    0.000000   0.000000  -0.000000   0.000000   0.000000  -0.000000
    21  H   -0.000000   0.000000   0.000000  -0.000000  -0.000000   0.000000
    22  H    0.000000   0.000000  -0.000000   0.000000   0.000000  -0.000000
              19         20         21         22
     1  C   -0.000000  -0.000000  -0.000000   0.000000
     2  C    0.000000   0.000000   0.000000   0.000000
     3  N   -0.000000   0.000000   0.000000  -0.000000
     4  C    0.000000  -0.000000  -0.000000   0.000000
     5  C   -0.000000  -0.000000  -0.000000  -0.000000
     6  O   -0.000000   0.000000  -0.000000   0.000000
     7  C    0.000000  -0.000000   0.000000  -0.000000
     8  C    0.000000  -0.000000  -0.000000  -0.000000
     9  C   -0.000000   0.000000  -0.000000   0.000000
    10  C    0.000000  -0.000000   0.000000  -0.000000
    11  C    0.000000   0.000000  -0.000000   0.000000
    12  C    0.000000  -0.000000   0.000000  -0.000000
    13  S   -0.000000   0.000000  -0.000000   0.000000
    14  H   -0.000000   0.000000   0.000000   0.000000
    15  H    0.000000  -0.000000   0.000000  -0.000000
    16  H    0.000000   0.000000  -0.000000   0.000000
    17  H    0.000000   0.000000  -0.000000   0.000000
    18  H   -0.000000  -0.000000   0.000000  -0.000000
    19  H    0.000000  -0.000000  -0.000000  -0.000000
    20  H   -0.000000  -0.000000   0.000000  -0.000000
    21  H   -0.000000   0.000000  -0.000000   0.000000
    22  H   -0.000000  -0.000000   0.000000  -0.000000
 Mulliken charges and spin densities:
               1          2
     1  C   -0.008661   0.000000
     2  C    0.071807  -0.000000
     3  N   -0.200666   0.000000
     4  C    0.040428  -0.000000
     5  C    0.114613   0.000000
     6  O   -0.241626  -0.000000
     7  C    0.082806  -0.000000
     8  C    0.006892  -0.000000
     9  C   -0.117337   0.000000
    10  C    0.051114  -0.000000
    11  C    0.007392   0.000000
    12  C   -0.099248  -0.000000
    13  S    0.200572   0.000000
    14  H   -0.022674   0.000000
    15  H   -0.005587  -0.000000
    16  H    0.060420  -0.000000
    17  H    0.059069   0.000000
    18  H    0.042814   0.000000
    19  H   -0.019256  -0.000000
    20  H   -0.027228  -0.000000
    21  H    0.001694  -0.000000
    22  H    0.002661  -0.000000
 Sum of Mulliken charges =  -0.00000  -0.00000
 Mulliken charges and spin densities with hydrogens summed into heavy atoms:
               1          2
     1  C   -0.031334   0.000000
     2  C    0.066220  -0.000000
     3  N   -0.200666   0.000000
     4  C    0.040428  -0.000000
     5  C    0.114613   0.000000
     6  O   -0.241626  -0.000000
     7  C    0.245110  -0.000000
     8  C   -0.012364  -0.000000
     9  C   -0.117337   0.000000
    10  C    0.023885  -0.000000
    11  C    0.009086   0.000000
    12  C   -0.096588  -0.000000
    13  S    0.200572   0.000000
 Electronic spatial extent (au):  <R**2>=           2736.5334
 Charge=             -0.0000 electrons
 Dipole moment (field-independent basis, Debye):
    X=              2.3188    Y=              2.9349    Z=             -0.4448  Tot=              3.7667
 Quadrupole moment (field-independent basis, Debye-Ang):
   XX=            -66.6654   YY=            -76.6137   ZZ=            -83.8831
   XY=              3.0712   XZ=             -0.5618   YZ=              0.7826
 Traceless Quadrupole moment (field-independent basis, Debye-Ang):
   XX=              9.0553   YY=             -0.8930   ZZ=             -8.1624
   XY=              3.0712   XZ=             -0.5618   YZ=              0.7826
 Octapole moment (field-independent basis, Debye-Ang**2):
  XXX=              0.2976  YYY=             28.3884  ZZZ=             -3.8910  XYY=             25.0697
  XXY=             10.5589  XXZ=             -6.8322  XZZ=              1.3786  YZZ=              6.9842
  YYZ=             -1.8944  XYZ=             -8.8437
 Hexadecapole moment (field-independent basis, Debye-Ang**3):
 XXXX=          -2172.1157 YYYY=           -995.6755 ZZZZ=           -203.1984 XXXY=             28.2951
 XXXZ=             16.5073 YYYX=             35.3118 YYYZ=            -12.5457 ZZZX=              2.0213
 ZZZY=              0.3567 XXYY=           -530.9211 XXZZ=           -458.9188 YYZZ=           -212.6969
 XXYZ=              6.7647 YYXZ=             -9.1501 ZZXY=             12.6987
 N-N= 8.409040625615D+02 E-N=-3.829316187093D+03  KE= 9.099865545090D+02
                          Isotropic Fermi Contact Couplings
        Atom                 a.u.       MegaHertz       Gauss      10(-4) cm-1
     1  C(13)              0.00000       0.00000       0.00000       0.00000
     2  C(13)             -0.00000      -0.00000      -0.00000      -0.00000
     3  N(14)             -0.00000      -0.00000      -0.00000      -0.00000
     4  C(13)              0.00000       0.00000       0.00000       0.00000
     5  C(13)              0.00000       0.00000       0.00000       0.00000
     6  O(17)             -0.00000       0.00000       0.00000       0.00000
     7  C(13)              0.00000       0.00000       0.00000       0.00000
     8  C(13)             -0.00000      -0.00000      -0.00000      -0.00000
     9  C(13)              0.00000       0.00000       0.00000       0.00000
    10  C(13)             -0.00000      -0.00000      -0.00000      -0.00000
    11  C(13)             -0.00000      -0.00000      -0.00000      -0.00000
    12  C(13)             -0.00000      -0.00000      -0.00000      -0.00000
    13  S(33)              0.00000       0.00000       0.00000       0.00000
    14  H(1)               0.00000       0.00000       0.00000       0.00000
    15  H(1)               0.00000       0.00000       0.00000       0.00000
    16  H(1)              -0.00000      -0.00000      -0.00000      -0.00000
    17  H(1)              -0.00000      -0.00000      -0.00000      -0.00000
    18  H(1)              -0.00000      -0.00000      -0.00000      -0.00000
    19  H(1)               0.00000       0.00000       0.00000       0.00000
    20  H(1)              -0.00000      -0.00000      -0.00000      -0.00000
    21  H(1)              -0.00000      -0.00000      -0.00000      -0.00000
    22  H(1)               0.00000       0.00000       0.00000       0.00000
 --------------------------------------------------------
       Center         ----  Spin Dipole Couplings  ----
                      3XX-RR        3YY-RR        3ZZ-RR
 --------------------------------------------------------
     1   Atom        0.000000     -0.000000     -0.000000
     2   Atom        0.000000     -0.000000      0.000000
     3   Atom        0.000000     -0.000000     -0.000000
     4   Atom        0.000000      0.000000     -0.000000
     5   Atom        0.000000      0.000000     -0.000000
     6   Atom       -0.000000      0.000000     -0.000000
     7   Atom        0.000000      0.000000     -0.000000
     8   Atom        0.000000     -0.000000     -0.000000
     9   Atom       -0.000000     -0.000000      0.000000
    10   Atom       -0.000000     -0.000000      0.000000
    11   Atom       -0.000000      0.000000      0.000000
    12   Atom       -0.000000      0.000000      0.000000
    13   Atom        0.000000     -0.000000      0.000000
    14   Atom        0.000000      0.000000     -0.000000
    15   Atom        0.000000     -0.000000      0.000000
    16   Atom        0.000000     -0.000000      0.000000
    17   Atom        0.000000     -0.000000      0.000000
    18   Atom       -0.000000      0.000000     -0.000000
    19   Atom        0.000000     -0.000000     -0.000000
    20   Atom       -0.000000      0.000000     -0.000000
    21   Atom       -0.000000     -0.000000      0.000000
    22   Atom       -0.000000     -0.000000      0.000000
 --------------------------------------------------------
                        XY            XZ            YZ
 --------------------------------------------------------
     1   Atom        0.000000     -0.000000      0.000000
     2   Atom        0.000000     -0.000000      0.000000
     3   Atom        0.000000     -0.000000     -0.000000
     4   Atom        0.000000     -0.000000     -0.000000
     5   Atom        0.000000     -0.000000     -0.000000
     6   Atom       -0.000000      0.000000     -0.000000
     7   Atom        0.000000     -0.000000      0.000000
     8   Atom        0.000000     -0.000000      0.000000
     9   Atom       -0.000000     -0.000000     -0.000000
    10   Atom       -0.000000     -0.000000     -0.000000
    11   Atom        0.000000      0.000000     -0.000000
    12   Atom        0.000000      0.000000      0.000000
    13   Atom       -0.000000     -0.000000     -0.000000
    14   Atom       -0.000000      0.000000     -0.000000
    15   Atom        0.000000     -0.000000      0.000000
    16   Atom        0.000000     -0.000000      0.000000
    17   Atom        0.000000     -0.000000      0.000000
    18   Atom        0.000000     -0.000000     -0.000000
    19   Atom        0.000000     -0.000000     -0.000000
    20   Atom       -0.000000     -0.000000     -0.000000
    21   Atom        0.000000      0.000000     -0.000000
    22   Atom       -0.000000     -0.000000     -0.000000
 --------------------------------------------------------


 ---------------------------------------------------------------------------------
              Anisotropic Spin Dipole Couplings in Principal Axis System
 ---------------------------------------------------------------------------------

       Atom             a.u.   MegaHertz   Gauss  10(-4) cm-1        Axes

              Baa    -0.0000    -0.000    -0.000    -0.000 -0.2543  0.9594 -0.1218
     1 C(13)  Bbb    -0.0000    -0.000    -0.000    -0.000 -0.0239  0.1196  0.9925
              Bcc     0.0000     0.000     0.000     0.000  0.9668  0.2554 -0.0075
 
              Baa    -0.0000    -0.000    -0.000    -0.000 -0.4649  0.8850 -0.0254
     2 C(13)  Bbb     0.0000     0.000     0.000     0.000  0.8367  0.4485  0.3143
              Bcc     0.0000     0.000     0.000     0.000 -0.2895 -0.1249  0.9490
 
              Baa    -0.0000    -0.000    -0.000    -0.000 -0.1806  0.9055  0.3840
     3 N(14)  Bbb    -0.0000    -0.000    -0.000    -0.000  0.0888 -0.3738  0.9233
              Bcc     0.0000     0.000     0.000     0.000  0.9795  0.2009 -0.0129
 
              Baa    -0.0000    -0.000    -0.000    -0.000 -0.0613  0.2546  0.9651
     4 C(13)  Bbb    -0.0000    -0.000    -0.000    -0.000  0.8176 -0.5418  0.1948
              Bcc     0.0000     0.000     0.000     0.000  0.5725  0.8010 -0.1749
 
              Baa    -0.0000    -0.000    -0.000    -0.000  0.0733  0.1484  0.9862
     5 C(13)  Bbb     0.0000     0.000     0.000     0.000 -0.1835  0.9740 -0.1329
              Bcc     0.0000     0.000     0.000     0.000  0.9803  0.1712 -0.0986
 
              Baa    -0.0000     0.000     0.000     0.000  0.9124  0.2865 -0.2922
     6 O(17)  Bbb    -0.0000     0.000     0.000     0.000  0.2394  0.2052  0.9490
              Bcc     0.0000    -0.000    -0.000    -0.000 -0.3318  0.9359 -0.1186
 
              Baa    -0.0000    -0.000    -0.000    -0.000  0.4741 -0.5908  0.6529
     7 C(13)  Bbb    -0.0000    -0.000    -0.000    -0.000 -0.3585  0.5477  0.7560
              Bcc     0.0000     0.000     0.000     0.000  0.8042  0.5924 -0.0479
 
              Baa    -0.0000    -0.000    -0.000    -0.000 -0.4653  0.8827 -0.0660
     8 C(13)  Bbb    -0.0000    -0.000    -0.000    -0.000 -0.0120  0.0683  0.9976
              Bcc     0.0000     0.000     0.000     0.000  0.8851  0.4650 -0.0212
 
              Baa    -0.0000    -0.000    -0.000    -0.000  0.7153  0.6553  0.2426
     9 C(13)  Bbb     0.0000     0.000     0.000     0.000 -0.6878  0.7216  0.0789
              Bcc     0.0000     0.000     0.000     0.000 -0.1234 -0.2233  0.9669
 
              Baa    -0.0000    -0.000    -0.000    -0.000  0.3890  0.7563  0.5260
    10 C(13)  Bbb    -0.0000    -0.000    -0.000    -0.000  0.9199 -0.3500 -0.1771
              Bcc     0.0000     0.000     0.000     0.000 -0.0501 -0.5527  0.8319
 
              Baa    -0.0000    -0.000    -0.000    -0.000  0.8620 -0.4665 -0.1984
    11 C(13)  Bbb     0.0000     0.000     0.000     0.000 -0.2104 -0.6854  0.6971
              Bcc     0.0000     0.000     0.000     0.000  0.4611  0.5592  0.6890
 
              Baa    -0.0000    -0.000    -0.000    -0.000  0.9950 -0.0968  0.0266
    12 C(13)  Bbb    -0.0000    -0.000    -0.000    -0.000 -0.0765 -0.5604  0.8247
              Bcc     0.0000     0.000     0.000     0.000  0.0649  0.8225  0.5650
 
              Baa    -0.0000    -0.000    -0.000    -0.000  0.5086  0.8258  0.2435
    13 S(33)  Bbb     0.0000     0.000     0.000     0.000  0.0875 -0.3309  0.9396
              Bcc     0.0000     0.000     0.000     0.000  0.8565 -0.4566 -0.2405
 
              Baa    -0.0000    -0.000    -0.000    -0.000  0.6209  0.6857 -0.3800
    14 H(1)   Bbb    -0.0000    -0.000    -0.000    -0.000  0.1970  0.3327  0.9222
              Bcc     0.0000     0.000     0.000     0.000  0.7587 -0.6474  0.0715
 
              Baa    -0.0000    -0.000    -0.000    -0.000 -0.2636  0.9526 -0.1518
    15 H(1)   Bbb     0.0000     0.000     0.000     0.000  0.9607  0.2451 -0.1303
              Bcc     0.0000     0.000     0.000     0.000  0.0869  0.1802  0.9798
 
              Baa    -0.0000    -0.000    -0.000    -0.000 -0.4263  0.8873 -0.1762
    16 H(1)   Bbb     0.0000     0.000     0.000     0.000  0.3556  0.3435  0.8692
              Bcc     0.0000     0.000     0.000     0.000  0.8318  0.3078 -0.4620
 
              Baa    -0.0000    -0.000    -0.000    -0.000 -0.3743  0.9131 -0.1619
    17 H(1)   Bbb     0.0000     0.000     0.000     0.000  0.5772  0.3661  0.7300
              Bcc     0.0000     0.000     0.000     0.000  0.7258  0.1798 -0.6640
 
              Baa    -0.0000    -0.000    -0.000    -0.000  0.8557 -0.5165  0.0306
    18 H(1)   Bbb    -0.0000    -0.000    -0.000    -0.000  0.0478  0.1378  0.9893
              Bcc     0.0000     0.000     0.000     0.000  0.5152  0.8451 -0.1426
 
              Baa    -0.0000    -0.000    -0.000    -0.000 -0.3794  0.9124 -0.1534
    19 H(1)   Bbb    -0.0000    -0.000    -0.000    -0.000  0.0406  0.1820  0.9825
              Bcc     0.0000     0.000     0.000     0.000  0.9243  0.3665 -0.1061
 
              Baa    -0.0000    -0.000    -0.000    -0.000  0.6319  0.5099  0.5837
    20 H(1)   Bbb     0.0000     0.000     0.000     0.000 -0.4709 -0.3456  0.8117
              Bcc     0.0000     0.000     0.000     0.000 -0.6156  0.7877 -0.0217
 
              Baa    -0.0000    -0.000    -0.000    -0.000 -0.5518  0.7200  0.4210
[...]
    15  H   -0.000000   0.000000  -0.000000   0.000000   0.000000   0.000000
    16  H    0.000000   0.000000   0.000000  -0.000000  -0.000000   0.000000
    17  H   -0.000000  -0.000000   0.000000  -0.000000   0.000000   0.000000
    18  H    0.000000  -0.000000  -0.000000   0.000000  -0.000000   0.000000
    19  H    0.000000   0.000000  -0.000000   0.000000   0.000000  -0.000000
    20  H   -0.000000   0.000000   0.000000  -0.000000   0.000000  -0.000000
    21  H   -0.000000   0.000000  -0.000000   0.000000  -0.000000   0.000000
    22  H    0.000000  -0.000000   0.000000  -0.000000   0.000000  -0.000000
              13         14         15         16         17         18
     1  C    0.000000   0.000000   0.000000  -0.000000  -0.000000   0.000000
     2  C   -0.000000  -0.000000  -0.000000   0.000000   0.000000  -0.000000
     3  N   -0.000000   0.000000  -0.000000  -0.000000   0.000000   0.000000
     4  C    0.000000  -0.000000  -0.000000   0.000000  -0.000000   0.000000
     5  C    0.000000   0.000000  -0.000000  -0.000000   0.000000  -0.000000
     6  O    0.000000   0.000000  -0.000000   0.000000   0.000000   0.000000
     7  C    0.000000   0.000000  -0.000000   0.000000  -0.000000   0.000000
     8  C   -0.000000  -0.000000   0.000000   0.000000  -0.000000  -0.000000
     9  C    0.000000   0.000000  -0.000000   0.000000   0.000000  -0.000000
    10  C    0.000000  -0.000000   0.000000  -0.000000  -0.000000   0.000000
    11  C   -0.000000  -0.000000   0.000000  -0.000000   0.000000  -0.000000
    12  C    0.000000  -0.000000   0.000000   0.000000   0.000000   0.000000
    13  S   -0.000000   0.000000   0.000000  -0.000000   0.000000  -0.000000
    14  H    0.000000   0.000000  -0.000000  -0.000000   0.000000   0.000000
    15  H    0.000000  -0.000000  -0.000000   0.000000   0.000000   0.000000
    16  H   -0.000000  -0.000000   0.000000  -0.000000   0.000000   0.000000
    17  H    0.000000   0.000000   0.000000   0.000000  -0.000000   0.000000
    18  H   -0.000000   0.000000   0.000000   0.000000   0.000000  -0.000000
    19  H   -0.000000  -0.000000   0.000000   0.000000  -0.000000   0.000000
    20  H    0.000000   0.000000  -0.000000   0.000000   0.000000   0.000000
    21  H   -0.000000  -0.000000  -0.000000  -0.000000   0.000000  -0.000000
    22  H    0.000000   0.000000  -0.000000   0.000000   0.000000   0.000000
              19         20         21         22
     1  C   -0.000000   0.000000  -0.000000   0.000000
     2  C    0.000000  -0.000000  -0.000000  -0.000000
     3  N   -0.000000  -0.000000   0.000000  -0.000000
     4  C    0.000000  -0.000000  -0.000000   0.000000
     5  C   -0.000000   0.000000  -0.000000   0.000000
     6  O   -0.000000  -0.000000  -0.000000  -0.000000
     7  C    0.000000  -0.000000  -0.000000   0.000000
     8  C    0.000000   0.000000   0.000000  -0.000000
     9  C   -0.000000   0.000000  -0.000000   0.000000
    10  C    0.000000  -0.000000   0.000000  -0.000000
    11  C    0.000000   0.000000  -0.000000   0.000000
    12  C   -0.000000  -0.000000   0.000000  -0.000000
    13  S   -0.000000   0.000000  -0.000000   0.000000
    14  H   -0.000000   0.000000  -0.000000   0.000000
    15  H    0.000000  -0.000000  -0.000000  -0.000000
    16  H    0.000000   0.000000  -0.000000   0.000000
    17  H   -0.000000   0.000000   0.000000   0.000000
    18  H    0.000000   0.000000  -0.000000   0.000000
    19  H    0.000000  -0.000000   0.000000  -0.000000
    20  H   -0.000000   0.000000   0.000000  -0.000000
    21  H    0.000000   0.000000  -0.000000   0.000000
    22  H   -0.000000  -0.000000   0.000000  -0.000000
 Mulliken charges and spin densities:
               1          2
     1  C   -0.024192  -0.000000
     2  C    0.086375   0.000000
     3  N   -0.215020   0.000000
     4  C    0.134187   0.000000
     5  C    0.104470  -0.000000
     6  O   -0.239273   0.000000
     7  C    0.062549   0.000000
     8  C    0.025742   0.000000
     9  C   -0.129923   0.000000
    10  C   -0.008174  -0.000000
    11  C    0.077217   0.000000
    12  C   -0.129737   0.000000
    13  S    0.175036   0.000000
    14  H   -0.017918   0.000000
    15  H   -0.003060  -0.000000
    16  H    0.048233   0.000000
    17  H    0.048240  -0.000000
    18  H    0.052482  -0.000000
    19  H   -0.012570   0.000000
    20  H   -0.025672   0.000000
    21  H   -0.021913  -0.000000
    22  H    0.012924  -0.000000
 Sum of Mulliken charges =  -0.00000  -0.00000
 Mulliken charges and spin densities with hydrogens summed into heavy atoms:
               1          2
     1  C   -0.042110  -0.000000
     2  C    0.083315   0.000000
     3  N   -0.215020   0.000000
     4  C    0.134187   0.000000
     5  C    0.104470  -0.000000
     6  O   -0.239273   0.000000
     7  C    0.211503   0.000000
     8  C    0.013172   0.000000
     9  C   -0.129923   0.000000
    10  C   -0.033846  -0.000000
    11  C    0.055303   0.000000
    12  C   -0.116813  -0.000000
    13  S    0.175036   0.000000
 Electronic spatial extent (au):  <R**2>=           2795.5298
 Charge=             -0.0000 electrons
 Dipole moment (field-independent basis, Debye):
    X=              2.7998    Y=              2.3538    Z=             -0.0023  Tot=              3.6578
 Quadrupole moment (field-independent basis, Debye-Ang):
   XX=            -66.4792   YY=            -74.6054   ZZ=            -86.1662
   XY=              1.8875   XZ=             -0.0040   YZ=             -0.0050
 Traceless Quadrupole moment (field-independent basis, Debye-Ang):
   XX=              9.2711   YY=              1.1448   ZZ=            -10.4159
   XY=              1.8875   XZ=             -0.0040   YZ=             -0.0050
 Octapole moment (field-independent basis, Debye-Ang**2):
  XXX=              8.2789  YYY=             22.5668  ZZZ=             -0.0016  XYY=             21.4008
  XXY=             10.7019  XXZ=             -0.0099  XZZ=              4.8782  YZZ=              2.8194
  YYZ=             -0.0156  XYZ=             -0.0123
 Hexadecapole moment (field-independent basis, Debye-Ang**3):
 XXXX=          -2246.0499 YYYY=          -1073.0170 ZZZZ=            -99.6493 XXXY=             38.9203
 XXXZ=              0.0491 YYYX=             18.6279 YYYZ=             -0.0161 ZZZX=             -0.0081
 ZZZY=              0.0012 XXYY=           -544.7829 XXZZ=           -472.1856 YYZZ=           -223.3481
 XXYZ=              0.0008 YYXZ=             -0.0424 ZZXY=             18.2470
 N-N= 8.363562717297D+02 E-N=-3.819957605815D+03  KE= 9.096394842295D+02
                          Isotropic Fermi Contact Couplings
        Atom                 a.u.       MegaHertz       Gauss      10(-4) cm-1
     1  C(13)              0.00000       0.00000       0.00000       0.00000
     2  C(13)             -0.00000      -0.00000      -0.00000      -0.00000
     3  N(14)              0.00000       0.00000       0.00000       0.00000
     4  C(13)              0.00000       0.00000       0.00000       0.00000
     5  C(13)             -0.00000      -0.00000      -0.00000      -0.00000
     6  O(17)              0.00000      -0.00000      -0.00000      -0.00000
     7  C(13)              0.00000       0.00000       0.00000       0.00000
     8  C(13)              0.00000       0.00000       0.00000       0.00000
     9  C(13)             -0.00000      -0.00000      -0.00000      -0.00000
    10  C(13)             -0.00000      -0.00000      -0.00000      -0.00000
    11  C(13)             -0.00000      -0.00000      -0.00000      -0.00000
    12  C(13)             -0.00000      -0.00000      -0.00000      -0.00000
    13  S(33)              0.00000       0.00000       0.00000       0.00000
    14  H(1)               0.00000       0.00000       0.00000       0.00000
    15  H(1)              -0.00000      -0.00000      -0.00000      -0.00000
    16  H(1)              -0.00000      -0.00000      -0.00000      -0.00000
    17  H(1)               0.00000       0.00000       0.00000       0.00000
    18  H(1)              -0.00000      -0.00000      -0.00000      -0.00000
    19  H(1)              -0.00000      -0.00000      -0.00000      -0.00000
    20  H(1)               0.00000       0.00000       0.00000       0.00000
    21  H(1)              -0.00000      -0.00000      -0.00000      -0.00000
    22  H(1)               0.00000       0.00000       0.00000       0.00000
 --------------------------------------------------------
       Center         ----  Spin Dipole Couplings  ----
                      3XX-RR        3YY-RR        3ZZ-RR
 --------------------------------------------------------
     1   Atom       -0.000000      0.000000     -0.000000
     2   Atom       -0.000000      0.000000     -0.000000
     3   Atom        0.000000     -0.000000      0.000000
     4   Atom        0.000000      0.000000     -0.000000
     5   Atom        0.000000     -0.000000     -0.000000
     6   Atom        0.000000     -0.000000      0.000000
     7   Atom       -0.000000      0.000000      0.000000
     8   Atom        0.000000      0.000000     -0.000000
     9   Atom        0.000000     -0.000000     -0.000000
    10   Atom       -0.000000     -0.000000      0.000000
    11   Atom       -0.000000     -0.000000      0.000000
    12   Atom       -0.000000      0.000000      0.000000
    13   Atom        0.000000     -0.000000     -0.000000
    14   Atom        0.000000     -0.000000     -0.000000
    15   Atom        0.000000     -0.000000      0.000000
    16   Atom        0.000000      0.000000     -0.000000
    17   Atom       -0.000000      0.000000     -0.000000
    18   Atom       -0.000000      0.000000     -0.000000
    19   Atom        0.000000     -0.000000     -0.000000
    20   Atom       -0.000000     -0.000000      0.000000
    21   Atom        0.000000     -0.000000      0.000000
    22   Atom       -0.000000      0.000000      0.000000
 --------------------------------------------------------
                        XY            XZ            YZ
 --------------------------------------------------------
     1   Atom       -0.000000     -0.000000      0.000000
     2   Atom       -0.000000     -0.000000     -0.000000
     3   Atom       -0.000000      0.000000      0.000000
     4   Atom       -0.000000      0.000000     -0.000000
     5   Atom       -0.000000      0.000000     -0.000000
     6   Atom       -0.000000     -0.000000      0.000000
     7   Atom       -0.000000     -0.000000      0.000000
     8   Atom        0.000000      0.000000     -0.000000
     9   Atom        0.000000      0.000000      0.000000
    10   Atom       -0.000000     -0.000000      0.000000
    11   Atom        0.000000      0.000000      0.000000
    12   Atom       -0.000000     -0.000000     -0.000000
    13   Atom        0.000000     -0.000000     -0.000000
    14   Atom       -0.000000      0.000000     -0.000000
    15   Atom        0.000000     -0.000000      0.000000
    16   Atom       -0.000000     -0.000000      0.000000
    17   Atom        0.000000     -0.000000     -0.000000
    18   Atom        0.000000     -0.000000      0.000000
    19   Atom        0.000000      0.000000      0.000000
    20   Atom       -0.000000     -0.000000     -0.000000
    21   Atom        0.000000      0.000000     -0.000000
    22   Atom        0.000000      0.000000     -0.000000
 --------------------------------------------------------


 ---------------------------------------------------------------------------------
              Anisotropic Spin Dipole Couplings in Principal Axis System
 ---------------------------------------------------------------------------------

       Atom             a.u.   MegaHertz   Gauss  10(-4) cm-1        Axes

              Baa    -0.0000    -0.000    -0.000    -0.000  0.9486  0.3149  0.0315
     1 C(13)  Bbb    -0.0000    -0.000    -0.000    -0.000 -0.0288 -0.0131  0.9995
              Bcc     0.0000     0.000     0.000     0.000 -0.3151  0.9490  0.0033
 
              Baa    -0.0000    -0.000    -0.000    -0.000  0.8114  0.5843  0.0157
     2 C(13)  Bbb    -0.0000    -0.000    -0.000    -0.000 -0.0159 -0.0048  0.9999
              Bcc     0.0000     0.000     0.000     0.000 -0.5843  0.8115 -0.0054
 
              Baa    -0.0000    -0.000    -0.000    -0.000  0.1092  0.9940 -0.0046
     3 N(14)  Bbb     0.0000     0.000     0.000     0.000  0.9913 -0.1092 -0.0730
              Bcc     0.0000     0.000     0.000     0.000  0.0731 -0.0034  0.9973
 
              Baa    -0.0000    -0.000    -0.000    -0.000 -0.0046  0.0047  1.0000
     4 C(13)  Bbb     0.0000     0.000     0.000     0.000  0.4271  0.9042 -0.0022
              Bcc     0.0000     0.000     0.000     0.000  0.9042 -0.4271  0.0061
 
              Baa    -0.0000    -0.000    -0.000    -0.000  0.4515  0.8922  0.0134
     5 C(13)  Bbb    -0.0000    -0.000    -0.000    -0.000 -0.0332  0.0018  0.9994
              Bcc     0.0000     0.000     0.000     0.000  0.8917 -0.4517  0.0304
 
              Baa    -0.0000     0.000     0.000     0.000  0.4090  0.9077 -0.0936
     6 O(17)  Bbb     0.0000    -0.000    -0.000    -0.000  0.2266 -0.0017  0.9740
              Bcc     0.0000    -0.000    -0.000    -0.000  0.8840 -0.4195 -0.2064
 
              Baa    -0.0000    -0.000    -0.000    -0.000  0.9009  0.4242  0.0914
     7 C(13)  Bbb     0.0000     0.000     0.000     0.000  0.0406 -0.2921  0.9555
              Bcc     0.0000     0.000     0.000     0.000 -0.4320  0.8572  0.2804
 
              Baa    -0.0000    -0.000    -0.000    -0.000 -0.0103  0.0041  0.9999
     8 C(13)  Bbb     0.0000     0.000     0.000     0.000 -0.3208  0.9471 -0.0072
              Bcc     0.0000     0.000     0.000     0.000  0.9471  0.3209  0.0084
 
              Baa    -0.0000    -0.000    -0.000    -0.000 -0.2572  0.9663 -0.0118
     9 C(13)  Bbb    -0.0000    -0.000    -0.000    -0.000 -0.0053  0.0108  0.9999
              Bcc     0.0000     0.000     0.000     0.000  0.9663  0.2572  0.0023
 
              Baa    -0.0000    -0.000    -0.000    -0.000  0.6647  0.7471  0.0018
    10 C(13)  Bbb     0.0000     0.000     0.000     0.000  0.7471 -0.6647  0.0053
              Bcc     0.0000     0.000     0.000     0.000 -0.0052  0.0022  1.0000
 
              Baa    -0.0000    -0.000    -0.000    -0.000  0.9496 -0.3136 -0.0010
    11 C(13)  Bbb    -0.0000    -0.000    -0.000    -0.000  0.3136  0.9496 -0.0013
              Bcc     0.0000     0.000     0.000     0.000  0.0013  0.0009  1.0000
 
              Baa    -0.0000    -0.000    -0.000    -0.000  0.8048  0.5935  0.0016
    12 C(13)  Bbb     0.0000     0.000     0.000     0.000 -0.0022  0.0003  1.0000
              Bcc     0.0000     0.000     0.000     0.000 -0.5935  0.8048 -0.0016
 
              Baa    -0.0000    -0.000    -0.000    -0.000  0.0037  0.0165  0.9999
    13 S(33)  Bbb    -0.0000    -0.000    -0.000    -0.000 -0.3901  0.9207 -0.0137
              Bcc     0.0000     0.000     0.000     0.000  0.9207  0.3900 -0.0099
 
              Baa    -0.0000    -0.000    -0.000    -0.000  0.0059  0.0189  0.9998
    14 H(1)   Bbb    -0.0000    -0.000    -0.000    -0.000  0.4174  0.9085 -0.0196
              Bcc     0.0000     0.000     0.000     0.000  0.9087 -0.4175  0.0026
 
              Baa    -0.0000    -0.000    -0.000    -0.000 -0.3126  0.9492 -0.0352
    15 H(1)   Bbb     0.0000     0.000     0.000     0.000 -0.0486  0.0211  0.9986
              Bcc     0.0000     0.000     0.000     0.000  0.9486  0.3139  0.0395
 
              Baa    -0.0000    -0.000    -0.000    -0.000  0.2905 -0.2384  0.9267
    16 H(1)   Bbb     0.0000     0.000     0.000     0.000  0.1708  0.9658  0.1949
              Bcc     0.0000     0.000     0.000     0.000  0.9415 -0.1017 -0.3212
 
              Baa    -0.0000    -0.000    -0.000    -0.000  0.6818 -0.0059  0.7316
    17 H(1)   Bbb     0.0000     0.000     0.000     0.000  0.7277 -0.0968 -0.6790
              Bcc     0.0000     0.000     0.000     0.000  0.0748  0.9953 -0.0617
 
              Baa    -0.0000    -0.000    -0.000    -0.000  0.6359 -0.3514  0.6871
    18 H(1)   Bbb    -0.0000    -0.000    -0.000    -0.000  0.7718  0.2921 -0.5648
              Bcc     0.0000     0.000     0.000     0.000 -0.0022  0.8895  0.4570
 
              Baa    -0.0000    -0.000    -0.000    -0.000  0.0356 -0.2513  0.9673
    19 H(1)   Bbb    -0.0000    -0.000    -0.000    -0.000 -0.2596  0.9323  0.2518
              Bcc     0.0000     0.000     0.000     0.000  0.9651  0.2600  0.0321
 
              Baa    -0.0000    -0.000    -0.000    -0.000  0.6517  0.7584  0.0098
    20 H(1)   Bbb     0.0000     0.000     0.000     0.000  0.0107 -0.0221  0.9997
              Bcc     0.0000     0.000     0.000     0.000  0.7584 -0.6514 -0.0225
 
              Baa    -0.0000    -0.000    -0.000    -0.000 -0.4645  0.8856  0.0024
    21 H(1)   Bbb     0.0000     0.000     0.000     0.000  0.8856  0.4645 -0.0021
              Bcc     0.0000     0.000     0.000     0.000  0.0030 -0.0011  1.0000
 
              Baa    -0.0000    -0.000    -0.000    -0.000  0.9788 -0.2047 -0.0074
    22 H(1)   Bbb     0.0000     0.000     0.000     0.000 -0.0191 -0.1271  0.9917
              Bcc     0.0000     0.000     0.000     0.000  0.2040  0.9705  0.1283
 

 ---------------------------------------------------------------------------------

 No NMR shielding tensors so no spin-rotation constants.
 Leave Link  601 at Thu Jul 23 23:54:44 2020, MaxMem=  4026531840 cpu:               1.7 elap:               0.2
 (Enter /opt/ohpc/pub/libs/gaussian/g16-A.03/sandybridge/g16/l9999.exe)

 Test job not archived.
 1\1\GINC-SKYLAKE038\FOpt\ULC-wPBE\CC-pVDZ\C10H9N1O1S1\RDU230\23-Jul-20
 20\0\\#P uLC-wPBE/cc-pVDZ iop(3/107=0115600000, 3/108=0115600000) opt\
 \H9 C10 S1 N1 O1\\0,1\C,2.94457702,-1.4639911294,-0.0393401369\C,1.812
 6687814,-2.2796236233,0.0517478139\N,0.5646753657,-1.7934827977,0.1223
 41747\C,0.3659280096,-0.4577546329,0.106505906\C,1.4654455845,0.449974
 569,0.0155154246\O,1.1762273465,1.7854144103,0.0057142667\C,2.26723313
 42,2.6985316207,-0.088058081\C,2.7650414146,-0.0738644495,-0.057619129
 5\C,-1.0362797201,-0.0349948342,0.188482279\C,-1.6437258152,1.21521687
 6,0.2010012591\C,-3.0642285159,1.1459421292,0.2946638409\C,-3.52755126
 36,-0.1530591298,0.3525747235\S,-2.240852671,-1.3116600377,0.294296450
 3\H,3.9518308104,-1.8991882827,-0.0954134916\H,1.9049042073,-3.3774154
 279,0.0692919493\H,2.8390679511,2.558526961,-1.0310024588\H,2.95921036
 68,2.6008343341,0.7764814101\H,1.8171253854,3.7069642642,-0.0815906476
 \H,3.634383589,0.5916825667,-0.1284059775\H,-1.0728894083,2.1459604306
 ,0.1441006243\H,-3.7197028543,2.0256869694,0.3181875835\H,-4.565178718
 ,-0.4970377862,0.4273796446\\Version=EM64L-G16RevA.03\State=1-A\HF=-91
 4.001922\S2=0.\S2-1=0.\S2A=0.\RMSD=8.948e-09\RMSF=1.786e-05\Dipole=1.0
 346521,0.9961871,-0.0900147\Quadrupole=6.6165504,1.0568605,-7.6734109,
 1.7702517,-0.9758809,-0.3117206\PG=C01 [X(C10H9N1O1S1)]\\@


 10 WHATSOEVER THY HAND FINDETH TO DO, DO IT WITH THY  
 MIGHT. FOR THERE IS NO WORK, NOR DEVICE, NOR KNOWLEDGE, NOR  
 WISDOM, IN THE GRAVE, WHITHER THOU GOEST.                    
 11 I RETURNED AND SAW UNDER THE SUN, THAT THE RACE IS NOT TO 
 THE SWIFT, NOR THE BATTLE TO THE STRONG, NEITHER YET BREAD TO
 THE WISE, NOR YET RICHES TO MEN OF UNDERSTANDING, NOR YET    
 FAVOR TO MEN OF SKILL. BUT TIME AND CHANCE HAPPEN TO THEM ALL.
 12 FOR MAN ALSO KNOWETH NOT HIS TIME. AS THE FISHES   
 THAT ARE TAKEN IN AN EVIL NET, AND AS THE BIRDS THAT ARE     
 CAUGHT IN THE SNARE. SO ARE THE SONS OF MEN SNARED IN AN EVIL
 TIME, WHEN IT FALLETH SUDDENLY UPON THEM.
                                         ECCLESIASTES 9
 Job cpu time:       0 days  1 hours 48 minutes 54.1 seconds.
 Elapsed time:       0 days  0 hours 13 minutes 48.4 seconds.
 File lengths (MBytes):  RWF=    120 Int=      0 D2E=      0 Chk=     12 Scr=      8
 Normal termination of Gaussian 16 at Thu Jul 23 23:54:45 2020.
