 Entering Gaussian System, Link 0=g16
 Input=mols_65_7_05_c-n-N_opt_0.gjf
 Output=mols_65_7_05_c-n-N_opt_0.log
 Initial command:
 /opt/ohpc/pub/libs/gaussian/g16-A.03/sandybridge/g16/l1.exe "/mnt/gpfs2_4m/scratch/rdu230/ondemand/projects/dihedral_energies/7trial/wtuning/mols_65_7_05_c-n-N/Gau-106824.inp" -scrdir="/mnt/gpfs2_4m/scratch/rdu230/ondemand/projects/dihedral_energies/7trial/wtuning/mols_65_7_05_c-n-N/"
 Entering Link 1 = /opt/ohpc/pub/libs/gaussian/g16-A.03/sandybridge/g16/l1.exe PID=    106825.
  
 Copyright (c) 1988,1990,1992,1993,1995,1998,2003,2009,2016,
            Gaussian, Inc.  All Rights Reserved.
  
 This is part of the Gaussian(R) 16 program.  It is based on
 the Gaussian(R) 09 system (copyright 2009, Gaussian, Inc.),
 the Gaussian(R) 03 system (copyright 2003, Gaussian, Inc.),
 the Gaussian(R) 98 system (copyright 1998, Gaussian, Inc.),
 the Gaussian(R) 94 system (copyright 1995, Gaussian, Inc.),
 the Gaussian 92(TM) system (copyright 1992, Gaussian, Inc.),
 the Gaussian 90(TM) system (copyright 1990, Gaussian, Inc.),
 the Gaussian 88(TM) system (copyright 1988, Gaussian, Inc.),
 the Gaussian 86(TM) system (copyright 1986, Carnegie Mellon
 University), and the Gaussian 82(TM) system (copyright 1983,
 Carnegie Mellon University). Gaussian is a federally registered
 trademark of Gaussian, Inc.
  
 This software contains proprietary and confidential information,
 including trade secrets, belonging to Gaussian, Inc.
  
 This software is provided under written license and may be
 used, copied, transmitted, or stored only in accord with that
 written license.
  
 The following legend is applicable only to US Government
 contracts under FAR:
  
                    RESTRICTED RIGHTS LEGEND
  
 Use, reproduction and disclosure by the US Government is
 subject to restrictions as set forth in subparagraphs (a)
 and (c) of the Commercial Computer Software - Restricted
 Rights clause in FAR 52.227-19.
  
 Gaussian, Inc.
 340 Quinnipiac St., Bldg. 40, Wallingford CT 06492
  
  
 ---------------------------------------------------------------
 Warning -- This program may not be used in any manner that
 competes with the business of Gaussian, Inc. or will provide
 assistance to any competitor of Gaussian, Inc.  The licensee
 of this program is prohibited from giving any competitor of
 Gaussian, Inc. access to this program.  By using this program,
 the user acknowledges that Gaussian, Inc. is engaged in the
 business of creating and licensing software in the field of
 computational chemistry and represents and warrants to the
 licensee that it is not a competitor of Gaussian, Inc. and that
 it will not use this program in any manner prohibited above.
 ---------------------------------------------------------------
  

 Cite this work as:
 Gaussian 16, Revision A.03,
 M. J. Frisch, G. W. Trucks, H. B. Schlegel, G. E. Scuseria, 
 M. A. Robb, J. R. Cheeseman, G. Scalmani, V. Barone, 
 G. A. Petersson, H. Nakatsuji, X. Li, M. Caricato, A. V. Marenich, 
 J. Bloino, B. G. Janesko, R. Gomperts, B. Mennucci, H. P. Hratchian, 
 J. V. Ortiz, A. F. Izmaylov, J. L. Sonnenberg, D. Williams-Young, 
 F. Ding, F. Lipparini, F. Egidi, J. Goings, B. Peng, A. Petrone, 
 T. Henderson, D. Ranasinghe, V. G. Zakrzewski, J. Gao, N. Rega, 
 G. Zheng, W. Liang, M. Hada, M. Ehara, K. Toyota, R. Fukuda, 
 J. Hasegawa, M. Ishida, T. Nakajima, Y. Honda, O. Kitao, H. Nakai, 
 T. Vreven, K. Throssell, J. A. Montgomery, Jr., J. E. Peralta, 
 F. Ogliaro, M. J. Bearpark, J. J. Heyd, E. N. Brothers, K. N. Kudin, 
 V. N. Staroverov, T. A. Keith, R. Kobayashi, J. Normand, 
 K. Raghavachari, A. P. Rendell, J. C. Burant, S. S. Iyengar, 
 J. Tomasi, M. Cossi, J. M. Millam, M. Klene, C. Adamo, R. Cammi, 
 J. W. Ochterski, R. L. Martin, K. Morokuma, O. Farkas, 
 J. B. Foresman, and D. J. Fox, Gaussian, Inc., Wallingford CT, 2016.
 
 ******************************************
 Gaussian 16:  EM64L-G16RevA.03 25-Dec-2016
                24-Jul-2020 
 ******************************************
 %mem=30GB
 %nproc=8
 Will use up to    8 processors via shared memory.
 ---------------------------------------------------------------
 #P uLC-wPBE/cc-pVDZ iop(3/107=0276700000, 3/108=0276700000) opt
 ---------------------------------------------------------------
 1/18=20,19=15,26=3,38=1/1,3;
 2/9=110,12=2,17=6,18=5,40=1/2;
 3/5=16,11=2,25=1,30=1,71=1,74=-41,107=276700000,108=276700000,116=2/1,2,3;
 4//1;
 5/5=2,38=5/2;
 6/7=2,8=2,9=2,10=2,28=1/1;
 7//1,2,3,16;
 1/18=20,19=15,26=3/3(2);
 2/9=110/2;
 99//99;
 2/9=110/2;
 3/5=16,11=2,25=1,30=1,71=1,74=-41,107=276700000,108=276700000,116=2/1,2,3;
 4/5=5,16=3,69=1/1;
 5/5=2,38=5/2;
 7//1,2,3,16;
 1/18=20,19=15,26=3/3(-5);
 2/9=110/2;
 6/7=2,8=2,9=2,10=2,19=2,28=1/1;
 99/9=1/99;
 Leave Link    1 at Fri Jul 24 02:47:08 2020, MaxMem=  4026531840 cpu:               1.3 elap:               0.2
 (Enter /opt/ohpc/pub/libs/gaussian/g16-A.03/sandybridge/g16/l101.exe)
 --------------
 H30 C56 S7 N14
 --------------
 Symbolic Z-matrix:
 Charge =  0 Multiplicity = 1
 C                     26.63902  -0.12701  -1.14065 
 C                     25.61672  -0.52776  -1.8991 
 C                     24.28591  -0.33043  -1.48147 
 C                     24.15477   0.35392  -0.25155 
 N                     25.1762   0.79499   0.52064 
 C                     26.41479   0.55561   0.09011 
 C                     22.8046   0.65712   0.33022 
 N                     22.57951   1.58274   1.32579 
 C                     21.24684   1.6127    1.64522 
 C                     20.36875   0.75693   0.92835 
 S                     21.39208  -0.14971  -0.25198 
 C                     18.99185   0.50455   0.97616 
 C                     18.39915   0.33066   2.31935 
 C                     16.99501   0.11789   2.3997 
 C                     16.25748  -0.02163   1.17126 
 N                     16.75527   0.12189   0.01923 
 C                     18.14815   0.39826  -0.12311 
 C                     14.85772  -0.33905   1.27993 
 N                     14.19019  -0.68634   2.36828 
 C                     12.89064  -0.98329   2.13915 
 C                     12.44129  -0.70039   0.82392 
 S                     13.75433  -0.23189  -0.11922 
 C                     11.11151  -0.88554   0.33364 
 C                     10.32994  -2.04652   0.54161 
 C                     9.06161  -2.12355   0.04854 
 C                     8.54907  -1.02744  -0.72 
 N                     9.25617  -0.02255  -1.03929 
 C                     10.57389   0.07441  -0.54948 
 C                     7.15854  -1.08733  -1.22873 
 N                     6.80614  -0.87717  -2.41975 
 C                     5.40644  -0.84246  -2.54547 
 C                     4.74521  -1.09912  -1.32681 
 S                     5.84375  -1.30498  -0.08665 
 C                     3.23179  -1.09266  -1.02357 
 C                     2.71379  -2.00021  -0.15072 
 C                     1.2949   -1.94486   0.03273 
 C                     0.57272  -1.03629  -0.55018 
 N                     1.06638  -0.09113  -1.3904 
 C                     2.35546  -0.16852  -1.67052 
 C                    -0.92203  -0.85407  -0.27249 
 N                    -1.52989  -1.62282   0.60056 
 C                    -2.84726  -1.32121   0.63683 
 C                    -3.25413  -0.19545  -0.12964 
 S                    -1.87303   0.31076  -1.06306 
 C                    -4.61362   0.34899  -0.28923 
 C                    -4.73548   1.76394  -0.594 
 C                    -6.07325   2.30054  -0.73098 
 C                    -7.09812   1.4704   -0.3984 
 N                    -7.04532   0.17299  -0.07108 
 C                    -5.73163  -0.33242  -0.07925 
 C                    -8.51894   1.97333  -0.45831 
 N                    -8.80826   3.29325  -0.73336 
 C                    -10.13702   3.49271  -0.6843 
 C                    -10.96407   2.3336   -0.34744 
 S                    -9.84176   1.0655   -0.1297 
 C                    -12.40764   2.23328  -0.14891 
 C                    -13.18427   3.30576   0.31712 
 C                    -14.47961   3.11633   0.52515 
 C                    -15.07588   1.96223   0.17868 
 N                    -14.43363   0.86992  -0.34591 
 C                    -13.10648   1.07974  -0.44666 
 C                    -16.54871   1.77469   0.42754 
 N                    -17.41294   2.62908   0.97214 
 C                    -18.60903   2.10804   1.06536 
 C                    -18.78715   0.83369   0.54597 
 S                    -17.3782   0.25981  -0.05119 
 C                    -20.04619  -0.03082   0.51625 
 C                    -20.07296  -1.39212   0.63873 
 C                    -21.23608  -2.05277   0.53951 
 C                    -22.40162  -1.45189   0.3794 
 N                    -22.47618  -0.0418    0.32733 
 C                    -21.27626   0.61392   0.38168 
 C                    -23.76545  -2.16515   0.3346 
 N                    -23.80476  -3.49263   0.43758 
 C                    -25.16723  -3.89708   0.32873 
 C                    -26.03716  -2.80092   0.22176 
 S                    -25.19921  -1.28829   0.12241 
 H                     27.6832  -0.29363  -1.48266 
 H                     25.77988  -1.06332  -2.79416 
 H                     23.48951  -0.68028  -1.99481 
 H                     27.1765   0.9397    0.69457 
 H                     20.92075   2.27415   2.42319 
 H                     18.98854   0.45466   3.15744 
 H                     16.59723  -0.03167   3.36896 
 H                     18.45077   0.50377  -1.08033 
 H                     12.20359  -1.30149   2.99942 
 H                     10.68627  -2.84984   1.17087 
 H                     8.47377  -2.98265   0.31551 
 H                     11.10798   0.98451  -0.77255 
 H                     4.88826  -0.69716  -3.47764 
 H                     3.2735   -2.82481   0.28947 
 H                     0.87695  -2.72412   0.76007 
 H                     2.81033   0.55903  -2.38239 
 H                    -3.52596  -1.79258   1.33291 
 H                    -3.93759   2.39655  -0.84835 
 H                    -6.16302   3.34484  -1.01027 
 H                    -5.75156  -1.36299   0.23342 
 H                    -10.51835   4.46422  -0.94804 
 H                    -12.70272   4.21168   0.55357 
 H                    -15.1171   4.00953   0.93245 
 H                    -12.58813   0.23159  -0.87362 
 H                    -19.3754   2.72821   1.49492 
 H                    -19.10552  -1.96899   0.76236 
 H                    -21.26502  -3.18716   0.66329 
 H                    -21.39453   1.72041   0.26008 
 H                    -25.40615  -4.94818   0.38784 
 H                    -27.17494  -2.84522   0.08447 
 
 ITRead=  0  0  0  0  0  0  0  0  0  0  0  0  0  0  0  0  0  0  0  0
 ITRead=  0  0  0  0  0  0  0  0  0  0  0  0  0  0  0  0  0  0  0  0
 ITRead=  0  0  0  0  0  0  0  0  0  0  0  0  0  0  0  0  0  0  0  0
 ITRead=  0  0  0  0  0  0  0  0  0  0  0  0  0  0  0  0  0  0  0  0
 ITRead=  0  0  0  0  0  0  0  0  0  0  0  0  0  0  0  0  0  0  0  0
 ITRead=  0  0  0  0  0  0  0
 MicOpt= -1 -1 -1 -1 -1 -1 -1 -1 -1 -1 -1 -1 -1 -1 -1 -1 -1 -1 -1 -1
 MicOpt= -1 -1 -1 -1 -1 -1 -1 -1 -1 -1 -1 -1 -1 -1 -1 -1 -1 -1 -1 -1
 MicOpt= -1 -1 -1 -1 -1 -1 -1 -1 -1 -1 -1 -1 -1 -1 -1 -1 -1 -1 -1 -1
 MicOpt= -1 -1 -1 -1 -1 -1 -1 -1 -1 -1 -1 -1 -1 -1 -1 -1 -1 -1 -1 -1
 MicOpt= -1 -1 -1 -1 -1 -1 -1 -1 -1 -1 -1 -1 -1 -1 -1 -1 -1 -1 -1 -1
 MicOpt= -1 -1 -1 -1 -1 -1 -1
 NAtoms=    107 NQM=      107 NQMF=       0 NMMI=      0 NMMIF=      0
                NMic=       0 NMicF=      0.
                    Isotopes and Nuclear Properties:
 (Nuclear quadrupole moments (NQMom) in fm**2, nuclear magnetic moments (NMagM)
  in nuclear magnetons)

  Atom         1           2           3           4           5           6           7           8           9          10
 IAtWgt=          12          12          12          12          14          12          12          14          12          12
 AtmWgt=  12.0000000  12.0000000  12.0000000  12.0000000  14.0030740  12.0000000  12.0000000  14.0030740  12.0000000  12.0000000
 NucSpn=           0           0           0           0           2           0           0           2           0           0
 AtZEff=  -0.0000000  -0.0000000  -0.0000000  -0.0000000  -0.0000000  -0.0000000  -0.0000000  -0.0000000  -0.0000000  -0.0000000
 NQMom=    0.0000000   0.0000000   0.0000000   0.0000000   2.0440000   0.0000000   0.0000000   2.0440000   0.0000000   0.0000000
 NMagM=    0.0000000   0.0000000   0.0000000   0.0000000   0.4037610   0.0000000   0.0000000   0.4037610   0.0000000   0.0000000
 AtZNuc=   6.0000000   6.0000000   6.0000000   6.0000000   7.0000000   6.0000000   6.0000000   7.0000000   6.0000000   6.0000000

  Atom        11          12          13          14          15          16          17          18          19          20
 IAtWgt=          32          12          12          12          12          14          12          12          14          12
 AtmWgt=  31.9720718  12.0000000  12.0000000  12.0000000  12.0000000  14.0030740  12.0000000  12.0000000  14.0030740  12.0000000
 NucSpn=           0           0           0           0           0           2           0           0           2           0
 AtZEff=  -0.0000000  -0.0000000  -0.0000000  -0.0000000  -0.0000000  -0.0000000  -0.0000000  -0.0000000  -0.0000000  -0.0000000
 NQMom=    0.0000000   0.0000000   0.0000000   0.0000000   0.0000000   2.0440000   0.0000000   0.0000000   2.0440000   0.0000000
 NMagM=    0.0000000   0.0000000   0.0000000   0.0000000   0.0000000   0.4037610   0.0000000   0.0000000   0.4037610   0.0000000
 AtZNuc=  16.0000000   6.0000000   6.0000000   6.0000000   6.0000000   7.0000000   6.0000000   6.0000000   7.0000000   6.0000000

  Atom        21          22          23          24          25          26          27          28          29          30
 IAtWgt=          12          32          12          12          12          12          14          12          12          14
 AtmWgt=  12.0000000  31.9720718  12.0000000  12.0000000  12.0000000  12.0000000  14.0030740  12.0000000  12.0000000  14.0030740
 NucSpn=           0           0           0           0           0           0           2           0           0           2
 AtZEff=  -0.0000000  -0.0000000  -0.0000000  -0.0000000  -0.0000000  -0.0000000  -0.0000000  -0.0000000  -0.0000000  -0.0000000
 NQMom=    0.0000000   0.0000000   0.0000000   0.0000000   0.0000000   0.0000000   2.0440000   0.0000000   0.0000000   2.0440000
 NMagM=    0.0000000   0.0000000   0.0000000   0.0000000   0.0000000   0.0000000   0.4037610   0.0000000   0.0000000   0.4037610
 AtZNuc=   6.0000000  16.0000000   6.0000000   6.0000000   6.0000000   6.0000000   7.0000000   6.0000000   6.0000000   7.0000000

  Atom        31          32          33          34          35          36          37          38          39          40
 IAtWgt=          12          12          32          12          12          12          12          14          12          12
 AtmWgt=  12.0000000  12.0000000  31.9720718  12.0000000  12.0000000  12.0000000  12.0000000  14.0030740  12.0000000  12.0000000
 NucSpn=           0           0           0           0           0           0           0           2           0           0
 AtZEff=  -0.0000000  -0.0000000  -0.0000000  -0.0000000  -0.0000000  -0.0000000  -0.0000000  -0.0000000  -0.0000000  -0.0000000
 NQMom=    0.0000000   0.0000000   0.0000000   0.0000000   0.0000000   0.0000000   0.0000000   2.0440000   0.0000000   0.0000000
 NMagM=    0.0000000   0.0000000   0.0000000   0.0000000   0.0000000   0.0000000   0.0000000   0.4037610   0.0000000   0.0000000
 AtZNuc=   6.0000000   6.0000000  16.0000000   6.0000000   6.0000000   6.0000000   6.0000000   7.0000000   6.0000000   6.0000000

  Atom        41          42          43          44          45          46          47          48          49          50
 IAtWgt=          14          12          12          32          12          12          12          12          14          12
 AtmWgt=  14.0030740  12.0000000  12.0000000  31.9720718  12.0000000  12.0000000  12.0000000  12.0000000  14.0030740  12.0000000
 NucSpn=           2           0           0           0           0           0           0           0           2           0
 AtZEff=  -0.0000000  -0.0000000  -0.0000000  -0.0000000  -0.0000000  -0.0000000  -0.0000000  -0.0000000  -0.0000000  -0.0000000
 NQMom=    2.0440000   0.0000000   0.0000000   0.0000000   0.0000000   0.0000000   0.0000000   0.0000000   2.0440000   0.0000000
 NMagM=    0.4037610   0.0000000   0.0000000   0.0000000   0.0000000   0.0000000   0.0000000   0.0000000   0.4037610   0.0000000
 AtZNuc=   7.0000000   6.0000000   6.0000000  16.0000000   6.0000000   6.0000000   6.0000000   6.0000000   7.0000000   6.0000000

  Atom        51          52          53          54          55          56          57          58          59          60
 IAtWgt=          12          14          12          12          32          12          12          12          12          14
 AtmWgt=  12.0000000  14.0030740  12.0000000  12.0000000  31.9720718  12.0000000  12.0000000  12.0000000  12.0000000  14.0030740
 NucSpn=           0           2           0           0           0           0           0           0           0           2
 AtZEff=  -0.0000000  -0.0000000  -0.0000000  -0.0000000  -0.0000000  -0.0000000  -0.0000000  -0.0000000  -0.0000000  -0.0000000
 NQMom=    0.0000000   2.0440000   0.0000000   0.0000000   0.0000000   0.0000000   0.0000000   0.0000000   0.0000000   2.0440000
 NMagM=    0.0000000   0.4037610   0.0000000   0.0000000   0.0000000   0.0000000   0.0000000   0.0000000   0.0000000   0.4037610
 AtZNuc=   6.0000000   7.0000000   6.0000000   6.0000000  16.0000000   6.0000000   6.0000000   6.0000000   6.0000000   7.0000000

  Atom        61          62          63          64          65          66          67          68          69          70
 IAtWgt=          12          12          14          12          12          32          12          12          12          12
 AtmWgt=  12.0000000  12.0000000  14.0030740  12.0000000  12.0000000  31.9720718  12.0000000  12.0000000  12.0000000  12.0000000
 NucSpn=           0           0           2           0           0           0           0           0           0           0
 AtZEff=  -0.0000000  -0.0000000  -0.0000000  -0.0000000  -0.0000000  -0.0000000  -0.0000000  -0.0000000  -0.0000000  -0.0000000
 NQMom=    0.0000000   0.0000000   2.0440000   0.0000000   0.0000000   0.0000000   0.0000000   0.0000000   0.0000000   0.0000000
 NMagM=    0.0000000   0.0000000   0.4037610   0.0000000   0.0000000   0.0000000   0.0000000   0.0000000   0.0000000   0.0000000
 AtZNuc=   6.0000000   6.0000000   7.0000000   6.0000000   6.0000000  16.0000000   6.0000000   6.0000000   6.0000000   6.0000000

  Atom        71          72          73          74          75          76          77          78          79          80
 IAtWgt=          14          12          12          14          12          12          32           1           1           1
 AtmWgt=  14.0030740  12.0000000  12.0000000  14.0030740  12.0000000  12.0000000  31.9720718   1.0078250   1.0078250   1.0078250
 NucSpn=           2           0           0           2           0           0           0           1           1           1
 AtZEff=  -0.0000000  -0.0000000  -0.0000000  -0.0000000  -0.0000000  -0.0000000  -0.0000000  -0.0000000  -0.0000000  -0.0000000
 NQMom=    2.0440000   0.0000000   0.0000000   2.0440000   0.0000000   0.0000000   0.0000000   0.0000000   0.0000000   0.0000000
 NMagM=    0.4037610   0.0000000   0.0000000   0.4037610   0.0000000   0.0000000   0.0000000   2.7928460   2.7928460   2.7928460
 AtZNuc=   7.0000000   6.0000000   6.0000000   7.0000000   6.0000000   6.0000000  16.0000000   1.0000000   1.0000000   1.0000000

  Atom        81          82          83          84          85          86          87          88          89          90
 IAtWgt=           1           1           1           1           1           1           1           1           1           1
 AtmWgt=   1.0078250   1.0078250   1.0078250   1.0078250   1.0078250   1.0078250   1.0078250   1.0078250   1.0078250   1.0078250
 NucSpn=           1           1           1           1           1           1           1           1           1           1
 AtZEff=  -0.0000000  -0.0000000  -0.0000000  -0.0000000  -0.0000000  -0.0000000  -0.0000000  -0.0000000  -0.0000000  -0.0000000
 NQMom=    0.0000000   0.0000000   0.0000000   0.0000000   0.0000000   0.0000000   0.0000000   0.0000000   0.0000000   0.0000000
 NMagM=    2.7928460   2.7928460   2.7928460   2.7928460   2.7928460   2.7928460   2.7928460   2.7928460   2.7928460   2.7928460
 AtZNuc=   1.0000000   1.0000000   1.0000000   1.0000000   1.0000000   1.0000000   1.0000000   1.0000000   1.0000000   1.0000000

  Atom        91          92          93          94          95          96          97          98          99         100
 IAtWgt=           1           1           1           1           1           1           1           1           1           1
 AtmWgt=   1.0078250   1.0078250   1.0078250   1.0078250   1.0078250   1.0078250   1.0078250   1.0078250   1.0078250   1.0078250
 NucSpn=           1           1           1           1           1           1           1           1           1           1
 AtZEff=  -0.0000000  -0.0000000  -0.0000000  -0.0000000  -0.0000000  -0.0000000  -0.0000000  -0.0000000  -0.0000000  -0.0000000
 NQMom=    0.0000000   0.0000000   0.0000000   0.0000000   0.0000000   0.0000000   0.0000000   0.0000000   0.0000000   0.0000000
 NMagM=    2.7928460   2.7928460   2.7928460   2.7928460   2.7928460   2.7928460   2.7928460   2.7928460   2.7928460   2.7928460
 AtZNuc=   1.0000000   1.0000000   1.0000000   1.0000000   1.0000000   1.0000000   1.0000000   1.0000000   1.0000000   1.0000000

  Atom       101         102         103         104         105         106         107
 IAtWgt=           1           1           1           1           1           1           1
 AtmWgt=   1.0078250   1.0078250   1.0078250   1.0078250   1.0078250   1.0078250   1.0078250
 NucSpn=           1           1           1           1           1           1           1
 AtZEff=  -0.0000000  -0.0000000  -0.0000000  -0.0000000  -0.0000000  -0.0000000  -0.0000000
 NQMom=    0.0000000   0.0000000   0.0000000   0.0000000   0.0000000   0.0000000   0.0000000
 NMagM=    2.7928460   2.7928460   2.7928460   2.7928460   2.7928460   2.7928460   2.7928460
 AtZNuc=   1.0000000   1.0000000   1.0000000   1.0000000   1.0000000   1.0000000   1.0000000
 Leave Link  101 at Fri Jul 24 02:47:08 2020, MaxMem=  4026531840 cpu:               3.2 elap:               0.4
 (Enter /opt/ohpc/pub/libs/gaussian/g16-A.03/sandybridge/g16/l103.exe)

 GradGradGradGradGradGradGradGradGradGradGradGradGradGradGradGradGradGrad
 Berny optimization.
 Initialization pass.
                           ----------------------------
                           !    Initial Parameters    !
                           ! (Angstroms and Degrees)  !
 --------------------------                            --------------------------
 ! Name  Definition              Value          Derivative Info.                !
 --------------------------------------------------------------------------------
 ! R1    R(1,2)                  1.3345         estimate D2E/DX2                !
 ! R2    R(1,6)                  1.4251         estimate D2E/DX2                !
 ! R3    R(1,78)                 1.1113         estimate D2E/DX2                !
 ! R4    R(2,3)                  1.4087         estimate D2E/DX2                !
 ! R5    R(2,79)                 1.0557         estimate D2E/DX2                !
 ! R6    R(3,4)                  1.4136         estimate D2E/DX2                !
 ! R7    R(3,80)                 1.01           estimate D2E/DX2                !
 ! R8    R(4,5)                  1.3543         estimate D2E/DX2                !
 ! R9    R(4,7)                  1.5011         estimate D2E/DX2                !
 ! R10   R(5,6)                  1.3329         estimate D2E/DX2                !
 ! R11   R(6,81)                 1.0455         estimate D2E/DX2                !
 ! R12   R(7,8)                  1.3779         estimate D2E/DX2                !
 ! R13   R(7,11)                 1.7278         estimate D2E/DX2                !
 ! R14   R(8,9)                  1.3707         estimate D2E/DX2                !
 ! R15   R(9,10)                 1.4203         estimate D2E/DX2                !
 ! R16   R(9,82)                 1.072          estimate D2E/DX2                !
 ! R17   R(10,11)                1.8062         estimate D2E/DX2                !
 ! R18   R(10,12)                1.4007         estimate D2E/DX2                !
 ! R19   R(12,13)                1.4784         estimate D2E/DX2                !
 ! R20   R(12,17)                1.3898         estimate D2E/DX2                !
 ! R21   R(13,14)                1.4224         estimate D2E/DX2                !
 ! R22   R(13,83)                1.0321         estimate D2E/DX2                !
 ! R23   R(14,15)                1.4396         estimate D2E/DX2                !
 ! R24   R(14,84)                1.0583         estimate D2E/DX2                !
 ! R25   R(15,16)                1.2632         estimate D2E/DX2                !
 ! R26   R(15,18)                1.4394         estimate D2E/DX2                !
 ! R27   R(16,17)                1.4272         estimate D2E/DX2                !
 ! R28   R(17,85)                1.0094         estimate D2E/DX2                !
 ! R29   R(18,19)                1.3231         estimate D2E/DX2                !
 ! R30   R(18,22)                1.7851         estimate D2E/DX2                !
 ! R31   R(19,20)                1.3526         estimate D2E/DX2                !
 ! R32   R(20,21)                1.4184         estimate D2E/DX2                !
 ! R33   R(20,86)                1.146          estimate D2E/DX2                !
 ! R34   R(21,22)                1.6832         estimate D2E/DX2                !
 ! R35   R(21,23)                1.4293         estimate D2E/DX2                !
 ! R36   R(23,24)                1.4149         estimate D2E/DX2                !
 ! R37   R(23,28)                1.4108         estimate D2E/DX2                !
 ! R38   R(24,25)                1.363          estimate D2E/DX2                !
 ! R39   R(24,87)                1.0809         estimate D2E/DX2                !
 ! R40   R(25,26)                1.4335         estimate D2E/DX2                !
 ! R41   R(25,88)                1.0747         estimate D2E/DX2                !
 ! R42   R(26,27)                1.2695         estimate D2E/DX2                !
 ! R43   R(26,29)                1.4819         estimate D2E/DX2                !
 ! R44   R(27,28)                1.4091         estimate D2E/DX2                !
 ! R45   R(28,89)                1.0786         estimate D2E/DX2                !
 ! R46   R(29,30)                1.2597         estimate D2E/DX2                !
 ! R47   R(29,33)                1.7551         estimate D2E/DX2                !
 ! R48   R(30,31)                1.4058         estimate D2E/DX2                !
 ! R49   R(31,32)                1.41           estimate D2E/DX2                !
 ! R50   R(31,90)                1.0764         estimate D2E/DX2                !
 ! R51   R(32,33)                1.6695         estimate D2E/DX2                !
 ! R52   R(32,34)                1.5435         estimate D2E/DX2                !
 ! R53   R(34,35)                1.3616         estimate D2E/DX2                !
 ! R54   R(34,39)                1.4285         estimate D2E/DX2                !
 ! R55   R(35,36)                1.4318         estimate D2E/DX2                !
 ! R56   R(35,91)                1.0895         estimate D2E/DX2                !
 ! R57   R(36,37)                1.2988         estimate D2E/DX2                !
 ! R58   R(36,92)                1.145          estimate D2E/DX2                !
 ! R59   R(37,38)                1.3576         estimate D2E/DX2                !
 ! R60   R(37,40)                1.5312         estimate D2E/DX2                !
 ! R61   R(38,39)                1.3214         estimate D2E/DX2                !
 ! R62   R(39,93)                1.1149         estimate D2E/DX2                !
 ! R63   R(40,41)                1.3125         estimate D2E/DX2                !
 ! R64   R(40,44)                1.6989         estimate D2E/DX2                !
 ! R65   R(41,42)                1.3519         estimate D2E/DX2                !
 ! R66   R(42,43)                1.4214         estimate D2E/DX2                !
 ! R67   R(42,94)                1.0804         estimate D2E/DX2                !
 ! R68   R(43,44)                1.7421         estimate D2E/DX2                !
 ! R69   R(43,45)                1.4731         estimate D2E/DX2                !
 ! R70   R(45,46)                1.4525         estimate D2E/DX2                !
 ! R71   R(45,50)                1.326          estimate D2E/DX2                !
 ! R72   R(46,47)                1.4479         estimate D2E/DX2                !
 ! R73   R(46,95)                1.0495         estimate D2E/DX2                !
 ! R74   R(47,48)                1.3602         estimate D2E/DX2                !
 ! R75   R(47,96)                1.0847         estimate D2E/DX2                !
 ! R76   R(48,49)                1.3391         estimate D2E/DX2                !
 ! R77   R(48,51)                1.5084         estimate D2E/DX2                !
 ! R78   R(49,50)                1.4076         estimate D2E/DX2                !
 ! R79   R(50,97)                1.0771         estimate D2E/DX2                !
 ! R80   R(51,52)                1.379          estimate D2E/DX2                !
 ! R81   R(51,55)                1.6377         estimate D2E/DX2                !
 ! R82   R(52,53)                1.3445         estimate D2E/DX2                !
 ! R83   R(53,54)                1.4632         estimate D2E/DX2                !
 ! R84   R(53,98)                1.0765         estimate D2E/DX2                !
 ! R85   R(54,55)                1.7074         estimate D2E/DX2                !
 ! R86   R(54,56)                1.4606         estimate D2E/DX2                !
 ! R87   R(56,57)                1.4038         estimate D2E/DX2                !
 ! R88   R(56,61)                1.3812         estimate D2E/DX2                !
 ! R89   R(57,58)                1.3255         estimate D2E/DX2                !
 ! R90   R(57,99)                1.0529         estimate D2E/DX2                !
 ! R91   R(58,59)                1.3445         estimate D2E/DX2                !
 ! R92   R(58,100)               1.1705         estimate D2E/DX2                !
 ! R93   R(59,60)                1.3714         estimate D2E/DX2                !
 ! R94   R(59,62)                1.5054         estimate D2E/DX2                !
 ! R95   R(60,61)                1.3474         estimate D2E/DX2                !
 ! R96   R(61,101)               1.0818         estimate D2E/DX2                !
 ! R97   R(62,63)                1.3317         estimate D2E/DX2                !
 ! R98   R(62,66)                1.7922         estimate D2E/DX2                !
 ! R99   R(63,64)                1.308          estimate D2E/DX2                !
 ! R100  R(64,65)                1.3876         estimate D2E/DX2                !
 ! R101  R(64,102)               1.0754         estimate D2E/DX2                !
 ! R102  R(65,66)                1.6343         estimate D2E/DX2                !
 ! R103  R(65,67)                1.5276         estimate D2E/DX2                !
 ! R104  R(67,68)                1.3671         estimate D2E/DX2                !
 ! R105  R(67,72)                1.3953         estimate D2E/DX2                !
 ! R106  R(68,69)                1.3413         estimate D2E/DX2                !
 ! R107  R(68,103)               1.1331         estimate D2E/DX2                !
 ! R108  R(69,70)                1.3211         estimate D2E/DX2                !
 ! R109  R(69,104)               1.1415         estimate D2E/DX2                !
 ! R110  R(70,71)                1.413          estimate D2E/DX2                !
 ! R111  R(70,73)                1.5397         estimate D2E/DX2                !
 ! R112  R(71,72)                1.3685         estimate D2E/DX2                !
 ! R113  R(72,105)               1.1194         estimate D2E/DX2                !
 ! R114  R(73,74)                1.332          estimate D2E/DX2                !
 ! R115  R(73,77)                1.694          estimate D2E/DX2                !
 ! R116  R(74,75)                1.4254         estimate D2E/DX2                !
 ! R117  R(75,76)                1.4035         estimate D2E/DX2                !
 ! R118  R(75,106)               1.0795         estimate D2E/DX2                !
 ! R119  R(76,77)                1.7321         estimate D2E/DX2                !
 ! R120  R(76,107)               1.1469         estimate D2E/DX2                !
 ! A1    A(2,1,6)              120.9388         estimate D2E/DX2                !
 ! A2    A(2,1,78)             119.989          estimate D2E/DX2                !
 ! A3    A(6,1,78)             119.0401         estimate D2E/DX2                !
 ! A4    A(1,2,3)              120.8728         estimate D2E/DX2                !
 ! A5    A(1,2,79)             121.0499         estimate D2E/DX2                !
 ! A6    A(3,2,79)             117.9309         estimate D2E/DX2                !
 ! A7    A(2,3,4)              114.4189         estimate D2E/DX2                !
 ! A8    A(2,3,80)             123.0725         estimate D2E/DX2                !
 ! A9    A(4,3,80)             122.4622         estimate D2E/DX2                !
 ! A10   A(3,4,5)              125.7174         estimate D2E/DX2                !
 ! A11   A(3,4,7)              121.2272         estimate D2E/DX2                !
 ! A12   A(5,4,7)              113.0549         estimate D2E/DX2                !
 ! A13   A(4,5,6)              117.269          estimate D2E/DX2                !
 ! A14   A(1,6,5)              120.7413         estimate D2E/DX2                !
 ! A15   A(1,6,81)             124.099          estimate D2E/DX2                !
 ! A16   A(5,6,81)             115.1039         estimate D2E/DX2                !
 ! A17   A(4,7,8)              124.2385         estimate D2E/DX2                !
 ! A18   A(4,7,11)             120.6917         estimate D2E/DX2                !
 ! A19   A(8,7,11)             115.0632         estimate D2E/DX2                !
 ! A20   A(7,8,9)              109.9915         estimate D2E/DX2                !
 ! A21   A(8,9,10)             118.0519         estimate D2E/DX2                !
 ! A22   A(8,9,82)             118.5786         estimate D2E/DX2                !
 ! A23   A(10,9,82)            123.3688         estimate D2E/DX2                !
 ! A24   A(9,10,11)            106.38           estimate D2E/DX2                !
 ! A25   A(9,10,12)            134.3539         estimate D2E/DX2                !
 ! A26   A(11,10,12)           119.2625         estimate D2E/DX2                !
 ! A27   A(7,11,10)             90.4916         estimate D2E/DX2                !
 ! A28   A(10,12,13)           116.5075         estimate D2E/DX2                !
 ! A29   A(10,12,17)           125.7007         estimate D2E/DX2                !
 ! A30   A(13,12,17)           117.7908         estimate D2E/DX2                !
 ! A31   A(12,13,14)           117.6884         estimate D2E/DX2                !
 ! A32   A(12,13,83)           119.6503         estimate D2E/DX2                !
 ! A33   A(14,13,83)           122.4002         estimate D2E/DX2                !
 ! A34   A(13,14,15)           118.1654         estimate D2E/DX2                !
 ! A35   A(13,14,84)           116.3526         estimate D2E/DX2                !
 ! A36   A(15,14,84)           125.1167         estimate D2E/DX2                !
 ! A37   A(14,15,16)           124.4257         estimate D2E/DX2                !
 ! A38   A(14,15,18)           117.0747         estimate D2E/DX2                !
 ! A39   A(16,15,18)           118.4986         estimate D2E/DX2                !
 ! A40   A(15,16,17)           119.84           estimate D2E/DX2                !
 ! A41   A(12,17,16)           121.8986         estimate D2E/DX2                !
 ! A42   A(12,17,85)           124.0598         estimate D2E/DX2                !
 ! A43   A(16,17,85)           114.0414         estimate D2E/DX2                !
 ! A44   A(15,18,19)           127.6322         estimate D2E/DX2                !
 ! A45   A(15,18,22)           121.9161         estimate D2E/DX2                !
 ! A46   A(19,18,22)           110.4029         estimate D2E/DX2                !
 ! A47   A(18,19,20)           113.7661         estimate D2E/DX2                !
 ! A48   A(19,20,21)           114.6879         estimate D2E/DX2                !
 ! A49   A(19,20,86)           120.65           estimate D2E/DX2                !
 ! A50   A(21,20,86)           124.1616         estimate D2E/DX2                !
 ! A51   A(20,21,22)           109.1452         estimate D2E/DX2                !
 ! A52   A(20,21,23)           125.943          estimate D2E/DX2                !
 ! A53   A(22,21,23)           124.7236         estimate D2E/DX2                !
 ! A54   A(18,22,21)            91.5068         estimate D2E/DX2                !
 ! A55   A(21,23,24)           124.735          estimate D2E/DX2                !
 ! A56   A(21,23,28)           118.7576         estimate D2E/DX2                !
 ! A57   A(24,23,28)           116.0918         estimate D2E/DX2                !
 ! A58   A(23,24,25)           120.4785         estimate D2E/DX2                !
 ! A59   A(23,24,87)           120.8839         estimate D2E/DX2                !
 ! A60   A(25,24,87)           118.3851         estimate D2E/DX2                !
 ! A61   A(24,25,26)           118.9123         estimate D2E/DX2                !
 ! A62   A(24,25,88)           117.6661         estimate D2E/DX2                !
 ! A63   A(26,25,88)           123.2912         estimate D2E/DX2                !
 ! A64   A(25,26,27)           122.7484         estimate D2E/DX2                !
 ! A65   A(25,26,29)           119.2528         estimate D2E/DX2                !
 ! A66   A(27,26,29)           117.9233         estimate D2E/DX2                !
 ! A67   A(26,27,28)           119.2012         estimate D2E/DX2                !
 ! A68   A(23,28,27)           121.81           estimate D2E/DX2                !
 ! A69   A(23,28,89)           120.9906         estimate D2E/DX2                !
 ! A70   A(27,28,89)           116.6945         estimate D2E/DX2                !
 ! A71   A(26,29,30)           125.4742         estimate D2E/DX2                !
 ! A72   A(26,29,33)           118.9841         estimate D2E/DX2                !
 ! A73   A(30,29,33)           115.2366         estimate D2E/DX2                !
 ! A74   A(29,30,31)           111.5438         estimate D2E/DX2                !
 ! A75   A(30,31,32)           112.652          estimate D2E/DX2                !
 ! A76   A(30,31,90)           124.0645         estimate D2E/DX2                !
 ! A77   A(32,31,90)           123.1819         estimate D2E/DX2                !
 ! A78   A(31,32,33)           110.8482         estimate D2E/DX2                !
 ! A79   A(31,32,34)           128.9643         estimate D2E/DX2                !
 ! A80   A(33,32,34)           119.9838         estimate D2E/DX2                !
 ! A81   A(29,33,32)            89.671          estimate D2E/DX2                !
 ! A82   A(32,34,35)           119.7485         estimate D2E/DX2                !
 ! A83   A(32,34,39)           121.0134         estimate D2E/DX2                !
 ! A84   A(35,34,39)           119.2198         estimate D2E/DX2                !
 ! A85   A(34,35,36)           115.6833         estimate D2E/DX2                !
 ! A86   A(34,35,91)           124.6139         estimate D2E/DX2                !
 ! A87   A(36,35,91)           119.1179         estimate D2E/DX2                !
 ! A88   A(35,36,37)           121.3716         estimate D2E/DX2                !
 ! A89   A(35,36,92)           114.6348         estimate D2E/DX2                !
 ! A90   A(37,36,92)           123.9343         estimate D2E/DX2                !
 ! A91   A(36,37,38)           124.2374         estimate D2E/DX2                !
 ! A92   A(36,37,40)           123.0021         estimate D2E/DX2                !
 ! A93   A(38,37,40)           112.6039         estimate D2E/DX2                !
 ! A94   A(37,38,39)           116.4332         estimate D2E/DX2                !
 ! A95   A(34,39,38)           122.7064         estimate D2E/DX2                !
 ! A96   A(34,39,93)           117.4555         estimate D2E/DX2                !
 ! A97   A(38,39,93)           119.679          estimate D2E/DX2                !
 ! A98   A(37,40,41)           120.2005         estimate D2E/DX2                !
 ! A99   A(37,40,44)           122.9329         estimate D2E/DX2                !
 ! A100  A(41,40,44)           116.8639         estimate D2E/DX2                !
 ! A101  A(40,41,42)           109.783          estimate D2E/DX2                !
 ! A102  A(41,42,43)           116.1775         estimate D2E/DX2                !
 ! A103  A(41,42,94)           122.1442         estimate D2E/DX2                !
 ! A104  A(43,42,94)           120.8731         estimate D2E/DX2                !
 ! A105  A(42,43,44)           106.9858         estimate D2E/DX2                !
 ! A106  A(42,43,45)           127.9733         estimate D2E/DX2                !
 ! A107  A(44,43,45)           124.4846         estimate D2E/DX2                !
 ! A108  A(40,44,43)            89.726          estimate D2E/DX2                !
 ! A109  A(43,45,46)           117.3984         estimate D2E/DX2                !
 ! A110  A(43,45,50)           124.8212         estimate D2E/DX2                !
 ! A111  A(46,45,50)           117.5853         estimate D2E/DX2                !
 ! A112  A(45,46,47)           117.2833         estimate D2E/DX2                !
 ! A113  A(45,46,95)           125.0463         estimate D2E/DX2                !
 ! A114  A(47,46,95)           117.136          estimate D2E/DX2                !
 ! A115  A(46,47,48)           116.5423         estimate D2E/DX2                !
 ! A116  A(46,47,96)           117.2337         estimate D2E/DX2                !
 ! A117  A(48,47,96)           126.0276         estimate D2E/DX2                !
 ! A118  A(47,48,49)           128.4165         estimate D2E/DX2                !
 ! A119  A(47,48,51)           119.7704         estimate D2E/DX2                !
 ! A120  A(49,48,51)           111.7087         estimate D2E/DX2                !
 ! A121  A(48,49,50)           112.5358         estimate D2E/DX2                !
 ! A122  A(45,50,49)           127.1062         estimate D2E/DX2                !
 ! A123  A(45,50,97)           123.5881         estimate D2E/DX2                !
 ! A124  A(49,50,97)           108.9404         estimate D2E/DX2                !
 ! A125  A(48,51,52)           121.6479         estimate D2E/DX2                !
 ! A126  A(48,51,55)           124.6141         estimate D2E/DX2                !
 ! A127  A(52,51,55)           113.6501         estimate D2E/DX2                !
 ! A128  A(51,52,53)           110.0029         estimate D2E/DX2                !
 ! A129  A(52,53,54)           116.7097         estimate D2E/DX2                !
 ! A130  A(52,53,98)           118.3607         estimate D2E/DX2                !
 ! A131  A(54,53,98)           124.8274         estimate D2E/DX2                !
 ! A132  A(53,54,55)           104.2516         estimate D2E/DX2                !
 ! A133  A(53,54,56)           130.1154         estimate D2E/DX2                !
 ! A134  A(55,54,56)           125.5436         estimate D2E/DX2                !
 ! A135  A(51,55,54)            95.3734         estimate D2E/DX2                !
 ! A136  A(54,56,57)           122.6457         estimate D2E/DX2                !
 ! A137  A(54,56,61)           121.8795         estimate D2E/DX2                !
 ! A138  A(57,56,61)           115.4496         estimate D2E/DX2                !
 ! A139  A(56,57,58)           118.9185         estimate D2E/DX2                !
 ! A140  A(56,57,99)           118.6135         estimate D2E/DX2                !
 ! A141  A(58,57,99)           122.3217         estimate D2E/DX2                !
 ! A142  A(57,58,59)           121.0395         estimate D2E/DX2                !
 ! A143  A(57,58,100)          118.5404         estimate D2E/DX2                !
 ! A144  A(59,58,100)          120.2105         estimate D2E/DX2                !
 ! A145  A(58,59,60)           125.0708         estimate D2E/DX2                !
 ! A146  A(58,59,62)           119.8834         estimate D2E/DX2                !
 ! A147  A(60,59,62)           114.9723         estimate D2E/DX2                !
 ! A148  A(59,60,61)           111.4594         estimate D2E/DX2                !
 ! A149  A(56,61,60)           127.7562         estimate D2E/DX2                !
 ! A150  A(56,61,101)          119.8297         estimate D2E/DX2                !
 ! A151  A(60,61,101)          112.2946         estimate D2E/DX2                !
 ! A152  A(59,62,63)           128.5051         estimate D2E/DX2                !
 ! A153  A(59,62,66)           120.9268         estimate D2E/DX2                !
 ! A154  A(63,62,66)           110.5587         estimate D2E/DX2                !
 ! A155  A(62,63,64)           111.5318         estimate D2E/DX2                !
 ! A156  A(63,64,65)           117.1643         estimate D2E/DX2                !
 ! A157  A(63,64,102)          116.7706         estimate D2E/DX2                !
 ! A158  A(65,64,102)          125.9918         estimate D2E/DX2                !
 ! A159  A(64,65,66)           110.4008         estimate D2E/DX2                !
 ! A160  A(64,65,67)           129.2589         estimate D2E/DX2                !
 ! A161  A(66,65,67)           120.3125         estimate D2E/DX2                !
 ! A162  A(62,66,65)            90.2637         estimate D2E/DX2                !
 ! A163  A(65,67,68)           125.3068         estimate D2E/DX2                !
 ! A164  A(65,67,72)           117.8386         estimate D2E/DX2                !
 ! A165  A(68,67,72)           116.8402         estimate D2E/DX2                !
 ! A166  A(67,68,69)           120.0541         estimate D2E/DX2                !
 ! A167  A(67,68,103)          120.0            estimate D2E/DX2                !
 ! A168  A(69,68,103)          119.8456         estimate D2E/DX2                !
 ! A169  A(68,69,70)           123.3667         estimate D2E/DX2                !
 ! A170  A(68,69,104)          120.2276         estimate D2E/DX2                !
 ! A171  A(70,69,104)          116.2826         estimate D2E/DX2                !
 ! A172  A(69,70,71)           120.3267         estimate D2E/DX2                !
 ! A173  A(69,70,73)           125.0513         estimate D2E/DX2                !
 ! A174  A(71,70,73)           114.4857         estimate D2E/DX2                !
 ! A175  A(70,71,72)           115.4952         estimate D2E/DX2                !
 ! A176  A(67,72,71)           123.7396         estimate D2E/DX2                !
 ! A177  A(67,72,105)          124.0801         estimate D2E/DX2                !
 ! A178  A(71,72,105)          112.1281         estimate D2E/DX2                !
 ! A179  A(70,73,74)           119.0474         estimate D2E/DX2                !
 ! A180  A(70,73,77)           120.9005         estimate D2E/DX2                !
 ! A181  A(74,73,77)           120.0376         estimate D2E/DX2                !
 ! A182  A(73,74,75)           107.7626         estimate D2E/DX2                !
 ! A183  A(74,75,76)           112.1281         estimate D2E/DX2                !
 ! A184  A(74,75,106)          118.9236         estimate D2E/DX2                !
 ! A185  A(76,75,106)          128.8618         estimate D2E/DX2                !
 ! A186  A(75,76,77)           112.7415         estimate D2E/DX2                !
 ! A187  A(75,76,107)          126.4321         estimate D2E/DX2                !
 ! A188  A(77,76,107)          120.4513         estimate D2E/DX2                !
 ! A189  A(73,77,76)            87.1473         estimate D2E/DX2                !
 ! D1    D(6,1,2,3)             -2.3171         estimate D2E/DX2                !
 ! D2    D(6,1,2,79)          -177.8291         estimate D2E/DX2                !
 ! D3    D(78,1,2,3)           179.7633         estimate D2E/DX2                !
 ! D4    D(78,1,2,79)            4.2512         estimate D2E/DX2                !
 ! D5    D(2,1,6,5)              0.8459         estimate D2E/DX2                !
 ! D6    D(2,1,6,81)          -176.301          estimate D2E/DX2                !
 ! D7    D(78,1,6,5)           178.785          estimate D2E/DX2                !
 ! D8    D(78,1,6,81)            1.638          estimate D2E/DX2                !
 ! D9    D(1,2,3,4)              2.2409         estimate D2E/DX2                !
 ! D10   D(1,2,3,80)          -175.3357         estimate D2E/DX2                !
 ! D11   D(79,2,3,4)           177.8893         estimate D2E/DX2                !
 ! D12   D(79,2,3,80)            0.3127         estimate D2E/DX2                !
 ! D13   D(2,3,4,5)             -0.8495         estimate D2E/DX2                !
 ! D14   D(2,3,4,7)            179.432          estimate D2E/DX2                !
 ! D15   D(80,3,4,5)           176.7436         estimate D2E/DX2                !
 ! D16   D(80,3,4,7)            -2.9749         estimate D2E/DX2                !
 ! D17   D(3,4,5,6)             -0.5122         estimate D2E/DX2                !
 ! D18   D(7,4,5,6)            179.2262         estimate D2E/DX2                !
 ! D19   D(3,4,7,8)           -163.3616         estimate D2E/DX2                !
 ! D20   D(3,4,7,11)            15.6622         estimate D2E/DX2                !
 ! D21   D(5,4,7,8)             16.8868         estimate D2E/DX2                !
 ! D22   D(5,4,7,11)          -164.0894         estimate D2E/DX2                !
 ! D23   D(4,5,6,1)              0.5563         estimate D2E/DX2                !
 ! D24   D(4,5,6,81)           177.9475         estimate D2E/DX2                !
 ! D25   D(4,7,8,9)           -179.332          estimate D2E/DX2                !
 ! D26   D(11,7,8,9)             1.5946         estimate D2E/DX2                !
 ! D27   D(4,7,11,10)          179.5185         estimate D2E/DX2                !
 ! D28   D(8,7,11,10)           -1.3724         estimate D2E/DX2                !
 ! D29   D(7,8,9,10)            -1.0052         estimate D2E/DX2                !
 ! D30   D(7,8,9,82)           178.7073         estimate D2E/DX2                !
 ! D31   D(8,9,10,11)            0.0204         estimate D2E/DX2                !
 ! D32   D(8,9,10,12)          179.3048         estimate D2E/DX2                !
 ! D33   D(82,9,10,11)        -179.6773         estimate D2E/DX2                !
 ! D34   D(82,9,10,12)          -0.3929         estimate D2E/DX2                !
 ! D35   D(9,10,11,7)            0.7269         estimate D2E/DX2                !
 ! D36   D(12,10,11,7)        -178.6865         estimate D2E/DX2                !
 ! D37   D(9,10,12,13)         -45.0756         estimate D2E/DX2                !
 ! D38   D(9,10,12,17)         135.2891         estimate D2E/DX2                !
 ! D39   D(11,10,12,13)        134.1373         estimate D2E/DX2                !
 ! D40   D(11,10,12,17)        -45.4979         estimate D2E/DX2                !
 ! D41   D(10,12,13,14)        177.9355         estimate D2E/DX2                !
 ! D42   D(10,12,13,83)          3.664          estimate D2E/DX2                !
 ! D43   D(17,12,13,14)         -2.3993         estimate D2E/DX2                !
 ! D44   D(17,12,13,83)       -176.6708         estimate D2E/DX2                !
 ! D45   D(10,12,17,16)        179.2083         estimate D2E/DX2                !
 ! D46   D(10,12,17,85)         -0.6375         estimate D2E/DX2                !
 ! D47   D(13,12,17,16)         -0.4227         estimate D2E/DX2                !
 ! D48   D(13,12,17,85)        179.7315         estimate D2E/DX2                !
 ! D49   D(12,13,14,15)          4.8801         estimate D2E/DX2                !
 ! D50   D(12,13,14,84)        178.2999         estimate D2E/DX2                !
 ! D51   D(83,13,14,15)        178.9833         estimate D2E/DX2                !
 ! D52   D(83,13,14,84)         -7.5969         estimate D2E/DX2                !
 ! D53   D(13,14,15,16)         -5.041          estimate D2E/DX2                !
 ! D54   D(13,14,15,18)        175.3141         estimate D2E/DX2                !
 ! D55   D(84,14,15,16)       -177.8294         estimate D2E/DX2                !
 ! D56   D(84,14,15,18)          2.5257         estimate D2E/DX2                !
 ! D57   D(14,15,16,17)          2.1853         estimate D2E/DX2                !
 ! D58   D(18,15,16,17)       -178.1745         estimate D2E/DX2                !
 ! D59   D(14,15,18,19)         -9.2966         estimate D2E/DX2                !
 ! D60   D(14,15,18,22)        167.9109         estimate D2E/DX2                !
 ! D61   D(16,15,18,19)        171.0367         estimate D2E/DX2                !
 ! D62   D(16,15,18,22)        -11.7558         estimate D2E/DX2                !
 ! D63   D(15,16,17,12)          0.6166         estimate D2E/DX2                !
 ! D64   D(15,16,17,85)       -179.5233         estimate D2E/DX2                !
 ! D65   D(15,18,19,20)       -177.1211         estimate D2E/DX2                !
 ! D66   D(22,18,19,20)          5.4077         estimate D2E/DX2                !
 ! D67   D(15,18,22,21)       -178.9705         estimate D2E/DX2                !
 ! D68   D(19,18,22,21)         -1.3298         estimate D2E/DX2                !
 ! D69   D(18,19,20,21)         -7.9383         estimate D2E/DX2                !
 ! D70   D(18,19,20,86)        179.848          estimate D2E/DX2                !
 ! D71   D(19,20,21,22)          6.5883         estimate D2E/DX2                !
 ! D72   D(19,20,21,23)       -178.2247         estimate D2E/DX2                !
 ! D73   D(86,20,21,22)        178.4909         estimate D2E/DX2                !
 ! D74   D(86,20,21,23)         -6.3221         estimate D2E/DX2                !
 ! D75   D(20,21,22,18)         -2.8244         estimate D2E/DX2                !
 ! D76   D(23,21,22,18)       -178.0837         estimate D2E/DX2                !
 ! D77   D(20,21,23,24)        -46.3302         estimate D2E/DX2                !
 ! D78   D(20,21,23,28)        141.3736         estimate D2E/DX2                !
 ! D79   D(22,21,23,24)        128.1357         estimate D2E/DX2                !
 ! D80   D(22,21,23,28)        -44.1605         estimate D2E/DX2                !
 ! D81   D(21,23,24,25)        179.117          estimate D2E/DX2                !
 ! D82   D(21,23,24,87)          4.9821         estimate D2E/DX2                !
 ! D83   D(28,23,24,25)         -8.4019         estimate D2E/DX2                !
 ! D84   D(28,23,24,87)        177.4632         estimate D2E/DX2                !
 ! D85   D(21,23,28,27)       -178.0147         estimate D2E/DX2                !
 ! D86   D(21,23,28,89)         -6.4368         estimate D2E/DX2                !
 ! D87   D(24,23,28,27)          9.0312         estimate D2E/DX2                !
 ! D88   D(24,23,28,89)       -179.3909         estimate D2E/DX2                !
 ! D89   D(23,24,25,26)          1.9851         estimate D2E/DX2                !
 ! D90   D(23,24,25,88)       -174.0022         estimate D2E/DX2                !
 ! D91   D(87,24,25,26)        176.2642         estimate D2E/DX2                !
 ! D92   D(87,24,25,88)          0.2769         estimate D2E/DX2                !
 ! D93   D(24,25,26,27)          4.8675         estimate D2E/DX2                !
 ! D94   D(24,25,26,29)       -178.3602         estimate D2E/DX2                !
 ! D95   D(88,25,26,27)       -179.3845         estimate D2E/DX2                !
 ! D96   D(88,25,26,29)         -2.6122         estimate D2E/DX2                !
 ! D97   D(25,26,27,28)         -4.3855         estimate D2E/DX2                !
 ! D98   D(29,26,27,28)        178.8016         estimate D2E/DX2                !
 ! D99   D(25,26,29,30)       -129.3914         estimate D2E/DX2                !
 ! D100  D(25,26,29,33)         57.2706         estimate D2E/DX2                !
 ! D101  D(27,26,29,30)         47.5364         estimate D2E/DX2                !
 ! D102  D(27,26,29,33)       -125.8016         estimate D2E/DX2                !
 ! D103  D(26,27,28,23)         -2.7931         estimate D2E/DX2                !
 ! D104  D(26,27,28,89)       -174.7143         estimate D2E/DX2                !
 ! D105  D(26,29,30,31)       -172.4448         estimate D2E/DX2                !
 ! D106  D(33,29,30,31)          1.1136         estimate D2E/DX2                !
 ! D107  D(26,29,33,32)        174.2015         estimate D2E/DX2                !
 ! D108  D(30,29,33,32)          0.1968         estimate D2E/DX2                !
 ! D109  D(29,30,31,32)         -2.2131         estimate D2E/DX2                !
 ! D110  D(29,30,31,90)       -178.6446         estimate D2E/DX2                !
 ! D111  D(30,31,32,33)          2.3438         estimate D2E/DX2                !
 ! D112  D(30,31,32,34)        177.069          estimate D2E/DX2                !
 ! D113  D(90,31,32,33)        178.8117         estimate D2E/DX2                !
 ! D114  D(90,31,32,34)         -6.4631         estimate D2E/DX2                !
 ! D115  D(31,32,33,29)         -1.4282         estimate D2E/DX2                !
 ! D116  D(34,32,33,29)       -176.6944         estimate D2E/DX2                !
 ! D117  D(31,32,34,35)        143.3728         estimate D2E/DX2                !
 ! D118  D(31,32,34,39)        -35.0563         estimate D2E/DX2                !
 ! D119  D(33,32,34,35)        -42.3197         estimate D2E/DX2                !
 ! D120  D(33,32,34,39)        139.2512         estimate D2E/DX2                !
 ! D121  D(32,34,35,36)       -178.0169         estimate D2E/DX2                !
 ! D122  D(32,34,35,91)         -6.8986         estimate D2E/DX2                !
 ! D123  D(39,34,35,36)          0.4405         estimate D2E/DX2                !
 ! D124  D(39,34,35,91)        171.5588         estimate D2E/DX2                !
 ! D125  D(32,34,39,38)       -176.7286         estimate D2E/DX2                !
 ! D126  D(32,34,39,93)         -1.3321         estimate D2E/DX2                !
 ! D127  D(35,34,39,38)          4.8341         estimate D2E/DX2                !
 ! D128  D(35,34,39,93)       -179.7694         estimate D2E/DX2                !
 ! D129  D(34,35,36,37)         -3.4267         estimate D2E/DX2                !
 ! D130  D(34,35,36,92)        179.2676         estimate D2E/DX2                !
 ! D131  D(91,35,36,37)       -175.0634         estimate D2E/DX2                !
 ! D132  D(91,35,36,92)          7.6309         estimate D2E/DX2                !
 ! D133  D(35,36,37,38)          1.429          estimate D2E/DX2                !
 ! D134  D(35,36,37,40)       -173.6819         estimate D2E/DX2                !
 ! D135  D(92,36,37,38)        178.4769         estimate D2E/DX2                !
 ! D136  D(92,36,37,40)          3.3661         estimate D2E/DX2                !
 ! D137  D(36,37,38,39)          3.7297         estimate D2E/DX2                !
 ! D138  D(40,37,38,39)        179.2892         estimate D2E/DX2                !
 ! D139  D(36,37,40,41)          0.874          estimate D2E/DX2                !
 ! D140  D(36,37,40,44)       -178.5046         estimate D2E/DX2                !
 ! D141  D(38,37,40,41)       -174.7488         estimate D2E/DX2                !
 ! D142  D(38,37,40,44)          5.8726         estimate D2E/DX2                !
 ! D143  D(37,38,39,34)         -6.8051         estimate D2E/DX2                !
 ! D144  D(37,38,39,93)        177.8969         estimate D2E/DX2                !
 ! D145  D(37,40,41,42)       -177.3432         estimate D2E/DX2                !
 ! D146  D(44,40,41,42)          2.0721         estimate D2E/DX2                !
 ! D147  D(37,40,44,43)       -178.7064         estimate D2E/DX2                !
 ! D148  D(41,40,44,43)          1.8957         estimate D2E/DX2                !
 ! D149  D(40,41,42,43)         -6.3267         estimate D2E/DX2                !
 ! D150  D(40,41,42,94)       -176.1266         estimate D2E/DX2                !
 ! D151  D(41,42,43,44)          7.5089         estimate D2E/DX2                !
 ! D152  D(41,42,43,45)        179.1671         estimate D2E/DX2                !
 ! D153  D(94,42,43,44)        177.4481         estimate D2E/DX2                !
 ! D154  D(94,42,43,45)        -10.8938         estimate D2E/DX2                !
 ! D155  D(42,43,44,40)         -4.9464         estimate D2E/DX2                !
 ! D156  D(45,43,44,40)       -176.9711         estimate D2E/DX2                !
 ! D157  D(42,43,45,46)        153.3538         estimate D2E/DX2                !
 ! D158  D(42,43,45,50)        -21.4342         estimate D2E/DX2                !
 ! D159  D(44,43,45,46)        -36.3369         estimate D2E/DX2                !
 ! D160  D(44,43,45,50)        148.8751         estimate D2E/DX2                !
 ! D161  D(43,45,46,47)       -179.1187         estimate D2E/DX2                !
 ! D162  D(43,45,46,95)          9.5337         estimate D2E/DX2                !
 ! D163  D(50,45,46,47)         -3.9453         estimate D2E/DX2                !
 ! D164  D(50,45,46,95)       -175.2928         estimate D2E/DX2                !
 ! D165  D(43,45,50,49)        172.349          estimate D2E/DX2                !
 ! D166  D(43,45,50,97)          0.0709         estimate D2E/DX2                !
 ! D167  D(46,45,50,49)         -2.4301         estimate D2E/DX2                !
 ! D168  D(46,45,50,97)       -174.7082         estimate D2E/DX2                !
 ! D169  D(45,46,47,48)          7.9411         estimate D2E/DX2                !
 ! D170  D(45,46,47,96)       -176.8407         estimate D2E/DX2                !
 ! D171  D(95,46,47,48)        179.986          estimate D2E/DX2                !
 ! D172  D(95,46,47,96)         -4.7958         estimate D2E/DX2                !
 ! D173  D(46,47,48,49)         -6.5995         estimate D2E/DX2                !
 ! D174  D(46,47,48,51)        177.4436         estimate D2E/DX2                !
 ! D175  D(96,47,48,49)        178.6591         estimate D2E/DX2                !
 ! D176  D(96,47,48,51)          2.7022         estimate D2E/DX2                !
 ! D177  D(47,48,49,50)          0.6251         estimate D2E/DX2                !
 ! D178  D(51,48,49,50)        176.8481         estimate D2E/DX2                !
 ! D179  D(47,48,51,52)         -5.6151         estimate D2E/DX2                !
 ! D180  D(47,48,51,55)        178.0125         estimate D2E/DX2                !
 ! D181  D(49,48,51,52)        177.7937         estimate D2E/DX2                !
 ! D182  D(49,48,51,55)          1.4213         estimate D2E/DX2                !
 ! D183  D(48,49,50,45)          4.2931         estimate D2E/DX2                !
 ! D184  D(48,49,50,97)        177.4968         estimate D2E/DX2                !
 ! D185  D(48,51,52,53)       -177.9349         estimate D2E/DX2                !
 ! D186  D(55,51,52,53)         -1.1937         estimate D2E/DX2                !
 ! D187  D(48,51,55,54)        177.6383         estimate D2E/DX2                !
 ! D188  D(52,51,55,54)          1.0093         estimate D2E/DX2                !
 ! D189  D(51,52,53,54)          0.8141         estimate D2E/DX2                !
 ! D190  D(51,52,53,98)       -175.6875         estimate D2E/DX2                !
 ! D191  D(52,53,54,55)         -0.1116         estimate D2E/DX2                !
 ! D192  D(52,53,54,56)        176.5365         estimate D2E/DX2                !
 ! D193  D(98,53,54,55)        176.1379         estimate D2E/DX2                !
 ! D194  D(98,53,54,56)         -7.2141         estimate D2E/DX2                !
 ! D195  D(53,54,55,51)         -0.4961         estimate D2E/DX2                !
 ! D196  D(56,54,55,51)       -177.3459         estimate D2E/DX2                !
 ! D197  D(53,54,56,57)        -28.9154         estimate D2E/DX2                !
 ! D198  D(53,54,56,61)        149.1755         estimate D2E/DX2                !
 ! D199  D(55,54,56,57)        147.0909         estimate D2E/DX2                !
 ! D200  D(55,54,56,61)        -34.8182         estimate D2E/DX2                !
 ! D201  D(54,56,57,58)       -177.1337         estimate D2E/DX2                !
 ! D202  D(54,56,57,99)         -1.4277         estimate D2E/DX2                !
 ! D203  D(61,56,57,58)          4.6616         estimate D2E/DX2                !
 ! D204  D(61,56,57,99)       -179.6324         estimate D2E/DX2                !
 ! D205  D(54,56,61,60)       -178.0044         estimate D2E/DX2                !
 ! D206  D(54,56,61,101)        -2.3035         estimate D2E/DX2                !
 ! D207  D(57,56,61,60)          0.2154         estimate D2E/DX2                !
 ! D208  D(57,56,61,101)       175.9163         estimate D2E/DX2                !
 ! D209  D(56,57,58,59)         -6.3572         estimate D2E/DX2                !
 ! D210  D(56,57,58,100)       178.8933         estimate D2E/DX2                !
 ! D211  D(99,57,58,59)        178.1038         estimate D2E/DX2                !
 ! D212  D(99,57,58,100)         3.3543         estimate D2E/DX2                !
 ! D213  D(57,58,59,60)          3.2475         estimate D2E/DX2                !
 ! D214  D(57,58,59,62)        179.9694         estimate D2E/DX2                !
 ! D215  D(100,58,59,60)       177.9099         estimate D2E/DX2                !
 ! D216  D(100,58,59,62)        -5.3682         estimate D2E/DX2                !
 ! D217  D(58,59,60,61)          1.4717         estimate D2E/DX2                !
 ! D218  D(62,59,60,61)       -175.3931         estimate D2E/DX2                !
 ! D219  D(58,59,62,63)          0.0725         estimate D2E/DX2                !
 ! D220  D(58,59,62,66)        178.8422         estimate D2E/DX2                !
 ! D221  D(60,59,62,63)        177.1132         estimate D2E/DX2                !
 ! D222  D(60,59,62,66)         -4.1171         estimate D2E/DX2                !
 ! D223  D(59,60,61,56)         -3.1397         estimate D2E/DX2                !
 ! D224  D(59,60,61,101)      -179.1092         estimate D2E/DX2                !
 ! D225  D(59,62,63,64)       -178.1443         estimate D2E/DX2                !
 ! D226  D(66,62,63,64)          2.9829         estimate D2E/DX2                !
 ! D227  D(59,62,66,65)        179.1105         estimate D2E/DX2                !
 ! D228  D(63,62,66,65)         -1.9178         estimate D2E/DX2                !
 ! D229  D(62,63,64,65)         -2.9214         estimate D2E/DX2                !
 ! D230  D(62,63,64,102)      -179.9964         estimate D2E/DX2                !
 ! D231  D(63,64,65,66)          1.3882         estimate D2E/DX2                !
 ! D232  D(63,64,65,67)        179.4423         estimate D2E/DX2                !
 ! D233  D(102,64,65,66)       178.1602         estimate D2E/DX2                !
 ! D234  D(102,64,65,67)        -3.7857         estimate D2E/DX2                !
 ! D235  D(64,65,66,62)          0.3423         estimate D2E/DX2                !
 ! D236  D(67,65,66,62)       -177.9125         estimate D2E/DX2                !
 ! D237  D(64,65,67,68)       -145.0219         estimate D2E/DX2                !
 ! D238  D(64,65,67,72)         33.5501         estimate D2E/DX2                !
 ! D239  D(66,65,67,68)         32.8653         estimate D2E/DX2                !
 ! D240  D(66,65,67,72)       -148.5627         estimate D2E/DX2                !
 ! D241  D(65,67,68,69)       -177.1042         estimate D2E/DX2                !
 ! D242  D(65,67,68,103)        -0.7524         estimate D2E/DX2                !
 ! D243  D(72,67,68,69)          4.311          estimate D2E/DX2                !
 ! D244  D(72,67,68,103)      -179.3372         estimate D2E/DX2                !
 ! D245  D(65,67,72,71)        179.2935         estimate D2E/DX2                !
 ! D246  D(65,67,72,105)         2.1303         estimate D2E/DX2                !
 ! D247  D(68,67,72,71)         -2.0125         estimate D2E/DX2                !
 ! D248  D(68,67,72,105)      -179.1758         estimate D2E/DX2                !
 ! D249  D(67,68,69,70)         -2.8888         estimate D2E/DX2                !
 ! D250  D(67,68,69,104)      -178.7028         estimate D2E/DX2                !
 ! D251  D(103,68,69,70)      -179.2463         estimate D2E/DX2                !
 ! D252  D(103,68,69,104)        4.9398         estimate D2E/DX2                !
 ! D253  D(68,69,70,71)         -1.1232         estimate D2E/DX2                !
 ! D254  D(68,69,70,73)       -176.6369         estimate D2E/DX2                !
 ! D255  D(104,69,70,71)       174.8432         estimate D2E/DX2                !
 ! D256  D(104,69,70,73)        -0.6705         estimate D2E/DX2                !
 ! D257  D(69,70,71,72)          3.2987         estimate D2E/DX2                !
 ! D258  D(73,70,71,72)        179.2639         estimate D2E/DX2                !
 ! D259  D(69,70,73,74)         -1.3302         estimate D2E/DX2                !
 ! D260  D(69,70,73,77)       -179.946          estimate D2E/DX2                !
 ! D261  D(71,70,73,74)       -177.0756         estimate D2E/DX2                !
 ! D262  D(71,70,73,77)          4.3087         estimate D2E/DX2                !
 ! D263  D(70,71,72,67)         -1.7079         estimate D2E/DX2                !
 ! D264  D(70,71,72,105)       175.756          estimate D2E/DX2                !
 ! D265  D(70,73,74,75)       -178.3415         estimate D2E/DX2                !
 ! D266  D(77,73,74,75)          0.2865         estimate D2E/DX2                !
 ! D267  D(70,73,77,76)       -179.4145         estimate D2E/DX2                !
 ! D268  D(74,73,77,76)          1.9833         estimate D2E/DX2                !
 ! D269  D(73,74,75,76)         -3.1374         estimate D2E/DX2                !
 ! D270  D(73,74,75,106)       179.9487         estimate D2E/DX2                !
 ! D271  D(74,75,76,77)          4.6964         estimate D2E/DX2                !
 ! D272  D(74,75,76,107)       177.6328         estimate D2E/DX2                !
 ! D273  D(106,75,76,77)      -178.773          estimate D2E/DX2                !
 ! D274  D(106,75,76,107)       -5.8366         estimate D2E/DX2                !
 ! D275  D(75,76,77,73)         -3.687          estimate D2E/DX2                !
 ! D276  D(107,76,77,73)      -177.0968         estimate D2E/DX2                !
 --------------------------------------------------------------------------------
 Trust Radius=3.00D-01 FncErr=1.00D-07 GrdErr=1.00D-06 EigMax=2.50D+02 EigMin=1.00D-04
 Number of steps in this run=    595 maximum allowed number of steps=    642.
 GradGradGradGradGradGradGradGradGradGradGradGradGradGradGradGradGradGrad

 Leave Link  103 at Fri Jul 24 02:47:09 2020, MaxMem=  4026531840 cpu:               0.2 elap:               0.1
 (Enter /opt/ohpc/pub/libs/gaussian/g16-A.03/sandybridge/g16/l202.exe)
 Stoichiometry    C56H30N14S7
 Framework group  C1[X(C56H30N14S7)]
 Deg. of freedom   315
 Full point group                 C1      NOp   1
 Largest Abelian subgroup         C1      NOp   1
 Largest concise Abelian subgroup C1      NOp   1
                         Standard orientation:                         
 ---------------------------------------------------------------------
 Center     Atomic      Atomic             Coordinates (Angstroms)
 Number     Number       Type             X           Y           Z
 ---------------------------------------------------------------------
      1          6           0       26.636104   -0.126473   -1.132071
      2          6           0       25.614174   -0.531502   -1.888735
      3          6           0       24.283164   -0.332456   -1.472536
      4          6           0       24.151418    0.358234   -0.246231
      5          7           0       25.172476    0.803647    0.523972
      6          6           0       26.411267    0.562456    0.095060
      7          6           0       22.800976    0.663992    0.333551
      8          7           0       22.575273    1.594698    1.324229
      9          6           0       21.242495    1.625871    1.643101
     10          6           0       20.364914    0.766097    0.930418
     11         16           0       21.388905   -0.146323   -0.244878
     12          6           0       18.988081    0.513500    0.979127
     13          6           0       18.395031    0.346393    2.323015
     14          6           0       16.990937    0.133574    2.404044
     15          6           0       16.253827   -0.012573    1.176129
     16          7           0       16.751919    0.125125    0.023515
     17          6           0       18.144753    0.401222   -0.119830
     18          6           0       14.854143   -0.329896    1.286024
     19          7           0       14.186392   -0.671745    2.375963
     20          6           0       12.887012   -0.970324    2.147985
     21          6           0       12.437968   -0.694410    0.831169
     22         16           0       13.751140   -0.230376   -0.113994
     23          6           0       11.108402   -0.882554    0.341451
     24          6           0       10.327153   -2.042702    0.555217
     25          6           0        9.059005   -2.122711    0.062163
     26          6           0        8.546333   -1.030780   -0.712210
     27          7           0        9.253186   -0.027333   -1.036501
     28          6           0       10.570724    0.072613   -0.546809
     29          6           0        7.155978   -1.093782   -1.221040
     30          7           0        6.803868   -0.889931   -2.413250
     31          6           0        5.404198   -0.856350   -2.539571
     32          6           0        4.742683   -1.106888   -1.319795
     33         16           0        5.840913   -1.305938   -0.078244
     34          6           0        3.229165   -1.099370   -1.017045
     35          6           0        2.711197   -2.002544   -0.139644
     36          6           0        1.292241   -1.946714    0.043084
     37          6           0        0.569934   -1.041434   -0.544754
     38          7           0        1.063530   -0.100483   -1.389731
     39          6           0        2.352719   -0.178893   -1.669056
     40          6           0       -0.924961   -0.858268   -0.268470
     41          7           0       -1.532834   -1.622682    0.608377
     42          6           0       -2.850317   -1.321325    0.642678
     43          6           0       -3.257322   -0.199705   -0.129752
     44         16           0       -1.876109    0.302112   -1.065370
     45          6           0       -4.616948    0.343443   -0.292578
     46          6           0       -4.739186    1.756748   -0.604730
     47          6           0       -6.077102    2.292181   -0.744898
     48          6           0       -7.101791    1.463436   -0.408319
     49          7           0       -7.048661    0.167768   -0.074248
     50          6           0       -5.734797   -0.337240   -0.079399
     51          6           0       -8.522761    1.965575   -0.471270
     52          7           0       -8.812441    3.283946   -0.753261
     53          6           0      -10.141284    3.483214   -0.705642
     54          6           0      -10.968044    2.325590   -0.363014
     55         16           0       -9.845382    1.059018   -0.138357
     56          6           0      -12.411642    2.225816   -0.164409
     57          6           0      -13.188773    3.300445    0.295808
     58          6           0      -14.484110    3.111667    0.504434
     59          6           0      -15.079891    1.955575    0.163782
     60          7           0      -14.437113    0.860773   -0.354929
     61          6           0      -13.110008    1.070516   -0.456373
     62          6           0      -16.552731    1.768842    0.413163
     63          7           0      -17.417411    2.625760    0.953059
     64          6           0      -18.613364    2.104806    1.048624
     65          6           0      -18.790891    0.827720    0.535808
     66         16           0      -17.381569    0.251219   -0.057934
     67          6           0      -20.049635   -0.037358    0.510202
     68          6           0      -20.075988   -1.398009    0.639742
     69          6           0      -21.238857   -2.059561    0.543604
     70          6           0      -22.404547   -1.459910    0.380021
     71          7           0      -22.479563   -0.050136    0.320607
     72          6           0      -21.279886    0.606255    0.371906
     73          6           0      -23.768131   -2.173856    0.338520
     74          7           0      -23.807020   -3.500788    0.448385
     75          6           0      -25.169324   -3.906260    0.341223
     76          6           0      -26.039593   -2.810964    0.228299
     77         16           0      -25.202116   -1.298592    0.121336
     78          1           0       27.680448   -0.294521   -1.472891
     79          1           0       25.777783   -1.071651   -2.780952
     80          1           0       23.487039   -0.685235   -1.984294
     81          1           0       27.172669    0.949938    0.697752
     82          1           0       20.915948    2.291248    2.417524
     83          1           0       18.984121    0.474946    3.160633
     84          1           0       16.592907   -0.011079    3.373953
     85          1           0       18.447624    0.501855   -1.077496
     86          1           0       12.199813   -1.284281    3.009689
     87          1           0       10.683561   -2.842616    1.188751
     88          1           0        8.471366   -2.980616    0.333424
     89          1           0       11.104578    0.981725   -0.774437
     90          1           0        4.886250   -0.716066   -3.472638
     91          1           0        3.271052   -2.824660    0.304987
     92          1           0        0.874323   -2.722326    0.774336
     93          1           0        2.807563    0.545100   -2.384554
     94          1           0       -3.529066   -1.789300    1.340994
     95          1           0       -3.941432    2.388302   -0.862119
     96          1           0       -6.167132    3.334984   -1.029642
     97          1           0       -5.754479   -1.366183    0.238613
     98          1           0      -10.522853    4.453217   -0.974542
     99          1           0      -12.707595    4.207747    0.527694
    100          1           0      -15.122026    4.006759    0.906889
    101          1           0      -12.591241    0.220332   -0.878757
    102          1           0      -19.380062    2.726940    1.474727
    103          1           0      -19.108392   -1.973904    0.766656
    104          1           0      -21.267453   -3.193301    0.673269
    105          1           0      -21.398484    1.712068    0.244525
[...]
  Beta virt. eigenvalues --    1.50659   1.50676   1.51031   1.51093   1.51302
  Beta virt. eigenvalues --    1.51334   1.51990   1.52138   1.52392   1.52619
  Beta virt. eigenvalues --    1.53285   1.53379   1.53859   1.54045   1.54284
  Beta virt. eigenvalues --    1.54357   1.54863   1.55011   1.55097   1.55286
  Beta virt. eigenvalues --    1.55465   1.55869   1.56120   1.56238   1.56730
  Beta virt. eigenvalues --    1.56998   1.57598   1.57949   1.58433   1.58804
  Beta virt. eigenvalues --    1.58958   1.59680   1.59967   1.60312   1.60644
  Beta virt. eigenvalues --    1.61203   1.61423   1.61673   1.62045   1.62376
  Beta virt. eigenvalues --    1.62558   1.62741   1.63115   1.63384   1.63560
  Beta virt. eigenvalues --    1.63675   1.63889   1.64209   1.64237   1.64410
  Beta virt. eigenvalues --    1.64576   1.64866   1.65320   1.65410   1.65489
  Beta virt. eigenvalues --    1.65928   1.66153   1.66229   1.66751   1.66921
  Beta virt. eigenvalues --    1.67089   1.67101   1.67246   1.67459   1.67772
  Beta virt. eigenvalues --    1.68103   1.68224   1.68303   1.68412   1.68958
  Beta virt. eigenvalues --    1.69058   1.69207   1.69269   1.69499   1.69690
  Beta virt. eigenvalues --    1.69810   1.69965   1.70404   1.70518   1.70690
  Beta virt. eigenvalues --    1.70901   1.70969   1.71180   1.71409   1.71650
  Beta virt. eigenvalues --    1.71786   1.72183   1.72352   1.72488   1.72529
  Beta virt. eigenvalues --    1.72737   1.72970   1.73469   1.73729   1.73877
  Beta virt. eigenvalues --    1.74390   1.74672   1.75329   1.75659   1.75859
  Beta virt. eigenvalues --    1.75907   1.76151   1.76374   1.76461   1.76541
  Beta virt. eigenvalues --    1.76691   1.76941   1.77118   1.77141   1.77399
  Beta virt. eigenvalues --    1.78051   1.78598   1.79193   1.79255   1.79787
  Beta virt. eigenvalues --    1.80001   1.80391   1.80956   1.81232   1.81321
  Beta virt. eigenvalues --    1.81698   1.82300   1.82648   1.82974   1.83125
  Beta virt. eigenvalues --    1.83171   1.83607   1.83858   1.84079   1.84440
  Beta virt. eigenvalues --    1.84769   1.84999   1.85509   1.85989   1.86149
  Beta virt. eigenvalues --    1.86937   1.87297   1.87494   1.87614   1.88193
  Beta virt. eigenvalues --    1.88327   1.88603   1.88713   1.88854   1.89099
  Beta virt. eigenvalues --    1.89515   1.89658   1.89834   1.90118   1.90390
  Beta virt. eigenvalues --    1.90723   1.91323   1.91540   1.92115   1.92281
  Beta virt. eigenvalues --    1.92452   1.92543   1.93338   1.93495   1.93745
  Beta virt. eigenvalues --    1.93827   1.94178   1.94512   1.94968   1.95263
  Beta virt. eigenvalues --    1.95678   1.95738   1.95747   1.96077   1.96327
  Beta virt. eigenvalues --    1.96676   1.96815   1.97463   1.98228   1.98722
  Beta virt. eigenvalues --    1.98913   1.99026   1.99426   1.99647   1.99768
  Beta virt. eigenvalues --    1.99953   2.00831   2.01174   2.01298   2.01492
  Beta virt. eigenvalues --    2.01839   2.02474   2.02650   2.02762   2.02867
  Beta virt. eigenvalues --    2.03175   2.03262   2.03747   2.04013   2.04205
  Beta virt. eigenvalues --    2.04342   2.04506   2.04981   2.05643   2.05930
  Beta virt. eigenvalues --    2.06010   2.06236   2.06760   2.07047   2.07519
  Beta virt. eigenvalues --    2.07861   2.08114   2.08577   2.08672   2.09256
  Beta virt. eigenvalues --    2.09350   2.09949   2.10113   2.10226   2.10535
  Beta virt. eigenvalues --    2.10649   2.10914   2.11348   2.11665   2.11894
  Beta virt. eigenvalues --    2.12214   2.12319   2.12637   2.12751   2.13055
  Beta virt. eigenvalues --    2.13279   2.13390   2.14120   2.14199   2.15355
  Beta virt. eigenvalues --    2.15788   2.15895   2.16665   2.19258   2.20068
  Beta virt. eigenvalues --    2.20335   2.20507   2.20721   2.21756   2.22034
  Beta virt. eigenvalues --    2.22126   2.22482   2.25509   2.25748   2.26008
  Beta virt. eigenvalues --    2.26432   2.28171   2.28228   2.28887   2.29430
  Beta virt. eigenvalues --    2.29550   2.29739   2.30657   2.31197   2.31736
  Beta virt. eigenvalues --    2.32324   2.32626   2.32776   2.32970   2.33795
  Beta virt. eigenvalues --    2.36150   2.36399   2.36653   2.37061   2.37276
  Beta virt. eigenvalues --    2.37438   2.37875   2.38040   2.38148   2.38724
  Beta virt. eigenvalues --    2.39165   2.39568   2.40094   2.40110   2.40308
  Beta virt. eigenvalues --    2.40353   2.40400   2.41064   2.41373   2.42299
  Beta virt. eigenvalues --    2.42468   2.43090   2.43442   2.44038   2.44317
  Beta virt. eigenvalues --    2.44600   2.44906   2.45091   2.45403   2.47182
  Beta virt. eigenvalues --    2.47242   2.47386   2.47445   2.47637   2.47905
  Beta virt. eigenvalues --    2.48657   2.48960   2.49183   2.49208   2.49493
  Beta virt. eigenvalues --    2.49771   2.49784   2.51131   2.53907   2.54515
  Beta virt. eigenvalues --    2.54642   2.54742   2.54838   2.55059   2.55134
  Beta virt. eigenvalues --    2.55360   2.55413   2.60001   2.60134   2.60614
  Beta virt. eigenvalues --    2.61071   2.61548   2.61865   2.61936   2.62172
  Beta virt. eigenvalues --    2.62951   2.63107   2.64298   2.64343   2.64958
  Beta virt. eigenvalues --    2.66653   2.67089   2.67754   2.67920   2.68612
  Beta virt. eigenvalues --    2.71311   2.72305   2.75081   2.75262   2.75774
  Beta virt. eigenvalues --    2.75991   2.76113   2.76588   2.76970   2.80363
  Beta virt. eigenvalues --    2.80451   2.80794   2.81023   2.81501   2.82195
  Beta virt. eigenvalues --    2.82633   2.84533   2.85367   2.85814   2.85867
  Beta virt. eigenvalues --    2.86392   2.86484   2.86845   2.89048   2.89697
  Beta virt. eigenvalues --    2.90022   2.90514   2.90901   2.91091   2.91284
  Beta virt. eigenvalues --    2.92803   2.93167   2.93273   2.93475   2.93523
  Beta virt. eigenvalues --    2.93627   2.94501   2.98766   3.00028   3.00118
  Beta virt. eigenvalues --    3.01372   3.01792   3.02645   3.04235   3.12056
  Beta virt. eigenvalues --    3.12746   3.13559   3.14244   3.14616   3.15629
  Beta virt. eigenvalues --    3.17875   3.45798   3.46425   3.47024   3.47468
  Beta virt. eigenvalues --    3.47673   3.48246   3.53572
          Condensed to atoms (all electrons):
          Atomic-Atomic Spin Densities.
 Mulliken charges and spin densities:
               1          2
     1  C   -0.033696   0.000000
     2  C    0.066524  -0.000000
     3  C   -0.013587  -0.000000
     4  C    0.072352   0.000000
     5  N   -0.163638  -0.000000
     6  C    0.087051  -0.000000
     7  C   -0.008735  -0.000000
     8  N   -0.141866  -0.000000
     9  C    0.118898   0.000000
    10  C   -0.210719   0.000000
    11  S    0.148336   0.000000
    12  C   -0.019527  -0.000000
    13  C    0.066972   0.000000
    14  C    0.045049  -0.000000
    15  C    0.079539  -0.000000
    16  N   -0.204689   0.000000
    17  C    0.096551  -0.000000
    18  C   -0.013518   0.000000
    19  N   -0.179962  -0.000000
    20  C    0.120037  -0.000000
    21  C   -0.225454   0.000000
    22  S    0.207924  -0.000000
    23  C   -0.015654  -0.000000
    24  C    0.062006  -0.000000
    25  C    0.003376   0.000000
    26  C    0.079785  -0.000000
    27  N   -0.159667   0.000000
    28  C    0.089863   0.000000
    29  C   -0.013206   0.000000
    30  N   -0.141907   0.000000
    31  C    0.121866  -0.000000
    32  C   -0.209160  -0.000000
    33  S    0.144927  -0.000000
    34  C   -0.026558   0.000000
    35  C    0.070280  -0.000000
    36  C    0.044503   0.000000
    37  C    0.079033   0.000000
    38  N   -0.204719  -0.000000
    39  C    0.098574  -0.000000
    40  C   -0.012466   0.000000
    41  N   -0.179891   0.000000
    42  C    0.121790  -0.000000
    43  C   -0.224296   0.000000
    44  S    0.202345  -0.000000
    45  C   -0.026971   0.000000
    46  C    0.070216  -0.000000
    47  C    0.044387   0.000000
    48  C    0.078685   0.000000
    49  N   -0.204946   0.000000
    50  C    0.097482  -0.000000
    51  C   -0.012879  -0.000000
    52  N   -0.179633  -0.000000
    53  C    0.120068   0.000000
    54  C   -0.225097   0.000000
    55  S    0.204632   0.000000
    56  C   -0.021701  -0.000000
    57  C    0.066497   0.000000
    58  C    0.044779   0.000000
    59  C    0.079422  -0.000000
    60  N   -0.204839   0.000000
    61  C    0.096715   0.000000
    62  C   -0.013601   0.000000
    63  N   -0.180233   0.000000
    64  C    0.121027  -0.000000
    65  C   -0.223431   0.000000
    66  S    0.201271   0.000000
    67  C   -0.027811  -0.000000
    68  C    0.069452   0.000000
    69  C    0.042783  -0.000000
    70  C    0.084644  -0.000000
    71  N   -0.203513   0.000000
    72  C    0.095405   0.000000
    73  C   -0.030485  -0.000000
    74  N   -0.185098   0.000000
    75  C    0.114707   0.000000
    76  C   -0.177515  -0.000000
    77  S    0.198140   0.000000
    78  H    0.003180   0.000000
    79  H    0.005407  -0.000000
    80  H    0.007235  -0.000000
    81  H    0.013322   0.000000
    82  H    0.011103   0.000000
    83  H    0.000365  -0.000000
    84  H    0.008882   0.000000
    85  H    0.012112   0.000000
    86  H    0.008247  -0.000000
    87  H   -0.003458  -0.000000
    88  H    0.007048   0.000000
    89  H    0.016172  -0.000000
    90  H    0.014269  -0.000000
    91  H    0.001200   0.000000
    92  H    0.009278   0.000000
    93  H    0.011906   0.000000
    94  H    0.011709  -0.000000
    95  H    0.004243  -0.000000
    96  H    0.009069   0.000000
    97  H    0.009838  -0.000000
    98  H    0.009228   0.000000
    99  H   -0.001765  -0.000000
   100  H    0.008621  -0.000000
   101  H    0.014534  -0.000000
   102  H    0.010879  -0.000000
   103  H    0.003054   0.000000
   104  H    0.008020   0.000000
   105  H    0.008550  -0.000000
   106  H    0.007086   0.000000
   107  H    0.033437   0.000000
 Sum of Mulliken charges =  -0.00000   0.00000
 Mulliken charges and spin densities with hydrogens summed into heavy atoms:
               1          2
     1  C   -0.030516   0.000000
     2  C    0.071931  -0.000000
     3  C   -0.006351  -0.000000
     4  C    0.072352   0.000000
     5  N   -0.163638  -0.000000
     6  C    0.100372  -0.000000
     7  C   -0.008735  -0.000000
     8  N   -0.141866  -0.000000
     9  C    0.130002   0.000000
    10  C   -0.210719   0.000000
    11  S    0.148336   0.000000
    12  C   -0.019527  -0.000000
    13  C    0.067337   0.000000
    14  C    0.053932  -0.000000
    15  C    0.079539  -0.000000
    16  N   -0.204689   0.000000
    17  C    0.108663  -0.000000
    18  C   -0.013518   0.000000
    19  N   -0.179962  -0.000000
    20  C    0.128284  -0.000000
    21  C   -0.225454   0.000000
    22  S    0.207924  -0.000000
    23  C   -0.015654  -0.000000
    24  C    0.058547  -0.000000
    25  C    0.010424   0.000000
    26  C    0.079785  -0.000000
    27  N   -0.159667   0.000000
    28  C    0.106035   0.000000
    29  C   -0.013206   0.000000
    30  N   -0.141907   0.000000
    31  C    0.136135  -0.000000
    32  C   -0.209160  -0.000000
    33  S    0.144927  -0.000000
    34  C   -0.026558   0.000000
    35  C    0.071480  -0.000000
    36  C    0.053781   0.000000
    37  C    0.079033   0.000000
    38  N   -0.204719  -0.000000
    39  C    0.110481  -0.000000
    40  C   -0.012466   0.000000
    41  N   -0.179891   0.000000
    42  C    0.133498  -0.000000
    43  C   -0.224296   0.000000
    44  S    0.202345  -0.000000
    45  C   -0.026971   0.000000
    46  C    0.074459  -0.000000
    47  C    0.053456   0.000000
    48  C    0.078685   0.000000
    49  N   -0.204946   0.000000
    50  C    0.107320  -0.000000
    51  C   -0.012879  -0.000000
    52  N   -0.179633  -0.000000
    53  C    0.129296   0.000000
    54  C   -0.225097   0.000000
    55  S    0.204632   0.000000
    56  C   -0.021701  -0.000000
    57  C    0.064732   0.000000
    58  C    0.053401   0.000000
    59  C    0.079422  -0.000000
    60  N   -0.204839   0.000000
    61  C    0.111249   0.000000
    62  C   -0.013601   0.000000
    63  N   -0.180233   0.000000
    64  C    0.131907  -0.000000
    65  C   -0.223431   0.000000
    66  S    0.201271   0.000000
    67  C   -0.027811  -0.000000
    68  C    0.072506   0.000000
    69  C    0.050803   0.000000
    70  C    0.084644  -0.000000
    71  N   -0.203513   0.000000
    72  C    0.103955   0.000000
    73  C   -0.030485  -0.000000
    74  N   -0.185098   0.000000
    75  C    0.121793   0.000000
    76  C   -0.144079  -0.000000
    77  S    0.198140   0.000000
 Electronic spatial extent (au):  <R**2>=         516279.7839
 Charge=             -0.0000 electrons
 Dipole moment (field-independent basis, Debye):
    X=              3.8352    Y=             -0.7082    Z=              1.5486  Tot=              4.1963
 Quadrupole moment (field-independent basis, Debye-Ang):
   XX=           -441.5409   YY=           -459.6250   ZZ=           -467.3269
   XY=            -52.2201   XZ=             -4.2838   YZ=              6.9233
 Traceless Quadrupole moment (field-independent basis, Debye-Ang):
   XX=             14.6234   YY=             -3.4607   ZZ=            -11.1626
   XY=            -52.2201   XZ=             -4.2838   YZ=              6.9233
 Octapole moment (field-independent basis, Debye-Ang**2):
  XXX=            991.2824  YYY=            -96.6569  ZZZ=             16.8444  XYY=            247.1522
  XXY=          -1680.6636  XXZ=           -443.8999  XZZ=            126.3629  YZZ=             -4.8827
  YYZ=            -57.9933  XYZ=            436.4176
 Hexadecapole moment (field-independent basis, Debye-Ang**3):
 XXXX=        -634745.6951 YYYY=         -10827.1465 ZZZZ=          -4733.9546 XXXY=         -26896.9903
 XXXZ=         -18858.0133 YYYX=          -1345.2031 YYYZ=             98.2798 ZZZX=              5.6545
 ZZZY=             54.5198 XXYY=        -105696.7923 XXZZ=        -115749.9936 YYZZ=          -2466.7328
 XXYZ=           4680.1380 YYXZ=          -1374.9890 ZZXY=           -466.9966
 N-N= 9.759470607529D+03 E-N=-3.291840517026D+04  KE= 5.677595223168D+03
 Leave Link  601 at Fri Jul 24 07:23:10 2020, MaxMem=  4026531840 cpu:               8.2 elap:               1.1
 (Enter /opt/ohpc/pub/libs/gaussian/g16-A.03/sandybridge/g16/l9999.exe)

 Test job not archived.
 1\1\GINC-SKYLAKE038\FOpt\ULC-wPBE\CC-pVDZ\C56H30N14S7\RDU230\24-Jul-20
 20\0\\#P uLC-wPBE/cc-pVDZ iop(3/107=0276700000, 3/108=0276700000) opt\
 \H30 C56 S7 N14\\0,1\C,25.7193452288,-1.0853613684,-4.3008910444\C,24.
 4091357026,-1.0698253529,-4.7726756754\C,23.3749846673,-0.8530813172,-
 3.8660262085\C,23.6932297431,-0.6674422983,-2.5140030608\N,24.95111094
 16,-0.67958575,-2.0499675803\C,25.9288123344,-0.8814979539,-2.93516111
 44\C,22.6322155003,-0.434777455,-1.4998320833\N,22.8430358546,0.090037
 5859,-0.3230468811\C,21.6778342211,0.1735430297,0.3849650752\C,20.5399
 295402,-0.2917932109,-0.2322434434\S,20.97011901,-0.8774288686,-1.8053
 058423\C,19.1647286685,-0.3249886811,0.2875222935\C,18.9080281609,-0.4
 680203774,1.659613651\C,17.5960475187,-0.471173338,2.1134168052\C,16.5
 674152415,-0.3452945886,1.1736396804\N,16.7873093594,-0.2152068416,-0.
 1421651629\C,18.0514275817,-0.2017518234,-0.5601125035\C,15.1558190443
 ,-0.354966845,1.59849543\N,14.7551980312,-0.4736293134,2.8382947587\C,
 13.3900756783,-0.446972471,2.8998775545\C,12.725788689,-0.3082030056,1
 .7019775862\S,13.8888327046,-0.2060363985,0.4197196347\C,11.2743617256
 ,-0.2449778229,1.4734803511\C,10.373149452,-0.9212623733,2.3053157137\
 C,9.0095781371,-0.8138675693,2.0621692927\C,8.5712778697,-0.0357916339
 ,0.982578495\N,9.4191629977,0.6112191025,0.1699304852\C,10.7209000272,
 0.5030434501,0.4196373725\C,7.1284510599,0.1101787537,0.6673116247\N,6
 .6675017136,0.56637358,-0.4659532001\C,5.3018084237,0.5879456159,-0.46
 01896339\C,4.678397101,0.1510209607,0.6857345493\S,5.8941823207,-0.312
 0150189,1.83008147\C,3.2385624685,0.0665289144,0.9727989349\C,2.686277
 4073,-0.9365737811,1.7827133512\C,1.3150651012,-0.9652967552,1.9983622
 1\C,0.5265628055,0.0139831474,1.3852572746\N,1.0316624702,0.9857948592
 ,0.6121324366\C,2.3498254788,1.0071640159,0.4248452267\C,-0.9360287256
 ,0.0239505018,1.5691907699\N,-1.5988880898,-0.8431278994,2.2900108023\
 C,-2.9366577293,-0.5626268543,2.2596106812\C,-3.3154860053,0.527641315
 6,1.5091278157\S,-1.9045340681,1.242648131,0.7982010222\C,-4.670613228
 ,1.0602474032,1.2992581897\C,-4.9255691398,2.4292937932,1.1313129526\C
 ,-6.2314020554,2.866094318,0.9532076632\C,-7.2558989927,1.9137755709,0
 .9563026871\N,-7.0368004215,0.599858466,1.1078202945\C,-5.7778673952,0
 .195640397,1.2653872668\C,-8.6619701681,2.3224333353,0.7856663237\N,-9
 .0613140778,3.5578460386,0.626163046\C,-10.4212937084,3.6039938137,0.4
 965694316\C,-11.0832045876,2.3983351816,0.5567638228\S,-9.9246946681,1
 .12948044,0.7923921606\C,-12.5291526664,2.1520462919,0.4440850308\C,-1
 3.4673095478,3.0987449271,0.8828973228\C,-14.8228864541,2.8374964586,0
 .737241766\C,-15.2072061328,1.6197137031,0.1657121576\N,-14.3303490116
 ,0.6965763074,-0.2534125615\C,-13.0336063667,0.9675830609,-0.117851564
 9\C,-16.6332715353,1.2866075325,-0.0029603048\N,-17.6233475588,2.06359
 48661,0.3531433985\C,-18.8208785307,1.4701877217,0.0642849058\C,-18.76
 09882636,0.2259391593,-0.521789391\S,-17.0984007916,-0.2248181864,-0.7
 221997697\C,-19.8767955448,-0.6384320324,-0.9369802015\C,-19.808160635
 4,-2.0383828212,-0.8821376343\C,-20.9047732761,-2.7935371027,-1.275161
 1006\C,-22.0535542581,-2.1225279128,-1.7079414964\N,-22.140563373,-0.7
 864867626,-1.77532349\C,-21.0756754709,-0.0765591052,-1.4067766514\C,-
 23.2507817076,-2.877375461,-2.1238171118\N,-23.3393730229,-4.182141219
 4,-2.1199896045\C,-24.5768805987,-4.5757590155,-2.5601567727\C,-25.434
 3786576,-3.564082385,-2.9006887375\S,-24.6741423903,-2.0390851804,-2.6
 660160392\H,26.5670764309,-1.2493472888,-4.9743068172\H,24.191792094,-
 1.2175346031,-5.8364706567\H,22.3346372314,-0.8151300557,-4.2078778441
 \H,26.948661662,-0.8841123039,-2.5251923131\H,21.694529066,0.621676475
 5,1.3835267646\H,19.737277565,-0.593235859,2.3646023379\H,17.343265373
 3,-0.5812137475,3.1720328014\H,18.1977058122,-0.0763201807,-1.64241688
 26\H,12.8991615111,-0.5102899758,3.8760472305\H,10.7398239582,-1.54801
 19521,3.1255450282\H,8.2953742066,-1.3525509021,2.6945930458\H,11.3835
 495131,1.0600411187,-0.2589615956\H,4.7713197578,0.9200581418,-1.35811
 01686\H,3.3318578785,-1.700478943,2.2319194639\H,0.8352610031,-1.72774
 28002,2.6188817808\H,2.7362567718,1.8314334794,-0.1896934504\H,-3.6260
 878125,-1.1850392402,2.8382878036\H,-4.1003116392,3.1507825539,1.15319
 76718\H,-6.4826401349,3.9224949354,0.8210123807\H,-5.6283829916,-0.888
 6098209,1.3580398392\H,-10.9086321706,4.569762345,0.3304723719\H,-13.1
 31339129,4.0298397837,1.3526626876\H,-15.5936404308,3.5415974229,1.064
 1605453\H,-12.3411623736,0.1976896403,-0.4869286739\H,-19.7496705682,1
 .9855226111,0.3275595299\H,-18.8988773759,-2.5322308865,-0.5194760052\
 H,-20.9030925074,-3.8871023854,-1.2488955834\H,-21.1682048121,1.014011
 4588,-1.500941078\H,-24.8116819547,-5.6428190104,-2.6163041858\H,-26.4
 580690606,-3.6423116091,-3.2718009316\\Version=EM64L-G16RevA.03\State=
 1-A\HF=-5702.8760829\S2=0.\S2-1=0.\S2A=0.\RMSD=4.479e-09\RMSF=2.268e-0
 6\Dipole=1.5067758,-0.6454764,0.1963985\Quadrupole=11.3082853,-10.9152
 772,-0.3930081,-22.8802849,-31.4663028,1.8970849\PG=C01 [X(C56H30N14S7
 )]\\@


 Some scientists claim that hydrogen, because it is so
 plentiful, is the basic building block of the universe. 
 I dispute that. I say that stupidity is far more
 abundant than hydrogen, and THAT is the basic building 
 block of the universe.
                   --Frank Zappa
 Job cpu time:       1 days 12 hours  7 minutes  1.9 seconds.
 Elapsed time:       0 days  4 hours 35 minutes 59.3 seconds.
 File lengths (MBytes):  RWF=   1772 Int=      0 D2E=      0 Chk=    160 Scr=      8
 Normal termination of Gaussian 16 at Fri Jul 24 07:23:10 2020.
