 Entering Gaussian System, Link 0=g16
 Input=mols_55_3_07_N-N_opt_0.gjf
 Output=mols_55_3_07_N-N_opt_0.log
 Initial command:
 /opt/ohpc/pub/libs/gaussian/g16-A.03/sandybridge/g16/l1.exe "/mnt/gpfs2_4m/scratch/rdu230/ondemand/projects/dihedral_energies/7trial/wtuning/redos_512cycles/mols_55_3_07_N-N/Gau-185086.inp" -scrdir="/mnt/gpfs2_4m/scratch/rdu230/ondemand/projects/dihedral_energies/7trial/wtuning/redos_512cycles/mols_55_3_07_N-N/"
 Entering Link 1 = /opt/ohpc/pub/libs/gaussian/g16-A.03/sandybridge/g16/l1.exe PID=    185087.
  
 Copyright (c) 1988,1990,1992,1993,1995,1998,2003,2009,2016,
            Gaussian, Inc.  All Rights Reserved.
  
 This is part of the Gaussian(R) 16 program.  It is based on
 the Gaussian(R) 09 system (copyright 2009, Gaussian, Inc.),
 the Gaussian(R) 03 system (copyright 2003, Gaussian, Inc.),
 the Gaussian(R) 98 system (copyright 1998, Gaussian, Inc.),
 the Gaussian(R) 94 system (copyright 1995, Gaussian, Inc.),
 the Gaussian 92(TM) system (copyright 1992, Gaussian, Inc.),
 the Gaussian 90(TM) system (copyright 1990, Gaussian, Inc.),
 the Gaussian 88(TM) system (copyright 1988, Gaussian, Inc.),
 the Gaussian 86(TM) system (copyright 1986, Carnegie Mellon
 University), and the Gaussian 82(TM) system (copyright 1983,
 Carnegie Mellon University). Gaussian is a federally registered
 trademark of Gaussian, Inc.
  
 This software contains proprietary and confidential information,
 including trade secrets, belonging to Gaussian, Inc.
  
 This software is provided under written license and may be
 used, copied, transmitted, or stored only in accord with that
 written license.
  
 The following legend is applicable only to US Government
 contracts under FAR:
  
                    RESTRICTED RIGHTS LEGEND
  
 Use, reproduction and disclosure by the US Government is
 subject to restrictions as set forth in subparagraphs (a)
 and (c) of the Commercial Computer Software - Restricted
 Rights clause in FAR 52.227-19.
  
 Gaussian, Inc.
 340 Quinnipiac St., Bldg. 40, Wallingford CT 06492
  
  
 ---------------------------------------------------------------
 Warning -- This program may not be used in any manner that
 competes with the business of Gaussian, Inc. or will provide
 assistance to any competitor of Gaussian, Inc.  The licensee
 of this program is prohibited from giving any competitor of
 Gaussian, Inc. access to this program.  By using this program,
 the user acknowledges that Gaussian, Inc. is engaged in the
 business of creating and licensing software in the field of
 computational chemistry and represents and warrants to the
 licensee that it is not a competitor of Gaussian, Inc. and that
 it will not use this program in any manner prohibited above.
 ---------------------------------------------------------------
  

 Cite this work as:
 Gaussian 16, Revision A.03,
 M. J. Frisch, G. W. Trucks, H. B. Schlegel, G. E. Scuseria, 
 M. A. Robb, J. R. Cheeseman, G. Scalmani, V. Barone, 
 G. A. Petersson, H. Nakatsuji, X. Li, M. Caricato, A. V. Marenich, 
 J. Bloino, B. G. Janesko, R. Gomperts, B. Mennucci, H. P. Hratchian, 
 J. V. Ortiz, A. F. Izmaylov, J. L. Sonnenberg, D. Williams-Young, 
 F. Ding, F. Lipparini, F. Egidi, J. Goings, B. Peng, A. Petrone, 
 T. Henderson, D. Ranasinghe, V. G. Zakrzewski, J. Gao, N. Rega, 
 G. Zheng, W. Liang, M. Hada, M. Ehara, K. Toyota, R. Fukuda, 
 J. Hasegawa, M. Ishida, T. Nakajima, Y. Honda, O. Kitao, H. Nakai, 
 T. Vreven, K. Throssell, J. A. Montgomery, Jr., J. E. Peralta, 
 F. Ogliaro, M. J. Bearpark, J. J. Heyd, E. N. Brothers, K. N. Kudin, 
 V. N. Staroverov, T. A. Keith, R. Kobayashi, J. Normand, 
 K. Raghavachari, A. P. Rendell, J. C. Burant, S. S. Iyengar, 
 J. Tomasi, M. Cossi, J. M. Millam, M. Klene, C. Adamo, R. Cammi, 
 J. W. Ochterski, R. L. Martin, K. Morokuma, O. Farkas, 
 J. B. Foresman, and D. J. Fox, Gaussian, Inc., Wallingford CT, 2016.
 
 ******************************************
 Gaussian 16:  EM64L-G16RevA.03 25-Dec-2016
                26-Jul-2020 
 ******************************************
 %mem=30GB
 %nproc=8
 Will use up to    8 processors via shared memory.
 ---------------------------------------------------------------
 #P uLC-wPBE/cc-pVDZ iop(3/107=0139800000, 3/108=0139800000) opt
 ---------------------------------------------------------------
 1/18=20,19=15,26=3,38=1/1,3;
 2/9=110,12=2,17=6,18=5,40=1/2;
 3/5=16,11=2,25=1,30=1,71=1,74=-41,107=139800000,108=139800000,116=2/1,2,3;
 4//1;
 5/5=2,38=5/2;
 6/7=2,8=2,9=2,10=2,28=1/1;
 7//1,2,3,16;
 1/18=20,19=15,26=3/3(2);
 2/9=110/2;
 99//99;
 2/9=110/2;
 3/5=16,11=2,25=1,30=1,71=1,74=-41,107=139800000,108=139800000,116=2/1,2,3;
 4/5=5,16=3,69=1/1;
 5/5=2,38=5/2;
 7//1,2,3,16;
 1/18=20,19=15,26=3/3(-5);
 2/9=110/2;
 6/7=2,8=2,9=2,10=2,19=2,28=1/1;
 99/9=1/99;
 Leave Link    1 at Sun Jul 26 12:21:17 2020, MaxMem=  4026531840 cpu:               2.3 elap:               0.3
 (Enter /opt/ohpc/pub/libs/gaussian/g16-A.03/sandybridge/g16/l101.exe)
 ------------
 H8 C18 S6 N6
 ------------
 Symbolic Z-matrix:
 Charge =  0 Multiplicity = 1
 C                    -10.80712  -0.14439  -0.0006 
 C                    -10.269   -1.35254   0.04493 
 N                    -8.84642  -1.31122   0.01349 
 C                    -8.44595  -0.13998  -0.0194 
 S                    -9.66705   1.08376  -0.01203 
 C                    -7.00341   0.25135  -0.03272 
 N                    -6.51005   1.41151   0.01639 
 C                    -5.19336   1.46556   0.01425 
 C                    -4.56975   0.23774  -0.00281 
 S                    -5.8081   -1.04702  -0.02157 
 C                    -3.1029   -0.13919  -0.01705 
 C                    -2.51089  -1.3689    0.02913 
 N                    -1.14494  -1.39785   0.04594 
 C                    -0.71867  -0.11677  -0.00966 
 S                    -1.91571   1.01508   0.02615 
 C                     0.67227   0.19787   0.01752 
 N                     1.16673   1.39681  -0.0499 
 C                     2.54669   1.40872   0.0447 
 C                     3.17759   0.17597  -0.02142 
 S                     1.87299  -1.0509    0.02561 
 C                     4.52308  -0.21672  -0.03111 
 C                     5.14375  -1.48558   0.00013 
 N                     6.53785  -1.40034   0.00709 
 C                     6.95068  -0.2207    0.0121 
 S                     5.7713    0.97353  -0.0335 
 C                     8.37937   0.12573   0.04063 
 N                     8.86656   1.39991   0.02195 
 C                     10.29094   1.3563   -0.02338 
 C                     10.81431   0.10488  -0.04503 
 S                     9.63523  -1.05959  -0.01241 
 H                    -11.84816   0.17174   0.01752 
 H                    -10.7791  -2.31157   0.04532 
 H                    -4.64801   2.38728   0.04817 
 H                    -3.04345  -2.36841   0.03002 
 H                     3.06194   2.36082   0.04352 
 H                     4.67281  -2.38183   0.03168 
 H                     10.82026   2.25896  -0.00378 
 H                     11.8948  -0.09692   0.00736 
 
 ITRead=  0  0  0  0  0  0  0  0  0  0  0  0  0  0  0  0  0  0  0  0
 ITRead=  0  0  0  0  0  0  0  0  0  0  0  0  0  0  0  0  0  0
 MicOpt= -1 -1 -1 -1 -1 -1 -1 -1 -1 -1 -1 -1 -1 -1 -1 -1 -1 -1 -1 -1
 MicOpt= -1 -1 -1 -1 -1 -1 -1 -1 -1 -1 -1 -1 -1 -1 -1 -1 -1 -1
 NAtoms=     38 NQM=       38 NQMF=       0 NMMI=      0 NMMIF=      0
                NMic=       0 NMicF=      0.
                    Isotopes and Nuclear Properties:
 (Nuclear quadrupole moments (NQMom) in fm**2, nuclear magnetic moments (NMagM)
  in nuclear magnetons)

  Atom         1           2           3           4           5           6           7           8           9          10
 IAtWgt=          12          12          14          12          32          12          14          12          12          32
 AtmWgt=  12.0000000  12.0000000  14.0030740  12.0000000  31.9720718  12.0000000  14.0030740  12.0000000  12.0000000  31.9720718
 NucSpn=           0           0           2           0           0           0           2           0           0           0
 AtZEff=  -0.0000000  -0.0000000  -0.0000000  -0.0000000  -0.0000000  -0.0000000  -0.0000000  -0.0000000  -0.0000000  -0.0000000
 NQMom=    0.0000000   0.0000000   2.0440000   0.0000000   0.0000000   0.0000000   2.0440000   0.0000000   0.0000000   0.0000000
 NMagM=    0.0000000   0.0000000   0.4037610   0.0000000   0.0000000   0.0000000   0.4037610   0.0000000   0.0000000   0.0000000
 AtZNuc=   6.0000000   6.0000000   7.0000000   6.0000000  16.0000000   6.0000000   7.0000000   6.0000000   6.0000000  16.0000000

  Atom        11          12          13          14          15          16          17          18          19          20
 IAtWgt=          12          12          14          12          32          12          14          12          12          32
 AtmWgt=  12.0000000  12.0000000  14.0030740  12.0000000  31.9720718  12.0000000  14.0030740  12.0000000  12.0000000  31.9720718
 NucSpn=           0           0           2           0           0           0           2           0           0           0
 AtZEff=  -0.0000000  -0.0000000  -0.0000000  -0.0000000  -0.0000000  -0.0000000  -0.0000000  -0.0000000  -0.0000000  -0.0000000
 NQMom=    0.0000000   0.0000000   2.0440000   0.0000000   0.0000000   0.0000000   2.0440000   0.0000000   0.0000000   0.0000000
 NMagM=    0.0000000   0.0000000   0.4037610   0.0000000   0.0000000   0.0000000   0.4037610   0.0000000   0.0000000   0.0000000
 AtZNuc=   6.0000000   6.0000000   7.0000000   6.0000000  16.0000000   6.0000000   7.0000000   6.0000000   6.0000000  16.0000000

  Atom        21          22          23          24          25          26          27          28          29          30
 IAtWgt=          12          12          14          12          32          12          14          12          12          32
 AtmWgt=  12.0000000  12.0000000  14.0030740  12.0000000  31.9720718  12.0000000  14.0030740  12.0000000  12.0000000  31.9720718
 NucSpn=           0           0           2           0           0           0           2           0           0           0
 AtZEff=  -0.0000000  -0.0000000  -0.0000000  -0.0000000  -0.0000000  -0.0000000  -0.0000000  -0.0000000  -0.0000000  -0.0000000
 NQMom=    0.0000000   0.0000000   2.0440000   0.0000000   0.0000000   0.0000000   2.0440000   0.0000000   0.0000000   0.0000000
 NMagM=    0.0000000   0.0000000   0.4037610   0.0000000   0.0000000   0.0000000   0.4037610   0.0000000   0.0000000   0.0000000
 AtZNuc=   6.0000000   6.0000000   7.0000000   6.0000000  16.0000000   6.0000000   7.0000000   6.0000000   6.0000000  16.0000000

  Atom        31          32          33          34          35          36          37          38
 IAtWgt=           1           1           1           1           1           1           1           1
 AtmWgt=   1.0078250   1.0078250   1.0078250   1.0078250   1.0078250   1.0078250   1.0078250   1.0078250
 NucSpn=           1           1           1           1           1           1           1           1
 AtZEff=  -0.0000000  -0.0000000  -0.0000000  -0.0000000  -0.0000000  -0.0000000  -0.0000000  -0.0000000
 NQMom=    0.0000000   0.0000000   0.0000000   0.0000000   0.0000000   0.0000000   0.0000000   0.0000000
 NMagM=    2.7928460   2.7928460   2.7928460   2.7928460   2.7928460   2.7928460   2.7928460   2.7928460
 AtZNuc=   1.0000000   1.0000000   1.0000000   1.0000000   1.0000000   1.0000000   1.0000000   1.0000000
 Leave Link  101 at Sun Jul 26 12:21:18 2020, MaxMem=  4026531840 cpu:               3.2 elap:               0.5
 (Enter /opt/ohpc/pub/libs/gaussian/g16-A.03/sandybridge/g16/l103.exe)

 GradGradGradGradGradGradGradGradGradGradGradGradGradGradGradGradGradGrad
 Berny optimization.
 Initialization pass.
                           ----------------------------
                           !    Initial Parameters    !
                           ! (Angstroms and Degrees)  !
 --------------------------                            --------------------------
 ! Name  Definition              Value          Derivative Info.                !
 --------------------------------------------------------------------------------
 ! R1    R(1,2)                  1.3234         estimate D2E/DX2                !
 ! R2    R(1,5)                  1.6758         estimate D2E/DX2                !
 ! R3    R(1,31)                 1.0881         estimate D2E/DX2                !
 ! R4    R(2,3)                  1.4235         estimate D2E/DX2                !
 ! R5    R(2,32)                 1.0863         estimate D2E/DX2                !
 ! R6    R(3,4)                  1.2382         estimate D2E/DX2                !
 ! R7    R(4,5)                  1.7288         estimate D2E/DX2                !
 ! R8    R(4,6)                  1.4947         estimate D2E/DX2                !
 ! R9    R(6,7)                  1.2617         estimate D2E/DX2                !
 ! R10   R(6,10)                 1.7648         estimate D2E/DX2                !
 ! R11   R(7,8)                  1.3178         estimate D2E/DX2                !
 ! R12   R(8,9)                  1.3772         estimate D2E/DX2                !
 ! R13   R(8,33)                 1.0715         estimate D2E/DX2                !
 ! R14   R(9,10)                 1.7845         estimate D2E/DX2                !
 ! R15   R(9,11)                 1.5146         estimate D2E/DX2                !
 ! R16   R(11,12)                1.3656         estimate D2E/DX2                !
 ! R17   R(11,15)                1.6564         estimate D2E/DX2                !
 ! R18   R(12,13)                1.3664         estimate D2E/DX2                !
 ! R19   R(12,34)                1.1325         estimate D2E/DX2                !
 ! R20   R(13,14)                1.3513         estimate D2E/DX2                !
 ! R21   R(14,15)                1.6478         estimate D2E/DX2                !
 ! R22   R(14,16)                1.4263         estimate D2E/DX2                !
 ! R23   R(16,17)                1.2987         estimate D2E/DX2                !
 ! R24   R(16,20)                1.7324         estimate D2E/DX2                !
 ! R25   R(17,18)                1.3833         estimate D2E/DX2                !
 ! R26   R(18,19)                1.3864         estimate D2E/DX2                !
 ! R27   R(18,35)                1.0826         estimate D2E/DX2                !
 ! R28   R(19,20)                1.7915         estimate D2E/DX2                !
 ! R29   R(19,21)                1.4016         estimate D2E/DX2                !
 ! R30   R(21,22)                1.4129         estimate D2E/DX2                !
 ! R31   R(21,25)                1.7248         estimate D2E/DX2                !
 ! R32   R(22,23)                1.3967         estimate D2E/DX2                !
 ! R33   R(22,36)                1.0129         estimate D2E/DX2                !
 ! R34   R(23,24)                1.2498         estimate D2E/DX2                !
 ! R35   R(24,25)                1.679          estimate D2E/DX2                !
 ! R36   R(24,26)                1.4704         estimate D2E/DX2                !
 ! R37   R(26,27)                1.3643         estimate D2E/DX2                !
 ! R38   R(26,30)                1.7277         estimate D2E/DX2                !
 ! R39   R(27,28)                1.4258         estimate D2E/DX2                !
 ! R40   R(28,29)                1.3566         estimate D2E/DX2                !
 ! R41   R(28,37)                1.0466         estimate D2E/DX2                !
 ! R42   R(29,30)                1.6575         estimate D2E/DX2                !
 ! R43   R(29,38)                1.1004         estimate D2E/DX2                !
 ! A1    A(2,1,5)              113.1209         estimate D2E/DX2                !
 ! A2    A(2,1,31)             130.8208         estimate D2E/DX2                !
 ! A3    A(5,1,31)             115.981          estimate D2E/DX2                !
 ! A4    A(1,2,3)              112.2784         estimate D2E/DX2                !
 ! A5    A(1,2,32)             127.9578         estimate D2E/DX2                !
 ! A6    A(3,2,32)             119.6641         estimate D2E/DX2                !
 ! A7    A(2,3,4)              110.5632         estimate D2E/DX2                !
 ! A8    A(3,4,5)              116.1679         estimate D2E/DX2                !
 ! A9    A(3,4,6)              124.0557         estimate D2E/DX2                !
 ! A10   A(5,4,6)              119.7611         estimate D2E/DX2                !
 ! A11   A(1,5,4)               87.8098         estimate D2E/DX2                !
 ! A12   A(4,6,7)              128.1541         estimate D2E/DX2                !
 ! A13   A(4,6,10)             117.4501         estimate D2E/DX2                !
 ! A14   A(7,6,10)             114.2935         estimate D2E/DX2                !
 ! A15   A(6,7,8)              115.3635         estimate D2E/DX2                !
 ! A16   A(7,8,9)              114.5746         estimate D2E/DX2                !
 ! A17   A(7,8,33)             122.9397         estimate D2E/DX2                !
 ! A18   A(9,8,33)             122.4683         estimate D2E/DX2                !
 ! A19   A(8,9,10)             109.1329         estimate D2E/DX2                !
 ! A20   A(8,9,11)             131.3399         estimate D2E/DX2                !
 ! A21   A(10,9,11)            119.5256         estimate D2E/DX2                !
 ! A22   A(6,10,9)              86.5838         estimate D2E/DX2                !
 ! A23   A(9,11,12)            130.0648         estimate D2E/DX2                !
 ! A24   A(9,11,15)            121.3644         estimate D2E/DX2                !
 ! A25   A(12,11,15)           108.4166         estimate D2E/DX2                !
 ! A26   A(11,12,13)           116.9294         estimate D2E/DX2                !
 ! A27   A(11,12,34)           126.2206         estimate D2E/DX2                !
 ! A28   A(13,12,34)           116.8329         estimate D2E/DX2                !
 ! A29   A(12,13,14)           107.1432         estimate D2E/DX2                !
 ! A30   A(13,14,15)           114.9071         estimate D2E/DX2                !
 ! A31   A(13,14,16)           121.0619         estimate D2E/DX2                !
 ! A32   A(15,14,16)           123.8129         estimate D2E/DX2                !
 ! A33   A(11,15,14)            92.3749         estimate D2E/DX2                !
 ! A34   A(14,16,17)           125.0267         estimate D2E/DX2                !
 ! A35   A(14,16,20)           121.1299         estimate D2E/DX2                !
 ! A36   A(17,16,20)           113.6927         estimate D2E/DX2                !
 ! A37   A(16,17,18)           112.5962         estimate D2E/DX2                !
 ! A38   A(17,18,19)           116.3002         estimate D2E/DX2                !
 ! A39   A(17,18,35)           118.8362         estimate D2E/DX2                !
 ! A40   A(19,18,35)           124.4277         estimate D2E/DX2                !
 ! A41   A(18,19,20)           106.039          estimate D2E/DX2                !
 ! A42   A(18,19,21)           133.3362         estimate D2E/DX2                !
 ! A43   A(20,19,21)           120.4882         estimate D2E/DX2                !
 ! A44   A(16,20,19)            90.6281         estimate D2E/DX2                !
 ! A45   A(19,21,22)           132.3105         estimate D2E/DX2                !
 ! A46   A(19,21,25)           120.0916         estimate D2E/DX2                !
 ! A47   A(22,21,25)           107.5693         estimate D2E/DX2                !
 ! A48   A(21,22,23)           112.5679         estimate D2E/DX2                !
 ! A49   A(21,22,36)           126.2324         estimate D2E/DX2                !
 ! A50   A(23,22,36)           121.191          estimate D2E/DX2                !
 ! A51   A(22,23,24)           112.7878         estimate D2E/DX2                !
 ! A52   A(23,24,25)           116.0526         estimate D2E/DX2                !
 ! A53   A(23,24,26)           122.9163         estimate D2E/DX2                !
 ! A54   A(25,24,26)           121.0277         estimate D2E/DX2                !
 ! A55   A(21,25,24)            91.0012         estimate D2E/DX2                !
 ! A56   A(24,26,27)           124.5251         estimate D2E/DX2                !
 ! A57   A(24,26,30)           122.9602         estimate D2E/DX2                !
 ! A58   A(27,26,30)           112.3805         estimate D2E/DX2                !
 ! A59   A(26,27,28)           109.1855         estimate D2E/DX2                !
 ! A60   A(27,28,29)           114.4648         estimate D2E/DX2                !
 ! A61   A(27,28,37)           118.5733         estimate D2E/DX2                !
 ! A62   A(29,28,37)           126.9256         estimate D2E/DX2                !
 ! A63   A(28,29,30)           111.9203         estimate D2E/DX2                !
 ! A64   A(28,29,38)           123.1756         estimate D2E/DX2                !
 ! A65   A(30,29,38)           124.6599         estimate D2E/DX2                !
 ! A66   A(26,30,29)            92.0459         estimate D2E/DX2                !
 ! D1    D(5,1,2,3)             -2.5936         estimate D2E/DX2                !
 ! D2    D(5,1,2,32)          -178.9046         estimate D2E/DX2                !
 ! D3    D(31,1,2,3)          -179.2104         estimate D2E/DX2                !
 ! D4    D(31,1,2,32)            4.4785         estimate D2E/DX2                !
 ! D5    D(2,1,5,4)              2.2361         estimate D2E/DX2                !
 ! D6    D(31,1,5,4)           179.3886         estimate D2E/DX2                !
 ! D7    D(1,2,3,4)              1.499          estimate D2E/DX2                !
 ! D8    D(32,2,3,4)           178.1521         estimate D2E/DX2                !
 ! D9    D(2,3,4,5)              0.2394         estimate D2E/DX2                !
 ! D10   D(2,3,4,6)            178.807          estimate D2E/DX2                !
 ! D11   D(3,4,5,1)             -1.4154         estimate D2E/DX2                !
 ! D12   D(6,4,5,1)            179.9516         estimate D2E/DX2                !
 ! D13   D(3,4,6,7)           -175.2685         estimate D2E/DX2                !
 ! D14   D(3,4,6,10)             0.8181         estimate D2E/DX2                !
 ! D15   D(5,4,6,7)              3.2505         estimate D2E/DX2                !
 ! D16   D(5,4,6,10)           179.3371         estimate D2E/DX2                !
 ! D17   D(4,6,7,8)            178.7569         estimate D2E/DX2                !
 ! D18   D(10,6,7,8)             2.5669         estimate D2E/DX2                !
 ! D19   D(4,6,10,9)          -178.611          estimate D2E/DX2                !
 ! D20   D(7,6,10,9)            -1.9866         estimate D2E/DX2                !
 ! D21   D(6,7,8,9)             -1.7758         estimate D2E/DX2                !
 ! D22   D(6,7,8,33)           179.7085         estimate D2E/DX2                !
 ! D23   D(7,8,9,10)             0.1694         estimate D2E/DX2                !
 ! D24   D(7,8,9,11)           179.6844         estimate D2E/DX2                !
 ! D25   D(33,8,9,10)          178.6929         estimate D2E/DX2                !
 ! D26   D(33,8,9,11)           -1.792          estimate D2E/DX2                !
 ! D27   D(8,9,10,6)             0.941          estimate D2E/DX2                !
 ! D28   D(11,9,10,6)         -178.6406         estimate D2E/DX2                !
 ! D29   D(8,9,11,12)          176.5424         estimate D2E/DX2                !
 ! D30   D(8,9,11,15)            1.6081         estimate D2E/DX2                !
 ! D31   D(10,9,11,12)          -3.9842         estimate D2E/DX2                !
 ! D32   D(10,9,11,15)        -178.9184         estimate D2E/DX2                !
 ! D33   D(9,11,12,13)        -177.8578         estimate D2E/DX2                !
 ! D34   D(9,11,12,34)           3.7004         estimate D2E/DX2                !
 ! D35   D(15,11,12,13)         -2.4157         estimate D2E/DX2                !
 ! D36   D(15,11,12,34)        179.1426         estimate D2E/DX2                !
 ! D37   D(9,11,15,14)         179.7661         estimate D2E/DX2                !
 ! D38   D(12,11,15,14)          3.8504         estimate D2E/DX2                !
 ! D39   D(11,12,13,14)         -0.8703         estimate D2E/DX2                !
 ! D40   D(34,12,13,14)        177.7209         estimate D2E/DX2                !
 ! D41   D(12,13,14,15)          3.937          estimate D2E/DX2                !
 ! D42   D(12,13,14,16)        178.7683         estimate D2E/DX2                !
 ! D43   D(13,14,15,11)         -4.7279         estimate D2E/DX2                !
 ! D44   D(16,14,15,11)       -179.3986         estimate D2E/DX2                !
 ! D45   D(13,14,16,17)        179.0098         estimate D2E/DX2                !
 ! D46   D(13,14,16,20)          3.7597         estimate D2E/DX2                !
 ! D47   D(15,14,16,17)         -6.634          estimate D2E/DX2                !
 ! D48   D(15,14,16,20)        178.1159         estimate D2E/DX2                !
 ! D49   D(14,16,17,18)        177.9269         estimate D2E/DX2                !
 ! D50   D(20,16,17,18)         -6.5126         estimate D2E/DX2                !
 ! D51   D(14,16,20,19)        177.3784         estimate D2E/DX2                !
 ! D52   D(17,16,20,19)          1.625          estimate D2E/DX2                !
 ! D53   D(16,17,18,19)          9.8729         estimate D2E/DX2                !
 ! D54   D(16,17,18,35)       -177.3648         estimate D2E/DX2                !
 ! D55   D(17,18,19,20)         -8.0919         estimate D2E/DX2                !
 ! D56   D(17,18,19,21)        176.2989         estimate D2E/DX2                !
 ! D57   D(35,18,19,20)        179.5975         estimate D2E/DX2                !
 ! D58   D(35,18,19,21)          3.9882         estimate D2E/DX2                !
 ! D59   D(18,19,20,16)          3.563          estimate D2E/DX2                !
 ! D60   D(21,19,20,16)        179.8581         estimate D2E/DX2                !
 ! D61   D(18,19,21,22)        174.5405         estimate D2E/DX2                !
 ! D62   D(18,19,21,25)         -3.2476         estimate D2E/DX2                !
 ! D63   D(20,19,21,22)         -0.5615         estimate D2E/DX2                !
 ! D64   D(20,19,21,25)       -178.3496         estimate D2E/DX2                !
 ! D65   D(19,21,22,23)       -178.5277         estimate D2E/DX2                !
 ! D66   D(19,21,22,36)          0.4045         estimate D2E/DX2                !
 ! D67   D(25,21,22,23)         -0.535          estimate D2E/DX2                !
 ! D68   D(25,21,22,36)        178.3971         estimate D2E/DX2                !
 ! D69   D(19,21,25,24)        178.0302         estimate D2E/DX2                !
 ! D70   D(22,21,25,24)         -0.2543         estimate D2E/DX2                !
 ! D71   D(21,22,23,24)          1.3824         estimate D2E/DX2                !
 ! D72   D(36,22,23,24)       -177.6107         estimate D2E/DX2                !
 ! D73   D(22,23,24,25)         -1.6314         estimate D2E/DX2                !
 ! D74   D(22,23,24,26)        179.0378         estimate D2E/DX2                !
 ! D75   D(23,24,25,21)          1.1236         estimate D2E/DX2                !
 ! D76   D(26,24,25,21)       -179.5321         estimate D2E/DX2                !
 ! D77   D(23,24,26,27)        178.7285         estimate D2E/DX2                !
 ! D78   D(23,24,26,30)          3.2649         estimate D2E/DX2                !
 ! D79   D(25,24,26,27)         -0.5699         estimate D2E/DX2                !
 ! D80   D(25,24,26,30)       -176.0334         estimate D2E/DX2                !
 ! D81   D(24,26,27,28)       -176.4543         estimate D2E/DX2                !
 ! D82   D(30,26,27,28)         -0.5699         estimate D2E/DX2                !
 ! D83   D(24,26,30,29)        176.4669         estimate D2E/DX2                !
 ! D84   D(27,26,30,29)          0.508          estimate D2E/DX2                !
 ! D85   D(26,27,28,29)          0.3723         estimate D2E/DX2                !
 ! D86   D(26,27,28,37)       -177.5876         estimate D2E/DX2                !
 ! D87   D(27,28,29,30)          0.0026         estimate D2E/DX2                !
 ! D88   D(27,28,29,38)       -174.5546         estimate D2E/DX2                !
 ! D89   D(37,28,29,30)        177.7613         estimate D2E/DX2                !
 ! D90   D(37,28,29,38)          3.2042         estimate D2E/DX2                !
 ! D91   D(28,29,30,26)         -0.2812         estimate D2E/DX2                !
 ! D92   D(38,29,30,26)        174.18           estimate D2E/DX2                !
 --------------------------------------------------------------------------------
 Trust Radius=3.00D-01 FncErr=1.00D-07 GrdErr=1.00D-06 EigMax=2.50D+02 EigMin=1.00D-04
 Number of steps in this run=    211 maximum allowed number of steps=    228.
 GradGradGradGradGradGradGradGradGradGradGradGradGradGradGradGradGradGrad

 Leave Link  103 at Sun Jul 26 12:21:18 2020, MaxMem=  4026531840 cpu:               0.2 elap:               0.0
 (Enter /opt/ohpc/pub/libs/gaussian/g16-A.03/sandybridge/g16/l202.exe)
                          Input orientation:                          
 ---------------------------------------------------------------------
 Center     Atomic      Atomic             Coordinates (Angstroms)
 Number     Number       Type             X           Y           Z
 ---------------------------------------------------------------------
      1          6           0      -10.807124   -0.144388   -0.000596
      2          6           0      -10.269005   -1.352536    0.044927
      3          7           0       -8.846422   -1.311222    0.013489
      4          6           0       -8.445950   -0.139982   -0.019397
      5         16           0       -9.667051    1.083763   -0.012025
      6          6           0       -7.003406    0.251349   -0.032724
      7          7           0       -6.510052    1.411506    0.016394
      8          6           0       -5.193356    1.465555    0.014251
      9          6           0       -4.569748    0.237736   -0.002806
     10         16           0       -5.808100   -1.047018   -0.021568
     11          6           0       -3.102895   -0.139191   -0.017052
     12          6           0       -2.510885   -1.368900    0.029130
     13          7           0       -1.144936   -1.397853    0.045943
     14          6           0       -0.718672   -0.116766   -0.009662
     15         16           0       -1.915706    1.015080    0.026150
     16          6           0        0.672266    0.197865    0.017522
     17          7           0        1.166727    1.396814   -0.049898
     18          6           0        2.546687    1.408716    0.044704
     19          6           0        3.177593    0.175966   -0.021421
     20         16           0        1.872989   -1.050900    0.025613
     21          6           0        4.523075   -0.216724   -0.031112
     22          6           0        5.143746   -1.485576    0.000125
     23          7           0        6.537853   -1.400337    0.007090
     24          6           0        6.950684   -0.220699    0.012102
     25         16           0        5.771305    0.973526   -0.033501
     26          6           0        8.379366    0.125728    0.040629
     27          7           0        8.866557    1.399907    0.021949
     28          6           0       10.290941    1.356298   -0.023383
     29          6           0       10.814311    0.104880   -0.045025
     30         16           0        9.635233   -1.059587   -0.012414
     31          1           0      -11.848156    0.171739    0.017522
     32          1           0      -10.779105   -2.311571    0.045321
     33          1           0       -4.648005    2.387279    0.048169
     34          1           0       -3.043453   -2.368410    0.030015
     35          1           0        3.061939    2.360818    0.043521
     36          1           0        4.672805   -2.381831    0.031680
     37          1           0       10.820257    2.258962   -0.003784
     38          1           0       11.894799   -0.096923    0.007357
 ---------------------------------------------------------------------
                    Distance matrix (angstroms):
                    1          2          3          4          5
     1  C    0.000000
     2  C    1.323354   0.000000
     3  N    2.281678   1.423530   0.000000
     4  C    2.361253   2.190423   1.238250   0.000000
     5  S    1.675784   2.510208   2.531805   1.728784   0.000000
     6  C    3.824384   3.639040   2.416707   1.494741   2.790761
     7  N    4.570112   4.665884   3.587740   2.481148   3.174093
     8  C    5.840079   5.805583   4.588614   3.627430   4.490034
     9  C    6.249071   5.917159   4.548569   3.894597   5.167044
    10  S    5.079904   4.471849   3.049989   2.789439   4.408154
    11  C    7.704248   7.268368   5.861970   5.343056   6.677109
    12  C    8.386173   7.758153   6.335819   6.061154   7.564916
    13  N    9.743265   9.124182   7.702042   7.408867   8.876273
    14  C   10.088494   9.630107   8.215083   7.727319   9.028553
    15  S    8.966738   8.682371   7.310723   6.631767   7.751743
    16  C   11.484505  11.050607   9.637571   9.124547  10.377243
    17  N   12.072731  11.761968  10.373072   9.734795  10.838366
    18  C   13.443900  13.109785  11.713324  11.101380  12.218192
    19  C   13.988401  13.533356  12.115687  11.627836  12.876687
    20  S   12.712502  12.145755  10.722578  10.359165  11.735873
    21  C   15.330400  14.835818  13.414297  12.969257  14.249607
    22  C   16.007156  15.413390  13.991261  13.656165  15.032011
    23  N   17.390391  16.806969  15.384534  15.036740  16.394207
    24  C   17.757977  17.256878  15.834702  15.396878  16.668873
    25  S   16.616110  16.208278  14.795277  14.260801  15.438765
    26  C   19.188436  18.706871  17.285640  16.827521  18.071906
    27  N   19.734211  19.332517  17.919261  17.380905  18.536335
    28  C   21.151381  20.737739  19.322414  18.796541  19.959856
    29  C   21.622917  21.133820  19.711753  19.261834  20.504768
    30  S   20.462837  19.906476  18.483386  18.104555  19.420920
    31  H    1.088123   2.194968   3.348074   3.416656   2.364293
    32  H    2.167850   1.086255   2.176459   3.188040   3.573268
    33  H    6.659314   6.751434   5.595250   4.562455   5.185904
    34  H    8.076001   7.296631   5.898506   5.844254   7.469358
    35  H   14.093577  13.838463  12.461695  11.776649  12.793011
    36  H   15.640825  14.977226  13.561565  13.309028  14.752753
    37  H   21.760508  21.396314  19.988116  19.414992  20.520988
    38  H   22.701974  22.199373  20.776737  20.340812  21.594161
                    6          7          8          9         10
     6  C    0.000000
     7  N    1.261656   0.000000
     8  C    2.180088   1.317807   0.000000
     9  C    2.433880   2.267793   1.377214   0.000000
    10  S    1.764834   2.557053   2.586932   1.784506   0.000000
    11  C    3.920045   3.743594   2.635568   1.514574   2.853472
    12  C    4.776168   4.870745   3.902564   2.611746   3.313277
    13  N    6.086684   6.056223   4.958812   3.795638   4.676830
    14  C    6.295548   5.989689   4.746273   3.867364   5.173760
    15  S    5.145041   4.611428   3.308483   2.765690   4.405140
    16  C    7.676023   7.284135   6.001047   5.242205   6.598970
    17  N    8.250058   7.677079   6.360778   5.852591   7.390624
    18  C    9.620279   9.056784   7.740312   7.212288   8.708472
    19  C   10.181284   9.766189   8.469776   7.747610   9.068537
    20  S    8.971602   8.737214   7.501060   6.570407   7.681235
    21  C   11.535981  11.152725   9.861093   9.104217  10.364490
    22  C   12.270749  12.008512  10.750119   9.865180  10.960645
    23  N   13.641677  13.347448  12.076202  11.227742  12.351041
    24  C   13.962144  13.559334  12.260553  11.529559  12.785558
    25  S   12.795108  12.289265  10.975799  10.367242  11.754376
    26  C   15.383460  14.944851  13.638717  12.949671  14.235989
    27  N   15.911565  15.376614  14.060068  13.486495  14.877328
    28  C   17.329612  16.801131  15.484728  14.902741  16.277440
    29  C   17.818323  17.373675  16.065502  15.384691  16.662292
    30  S   16.690215  16.333320  15.042078  14.264103  15.443341
    31  H    4.845665   5.480180   6.779405   7.278736   6.161913
    32  H    4.564050   5.664535   6.743014   6.712481   5.129762
    33  H    3.180669   2.102466   1.071510   2.151571   3.625614
    34  H    4.748505   5.128865   4.395636   3.020373   3.064639
    35  H   10.284301   9.618989   8.303749   7.921633   9.502377
    36  H   11.969615  11.808723  10.589798   9.606670  10.565696
    37  H   17.936396  17.351029  16.033266  15.522165  16.953822
    38  H   18.901456  18.466564  17.159441  16.467951  17.728400
                   11         12         13         14         15
    11  C    0.000000
    12  C    1.365574   0.000000
    13  N    2.328476   1.366359   0.000000
    14  C    2.384340   2.186635   1.351287   0.000000
    15  S    1.656389   2.457154   2.533125   1.647801   0.000000
    16  C    3.790335   3.547864   2.418542   1.426338   2.713948
    17  N    4.537627   4.602200   3.628103   2.418113   3.106911
    18  C    5.858123   5.770132   4.637339   3.604528   4.479759
    19  C    6.288392   5.894739   4.600620   3.907264   5.162177
    20  S    5.058899   4.395394   3.037871   2.755097   4.315378
    21  C    7.626377   7.127954   5.790281   5.242744   6.555801
    22  C    8.355844   7.655575   6.289461   6.020106   7.489314
    23  N    9.722916   9.048819   7.682888   7.369192   8.791886
    24  C   10.053952   9.530999   8.180825   7.670091   8.952107
    25  S    8.943704   8.607297   7.311918   6.580965   7.687355
    26  C   11.485462  10.992343   9.645396   9.101408  10.333425
    27  N   12.068062  11.709506  10.395096   9.704530  10.789129
    28  C   13.477068  13.088782  11.763054  11.107731  12.211516
    29  C   13.919374  13.406654  12.053633  11.535167  12.762714
    30  S   12.771337  12.150127  10.785633  10.396743  11.735839
    31  H    8.750855   9.463526  10.817733  11.133256   9.968192
    32  H    7.977927   8.321800   9.677401  10.297209   9.467144
    33  H    2.962207   4.321635   5.157395   4.659747   3.057593
    34  H    2.230508   1.132541   2.132276   3.236678   3.566487
    35  H    6.652736   6.705771   5.641401   4.520428   5.156381
    36  H    8.092794   7.254753   5.900384   5.848098   7.412659
    37  H   14.128180  13.815998  12.511619  11.780959  12.796597
    38  H   14.997773  14.461747  13.104526  12.613498  13.855214
                   16         17         18         19         20
    16  C    0.000000
    17  N    1.298659   0.000000
    18  C    2.231670   1.383250   0.000000
    19  C    2.505725   2.352629   1.386394   0.000000
    20  S    1.732402   2.548688   2.550283   1.791481   0.000000
    21  C    3.873368   3.724101   2.560061   1.401649   2.778853
    22  C    4.777909   4.911960   3.888911   2.574285   3.299613
    23  N    6.079430   6.056096   4.880738   3.711723   4.677970
    24  C    6.292357   6.006193   4.695875   3.794032   5.145134
    25  S    5.157950   4.624022   3.254791   2.713594   4.393024
    26  C    7.707472   7.324344   5.972120   5.202386   6.611930
    27  N    8.281988   7.700166   6.319917   5.819298   7.410564
    28  C    9.688269   9.124342   7.744731   7.210611   8.755508
    29  C   10.142664   9.733704   8.370284   7.637085   9.015989
    30  S    9.050793   8.817647   7.506215   6.574784   7.762342
    31  H   12.520449  13.072587  14.447919  15.025800  13.775512
    32  H   11.723137  12.508561  13.835363  14.176802  12.714762
    33  H    5.753239   5.899300   7.260936   8.132326   7.371902
    34  H    4.515805   5.648798   6.746596   6.721451   5.089917
    35  H    3.223287   2.128347   1.082582   2.188874   3.612996
    36  H    4.760183   5.155327   4.346124   2.963242   3.100062
    37  H   10.355206   9.692062   8.317285   7.921458   9.539898
    38  H   11.226409  10.831715   9.468661   8.721524  10.067129
                   21         22         23         24         25
    21  C    0.000000
    22  C    1.412867   0.000000
    23  N    2.337034   1.396728   0.000000
    24  C    2.427997   2.205693   1.249800   0.000000
    25  S    1.724755   2.538138   2.494889   1.679044   0.000000
    26  C    3.872131   3.614855   2.391897   1.470360   2.743399
    27  N    4.634884   4.710182   3.642039   2.509388   3.124974
    28  C    5.978523   5.879661   4.656784   3.693981   4.535827
    29  C    6.299466   5.889558   4.533926   3.877741   5.117283
    30  S    5.181209   4.511660   3.116128   2.812674   4.366226
    31  H   16.375911  17.072543  18.453099  18.802937  17.637768
    32  H   15.445094  15.944325  17.340959  17.852682  16.873475
    33  H    9.533930  10.529943  11.809790  11.888332  10.515103
    34  H    7.866755   8.234714   9.630115  10.222317   9.427223
    35  H    2.963817   4.373848   5.121483   4.667714   3.044861
    36  H    2.171186   1.012943   2.107686   3.140001   3.531200
    37  H    6.766407   6.800320   5.632901   4.595929   5.210100
    38  H    7.372798   6.892396   5.513235   4.945666   6.216487
                   26         27         28         29         30
    26  C    0.000000
    27  N    1.364271   0.000000
    28  C    2.274317   1.425772   0.000000
    29  C    2.436540   2.339941   1.356625   0.000000
    30  S    1.727712   2.577044   2.503313   1.657490   0.000000
    31  H   20.227588  20.751090  22.170802  22.662652  21.518668
    32  H   19.312883  19.993190  21.387025  21.728392  20.452775
    33  H   13.222219  13.550608  14.974650  15.630139  14.693381
    34  H   11.691947  12.491942  13.844940  14.076946  12.746133
    35  H    5.768073   5.883656   7.298767   8.074427   7.410161
    36  H    4.475101   5.647052   6.748340   6.626289   5.135754
    37  H    3.242007   2.134381   1.046595   2.154485   3.523794
    38  H    3.522634   3.378012   2.164522   1.100419   2.456166
                   31         32         33         34         35
    31  H    0.000000
    32  H    2.703788   0.000000
    33  H    7.533374   7.724609   0.000000
    34  H    9.163804   7.735876   5.019113   0.000000
    35  H   15.069959  14.608413   7.709991   7.722797   0.000000
    36  H   16.717149  15.452076  10.470061   7.716270   5.008767
    37  H   22.764312  22.077695  15.468881  14.615614   7.759131
    38  H   23.744477  22.781836  16.728338  15.109981   9.168490
                   36         37         38
    36  H    0.000000
    37  H    7.702557   0.000000
    38  H    7.574866   2.589394   0.000000
 Stoichiometry    C18H8N6S6
 Framework group  C1[X(C18H8N6S6)]
 Deg. of freedom   108
 Full point group                 C1      NOp   1
 Largest Abelian subgroup         C1      NOp   1
 Largest concise Abelian subgroup C1      NOp   1
                         Standard orientation:                         
 ---------------------------------------------------------------------
 Center     Atomic      Atomic             Coordinates (Angstroms)
 Number     Number       Type             X           Y           Z
 ---------------------------------------------------------------------
      1          6           0       10.799863    0.128795   -0.007177
      2          6           0       10.263590    1.337936    0.033491
      3          7           0        8.840931    1.298639    0.002930
      4          6           0        8.438676    0.127876   -0.024794
      5         16           0        9.657932   -1.097670   -0.012839
      6          6           0        6.995536   -0.261327   -0.035751
      7          7           0        6.500457   -1.420519    0.018526
      8          6           0        5.183680   -1.472587    0.017262
      9          6           0        4.561917   -0.243911   -0.004690
     10         16           0        5.802197    1.038880   -0.029508
     11          6           0        3.095627    0.135168   -0.019810
     12          6           0        2.505497    1.365955    0.021453
     13          7           0        1.139601    1.397043    0.038817
     14          6           0        0.711377    0.116377   -0.011148
     15         16           0        1.906720   -1.017114    0.028869
     16          6           0       -0.680020   -0.196034    0.018055
     17          7           0       -1.176323   -1.394509   -0.044039
     18          6           0       -2.556252   -1.403925    0.051293
     19          6           0       -3.185330   -0.170515   -0.019744
     20         16           0       -1.878853    1.054567    0.021447
     21          6           0       -4.530223    0.224163   -0.030435
     22          6           0       -5.148963    1.494072   -0.004269
     23          7           0       -6.543193    1.410970    0.003745
     24          6           0       -6.957801    0.231989    0.013959
     25         16           0       -5.780248   -0.964199   -0.027164
     26          6           0       -8.386990   -0.112155    0.044659
     27          7           0       -8.876112   -1.385664    0.031620
     28          6           0      -10.300451   -1.340095   -0.013194
     29          6           0      -10.821943   -0.087991   -0.039881
     30         16           0       -9.641093    1.074821   -0.012787
     31          1           0       11.840426   -0.188825    0.011766
     32          1           0       10.775137    2.296192    0.029569
     33          1           0        4.636956   -2.393334    0.055355
     34          1           0        3.039573    2.364654    0.017839
     35          1           0       -3.072941   -2.355244    0.054399
     36          1           0       -4.676655    2.389741    0.023255
     37          1           0      -10.831119   -2.241867    0.010491
     38          1           0      -11.902099    0.115664    0.012179
 ---------------------------------------------------------------------
 Rotational constants (GHZ):           0.9197673           0.0228840           0.0223292
 Leave Link  202 at Sun Jul 26 12:21:18 2020, MaxMem=  4026531840 cpu:               0.3 elap:               0.1
 (Enter /opt/ohpc/pub/libs/gaussian/g16-A.03/sandybridge/g16/l301.exe)
 Standard basis: CC-pVDZ (5D, 7F)
 Ernie: Thresh=  0.10000D-02 Tol=  0.10000D-05 Strict=F.
 Ernie:  108 primitive shells out of 868 were deleted.
 There are   514 symmetry adapted cartesian basis functions of A   symmetry.
 There are   484 symmetry adapted basis functions of A   symmetry.
   484 basis functions,  1274 primitive gaussians,   514 cartesian basis functions
   127 alpha electrons      127 beta electrons
       nuclear repulsion energy      3275.9287574564 Hartrees.
 IExCor=32609 DFT=T Ex+Corr=LC-wPBE ExCW=0 ScaHFX=  1.000000
 ScaDFX=  1.000000  0.000000  1.000000  1.000000 ScalE2=  1.000000  1.000000
 IRadAn=      5 IRanWt=     -1 IRanGd=            0 ICorTp=0 IEmpDi=  4
 HFx  wShort=  0.000000 wLong=  0.139800 cFull=  0.000000 cShort=  0.000000 cLong=  1.000000
 DFx  wShort=  0.000000 wLong=  0.139800 cFull=  0.000000 cShort=  0.000000 cLong=  1.000000
 NAtoms=   38 NActive=   38 NUniq=   38 SFac= 1.00D+00 NAtFMM=   60 NAOKFM=F Big=F
 Integral buffers will be    131072 words long.
 Raffenetti 2 integral format.
 Two-electron integral symmetry is turned on.
 Leave Link  301 at Sun Jul 26 12:21:18 2020, MaxMem=  4026531840 cpu:               0.4 elap:               0.1
 (Enter /opt/ohpc/pub/libs/gaussian/g16-A.03/sandybridge/g16/l302.exe)
 NPDir=0 NMtPBC=     1 NCelOv=     1 NCel=       1 NClECP=     1 NCelD=      1
         NCelK=      1 NCelE2=     1 NClLst=     1 CellRange=     0.0.
 One-electron integrals computed using PRISM.
 One-electron integral symmetry used in STVInt
 NBasis=   484 RedAO= T EigKep=  3.61D-04  NBF=   484
 NBsUse=   484 1.00D-06 EigRej= -1.00D+00 NBFU=   484
 Precomputing XC quadrature grid using
 IXCGrd= 4 IRadAn=           5 IRanWt=          -1 IRanGd=           0 AccXCQ= 0.00D+00.
 Generated NRdTot=       0 NPtTot=           0 NUsed=           0 NTot=          32
 NSgBfM=   428   428   428   428   428 MxSgAt=    38 MxSgA2=    38.
 Leave Link  302 at Sun Jul 26 12:21:19 2020, MaxMem=  4026531840 cpu:               5.2 elap:               0.7
 (Enter /opt/ohpc/pub/libs/gaussian/g16-A.03/sandybridge/g16/l303.exe)
 DipDrv:  MaxL=1.
 Leave Link  303 at Sun Jul 26 12:21:19 2020, MaxMem=  4026531840 cpu:               0.6 elap:               0.1
 (Enter /opt/ohpc/pub/libs/gaussian/g16-A.03/sandybridge/g16/l401.exe)
 ExpMin= 1.22D-01 ExpMax= 1.11D+05 ExpMxC= 1.07D+03 IAcc=3 IRadAn=         5 AccDes= 0.00D+00
 Harris functional with IExCor=32609 and IRadAn=       5 diagonalized for initial guess.
 HarFok:  IExCor=32609 AccDes= 0.00D+00 IRadAn=         5 IDoV= 1 UseB2=F ITyADJ=14
 ICtDFT=  3500011 ScaDFX=  1.000000  1.000000  1.000000  1.000000
 FoFCou: FMM=F IPFlag=           0 FMFlag=      100000 FMFlg1=           0
         NFxFlg=           0 DoJE=T BraDBF=F KetDBF=T FulRan=T
         wScrn=  0.000000 ICntrl=       500 IOpCl=  0 I1Cent=   200000004 NGrid=           0
         NMat0=    1 NMatS0=      1 NMatT0=    0 NMatD0=    1 NMtDS0=    0 NMtDT0=    0
 Petite list used in FoFCou.
 Harris En= -3406.41424302144    
 JPrj=0 DoOrth=F DoCkMO=F.
 Initial guess <Sx>= 0.0000 <Sy>= 0.0000 <Sz>= 0.0000 <S**2>=-0.0000 S=-0.0000
 Leave Link  401 at Sun Jul 26 12:21:22 2020, MaxMem=  4026531840 cpu:              23.0 elap:               2.9
 (Enter /opt/ohpc/pub/libs/gaussian/g16-A.03/sandybridge/g16/l502.exe)
 Integral symmetry usage will be decided dynamically.
 UHF open shell SCF:
 Using DIIS extrapolation, IDIIS=  1040.
 NGot=  4026531840 LenX=  4025994278 LenY=  4025729568
 Requested convergence on RMS density matrix=1.00D-08 within 128 cycles.
 Requested convergence on MAX density matrix=1.00D-06.
 Requested convergence on             energy=1.00D-06.
 No special actions if energy rises.
 Fock matrices will be formed incrementally for  20 cycles.
 Integral accuracy reduced to 1.0D-05 until final iterations.

 Cycle   1  Pass 0  IDiag  1:
 FoFJK:  IHMeth= 1 ICntrl=       0 DoSepK=T KAlg= 0 I1Cent=           0 FoldK=F
 IRaf=         1 NMat=       1 IRICut=       1 DoRegI=T DoRafI=F ISym2E= 0 IDoP0=0 IntGTp=1.
 FoFCou: FMM=F IPFlag=           0 FMFlag=      100000 FMFlg1=           0
         NFxFlg=           0 DoJE=T BraDBF=F KetDBF=F FulRan=T
         wScrn=  0.000000 ICntrl=       500 IOpCl=  0 I1Cent=           0 NGrid=           0
         NMat0=    1 NMatS0=      1 NMatT0=    0 NMatD0=    1 NMtDS0=    0 NMtDT0=    0
 Symmetry not used in FoFCou.
 E= -3405.97920010158    
 DIIS: error= 1.80D-02 at cycle   1 NSaved=   1.
 NSaved= 1 IEnMin= 1 EnMin= -3405.97920010158     IErMin= 1 ErrMin= 1.80D-02
 ErrMax= 1.80D-02  0.00D+00 EMaxC= 1.00D-01 BMatC= 2.25D+00 BMatP= 2.25D+00
 IDIUse=3 WtCom= 8.20D-01 WtEn= 1.80D-01
 Coeff-Com:  0.100D+01
 Coeff-En:   0.100D+01
 Coeff:      0.100D+01
 Gap=     0.149 Goal=   None    Shift=    0.000
 Gap=     0.149 Goal=   None    Shift=    0.000
 GapD=    0.149 DampG=1.000 DampE=0.500 DampFc=0.5000 IDamp=-1.
 Damping current iteration by 5.00D-01
 RMSDP=4.35D-03 MaxDP=1.57D-01              OVMax= 3.13D-01

 Cycle   2  Pass 0  IDiag  1:
 RMSU=  2.17D-03    CP:  9.94D-01
 E= -3406.20538704661     Delta-E=       -0.226186945024 Rises=F Damp=T
 DIIS: error= 6.39D-03 at cycle   2 NSaved=   2.
 NSaved= 2 IEnMin= 2 EnMin= -3406.20538704661     IErMin= 2 ErrMin= 6.39D-03
 ErrMax= 6.39D-03  0.00D+00 EMaxC= 1.00D-01 BMatC= 1.96D-01 BMatP= 2.25D+00
 IDIUse=3 WtCom= 9.36D-01 WtEn= 6.39D-02
 Coeff-Com:  0.184D+00 0.816D+00
 Coeff-En:   0.286D+00 0.714D+00
 Coeff:      0.191D+00 0.809D+00
 Gap=     0.178 Goal=   None    Shift=    0.000
 Gap=     0.178 Goal=   None    Shift=    0.000
 RMSDP=8.35D-04 MaxDP=2.79D-02 DE=-2.26D-01 OVMax= 1.77D-01

 Cycle   3  Pass 0  IDiag  1:
 RMSU=  7.24D-04    CP:  9.92D-01  8.08D-01
 E= -3406.61187983063     Delta-E=       -0.406492784022 Rises=F Damp=F
 DIIS: error= 4.81D-03 at cycle   3 NSaved=   3.
 NSaved= 3 IEnMin= 3 EnMin= -3406.61187983063     IErMin= 3 ErrMin= 4.81D-03
 ErrMax= 4.81D-03  0.00D+00 EMaxC= 1.00D-01 BMatC= 9.12D-02 BMatP= 1.96D-01
 IDIUse=3 WtCom= 9.52D-01 WtEn= 4.81D-02
 Coeff-Com:  0.856D-01 0.423D+00 0.491D+00
 Coeff-En:   0.000D+00 0.000D+00 0.100D+01
 Coeff:      0.815D-01 0.403D+00 0.515D+00
 Gap=     0.193 Goal=   None    Shift=    0.000
 Gap=     0.193 Goal=   None    Shift=    0.000
 RMSDP=3.11D-04 MaxDP=1.94D-02 DE=-4.06D-01 OVMax= 2.36D-02

 Cycle   4  Pass 0  IDiag  1:
 RMSU=  2.65D-04    CP:  9.93D-01  8.15D-01  7.78D-01
 E= -3406.63035561658     Delta-E=       -0.018475785950 Rises=F Damp=F
 DIIS: error= 1.63D-03 at cycle   4 NSaved=   4.
 NSaved= 4 IEnMin= 4 EnMin= -3406.63035561658     IErMin= 4 ErrMin= 1.63D-03
 ErrMax= 1.63D-03  0.00D+00 EMaxC= 1.00D-01 BMatC= 1.04D-02 BMatP= 9.12D-02
 IDIUse=3 WtCom= 9.84D-01 WtEn= 1.63D-02
 Coeff-Com:  0.147D-01 0.406D-01 0.250D+00 0.695D+00
 Coeff-En:   0.000D+00 0.000D+00 0.643D-01 0.936D+00
 Coeff:      0.144D-01 0.399D-01 0.247D+00 0.699D+00
 Gap=     0.194 Goal=   None    Shift=    0.000
 Gap=     0.194 Goal=   None    Shift=    0.000
 RMSDP=1.19D-04 MaxDP=7.99D-03 DE=-1.85D-02 OVMax= 1.05D-02

 Cycle   5  Pass 0  IDiag  1:
 RMSU=  8.71D-05    CP:  9.93D-01  8.09D-01  8.52D-01  7.77D-01
 E= -3406.63269346565     Delta-E=       -0.002337849070 Rises=F Damp=F
 DIIS: error= 5.85D-04 at cycle   5 NSaved=   5.
 NSaved= 5 IEnMin= 5 EnMin= -3406.63269346565     IErMin= 5 ErrMin= 5.85D-04
 ErrMax= 5.85D-04  0.00D+00 EMaxC= 1.00D-01 BMatC= 9.08D-04 BMatP= 1.04D-02
 IDIUse=3 WtCom= 9.94D-01 WtEn= 5.85D-03
 Coeff-Com:  0.414D-02-0.120D-01 0.790D-01 0.328D+00 0.601D+00
 Coeff-En:   0.000D+00 0.000D+00 0.000D+00 0.000D+00 0.100D+01
 Coeff:      0.411D-02-0.120D-01 0.785D-01 0.326D+00 0.603D+00
 Gap=     0.195 Goal=   None    Shift=    0.000
 Gap=     0.195 Goal=   None    Shift=    0.000
 RMSDP=4.45D-05 MaxDP=3.84D-03 DE=-2.34D-03 OVMax= 5.46D-03

 Cycle   6  Pass 0  IDiag  1:
 RMSU=  3.84D-05    CP:  9.93D-01  8.04D-01  8.62D-01  8.36D-01  8.97D-01
 E= -3406.63286267925     Delta-E=       -0.000169213597 Rises=F Damp=F
 DIIS: error= 3.49D-04 at cycle   6 NSaved=   6.
 NSaved= 6 IEnMin= 6 EnMin= -3406.63286267925     IErMin= 6 ErrMin= 3.49D-04
 ErrMax= 3.49D-04  0.00D+00 EMaxC= 1.00D-01 BMatC= 3.23D-04 BMatP= 9.08D-04
 IDIUse=3 WtCom= 9.97D-01 WtEn= 3.49D-03
 Coeff-Com:  0.661D-03-0.194D-01 0.157D-02 0.806D-01 0.404D+00 0.532D+00
 Coeff-En:   0.000D+00 0.000D+00 0.000D+00 0.000D+00 0.190D+00 0.810D+00
 Coeff:      0.659D-03-0.194D-01 0.156D-02 0.803D-01 0.404D+00 0.533D+00
 Gap=     0.195 Goal=   None    Shift=    0.000
 Gap=     0.195 Goal=   None    Shift=    0.000
 RMSDP=2.19D-05 MaxDP=1.34D-03 DE=-1.69D-04 OVMax= 2.68D-03

 Cycle   7  Pass 0  IDiag  1:
 RMSU=  1.42D-05    CP:  9.93D-01  8.01D-01  8.70D-01  8.48D-01  9.96D-01
                    CP:  6.98D-01
 E= -3406.63294600047     Delta-E=       -0.000083321218 Rises=F Damp=F
 DIIS: error= 5.47D-05 at cycle   7 NSaved=   7.
 NSaved= 7 IEnMin= 7 EnMin= -3406.63294600047     IErMin= 7 ErrMin= 5.47D-05
 ErrMax= 5.47D-05  0.00D+00 EMaxC= 1.00D-01 BMatC= 1.17D-05 BMatP= 3.23D-04
 IDIUse=1 WtCom= 1.00D+00 WtEn= 0.00D+00
 Coeff-Com:  0.179D-03-0.661D-02-0.647D-02-0.512D-02 0.606D-01 0.163D+00
 Coeff-Com:  0.794D+00
 Coeff:      0.179D-03-0.661D-02-0.647D-02-0.512D-02 0.606D-01 0.163D+00
 Coeff:      0.794D+00
 Gap=     0.195 Goal=   None    Shift=    0.000
 Gap=     0.195 Goal=   None    Shift=    0.000
 RMSDP=7.42D-06 MaxDP=2.96D-04 DE=-8.33D-05 OVMax= 8.66D-04

 Initial convergence to 1.0D-05 achieved.  Increase integral accuracy.
 Cycle   8  Pass 1  IDiag  1:
 E= -3406.63263067171     Delta-E=        0.000315328757 Rises=F Damp=F
 DIIS: error= 1.93D-04 at cycle   1 NSaved=   1.
 NSaved= 1 IEnMin= 1 EnMin= -3406.63263067171     IErMin= 1 ErrMin= 1.93D-04
 ErrMax= 1.93D-04  0.00D+00 EMaxC= 1.00D-01 BMatC= 1.65D-05 BMatP= 1.65D-05
 IDIUse=3 WtCom= 9.98D-01 WtEn= 1.93D-03
 Coeff-Com:  0.100D+01
 Coeff-En:   0.100D+01
 Coeff:      0.100D+01
 Gap=     0.195 Goal=   None    Shift=    0.000
 Gap=     0.195 Goal=   None    Shift=    0.000
 RMSDP=7.42D-06 MaxDP=2.96D-04 DE= 3.15D-04 OVMax= 4.97D-04

 Cycle   9  Pass 1  IDiag  1:
 RMSU=  5.26D-05    CP:  1.00D+00
 E= -3406.63263155323     Delta-E=       -0.000000881520 Rises=F Damp=F
 DIIS: error= 4.08D-05 at cycle   2 NSaved=   2.
 NSaved= 2 IEnMin= 2 EnMin= -3406.63263155323     IErMin= 2 ErrMin= 4.08D-05
 ErrMax= 4.08D-05  0.00D+00 EMaxC= 1.00D-01 BMatC= 1.13D-05 BMatP= 1.65D-05
 IDIUse=1 WtCom= 1.00D+00 WtEn= 0.00D+00
 Coeff-Com:  0.435D+00 0.565D+00
 Coeff:      0.435D+00 0.565D+00
 Gap=     0.195 Goal=   None    Shift=    0.000
 Gap=     0.195 Goal=   None    Shift=    0.000
 RMSDP=5.28D-06 MaxDP=3.21D-04 DE=-8.82D-07 OVMax= 5.08D-04

 Cycle  10  Pass 1  IDiag  1:
 RMSU=  5.22D-06    CP:  1.00D+00  1.01D+00
 E= -3406.63263356016     Delta-E=       -0.000002006935 Rises=F Damp=F
 DIIS: error= 2.74D-05 at cycle   3 NSaved=   3.
 NSaved= 3 IEnMin= 3 EnMin= -3406.63263356016     IErMin= 3 ErrMin= 2.74D-05
 ErrMax= 2.74D-05  0.00D+00 EMaxC= 1.00D-01 BMatC= 3.87D-06 BMatP= 1.13D-05
 IDIUse=1 WtCom= 1.00D+00 WtEn= 0.00D+00
 Coeff-Com:  0.122D-01 0.365D+00 0.622D+00
 Coeff:      0.122D-01 0.365D+00 0.622D+00
 Gap=     0.195 Goal=   None    Shift=    0.000
 Gap=     0.195 Goal=   None    Shift=    0.000
 RMSDP=2.62D-06 MaxDP=1.11D-04 DE=-2.01D-06 OVMax= 2.48D-04

 Cycle  11  Pass 1  IDiag  1:
 RMSU=  1.26D-06    CP:  1.00D+00  1.04D+00  6.32D-01
 E= -3406.63263445329     Delta-E=       -0.000000893132 Rises=F Damp=F
 DIIS: error= 1.01D-05 at cycle   4 NSaved=   4.
 NSaved= 4 IEnMin= 4 EnMin= -3406.63263445329     IErMin= 4 ErrMin= 1.01D-05
 ErrMax= 1.01D-05  0.00D+00 EMaxC= 1.00D-01 BMatC= 4.19D-07 BMatP= 3.87D-06
 IDIUse=1 WtCom= 1.00D+00 WtEn= 0.00D+00
 Coeff-Com: -0.156D-01 0.202D+00 0.392D+00 0.422D+00
 Coeff:     -0.156D-01 0.202D+00 0.392D+00 0.422D+00
 Gap=     0.195 Goal=   None    Shift=    0.000
 Gap=     0.195 Goal=   None    Shift=    0.000
 RMSDP=6.49D-07 MaxDP=3.74D-05 DE=-8.93D-07 OVMax= 5.81D-05

 Cycle  12  Pass 1  IDiag  1:
 RMSU=  4.67D-07    CP:  1.00D+00  1.04D+00  6.75D-01  7.01D-01
 E= -3406.63263456844     Delta-E=       -0.000000115147 Rises=F Damp=F
 DIIS: error= 1.59D-06 at cycle   5 NSaved=   5.
 NSaved= 5 IEnMin= 5 EnMin= -3406.63263456844     IErMin= 5 ErrMin= 1.59D-06
 ErrMax= 1.59D-06  0.00D+00 EMaxC= 1.00D-01 BMatC= 5.05D-09 BMatP= 4.19D-07
 IDIUse=1 WtCom= 1.00D+00 WtEn= 0.00D+00
 Coeff-Com: -0.401D-02 0.256D-01 0.535D-01 0.979D-01 0.827D+00
 Coeff:     -0.401D-02 0.256D-01 0.535D-01 0.979D-01 0.827D+00
 Gap=     0.195 Goal=   None    Shift=    0.000
 Gap=     0.195 Goal=   None    Shift=    0.000
 RMSDP=1.86D-07 MaxDP=9.45D-06 DE=-1.15D-07 OVMax= 2.58D-05

 Cycle  13  Pass 1  IDiag  1:
 RMSU=  1.45D-07    CP:  1.00D+00  1.04D+00  6.75D-01  7.71D-01  1.15D+00
 E= -3406.63263457129     Delta-E=       -0.000000002850 Rises=F Damp=F
 DIIS: error= 7.93D-07 at cycle   6 NSaved=   6.
 NSaved= 6 IEnMin= 6 EnMin= -3406.63263457129     IErMin= 6 ErrMin= 7.93D-07
 ErrMax= 7.93D-07  0.00D+00 EMaxC= 1.00D-01 BMatC= 3.38D-09 BMatP= 5.05D-09
 IDIUse=1 WtCom= 1.00D+00 WtEn= 0.00D+00
 Coeff-Com:  0.282D-02-0.534D-01-0.102D+00-0.826D-01 0.532D+00 0.703D+00
 Coeff:      0.282D-02-0.534D-01-0.102D+00-0.826D-01 0.532D+00 0.703D+00
 Gap=     0.195 Goal=   None    Shift=    0.000
 Gap=     0.195 Goal=   None    Shift=    0.000
 RMSDP=1.27D-07 MaxDP=4.76D-06 DE=-2.85D-09 OVMax= 1.75D-05

 Cycle  14  Pass 1  IDiag  1:
 RMSU=  7.86D-08    CP:  1.00D+00  1.04D+00  6.77D-01  8.14D-01  1.32D+00
                    CP:  9.86D-01
 E= -3406.63263457276     Delta-E=       -0.000000001469 Rises=F Damp=F
 DIIS: error= 3.32D-07 at cycle   7 NSaved=   7.
 NSaved= 7 IEnMin= 7 EnMin= -3406.63263457276     IErMin= 7 ErrMin= 3.32D-07
 ErrMax= 3.32D-07  0.00D+00 EMaxC= 1.00D-01 BMatC= 3.40D-10 BMatP= 3.38D-09
 IDIUse=1 WtCom= 1.00D+00 WtEn= 0.00D+00
 Coeff-Com:  0.193D-02-0.325D-01-0.622D-01-0.548D-01 0.232D+00 0.391D+00
 Coeff-Com:  0.525D+00
 Coeff:      0.193D-02-0.325D-01-0.622D-01-0.548D-01 0.232D+00 0.391D+00
 Coeff:      0.525D+00
 Gap=     0.195 Goal=   None    Shift=    0.000
 Gap=     0.195 Goal=   None    Shift=    0.000
 RMSDP=2.80D-08 MaxDP=1.29D-06 DE=-1.47D-09 OVMax= 2.84D-06

 Cycle  15  Pass 1  IDiag  1:
 RMSU=  2.30D-08    CP:  1.00D+00  1.04D+00  6.77D-01  8.20D-01  1.34D+00
                    CP:  1.06D+00  1.01D+00
 E= -3406.63263457287     Delta-E=       -0.000000000111 Rises=F Damp=F
 DIIS: error= 7.68D-08 at cycle   8 NSaved=   8.
 NSaved= 8 IEnMin= 8 EnMin= -3406.63263457287     IErMin= 8 ErrMin= 7.68D-08
 ErrMax= 7.68D-08  0.00D+00 EMaxC= 1.00D-01 BMatC= 2.75D-11 BMatP= 3.40D-10
 IDIUse=1 WtCom= 1.00D+00 WtEn= 0.00D+00
 Coeff-Com:  0.315D-03-0.420D-02-0.808D-02-0.812D-02 0.312D-02 0.410D-01
 Coeff-Com:  0.228D+00 0.748D+00
 Coeff:      0.315D-03-0.420D-02-0.808D-02-0.812D-02 0.312D-02 0.410D-01
 Coeff:      0.228D+00 0.748D+00
 Gap=     0.195 Goal=   None    Shift=    0.000
 Gap=     0.195 Goal=   None    Shift=    0.000
 RMSDP=1.13D-08 MaxDP=4.94D-07 DE=-1.11D-10 OVMax= 1.07D-06

 Cycle  16  Pass 1  IDiag  1:
 RMSU=  6.70D-09    CP:  1.00D+00  1.04D+00  6.77D-01  8.21D-01  1.35D+00
                    CP:  1.08D+00  1.10D+00  9.35D-01
 E= -3406.63263457293     Delta-E=       -0.000000000059 Rises=F Damp=F
 DIIS: error= 2.76D-08 at cycle   9 NSaved=   9.
 NSaved= 9 IEnMin= 9 EnMin= -3406.63263457293     IErMin= 9 ErrMin= 2.76D-08
 ErrMax= 2.76D-08  0.00D+00 EMaxC= 1.00D-01 BMatC= 5.82D-12 BMatP= 2.75D-11
 IDIUse=1 WtCom= 1.00D+00 WtEn= 0.00D+00
 Coeff-Com: -0.703D-04 0.176D-02 0.334D-02 0.253D-02-0.270D-01-0.256D-01
 Coeff-Com:  0.585D-01 0.398D+00 0.589D+00
 Coeff:     -0.703D-04 0.176D-02 0.334D-02 0.253D-02-0.270D-01-0.256D-01
 Coeff:      0.585D-01 0.398D+00 0.589D+00
 Gap=     0.195 Goal=   None    Shift=    0.000
 Gap=     0.195 Goal=   None    Shift=    0.000
 RMSDP=4.04D-09 MaxDP=1.80D-07 DE=-5.91D-11 OVMax= 5.66D-07

 SCF Done:  E(ULC-wPBE) =  -3406.63263457     A.U. after   16 cycles
            NFock= 16  Conv=0.40D-08     -V/T= 2.0029
 <Sx>= 0.0000 <Sy>= 0.0000 <Sz>= 0.0000 <S**2>=-0.0000 S=-0.0000
 <L.S>= 0.000000000000E+00
 KE= 3.396643200511D+03 PE=-1.459853116882D+04 EE= 4.519326576282D+03
 Annihilation of the first spin contaminant:
 S**2 before annihilation    -0.0000,   after     0.0000
 Leave Link  502 at Sun Jul 26 12:25:07 2020, MaxMem=  4026531840 cpu:            1791.9 elap:             224.7
 (Enter /opt/ohpc/pub/libs/gaussian/g16-A.03/sandybridge/g16/l601.exe)
 Copying SCF densities to generalized density rwf, IOpCl= 1 IROHF=0.

 **********************************************************************

            Population analysis using the SCF density.

 **********************************************************************

 Orbital symmetries:
 Alpha Orbitals:
       Occupied  (A) (A) (A) (A) (A) (A) (A) (A) (A) (A) (A) (A)
                 (A) (A) (A) (A) (A) (A) (A) (A) (A) (A) (A) (A)
                 (A) (A) (A) (A) (A) (A) (A) (A) (A) (A) (A) (A)
                 (A) (A) (A) (A) (A) (A) (A) (A) (A) (A) (A) (A)
                 (A) (A) (A) (A) (A) (A) (A) (A) (A) (A) (A) (A)
                 (A) (A) (A) (A) (A) (A) (A) (A) (A) (A) (A) (A)
                 (A) (A) (A) (A) (A) (A) (A) (A) (A) (A) (A) (A)
                 (A) (A) (A) (A) (A) (A) (A) (A) (A) (A) (A) (A)
                 (A) (A) (A) (A) (A) (A) (A) (A) (A) (A) (A) (A)
                 (A) (A) (A) (A) (A) (A) (A) (A) (A) (A) (A) (A)
                 (A) (A) (A) (A) (A) (A) (A)
       Virtual   (A) (A) (A) (A) (A) (A) (A) (A) (A) (A) (A) (A)
                 (A) (A) (A) (A) (A) (A) (A) (A) (A) (A) (A) (A)
                 (A) (A) (A) (A) (A) (A) (A) (A) (A) (A) (A) (A)
                 (A) (A) (A) (A) (A) (A) (A) (A) (A) (A) (A) (A)
                 (A) (A) (A) (A) (A) (A) (A) (A) (A) (A) (A) (A)
                 (A) (A) (A) (A) (A) (A) (A) (A) (A) (A) (A) (A)
                 (A) (A) (A) (A) (A) (A) (A) (A) (A) (A) (A) (A)
                 (A) (A) (A) (A) (A) (A) (A) (A) (A) (A) (A) (A)
                 (A) (A) (A) (A) (A) (A) (A) (A) (A) (A) (A) (A)
                 (A) (A) (A) (A) (A) (A) (A) (A) (A) (A) (A) (A)
                 (A) (A) (A) (A) (A) (A) (A) (A) (A) (A) (A) (A)
                 (A) (A) (A) (A) (A) (A) (A) (A) (A) (A) (A) (A)
                 (A) (A) (A) (A) (A) (A) (A) (A) (A) (A) (A) (A)
                 (A) (A) (A) (A) (A) (A) (A) (A) (A) (A) (A) (A)
                 (A) (A) (A) (A) (A) (A) (A) (A) (A) (A) (A) (A)
                 (A) (A) (A) (A) (A) (A) (A) (A) (A) (A) (A) (A)
                 (A) (A) (A) (A) (A) (A) (A) (A) (A) (A) (A) (A)
                 (A) (A) (A) (A) (A) (A) (A) (A) (A) (A) (A) (A)
                 (A) (A) (A) (A) (A) (A) (A) (A) (A) (A) (A) (A)
                 (A) (A) (A) (A) (A) (A) (A) (A) (A) (A) (A) (A)
                 (A) (A) (A) (A) (A) (A) (A) (A) (A) (A) (A) (A)
                 (A) (A) (A) (A) (A) (A) (A) (A) (A) (A) (A) (A)
                 (A) (A) (A) (A) (A) (A) (A) (A) (A) (A) (A) (A)
                 (A) (A) (A) (A) (A) (A) (A) (A) (A) (A) (A) (A)
                 (A) (A) (A) (A) (A) (A) (A) (A) (A) (A) (A) (A)
                 (A) (A) (A) (A) (A) (A) (A) (A) (A) (A) (A) (A)
                 (A) (A) (A) (A) (A) (A) (A) (A) (A) (A) (A) (A)
                 (A) (A) (A) (A) (A) (A) (A) (A) (A) (A) (A) (A)
                 (A) (A) (A) (A) (A) (A) (A) (A) (A) (A) (A) (A)
                 (A) (A) (A) (A) (A) (A) (A) (A) (A)
 Beta  Orbitals:
       Occupied  (A) (A) (A) (A) (A) (A) (A) (A) (A) (A) (A) (A)
                 (A) (A) (A) (A) (A) (A) (A) (A) (A) (A) (A) (A)
                 (A) (A) (A) (A) (A) (A) (A) (A) (A) (A) (A) (A)
                 (A) (A) (A) (A) (A) (A) (A) (A) (A) (A) (A) (A)
                 (A) (A) (A) (A) (A) (A) (A) (A) (A) (A) (A) (A)
                 (A) (A) (A) (A) (A) (A) (A) (A) (A) (A) (A) (A)
                 (A) (A) (A) (A) (A) (A) (A) (A) (A) (A) (A) (A)
                 (A) (A) (A) (A) (A) (A) (A) (A) (A) (A) (A) (A)
                 (A) (A) (A) (A) (A) (A) (A) (A) (A) (A) (A) (A)
                 (A) (A) (A) (A) (A) (A) (A) (A) (A) (A) (A) (A)
                 (A) (A) (A) (A) (A) (A) (A)
       Virtual   (A) (A) (A) (A) (A) (A) (A) (A) (A) (A) (A) (A)
                 (A) (A) (A) (A) (A) (A) (A) (A) (A) (A) (A) (A)
                 (A) (A) (A) (A) (A) (A) (A) (A) (A) (A) (A) (A)
                 (A) (A) (A) (A) (A) (A) (A) (A) (A) (A) (A) (A)
                 (A) (A) (A) (A) (A) (A) (A) (A) (A) (A) (A) (A)
                 (A) (A) (A) (A) (A) (A) (A) (A) (A) (A) (A) (A)
                 (A) (A) (A) (A) (A) (A) (A) (A) (A) (A) (A) (A)
                 (A) (A) (A) (A) (A) (A) (A) (A) (A) (A) (A) (A)
                 (A) (A) (A) (A) (A) (A) (A) (A) (A) (A) (A) (A)
                 (A) (A) (A) (A) (A) (A) (A) (A) (A) (A) (A) (A)
                 (A) (A) (A) (A) (A) (A) (A) (A) (A) (A) (A) (A)
                 (A) (A) (A) (A) (A) (A) (A) (A) (A) (A) (A) (A)
                 (A) (A) (A) (A) (A) (A) (A) (A) (A) (A) (A) (A)
                 (A) (A) (A) (A) (A) (A) (A) (A) (A) (A) (A) (A)
                 (A) (A) (A) (A) (A) (A) (A) (A) (A) (A) (A) (A)
                 (A) (A) (A) (A) (A) (A) (A) (A) (A) (A) (A) (A)
                 (A) (A) (A) (A) (A) (A) (A) (A) (A) (A) (A) (A)
                 (A) (A) (A) (A) (A) (A) (A) (A) (A) (A) (A) (A)
                 (A) (A) (A) (A) (A) (A) (A) (A) (A) (A) (A) (A)
                 (A) (A) (A) (A) (A) (A) (A) (A) (A) (A) (A) (A)
                 (A) (A) (A) (A) (A) (A) (A) (A) (A) (A) (A) (A)
                 (A) (A) (A) (A) (A) (A) (A) (A) (A) (A) (A) (A)
                 (A) (A) (A) (A) (A) (A) (A) (A) (A) (A) (A) (A)
                 (A) (A) (A) (A) (A) (A) (A) (A) (A) (A) (A) (A)
                 (A) (A) (A) (A) (A) (A) (A) (A) (A) (A) (A) (A)
                 (A) (A) (A) (A) (A) (A) (A) (A) (A) (A) (A) (A)
                 (A) (A) (A) (A) (A) (A) (A) (A) (A) (A) (A) (A)
                 (A) (A) (A) (A) (A) (A) (A) (A) (A) (A) (A) (A)
                 (A) (A) (A) (A) (A) (A) (A) (A) (A) (A) (A) (A)
                 (A) (A) (A) (A) (A) (A) (A) (A) (A)
 The electronic state is 1-A.
 Alpha  occ. eigenvalues --  -88.20395 -88.19609 -88.19521 -88.19408 -88.19342
 Alpha  occ. eigenvalues --  -88.18934 -14.09721 -14.09338 -14.09261 -14.09046
 Alpha  occ. eigenvalues --  -14.08881 -14.08854 -10.05668 -10.05622 -10.05394
 Alpha  occ. eigenvalues --  -10.05308 -10.05162 -10.05042 -10.04341 -10.03887
 Alpha  occ. eigenvalues --  -10.03797 -10.03774 -10.02573 -10.02548 -10.02209
 Alpha  occ. eigenvalues --  -10.02106 -10.01740 -10.01520 -10.01486 -10.01278
 Alpha  occ. eigenvalues --   -7.81129  -7.80095  -7.79935  -7.79788  -7.79745
 Alpha  occ. eigenvalues --   -7.79521  -5.83124  -5.82642  -5.82395  -5.82116
 Alpha  occ. eigenvalues --   -5.81973  -5.81828  -5.81810  -5.81631  -5.81542
 Alpha  occ. eigenvalues --   -5.81491  -5.81420  -5.81381  -5.81354  -5.81159
 Alpha  occ. eigenvalues --   -5.81086  -5.81037  -5.80962  -5.80762  -1.00469
 Alpha  occ. eigenvalues --   -0.99831  -0.99674  -0.98804  -0.97441  -0.95739
 Alpha  occ. eigenvalues --   -0.86176  -0.85842  -0.83779  -0.82747  -0.82292
 Alpha  occ. eigenvalues --   -0.81272  -0.80637  -0.80177  -0.79512  -0.76050
 Alpha  occ. eigenvalues --   -0.75031  -0.74235  -0.68452  -0.67175  -0.65811
 Alpha  occ. eigenvalues --   -0.64783  -0.63571  -0.61937  -0.61035  -0.59949
 Alpha  occ. eigenvalues --   -0.58581  -0.58001  -0.56339  -0.56039  -0.55150
 Alpha  occ. eigenvalues --   -0.54914  -0.53391  -0.52491  -0.51059  -0.50072
 Alpha  occ. eigenvalues --   -0.49570  -0.48995  -0.48852  -0.48528  -0.47413
 Alpha  occ. eigenvalues --   -0.46548  -0.46211  -0.45776  -0.45528  -0.45293
 Alpha  occ. eigenvalues --   -0.44627  -0.44201  -0.43187  -0.42744  -0.42572
 Alpha  occ. eigenvalues --   -0.41597  -0.40997  -0.40037  -0.39099  -0.38827
 Alpha  occ. eigenvalues --   -0.36666  -0.34914  -0.34186  -0.33839  -0.33116
 Alpha  occ. eigenvalues --   -0.32843  -0.32774  -0.32352  -0.32234  -0.32014
 Alpha  occ. eigenvalues --   -0.31915  -0.31432  -0.31211  -0.31116  -0.29989
 Alpha  occ. eigenvalues --   -0.27762  -0.25472
 Alpha virt. eigenvalues --   -0.05944  -0.03490  -0.01657   0.01061   0.02922
 Alpha virt. eigenvalues --    0.04299   0.04740   0.05439   0.05740   0.05845
 Alpha virt. eigenvalues --    0.06239   0.06687   0.07256   0.08237   0.08942
 Alpha virt. eigenvalues --    0.09360   0.09937   0.10394   0.10847   0.11531
 Alpha virt. eigenvalues --    0.11694   0.12467   0.13230   0.13589   0.14979
 Alpha virt. eigenvalues --    0.15174   0.16504   0.17164   0.17387   0.18193
 Alpha virt. eigenvalues --    0.19555   0.21154   0.21366   0.24111   0.24384
 Alpha virt. eigenvalues --    0.24814   0.26133   0.27066   0.27235   0.27680
 Alpha virt. eigenvalues --    0.28472   0.28800   0.29875   0.31173   0.31583
 Alpha virt. eigenvalues --    0.32687   0.33862   0.34105   0.35527   0.37250
 Alpha virt. eigenvalues --    0.38576   0.38767   0.39817   0.40255   0.40988
 Alpha virt. eigenvalues --    0.43260   0.43703   0.44309   0.44525   0.45312
 Alpha virt. eigenvalues --    0.45900   0.45960   0.46260   0.46405   0.47053
 Alpha virt. eigenvalues --    0.47321   0.47476   0.47562   0.47769   0.47941
 Alpha virt. eigenvalues --    0.47994   0.48470   0.48558   0.48829   0.48996
 Alpha virt. eigenvalues --    0.49150   0.49242   0.49567   0.49666   0.49966
 Alpha virt. eigenvalues --    0.50049   0.50113   0.50321   0.50638   0.50764
 Alpha virt. eigenvalues --    0.51538   0.51895   0.52275   0.52908   0.53160
 Alpha virt. eigenvalues --    0.53289   0.53504   0.53790   0.54036   0.54535
 Alpha virt. eigenvalues --    0.54913   0.55179   0.55262   0.55349   0.56867
 Alpha virt. eigenvalues --    0.57863   0.59232   0.59390   0.59787   0.60170
 Alpha virt. eigenvalues --    0.60507   0.60619   0.61570   0.62012   0.62614
 Alpha virt. eigenvalues --    0.62988   0.63743   0.64048   0.64552   0.65608
 Alpha virt. eigenvalues --    0.65736   0.66032   0.66681   0.67129   0.68059
 Alpha virt. eigenvalues --    0.68175   0.68656   0.69170   0.69279   0.69581
 Alpha virt. eigenvalues --    0.70263   0.70535   0.70817   0.71694   0.72226
 Alpha virt. eigenvalues --    0.73027   0.73634   0.73777   0.73936   0.74799
 Alpha virt. eigenvalues --    0.75610   0.75817   0.76589   0.78053   0.78428
 Alpha virt. eigenvalues --    0.79045   0.79395   0.79708   0.81814   0.82738
 Alpha virt. eigenvalues --    0.84411   0.85108   0.86090   0.86263   0.87948
 Alpha virt. eigenvalues --    0.88834   0.89338   0.89915   0.90106   0.90152
 Alpha virt. eigenvalues --    0.90693   0.90795   0.91441   0.91861   0.91871
 Alpha virt. eigenvalues --    0.91984   0.92620   0.92715   0.93137   0.93604
 Alpha virt. eigenvalues --    0.94355   0.95035   0.96116   0.97526   0.98120
 Alpha virt. eigenvalues --    0.98372   0.98491   0.99851   1.00358   1.00760
 Alpha virt. eigenvalues --    1.01238   1.01774   1.02473   1.03387   1.04110
 Alpha virt. eigenvalues --    1.05319   1.05427   1.05846   1.06434   1.07110
 Alpha virt. eigenvalues --    1.07694   1.07781   1.08043   1.08309   1.08608
 Alpha virt. eigenvalues --    1.10025   1.10397   1.11381   1.11422   1.11849
 Alpha virt. eigenvalues --    1.12399   1.13282   1.13715   1.14624   1.14751
 Alpha virt. eigenvalues --    1.14967   1.15655   1.16401   1.16523   1.17006
 Alpha virt. eigenvalues --    1.17616   1.20124   1.21279   1.22453   1.23500
 Alpha virt. eigenvalues --    1.24225   1.24985   1.25469   1.26108   1.27488
 Alpha virt. eigenvalues --    1.28728   1.29104   1.30907   1.31587   1.32044
 Alpha virt. eigenvalues --    1.33261   1.33334   1.34148   1.35097   1.35483
 Alpha virt. eigenvalues --    1.36476   1.37625   1.38656   1.40220   1.41333
 Alpha virt. eigenvalues --    1.41715   1.43436   1.44356   1.45999   1.46725
 Alpha virt. eigenvalues --    1.47351   1.48789   1.49464   1.50333   1.51038
 Alpha virt. eigenvalues --    1.52277   1.52602   1.53503   1.54161   1.54403
 Alpha virt. eigenvalues --    1.54768   1.55803   1.55909   1.58186   1.58847
 Alpha virt. eigenvalues --    1.60449   1.62105   1.62918   1.63888   1.64190
 Alpha virt. eigenvalues --    1.64885   1.65435   1.66188   1.66959   1.67462
 Alpha virt. eigenvalues --    1.67535   1.68886   1.69718   1.70069   1.70331
 Alpha virt. eigenvalues --    1.71975   1.73672   1.74071   1.74737   1.76075
 Alpha virt. eigenvalues --    1.76889   1.77173   1.78591   1.79823   1.80513
 Alpha virt. eigenvalues --    1.80923   1.81205   1.81457   1.82601   1.83797
 Alpha virt. eigenvalues --    1.85013   1.85159   1.86219   1.88590   1.89477
 Alpha virt. eigenvalues --    1.90400   1.92148   1.92593   1.93363   1.94260
 Alpha virt. eigenvalues --    1.95558   1.96745   1.97118   2.00078   2.01461
 Alpha virt. eigenvalues --    2.02567   2.03064   2.03947   2.04666   2.06156
 Alpha virt. eigenvalues --    2.06950   2.07573   2.10275   2.11796   2.13347
 Alpha virt. eigenvalues --    2.14345   2.15842   2.18157   2.20932   2.21952
 Alpha virt. eigenvalues --    2.22463   2.23513   2.23979   2.24470   2.25087
 Alpha virt. eigenvalues --    2.26518   2.28552   2.28898   2.30522   2.31673
 Alpha virt. eigenvalues --    2.33654   2.35083   2.35441   2.35878   2.36200
 Alpha virt. eigenvalues --    2.38087   2.38692   2.41855   2.42171   2.42560
 Alpha virt. eigenvalues --    2.43885   2.44963   2.46722   2.47718   2.51486
 Alpha virt. eigenvalues --    2.52592   2.53780   2.56195   2.57653   2.65557
 Alpha virt. eigenvalues --    2.65737   2.67547   2.72516   2.73001   2.77584
 Alpha virt. eigenvalues --    2.80352   2.83674   2.85293   2.86185   2.90423
 Alpha virt. eigenvalues --    2.93387   2.94707   3.00816   3.03497   3.07513
 Alpha virt. eigenvalues --    3.08958   3.12172
  Beta  occ. eigenvalues --  -88.20395 -88.19609 -88.19521 -88.19408 -88.19342
  Beta  occ. eigenvalues --  -88.18934 -14.09721 -14.09338 -14.09261 -14.09046
  Beta  occ. eigenvalues --  -14.08881 -14.08854 -10.05668 -10.05622 -10.05394
  Beta  occ. eigenvalues --  -10.05308 -10.05162 -10.05042 -10.04341 -10.03887
  Beta  occ. eigenvalues --  -10.03797 -10.03774 -10.02573 -10.02548 -10.02209
  Beta  occ. eigenvalues --  -10.02106 -10.01740 -10.01520 -10.01486 -10.01278
  Beta  occ. eigenvalues --   -7.81129  -7.80095  -7.79935  -7.79788  -7.79745
  Beta  occ. eigenvalues --   -7.79521  -5.83124  -5.82642  -5.82395  -5.82116
  Beta  occ. eigenvalues --   -5.81973  -5.81828  -5.81810  -5.81631  -5.81542
  Beta  occ. eigenvalues --   -5.81491  -5.81420  -5.81381  -5.81354  -5.81159
  Beta  occ. eigenvalues --   -5.81086  -5.81037  -5.80962  -5.80762  -1.00469
  Beta  occ. eigenvalues --   -0.99831  -0.99674  -0.98804  -0.97441  -0.95739
  Beta  occ. eigenvalues --   -0.86176  -0.85842  -0.83779  -0.82747  -0.82292
  Beta  occ. eigenvalues --   -0.81272  -0.80637  -0.80177  -0.79512  -0.76050
  Beta  occ. eigenvalues --   -0.75031  -0.74235  -0.68452  -0.67175  -0.65811
  Beta  occ. eigenvalues --   -0.64783  -0.63571  -0.61937  -0.61035  -0.59949
  Beta  occ. eigenvalues --   -0.58581  -0.58001  -0.56339  -0.56039  -0.55150
  Beta  occ. eigenvalues --   -0.54914  -0.53391  -0.52491  -0.51059  -0.50072
  Beta  occ. eigenvalues --   -0.49570  -0.48995  -0.48852  -0.48528  -0.47413
  Beta  occ. eigenvalues --   -0.46548  -0.46211  -0.45776  -0.45528  -0.45293
  Beta  occ. eigenvalues --   -0.44627  -0.44201  -0.43187  -0.42744  -0.42572
  Beta  occ. eigenvalues --   -0.41597  -0.40997  -0.40037  -0.39099  -0.38827
  Beta  occ. eigenvalues --   -0.36666  -0.34914  -0.34186  -0.33839  -0.33116
  Beta  occ. eigenvalues --   -0.32843  -0.32774  -0.32352  -0.32234  -0.32014
  Beta  occ. eigenvalues --   -0.31915  -0.31432  -0.31211  -0.31116  -0.29989
  Beta  occ. eigenvalues --   -0.27762  -0.25472
  Beta virt. eigenvalues --   -0.05944  -0.03490  -0.01657   0.01061   0.02922
  Beta virt. eigenvalues --    0.04299   0.04740   0.05439   0.05740   0.05845
  Beta virt. eigenvalues --    0.06239   0.06687   0.07256   0.08237   0.08942
  Beta virt. eigenvalues --    0.09360   0.09937   0.10394   0.10847   0.11531
  Beta virt. eigenvalues --    0.11694   0.12467   0.13230   0.13589   0.14979
  Beta virt. eigenvalues --    0.15174   0.16504   0.17164   0.17387   0.18193
  Beta virt. eigenvalues --    0.19555   0.21154   0.21366   0.24111   0.24384
  Beta virt. eigenvalues --    0.24814   0.26133   0.27066   0.27235   0.27680
  Beta virt. eigenvalues --    0.28472   0.28800   0.29875   0.31173   0.31583
  Beta virt. eigenvalues --    0.32687   0.33862   0.34105   0.35527   0.37250
  Beta virt. eigenvalues --    0.38576   0.38767   0.39817   0.40255   0.40988
  Beta virt. eigenvalues --    0.43260   0.43703   0.44309   0.44525   0.45312
  Beta virt. eigenvalues --    0.45900   0.45960   0.46260   0.46405   0.47053
  Beta virt. eigenvalues --    0.47321   0.47476   0.47562   0.47769   0.47941
  Beta virt. eigenvalues --    0.47994   0.48470   0.48558   0.48829   0.48996
  Beta virt. eigenvalues --    0.49150   0.49242   0.49567   0.49666   0.49966
  Beta virt. eigenvalues --    0.50049   0.50113   0.50321   0.50638   0.50764
  Beta virt. eigenvalues --    0.51538   0.51895   0.52275   0.52908   0.53160
  Beta virt. eigenvalues --    0.53289   0.53504   0.53790   0.54036   0.54535
  Beta virt. eigenvalues --    0.54913   0.55179   0.55262   0.55349   0.56867
  Beta virt. eigenvalues --    0.57863   0.59232   0.59390   0.59787   0.60170
  Beta virt. eigenvalues --    0.60507   0.60619   0.61570   0.62012   0.62614
  Beta virt. eigenvalues --    0.62988   0.63743   0.64048   0.64552   0.65608
[...]
     7  N(14)              0.00000       0.00000       0.00000       0.00000
     8  C(13)             -0.00000      -0.00000      -0.00000      -0.00000
     9  C(13)             -0.00000      -0.00000      -0.00000      -0.00000
    10  S(33)             -0.00000      -0.00000      -0.00000      -0.00000
    11  C(13)             -0.00000      -0.00000      -0.00000      -0.00000
    12  C(13)              0.00000       0.00000       0.00000       0.00000
    13  N(14)              0.00000       0.00000       0.00000       0.00000
    14  C(13)             -0.00000      -0.00000      -0.00000      -0.00000
    15  S(33)              0.00000       0.00000       0.00000       0.00000
    16  C(13)             -0.00000      -0.00000      -0.00000      -0.00000
    17  N(14)              0.00000       0.00000       0.00000       0.00000
    18  C(13)              0.00000       0.00000       0.00000       0.00000
    19  C(13)              0.00000       0.00000       0.00000       0.00000
    20  S(33)              0.00000       0.00000       0.00000       0.00000
    21  C(13)              0.00000       0.00000       0.00000       0.00000
    22  C(13)              0.00000       0.00000       0.00000       0.00000
    23  N(14)             -0.00000      -0.00000      -0.00000      -0.00000
    24  C(13)             -0.00000      -0.00000      -0.00000      -0.00000
    25  S(33)              0.00000       0.00000       0.00000       0.00000
    26  C(13)              0.00000       0.00000       0.00000       0.00000
    27  N(14)             -0.00000      -0.00000      -0.00000      -0.00000
    28  C(13)              0.00000       0.00000       0.00000       0.00000
    29  C(13)             -0.00000      -0.00000      -0.00000      -0.00000
    30  S(33)              0.00000       0.00000       0.00000       0.00000
    31  H(1)              -0.00000      -0.00000      -0.00000      -0.00000
    32  H(1)              -0.00000      -0.00000      -0.00000      -0.00000
    33  H(1)              -0.00000      -0.00000      -0.00000      -0.00000
    34  H(1)              -0.00000      -0.00000      -0.00000      -0.00000
    35  H(1)              -0.00000      -0.00000      -0.00000      -0.00000
    36  H(1)               0.00000       0.00000       0.00000       0.00000
    37  H(1)               0.00000       0.00000       0.00000       0.00000
    38  H(1)               0.00000       0.00000       0.00000       0.00000
 --------------------------------------------------------
       Center         ----  Spin Dipole Couplings  ----
                      3XX-RR        3YY-RR        3ZZ-RR
 --------------------------------------------------------
     1   Atom       -0.000000      0.000000     -0.000000
     2   Atom       -0.000000     -0.000000      0.000000
     3   Atom       -0.000000      0.000000      0.000000
     4   Atom        0.000000     -0.000000     -0.000000
     5   Atom        0.000000     -0.000000      0.000000
     6   Atom       -0.000000      0.000000      0.000000
     7   Atom       -0.000000      0.000000      0.000000
     8   Atom       -0.000000     -0.000000      0.000000
     9   Atom       -0.000000     -0.000000      0.000000
    10   Atom        0.000000     -0.000000     -0.000000
    11   Atom       -0.000000      0.000000      0.000000
    12   Atom        0.000000      0.000000     -0.000000
    13   Atom       -0.000000      0.000000     -0.000000
    14   Atom       -0.000000     -0.000000      0.000000
    15   Atom        0.000000     -0.000000      0.000000
    16   Atom       -0.000000      0.000000      0.000000
    17   Atom       -0.000000      0.000000     -0.000000
    18   Atom       -0.000000      0.000000     -0.000000
    19   Atom       -0.000000      0.000000      0.000000
    20   Atom        0.000000     -0.000000      0.000000
    21   Atom       -0.000000     -0.000000      0.000000
    22   Atom       -0.000000      0.000000      0.000000
    23   Atom        0.000000     -0.000000      0.000000
    24   Atom       -0.000000      0.000000      0.000000
    25   Atom       -0.000000      0.000000      0.000000
    26   Atom        0.000000     -0.000000     -0.000000
    27   Atom       -0.000000     -0.000000      0.000000
    28   Atom       -0.000000     -0.000000      0.000000
    29   Atom       -0.000000      0.000000      0.000000
    30   Atom       -0.000000      0.000000     -0.000000
    31   Atom        0.000000     -0.000000      0.000000
    32   Atom       -0.000000     -0.000000      0.000000
    33   Atom       -0.000000     -0.000000      0.000000
    34   Atom        0.000000     -0.000000      0.000000
    35   Atom       -0.000000      0.000000     -0.000000
    36   Atom       -0.000000     -0.000000      0.000000
    37   Atom        0.000000     -0.000000      0.000000
    38   Atom        0.000000     -0.000000     -0.000000
 --------------------------------------------------------
                        XY            XZ            YZ
 --------------------------------------------------------
     1   Atom        0.000000      0.000000     -0.000000
     2   Atom        0.000000      0.000000      0.000000
     3   Atom        0.000000     -0.000000      0.000000
     4   Atom        0.000000     -0.000000      0.000000
     5   Atom        0.000000     -0.000000      0.000000
     6   Atom       -0.000000     -0.000000     -0.000000
     7   Atom       -0.000000      0.000000      0.000000
     8   Atom        0.000000     -0.000000      0.000000
     9   Atom        0.000000     -0.000000      0.000000
    10   Atom       -0.000000      0.000000     -0.000000
    11   Atom        0.000000      0.000000     -0.000000
    12   Atom        0.000000      0.000000      0.000000
    13   Atom       -0.000000      0.000000     -0.000000
    14   Atom       -0.000000     -0.000000     -0.000000
    15   Atom        0.000000     -0.000000      0.000000
    16   Atom       -0.000000      0.000000     -0.000000
    17   Atom        0.000000      0.000000     -0.000000
    18   Atom        0.000000     -0.000000     -0.000000
    19   Atom       -0.000000      0.000000     -0.000000
    20   Atom        0.000000      0.000000      0.000000
    21   Atom        0.000000     -0.000000      0.000000
    22   Atom       -0.000000      0.000000     -0.000000
    23   Atom       -0.000000     -0.000000     -0.000000
    24   Atom       -0.000000     -0.000000     -0.000000
    25   Atom       -0.000000     -0.000000      0.000000
    26   Atom        0.000000      0.000000     -0.000000
    27   Atom       -0.000000     -0.000000      0.000000
    28   Atom        0.000000      0.000000      0.000000
    29   Atom        0.000000      0.000000     -0.000000
    30   Atom       -0.000000     -0.000000      0.000000
    31   Atom        0.000000      0.000000      0.000000
    32   Atom       -0.000000      0.000000      0.000000
    33   Atom       -0.000000      0.000000      0.000000
    34   Atom        0.000000     -0.000000      0.000000
    35   Atom        0.000000     -0.000000     -0.000000
    36   Atom       -0.000000     -0.000000     -0.000000
    37   Atom       -0.000000     -0.000000     -0.000000
    38   Atom       -0.000000      0.000000     -0.000000
 --------------------------------------------------------


 ---------------------------------------------------------------------------------
              Anisotropic Spin Dipole Couplings in Principal Axis System
 ---------------------------------------------------------------------------------

       Atom             a.u.   MegaHertz   Gauss  10(-4) cm-1        Axes

              Baa    -0.0000    -0.000    -0.000    -0.000  0.8701 -0.4925 -0.0175
     1 C(13)  Bbb    -0.0000    -0.000    -0.000    -0.000  0.0226  0.0044  0.9997
              Bcc     0.0000     0.000     0.000     0.000  0.4923  0.8703 -0.0149
 
              Baa    -0.0000    -0.000    -0.000    -0.000 -0.7052  0.7087 -0.0202
     2 C(13)  Bbb     0.0000     0.000     0.000     0.000 -0.0983 -0.0696  0.9927
              Bcc     0.0000     0.000     0.000     0.000  0.7021  0.7021  0.1187
 
              Baa    -0.0000    -0.000    -0.000    -0.000  0.7158 -0.6924  0.0912
     3 N(14)  Bbb     0.0000     0.000     0.000     0.000 -0.0585  0.0708  0.9958
              Bcc     0.0000     0.000     0.000     0.000  0.6959  0.7181 -0.0102
 
              Baa    -0.0000    -0.000    -0.000    -0.000 -0.0985  0.9946 -0.0330
     4 C(13)  Bbb    -0.0000    -0.000    -0.000    -0.000  0.0161  0.0347  0.9993
              Bcc     0.0000     0.000     0.000     0.000  0.9950  0.0979 -0.0194
 
              Baa    -0.0000    -0.000    -0.000    -0.000 -0.4668  0.8839 -0.0294
     5 S(33)  Bbb     0.0000     0.000     0.000     0.000 -0.0025  0.0319  0.9995
              Bcc     0.0000     0.000     0.000     0.000  0.8843  0.4667 -0.0127
 
              Baa    -0.0000    -0.000    -0.000    -0.000  0.9988  0.0491  0.0047
     6 C(13)  Bbb     0.0000     0.000     0.000     0.000 -0.0054  0.0151  0.9999
              Bcc     0.0000     0.000     0.000     0.000 -0.0490  0.9987 -0.0154
 
              Baa    -0.0000    -0.000    -0.000    -0.000  0.8358  0.5410 -0.0934
     7 N(14)  Bbb     0.0000     0.000     0.000     0.000  0.4117 -0.5050  0.7586
              Bcc     0.0000     0.000     0.000     0.000 -0.3632  0.6725  0.6448
 
              Baa    -0.0000    -0.000    -0.000    -0.000 -0.5521  0.8336 -0.0194
     8 C(13)  Bbb     0.0000     0.000     0.000     0.000  0.8336  0.5513 -0.0340
              Bcc     0.0000     0.000     0.000     0.000  0.0176  0.0349  0.9992
 
              Baa    -0.0000    -0.000    -0.000    -0.000 -0.4171  0.9086 -0.0225
     9 C(13)  Bbb    -0.0000    -0.000    -0.000    -0.000  0.9089  0.4170 -0.0106
              Bcc     0.0000     0.000     0.000     0.000  0.0003  0.0249  0.9997
 
              Baa    -0.0000    -0.000    -0.000    -0.000 -0.0808 -0.0143  0.9966
    10 S(33)  Bbb    -0.0000    -0.000    -0.000    -0.000  0.4197  0.9064  0.0470
              Bcc     0.0000     0.000     0.000     0.000  0.9041 -0.4221  0.0672
 
              Baa    -0.0000    -0.000    -0.000    -0.000  0.9561 -0.2932 -0.0009
    11 C(13)  Bbb     0.0000     0.000     0.000     0.000  0.2931  0.9558  0.0227
              Bcc     0.0000     0.000     0.000     0.000 -0.0058 -0.0220  0.9997
 
              Baa    -0.0000    -0.000    -0.000    -0.000  0.0039 -0.0155  0.9999
    12 C(13)  Bbb    -0.0000    -0.000    -0.000    -0.000 -0.5981  0.8013  0.0148
              Bcc     0.0000     0.000     0.000     0.000  0.8014  0.5981  0.0062
 
              Baa    -0.0000    -0.000    -0.000    -0.000 -0.0213  0.0023  0.9998
    13 N(14)  Bbb    -0.0000    -0.000    -0.000    -0.000  0.9998  0.0067  0.0213
              Bcc     0.0000     0.000     0.000     0.000 -0.0067  1.0000 -0.0025
 
              Baa    -0.0000    -0.000    -0.000    -0.000  0.9852  0.1712  0.0027
    14 C(13)  Bbb    -0.0000    -0.000    -0.000    -0.000 -0.1712  0.9852  0.0006
              Bcc     0.0000     0.000     0.000     0.000 -0.0026 -0.0010  1.0000
 
              Baa    -0.0000    -0.000    -0.000    -0.000 -0.2473  0.9689 -0.0038
    15 S(33)  Bbb     0.0000     0.000     0.000     0.000  0.0333  0.0124  0.9994
              Bcc     0.0000     0.000     0.000     0.000  0.9684  0.2470 -0.0353
 
              Baa    -0.0000    -0.000    -0.000    -0.000  0.9736  0.2282 -0.0082
    16 C(13)  Bbb     0.0000     0.000     0.000     0.000 -0.2280  0.9735  0.0184
              Bcc     0.0000     0.000     0.000     0.000  0.0122 -0.0160  0.9998
 
              Baa    -0.0000    -0.000    -0.000    -0.000  0.9675 -0.0869 -0.2376
    17 N(14)  Bbb    -0.0000    -0.000    -0.000    -0.000  0.2378 -0.0091  0.9713
              Bcc     0.0000     0.000     0.000     0.000  0.0865  0.9962 -0.0119
 
              Baa    -0.0000    -0.000    -0.000    -0.000 -0.0042  0.0055  1.0000
    18 C(13)  Bbb    -0.0000    -0.000    -0.000    -0.000  0.8902 -0.4554  0.0063
              Bcc     0.0000     0.000     0.000     0.000  0.4555  0.8902 -0.0030
 
              Baa    -0.0000    -0.000    -0.000    -0.000  0.9998  0.0218 -0.0026
    19 C(13)  Bbb     0.0000     0.000     0.000     0.000  0.0019  0.0282  0.9996
              Bcc     0.0000     0.000     0.000     0.000 -0.0218  0.9994 -0.0282
 
              Baa    -0.0000    -0.000    -0.000    -0.000 -0.3679  0.9299 -0.0003
    20 S(33)  Bbb     0.0000     0.000     0.000     0.000 -0.0093 -0.0034  1.0000
              Bcc     0.0000     0.000     0.000     0.000  0.9298  0.3679  0.0099
 
              Baa    -0.0000    -0.000    -0.000    -0.000  0.8366 -0.5478  0.0089
    21 C(13)  Bbb     0.0000     0.000     0.000     0.000  0.5478  0.8363 -0.0225
              Bcc     0.0000     0.000     0.000     0.000  0.0049  0.0237  0.9997
 
              Baa    -0.0000    -0.000    -0.000    -0.000  0.8009  0.5980 -0.0310
    22 C(13)  Bbb     0.0000     0.000     0.000     0.000 -0.0208  0.0795  0.9966
              Bcc     0.0000     0.000     0.000     0.000 -0.5985  0.7975 -0.0761
 
              Baa    -0.0000    -0.000    -0.000    -0.000  0.4451  0.8954  0.0132
    23 N(14)  Bbb     0.0000     0.000     0.000     0.000 -0.0170 -0.0063  0.9998
              Bcc     0.0000     0.000     0.000     0.000  0.8953 -0.4452  0.0124
 
              Baa    -0.0000    -0.000    -0.000    -0.000  0.8103  0.5848  0.0372
    24 C(13)  Bbb     0.0000     0.000     0.000     0.000 -0.0983  0.0732  0.9925
              Bcc     0.0000     0.000     0.000     0.000 -0.5777  0.8079 -0.1168
 
              Baa    -0.0000    -0.000    -0.000    -0.000  0.8815  0.4688  0.0558
    25 S(33)  Bbb     0.0000     0.000     0.000     0.000 -0.4008  0.8055 -0.4365
              Bcc     0.0000     0.000     0.000     0.000 -0.2496  0.3625  0.8980
 
              Baa    -0.0000    -0.000    -0.000    -0.000 -0.0097  0.0139  0.9999
    26 C(13)  Bbb    -0.0000    -0.000    -0.000    -0.000 -0.1893  0.9818 -0.0154
              Bcc     0.0000     0.000     0.000     0.000  0.9819  0.1894  0.0069
 
              Baa    -0.0000    -0.000    -0.000    -0.000  0.4231  0.9060 -0.0097
    27 N(14)  Bbb    -0.0000    -0.000    -0.000    -0.000  0.9055 -0.4225  0.0394
              Bcc     0.0000     0.000     0.000     0.000 -0.0316  0.0255  0.9992
 
              Baa    -0.0000    -0.000    -0.000    -0.000  0.9748 -0.2231 -0.0074
    28 C(13)  Bbb    -0.0000    -0.000    -0.000    -0.000  0.2230  0.9748 -0.0087
              Bcc     0.0000     0.000     0.000     0.000  0.0091  0.0068  0.9999
 
              Baa    -0.0000    -0.000    -0.000    -0.000  0.8340 -0.5517 -0.0017
    29 C(13)  Bbb     0.0000     0.000     0.000     0.000  0.0049  0.0043  1.0000
              Bcc     0.0000     0.000     0.000     0.000  0.5517  0.8340 -0.0063
 
              Baa    -0.0000    -0.000    -0.000    -0.000  0.0215 -0.0158  0.9996
    30 S(33)  Bbb    -0.0000    -0.000    -0.000    -0.000  0.9871  0.1587 -0.0188
              Bcc     0.0000     0.000     0.000     0.000 -0.1584  0.9872  0.0190
 
              Baa    -0.0000    -0.000    -0.000    -0.000 -0.5435  0.8394 -0.0046
    31 H(1)   Bbb     0.0000     0.000     0.000     0.000 -0.0055  0.0019  1.0000
              Bcc     0.0000     0.000     0.000     0.000  0.8394  0.5435  0.0036
 
              Baa    -0.0000    -0.000    -0.000    -0.000  0.5153  0.8565 -0.0306
    32 H(1)   Bbb     0.0000     0.000     0.000     0.000  0.8569 -0.5144  0.0338
              Bcc     0.0000     0.000     0.000     0.000 -0.0132  0.0436  0.9990
 
              Baa    -0.0000    -0.000    -0.000    -0.000  0.6358  0.7717 -0.0152
    33 H(1)   Bbb     0.0000     0.000     0.000     0.000  0.0040  0.0164  0.9999
              Bcc     0.0000     0.000     0.000     0.000  0.7719 -0.6357  0.0074
 
              Baa    -0.0000    -0.000    -0.000    -0.000 -0.0151  0.9997 -0.0210
    34 H(1)   Bbb     0.0000     0.000     0.000     0.000  0.9979  0.0164  0.0626
              Bcc     0.0000     0.000     0.000     0.000 -0.0630  0.0200  0.9978
 
              Baa    -0.0000    -0.000    -0.000    -0.000  0.7839 -0.6208  0.0107
    35 H(1)   Bbb    -0.0000    -0.000    -0.000    -0.000 -0.0005  0.0166  0.9999
              Bcc     0.0000     0.000     0.000     0.000  0.6209  0.7838 -0.0127
 
              Baa    -0.0000    -0.000    -0.000    -0.000  0.6748  0.7355  0.0607
    36 H(1)   Bbb     0.0000     0.000     0.000     0.000  0.0558 -0.1329  0.9896
              Bcc     0.0000     0.000     0.000     0.000  0.7359 -0.6644 -0.1307
 
              Baa    -0.0000    -0.000    -0.000    -0.000  0.5352  0.8446  0.0169
    37 H(1)   Bbb     0.0000     0.000     0.000     0.000  0.8444 -0.5354  0.0181
              Bcc     0.0000     0.000     0.000     0.000 -0.0243 -0.0046  0.9997
 
              Baa    -0.0000    -0.000    -0.000    -0.000  0.0457  0.9986  0.0252
    38 H(1)   Bbb    -0.0000    -0.000    -0.000    -0.000 -0.0316 -0.0238  0.9992
              Bcc     0.0000     0.000     0.000     0.000  0.9985 -0.0464  0.0305
 

 ---------------------------------------------------------------------------------

 No NMR shielding tensors so no spin-rotation constants.
 Leave Link  601 at Sun Jul 26 13:04:31 2020, MaxMem=  4026531840 cpu:               4.4 elap:               0.7
 (Enter /opt/ohpc/pub/libs/gaussian/g16-A.03/sandybridge/g16/l9999.exe)

 Test job not archived.
 1\1\GINC-SKYLAKE018\FOpt\ULC-wPBE\CC-pVDZ\C18H8N6S6\RDU230\26-Jul-2020
 \0\\#P uLC-wPBE/cc-pVDZ iop(3/107=0139800000, 3/108=0139800000) opt\\H
 8 C18 S6 N6\\0,1\C,-10.864465342,-0.1125426421,-0.0055268072\C,-10.265
 5053481,-1.3543942064,-0.028878148\N,-8.8937689763,-1.3590328902,-0.02
 51935999\C,-8.4338608055,-0.1243433075,0.0009350515\S,-9.6624528139,1.
 1330168497,0.0228363978\C,-7.0215277477,0.2196372594,0.0117047678\N,-6
 .5500984754,1.4496681945,0.0379294691\C,-5.1844059755,1.4362641558,0.0
 419749196\C,-4.5713583196,0.1889343357,0.0186770811\S,-5.807060549,-1.
 0515345586,-0.0109830065\C,-3.1564522044,-0.1332265012,0.0173514247\C,
 -2.5433256645,-1.3813744547,0.0169383679\N,-1.1782752723,-1.394894194,
 0.0164108722\C,-0.7064918892,-0.163937824,0.0165183528\S,-1.9210707483
 ,1.1075171999,0.0165434811\C,0.7047494111,0.1736171183,0.016457056\N,1
 .1766613659,1.4045186655,0.0167469063\C,2.5417046789,1.3908796204,0.01
 76116445\C,3.1547083798,0.1426834944,0.0178393716\S,1.919302831,-1.097
 9614532,0.0157961162\C,4.5696147547,-0.179508424,0.0198879297\C,5.1826
 524746,-1.4264441717,0.059042799\N,6.548329393,-1.4400161549,0.0520457
 331\C,7.0197469617,-0.2104966213,0.0077489304\S,5.8052991059,1.0602972
 153,-0.0301804569\C,8.4320874354,0.1331773646,-0.0106239266\N,8.892044
 9435,1.3673275436,-0.0547352316\C,10.263782712,1.3624784919,-0.0612248
 702\C,10.8626825855,0.120999514,-0.0219419583\S,9.6606074584,-1.123923
 3218,0.0261986385\H,-11.9317829814,0.1310423258,-0.0035718907\H,-10.80
 62038101,-2.3087421486,-0.0495089272\H,-4.6388359128,2.3887773344,0.06
 38762477\H,-3.0894825012,-2.3337222346,0.0178918292\H,3.0879822854,2.3
 431353154,0.0196030557\H,4.6370796283,-2.3784841242,0.0960441475\H,10.
 8045233099,2.3163956029,-0.0961910111\H,11.929971622,-0.1227153685,-0.
 0188157568\\Version=EM64L-G16RevA.03\State=1-A\HF=-3406.7040597\S2=0.\
 S2-1=0.\S2A=0.\RMSD=7.933e-09\RMSF=6.043e-06\Dipole=-0.0002117,-0.0000
 51,0.0009396\Quadrupole=36.8993562,-16.3152513,-20.5841049,3.0462186,-
 0.0504026,-0.0217763\PG=C01 [X(C18H8N6S6)]\\@


 BRING ME INTO THE COMPANY OF THOSE WHO SEEK TRUTH,
 AND DELIVER ME FROM THOSE WHO HAVE FOUND IT.
 Job cpu time:       0 days  5 hours 44 minutes 11.5 seconds.
 Elapsed time:       0 days  0 hours 43 minutes 13.3 seconds.
 File lengths (MBytes):  RWF=    316 Int=      0 D2E=      0 Chk=     28 Scr=      8
 Normal termination of Gaussian 16 at Sun Jul 26 13:04:31 2020.
