 Entering Gaussian System, Link 0=g16
 Input=mols_55_3_06_CF-COC_opt_0.gjf
 Output=mols_55_3_06_CF-COC_opt_0.log
 Initial command:
 /opt/ohpc/pub/libs/gaussian/g16-A.03/sandybridge/g16/l1.exe "/mnt/gpfs2_4m/scratch/rdu230/ondemand/projects/dihedral_energies/7trial/wtuning/mols_55_3_06_CF-COC/Gau-450624.inp" -scrdir="/mnt/gpfs2_4m/scratch/rdu230/ondemand/projects/dihedral_energies/7trial/wtuning/mols_55_3_06_CF-COC/"
 Entering Link 1 = /opt/ohpc/pub/libs/gaussian/g16-A.03/sandybridge/g16/l1.exe PID=    450625.
  
 Copyright (c) 1988,1990,1992,1993,1995,1998,2003,2009,2016,
            Gaussian, Inc.  All Rights Reserved.
  
 This is part of the Gaussian(R) 16 program.  It is based on
 the Gaussian(R) 09 system (copyright 2009, Gaussian, Inc.),
 the Gaussian(R) 03 system (copyright 2003, Gaussian, Inc.),
 the Gaussian(R) 98 system (copyright 1998, Gaussian, Inc.),
 the Gaussian(R) 94 system (copyright 1995, Gaussian, Inc.),
 the Gaussian 92(TM) system (copyright 1992, Gaussian, Inc.),
 the Gaussian 90(TM) system (copyright 1990, Gaussian, Inc.),
 the Gaussian 88(TM) system (copyright 1988, Gaussian, Inc.),
 the Gaussian 86(TM) system (copyright 1986, Carnegie Mellon
 University), and the Gaussian 82(TM) system (copyright 1983,
 Carnegie Mellon University). Gaussian is a federally registered
 trademark of Gaussian, Inc.
  
 This software contains proprietary and confidential information,
 including trade secrets, belonging to Gaussian, Inc.
  
 This software is provided under written license and may be
 used, copied, transmitted, or stored only in accord with that
 written license.
  
 The following legend is applicable only to US Government
 contracts under FAR:
  
                    RESTRICTED RIGHTS LEGEND
  
 Use, reproduction and disclosure by the US Government is
 subject to restrictions as set forth in subparagraphs (a)
 and (c) of the Commercial Computer Software - Restricted
 Rights clause in FAR 52.227-19.
  
 Gaussian, Inc.
 340 Quinnipiac St., Bldg. 40, Wallingford CT 06492
  
  
 ---------------------------------------------------------------
 Warning -- This program may not be used in any manner that
 competes with the business of Gaussian, Inc. or will provide
 assistance to any competitor of Gaussian, Inc.  The licensee
 of this program is prohibited from giving any competitor of
 Gaussian, Inc. access to this program.  By using this program,
 the user acknowledges that Gaussian, Inc. is engaged in the
 business of creating and licensing software in the field of
 computational chemistry and represents and warrants to the
 licensee that it is not a competitor of Gaussian, Inc. and that
 it will not use this program in any manner prohibited above.
 ---------------------------------------------------------------
  

 Cite this work as:
 Gaussian 16, Revision A.03,
 M. J. Frisch, G. W. Trucks, H. B. Schlegel, G. E. Scuseria, 
 M. A. Robb, J. R. Cheeseman, G. Scalmani, V. Barone, 
 G. A. Petersson, H. Nakatsuji, X. Li, M. Caricato, A. V. Marenich, 
 J. Bloino, B. G. Janesko, R. Gomperts, B. Mennucci, H. P. Hratchian, 
 J. V. Ortiz, A. F. Izmaylov, J. L. Sonnenberg, D. Williams-Young, 
 F. Ding, F. Lipparini, F. Egidi, J. Goings, B. Peng, A. Petrone, 
 T. Henderson, D. Ranasinghe, V. G. Zakrzewski, J. Gao, N. Rega, 
 G. Zheng, W. Liang, M. Hada, M. Ehara, K. Toyota, R. Fukuda, 
 J. Hasegawa, M. Ishida, T. Nakajima, Y. Honda, O. Kitao, H. Nakai, 
 T. Vreven, K. Throssell, J. A. Montgomery, Jr., J. E. Peralta, 
 F. Ogliaro, M. J. Bearpark, J. J. Heyd, E. N. Brothers, K. N. Kudin, 
 V. N. Staroverov, T. A. Keith, R. Kobayashi, J. Normand, 
 K. Raghavachari, A. P. Rendell, J. C. Burant, S. S. Iyengar, 
 J. Tomasi, M. Cossi, J. M. Millam, M. Klene, C. Adamo, R. Cammi, 
 J. W. Ochterski, R. L. Martin, K. Morokuma, O. Farkas, 
 J. B. Foresman, and D. J. Fox, Gaussian, Inc., Wallingford CT, 2016.
 
 ******************************************
 Gaussian 16:  EM64L-G16RevA.03 25-Dec-2016
                23-Jul-2020 
 ******************************************
 %mem=30GB
 %nproc=8
 Will use up to    8 processors via shared memory.
 ---------------------------------------------------------------
 #P uLC-wPBE/cc-pVDZ iop(3/107=0097400000, 3/108=0097400000) opt
 ---------------------------------------------------------------
 1/18=20,19=15,26=3,38=1/1,3;
 2/9=110,12=2,17=6,18=5,40=1/2;
 3/5=16,11=2,25=1,30=1,71=1,74=-41,107=97400000,108=97400000,116=2/1,2,3;
 4//1;
 5/5=2,38=5/2;
 6/7=2,8=2,9=2,10=2,28=1/1;
 7//1,2,3,16;
 1/18=20,19=15,26=3/3(2);
 2/9=110/2;
 99//99;
 2/9=110/2;
 3/5=16,11=2,25=1,30=1,71=1,74=-41,107=97400000,108=97400000,116=2/1,2,3;
 4/5=5,16=3,69=1/1;
 5/5=2,38=5/2;
 7//1,2,3,16;
 1/18=20,19=15,26=3/3(-5);
 2/9=110/2;
 6/7=2,8=2,9=2,10=2,19=2,28=1/1;
 99/9=1/99;
 Leave Link    1 at Thu Jul 23 17:44:50 2020, MaxMem=  4026531840 cpu:               1.0 elap:               0.1
 (Enter /opt/ohpc/pub/libs/gaussian/g16-A.03/sandybridge/g16/l101.exe)
 ----------------
 H17 C27 S6 O3 F3
 ----------------
 Symbolic Z-matrix:
 Charge =  0 Multiplicity = 1
 C                     10.71496  -0.76112  -1.50492 
 C                     10.52385  -1.46493  -0.3593 
 C                     9.18004  -1.33643   0.16236 
 F                     8.78851  -1.92455   1.282 
 C                     8.49883  -0.35302  -0.49521 
 S                     9.406     0.21208  -1.8749 
 C                     7.1254    0.05602  -0.30941 
 C                     6.63626   1.3488   -0.20091 
 O                     7.38434   2.38107  -0.45521 
 C                     6.75532   3.69206  -0.45832 
 C                     5.19602   1.38562   0.04493 
 C                     4.6567    0.04114   0.17826 
 S                     5.90634  -1.07131   0.0579 
 C                     3.2946   -0.24671   0.51154 
 C                     2.85694  -1.46591   1.00711 
 C                     1.36425  -1.47364   1.18502 
 F                     0.69719  -2.53053   1.6946 
 C                     0.82217  -0.35417   0.70501 
 S                     1.96236   0.74631   0.14924 
 C                    -0.6042   -0.03524   0.67145 
 C                    -1.21351   1.17415   1.15443 
 O                    -0.51773   2.16435   1.79713 
 C                    -1.295     3.30641   2.15428 
 C                    -2.6836    1.10562   0.97256 
 C                    -3.07401  -0.10661   0.27853 
 S                    -1.74148  -1.12616   0.06157 
 C                    -4.37499  -0.4407   -0.04522 
 C                    -4.84781  -1.57769  -0.76472 
 C                    -6.18227  -1.63753  -1.00067 
 F                    -6.77737  -2.60822  -1.6166 
 C                    -6.88689  -0.56208  -0.32505 
 S                    -5.80364   0.45796   0.37935 
 C                    -8.26628  -0.37611  -0.3107 
 C                    -8.99337   0.74759  -0.70655 
 O                    -8.29017   1.88223  -1.09986 
 C                    -9.11383   2.99418  -1.54223 
 C                    -10.38113   0.65125  -0.53482 
 C                    -10.76938  -0.66113  -0.0552 
 S                    -9.33769  -1.63592   0.17528 
 H                     11.64857  -0.64176  -2.04787 
 H                     11.28636  -2.22912   0.04483 
 H                     6.04506   3.68839  -1.2586 
 H                     6.30994   3.94081   0.51143 
 H                     7.54968   4.38813  -0.7443 
 H                     4.5633    2.21989   0.17065 
 H                     3.4194   -2.28396   1.36414 
 H                    -1.75889   3.69531   1.32954 
 H                    -1.98804   2.97703   2.89718 
 H                    -0.55076   3.99625   2.56662 
 H                    -3.30914   1.83575   1.24185 
 H                    -4.11422  -2.35894  -1.21879 
 H                    -9.82191   2.66812  -2.3076 
 H                    -9.68996   3.40557  -0.6723 
 H                    -8.4324    3.78192  -1.84358 
 H                    -11.18932   1.41755  -0.73461 
 H                    -11.74107  -1.02477   0.13217 
 
 ITRead=  0  0  0  0  0  0  0  0  0  0  0  0  0  0  0  0  0  0  0  0
 ITRead=  0  0  0  0  0  0  0  0  0  0  0  0  0  0  0  0  0  0  0  0
 ITRead=  0  0  0  0  0  0  0  0  0  0  0  0  0  0  0  0
 MicOpt= -1 -1 -1 -1 -1 -1 -1 -1 -1 -1 -1 -1 -1 -1 -1 -1 -1 -1 -1 -1
 MicOpt= -1 -1 -1 -1 -1 -1 -1 -1 -1 -1 -1 -1 -1 -1 -1 -1 -1 -1 -1 -1
 MicOpt= -1 -1 -1 -1 -1 -1 -1 -1 -1 -1 -1 -1 -1 -1 -1 -1
 NAtoms=     56 NQM=       56 NQMF=       0 NMMI=      0 NMMIF=      0
                NMic=       0 NMicF=      0.
                    Isotopes and Nuclear Properties:
 (Nuclear quadrupole moments (NQMom) in fm**2, nuclear magnetic moments (NMagM)
  in nuclear magnetons)

  Atom         1           2           3           4           5           6           7           8           9          10
 IAtWgt=          12          12          12          19          12          32          12          12          16          12
 AtmWgt=  12.0000000  12.0000000  12.0000000  18.9984033  12.0000000  31.9720718  12.0000000  12.0000000  15.9949146  12.0000000
 NucSpn=           0           0           0           1           0           0           0           0           0           0
 AtZEff=  -0.0000000  -0.0000000  -0.0000000  -0.0000000  -0.0000000  -0.0000000  -0.0000000  -0.0000000  -0.0000000  -0.0000000
 NQMom=    0.0000000   0.0000000   0.0000000   0.0000000   0.0000000   0.0000000   0.0000000   0.0000000   0.0000000   0.0000000
 NMagM=    0.0000000   0.0000000   0.0000000   2.6288670   0.0000000   0.0000000   0.0000000   0.0000000   0.0000000   0.0000000
 AtZNuc=   6.0000000   6.0000000   6.0000000   9.0000000   6.0000000  16.0000000   6.0000000   6.0000000   8.0000000   6.0000000

  Atom        11          12          13          14          15          16          17          18          19          20
 IAtWgt=          12          12          32          12          12          12          19          12          32          12
 AtmWgt=  12.0000000  12.0000000  31.9720718  12.0000000  12.0000000  12.0000000  18.9984033  12.0000000  31.9720718  12.0000000
 NucSpn=           0           0           0           0           0           0           1           0           0           0
 AtZEff=  -0.0000000  -0.0000000  -0.0000000  -0.0000000  -0.0000000  -0.0000000  -0.0000000  -0.0000000  -0.0000000  -0.0000000
 NQMom=    0.0000000   0.0000000   0.0000000   0.0000000   0.0000000   0.0000000   0.0000000   0.0000000   0.0000000   0.0000000
 NMagM=    0.0000000   0.0000000   0.0000000   0.0000000   0.0000000   0.0000000   2.6288670   0.0000000   0.0000000   0.0000000
 AtZNuc=   6.0000000   6.0000000  16.0000000   6.0000000   6.0000000   6.0000000   9.0000000   6.0000000  16.0000000   6.0000000

  Atom        21          22          23          24          25          26          27          28          29          30
 IAtWgt=          12          16          12          12          12          32          12          12          12          19
 AtmWgt=  12.0000000  15.9949146  12.0000000  12.0000000  12.0000000  31.9720718  12.0000000  12.0000000  12.0000000  18.9984033
 NucSpn=           0           0           0           0           0           0           0           0           0           1
 AtZEff=  -0.0000000  -0.0000000  -0.0000000  -0.0000000  -0.0000000  -0.0000000  -0.0000000  -0.0000000  -0.0000000  -0.0000000
 NQMom=    0.0000000   0.0000000   0.0000000   0.0000000   0.0000000   0.0000000   0.0000000   0.0000000   0.0000000   0.0000000
 NMagM=    0.0000000   0.0000000   0.0000000   0.0000000   0.0000000   0.0000000   0.0000000   0.0000000   0.0000000   2.6288670
 AtZNuc=   6.0000000   8.0000000   6.0000000   6.0000000   6.0000000  16.0000000   6.0000000   6.0000000   6.0000000   9.0000000

  Atom        31          32          33          34          35          36          37          38          39          40
 IAtWgt=          12          32          12          12          16          12          12          12          32           1
 AtmWgt=  12.0000000  31.9720718  12.0000000  12.0000000  15.9949146  12.0000000  12.0000000  12.0000000  31.9720718   1.0078250
 NucSpn=           0           0           0           0           0           0           0           0           0           1
 AtZEff=  -0.0000000  -0.0000000  -0.0000000  -0.0000000  -0.0000000  -0.0000000  -0.0000000  -0.0000000  -0.0000000  -0.0000000
 NQMom=    0.0000000   0.0000000   0.0000000   0.0000000   0.0000000   0.0000000   0.0000000   0.0000000   0.0000000   0.0000000
 NMagM=    0.0000000   0.0000000   0.0000000   0.0000000   0.0000000   0.0000000   0.0000000   0.0000000   0.0000000   2.7928460
 AtZNuc=   6.0000000  16.0000000   6.0000000   6.0000000   8.0000000   6.0000000   6.0000000   6.0000000  16.0000000   1.0000000

  Atom        41          42          43          44          45          46          47          48          49          50
 IAtWgt=           1           1           1           1           1           1           1           1           1           1
 AtmWgt=   1.0078250   1.0078250   1.0078250   1.0078250   1.0078250   1.0078250   1.0078250   1.0078250   1.0078250   1.0078250
 NucSpn=           1           1           1           1           1           1           1           1           1           1
 AtZEff=  -0.0000000  -0.0000000  -0.0000000  -0.0000000  -0.0000000  -0.0000000  -0.0000000  -0.0000000  -0.0000000  -0.0000000
 NQMom=    0.0000000   0.0000000   0.0000000   0.0000000   0.0000000   0.0000000   0.0000000   0.0000000   0.0000000   0.0000000
 NMagM=    2.7928460   2.7928460   2.7928460   2.7928460   2.7928460   2.7928460   2.7928460   2.7928460   2.7928460   2.7928460
 AtZNuc=   1.0000000   1.0000000   1.0000000   1.0000000   1.0000000   1.0000000   1.0000000   1.0000000   1.0000000   1.0000000

  Atom        51          52          53          54          55          56
 IAtWgt=           1           1           1           1           1           1
 AtmWgt=   1.0078250   1.0078250   1.0078250   1.0078250   1.0078250   1.0078250
 NucSpn=           1           1           1           1           1           1
 AtZEff=  -0.0000000  -0.0000000  -0.0000000  -0.0000000  -0.0000000  -0.0000000
 NQMom=    0.0000000   0.0000000   0.0000000   0.0000000   0.0000000   0.0000000
 NMagM=    2.7928460   2.7928460   2.7928460   2.7928460   2.7928460   2.7928460
 AtZNuc=   1.0000000   1.0000000   1.0000000   1.0000000   1.0000000   1.0000000
 Leave Link  101 at Thu Jul 23 17:44:50 2020, MaxMem=  4026531840 cpu:               1.9 elap:               0.4
 (Enter /opt/ohpc/pub/libs/gaussian/g16-A.03/sandybridge/g16/l103.exe)

 GradGradGradGradGradGradGradGradGradGradGradGradGradGradGradGradGradGrad
 Berny optimization.
 Initialization pass.
                           ----------------------------
                           !    Initial Parameters    !
                           ! (Angstroms and Degrees)  !
 --------------------------                            --------------------------
 ! Name  Definition              Value          Derivative Info.                !
 --------------------------------------------------------------------------------
 ! R1    R(1,2)                  1.3581         estimate D2E/DX2                !
 ! R2    R(1,6)                  1.6725         estimate D2E/DX2                !
 ! R3    R(1,40)                 1.0866         estimate D2E/DX2                !
 ! R4    R(2,3)                  1.4472         estimate D2E/DX2                !
 ! R5    R(2,41)                 1.1527         estimate D2E/DX2                !
 ! R6    R(3,4)                  1.3239         estimate D2E/DX2                !
 ! R7    R(3,5)                  1.3651         estimate D2E/DX2                !
 ! R8    R(5,6)                  1.7452         estimate D2E/DX2                !
 ! R9    R(5,7)                  1.445          estimate D2E/DX2                !
 ! R10   R(7,8)                  1.3865         estimate D2E/DX2                !
 ! R11   R(7,13)                 1.7006         estimate D2E/DX2                !
 ! R12   R(8,9)                  1.2999         estimate D2E/DX2                !
 ! R13   R(8,11)                 1.4615         estimate D2E/DX2                !
 ! R14   R(9,10)                 1.4541         estimate D2E/DX2                !
 ! R15   R(10,42)                1.07           estimate D2E/DX2                !
 ! R16   R(10,43)                1.0957         estimate D2E/DX2                !
 ! R17   R(10,44)                1.0942         estimate D2E/DX2                !
 ! R18   R(11,12)                1.4547         estimate D2E/DX2                !
 ! R19   R(11,45)                1.0546         estimate D2E/DX2                !
 ! R20   R(12,13)                1.6774         estimate D2E/DX2                !
 ! R21   R(12,14)                1.4315         estimate D2E/DX2                !
 ! R22   R(14,15)                1.3869         estimate D2E/DX2                !
 ! R23   R(14,19)                1.7006         estimate D2E/DX2                !
 ! R24   R(15,16)                1.5033         estimate D2E/DX2                !
 ! R25   R(15,46)                1.055          estimate D2E/DX2                !
 ! R26   R(16,17)                1.3497         estimate D2E/DX2                !
 ! R27   R(16,18)                1.3332         estimate D2E/DX2                !
 ! R28   R(18,19)                1.6793         estimate D2E/DX2                !
 ! R29   R(18,20)                1.462          estimate D2E/DX2                !
 ! R30   R(20,21)                1.4378         estimate D2E/DX2                !
 ! R31   R(20,26)                1.6898         estimate D2E/DX2                !
 ! R32   R(21,22)                1.3703         estimate D2E/DX2                !
 ! R33   R(21,24)                1.4829         estimate D2E/DX2                !
 ! R34   R(22,23)                1.4269         estimate D2E/DX2                !
 ! R35   R(23,47)                1.023          estimate D2E/DX2                !
 ! R36   R(23,48)                1.068          estimate D2E/DX2                !
 ! R37   R(23,49)                1.0954         estimate D2E/DX2                !
 ! R38   R(24,25)                1.4504         estimate D2E/DX2                !
 ! R39   R(24,50)                0.9985         estimate D2E/DX2                !
 ! R40   R(25,26)                1.6918         estimate D2E/DX2                !
 ! R41   R(25,27)                1.3817         estimate D2E/DX2                !
 ! R42   R(27,28)                1.4262         estimate D2E/DX2                !
 ! R43   R(27,32)                1.7404         estimate D2E/DX2                !
 ! R44   R(28,29)                1.3565         estimate D2E/DX2                !
 ! R45   R(28,51)                1.1639         estimate D2E/DX2                !
 ! R46   R(29,30)                1.2945         estimate D2E/DX2                !
 ! R47   R(29,31)                1.4524         estimate D2E/DX2                !
 ! R48   R(31,32)                1.6462         estimate D2E/DX2                !
 ! R49   R(31,33)                1.3919         estimate D2E/DX2                !
 ! R50   R(33,34)                1.3957         estimate D2E/DX2                !
 ! R51   R(33,39)                1.7237         estimate D2E/DX2                !
 ! R52   R(34,35)                1.3916         estimate D2E/DX2                !
 ! R53   R(34,37)                1.4017         estimate D2E/DX2                !
 ! R54   R(35,36)                1.4528         estimate D2E/DX2                !
 ! R55   R(36,52)                1.0925         estimate D2E/DX2                !
 ! R56   R(36,53)                1.1216         estimate D2E/DX2                !
 ! R57   R(36,54)                1.0843         estimate D2E/DX2                !
 ! R58   R(37,38)                1.4502         estimate D2E/DX2                !
 ! R59   R(37,55)                1.1315         estimate D2E/DX2                !
 ! R60   R(38,39)                1.7473         estimate D2E/DX2                !
 ! R61   R(38,56)                1.0543         estimate D2E/DX2                !
 ! A1    A(2,1,6)              112.2115         estimate D2E/DX2                !
 ! A2    A(2,1,40)             126.8245         estimate D2E/DX2                !
 ! A3    A(6,1,40)             119.8665         estimate D2E/DX2                !
 ! A4    A(1,2,3)              112.875          estimate D2E/DX2                !
 ! A5    A(1,2,41)             123.109          estimate D2E/DX2                !
 ! A6    A(3,2,41)             123.1425         estimate D2E/DX2                !
 ! A7    A(2,3,4)              122.6833         estimate D2E/DX2                !
 ! A8    A(2,3,5)              110.7135         estimate D2E/DX2                !
 ! A9    A(4,3,5)              125.4366         estimate D2E/DX2                !
 ! A10   A(3,5,6)              110.7732         estimate D2E/DX2                !
 ! A11   A(3,5,7)              128.0441         estimate D2E/DX2                !
 ! A12   A(6,5,7)              120.2671         estimate D2E/DX2                !
 ! A13   A(1,6,5)               92.4943         estimate D2E/DX2                !
 ! A14   A(5,7,8)              127.5394         estimate D2E/DX2                !
 ! A15   A(5,7,13)             121.43           estimate D2E/DX2                !
 ! A16   A(8,7,13)             110.3844         estimate D2E/DX2                !
 ! A17   A(7,8,9)              121.4727         estimate D2E/DX2                !
 ! A18   A(7,8,11)             112.6002         estimate D2E/DX2                !
 ! A19   A(9,8,11)             125.4498         estimate D2E/DX2                !
 ! A20   A(8,9,10)             117.8664         estimate D2E/DX2                !
 ! A21   A(9,10,42)            106.5978         estimate D2E/DX2                !
 ! A22   A(9,10,43)            112.2473         estimate D2E/DX2                !
 ! A23   A(9,10,44)            105.0725         estimate D2E/DX2                !
 ! A24   A(42,10,43)           113.1348         estimate D2E/DX2                !
 ! A25   A(42,10,44)           106.774          estimate D2E/DX2                !
 ! A26   A(43,10,44)           112.4562         estimate D2E/DX2                !
 ! A27   A(8,11,12)            110.9449         estimate D2E/DX2                !
 ! A28   A(8,11,45)            129.1389         estimate D2E/DX2                !
 ! A29   A(12,11,45)           119.8532         estimate D2E/DX2                !
 ! A30   A(11,12,13)           109.2787         estimate D2E/DX2                !
 ! A31   A(11,12,14)           124.0508         estimate D2E/DX2                !
 ! A32   A(13,12,14)           126.3148         estimate D2E/DX2                !
 ! A33   A(7,13,12)             96.3099         estimate D2E/DX2                !
 ! A34   A(12,14,15)           124.0694         estimate D2E/DX2                !
 ! A35   A(12,14,19)           125.3365         estimate D2E/DX2                !
 ! A36   A(15,14,19)           110.0118         estimate D2E/DX2                !
 ! A37   A(14,15,16)           111.1086         estimate D2E/DX2                !
 ! A38   A(14,15,46)           129.3687         estimate D2E/DX2                !
 ! A39   A(16,15,46)           119.0352         estimate D2E/DX2                !
 ! A40   A(15,16,17)           122.6465         estimate D2E/DX2                !
 ! A41   A(15,16,18)           110.904          estimate D2E/DX2                !
 ! A42   A(17,16,18)           126.3351         estimate D2E/DX2                !
 ! A43   A(16,18,19)           113.1636         estimate D2E/DX2                !
 ! A44   A(16,18,20)           126.0242         estimate D2E/DX2                !
 ! A45   A(19,18,20)           120.7893         estimate D2E/DX2                !
 ! A46   A(14,19,18)            94.5156         estimate D2E/DX2                !
 ! A47   A(18,20,21)           126.1041         estimate D2E/DX2                !
 ! A48   A(18,20,26)           121.6066         estimate D2E/DX2                !
 ! A49   A(21,20,26)           112.2757         estimate D2E/DX2                !
 ! A50   A(20,21,22)           123.3825         estimate D2E/DX2                !
 ! A51   A(20,21,24)           109.8802         estimate D2E/DX2                !
 ! A52   A(22,21,24)           126.463          estimate D2E/DX2                !
 ! A53   A(21,22,23)           114.7832         estimate D2E/DX2                !
 ! A54   A(22,23,47)           110.4553         estimate D2E/DX2                !
 ! A55   A(22,23,48)           106.3041         estimate D2E/DX2                !
 ! A56   A(22,23,49)           103.1898         estimate D2E/DX2                !
 ! A57   A(47,23,48)           112.5662         estimate D2E/DX2                !
 ! A58   A(47,23,49)           111.8489         estimate D2E/DX2                !
 ! A59   A(48,23,49)           111.9172         estimate D2E/DX2                !
 ! A60   A(21,24,25)           111.3568         estimate D2E/DX2                !
 ! A61   A(21,24,50)           123.6577         estimate D2E/DX2                !
 ! A62   A(25,24,50)           124.8622         estimate D2E/DX2                !
 ! A63   A(24,25,26)           110.6734         estimate D2E/DX2                !
 ! A64   A(24,25,27)           124.589          estimate D2E/DX2                !
 ! A65   A(26,25,27)           124.4633         estimate D2E/DX2                !
 ! A66   A(20,26,25)            95.4375         estimate D2E/DX2                !
 ! A67   A(25,27,28)           128.5472         estimate D2E/DX2                !
 ! A68   A(25,27,32)           126.2237         estimate D2E/DX2                !
 ! A69   A(28,27,32)           105.2227         estimate D2E/DX2                !
 ! A70   A(27,28,29)           116.6841         estimate D2E/DX2                !
 ! A71   A(27,28,51)           121.5319         estimate D2E/DX2                !
 ! A72   A(29,28,51)           121.5059         estimate D2E/DX2                !
 ! A73   A(28,29,30)           124.6169         estimate D2E/DX2                !
 ! A74   A(28,29,31)           111.3266         estimate D2E/DX2                !
 ! A75   A(30,29,31)           123.6098         estimate D2E/DX2                !
 ! A76   A(29,31,32)           109.7921         estimate D2E/DX2                !
 ! A77   A(29,31,33)           125.7663         estimate D2E/DX2                !
 ! A78   A(32,31,33)           124.3945         estimate D2E/DX2                !
 ! A79   A(27,32,31)            96.6517         estimate D2E/DX2                !
 ! A80   A(31,33,34)           128.3805         estimate D2E/DX2                !
 ! A81   A(31,33,39)           121.4143         estimate D2E/DX2                !
 ! A82   A(34,33,39)           110.1562         estimate D2E/DX2                !
 ! A83   A(33,34,35)           118.2521         estimate D2E/DX2                !
 ! A84   A(33,34,37)           115.1943         estimate D2E/DX2                !
 ! A85   A(35,34,37)           126.2258         estimate D2E/DX2                !
 ! A86   A(34,35,36)           115.0644         estimate D2E/DX2                !
 ! A87   A(35,36,52)           110.6317         estimate D2E/DX2                !
 ! A88   A(35,36,53)           109.6209         estimate D2E/DX2                !
 ! A89   A(35,36,54)           106.5224         estimate D2E/DX2                !
 ! A90   A(52,36,53)           108.659          estimate D2E/DX2                !
 ! A91   A(52,36,54)           115.4329         estimate D2E/DX2                !
 ! A92   A(53,36,54)           105.7777         estimate D2E/DX2                !
 ! A93   A(34,37,38)           111.579          estimate D2E/DX2                !
 ! A94   A(34,37,55)           129.7168         estimate D2E/DX2                !
 ! A95   A(38,37,55)           118.6888         estimate D2E/DX2                !
 ! A96   A(37,38,39)           109.2153         estimate D2E/DX2                !
 ! A97   A(37,38,56)           128.1448         estimate D2E/DX2                !
 ! A98   A(39,38,56)           122.6375         estimate D2E/DX2                !
 ! A99   A(33,39,38)            93.691          estimate D2E/DX2                !
 ! D1    D(6,1,2,3)              7.5602         estimate D2E/DX2                !
 ! D2    D(6,1,2,41)           177.1507         estimate D2E/DX2                !
 ! D3    D(40,1,2,3)           175.4397         estimate D2E/DX2                !
 ! D4    D(40,1,2,41)          -14.9697         estimate D2E/DX2                !
 ! D5    D(2,1,6,5)             -2.1086         estimate D2E/DX2                !
 ! D6    D(40,1,6,5)          -170.933          estimate D2E/DX2                !
 ! D7    D(1,2,3,4)           -178.9132         estimate D2E/DX2                !
 ! D8    D(1,2,3,5)            -10.6528         estimate D2E/DX2                !
 ! D9    D(41,2,3,4)            11.5003         estimate D2E/DX2                !
 ! D10   D(41,2,3,5)           179.7606         estimate D2E/DX2                !
 ! D11   D(2,3,5,6)              8.7801         estimate D2E/DX2                !
 ! D12   D(2,3,5,7)            177.6957         estimate D2E/DX2                !
 ! D13   D(4,3,5,6)            176.6468         estimate D2E/DX2                !
 ! D14   D(4,3,5,7)            -14.4375         estimate D2E/DX2                !
 ! D15   D(3,5,6,1)             -4.1112         estimate D2E/DX2                !
 ! D16   D(7,5,6,1)           -174.0149         estimate D2E/DX2                !
 ! D17   D(3,5,7,8)            134.0987         estimate D2E/DX2                !
 ! D18   D(3,5,7,13)           -35.7704         estimate D2E/DX2                !
 ! D19   D(6,5,7,8)            -57.9139         estimate D2E/DX2                !
 ! D20   D(6,5,7,13)           132.217          estimate D2E/DX2                !
 ! D21   D(5,7,8,9)             10.2739         estimate D2E/DX2                !
 ! D22   D(5,7,8,11)          -177.2421         estimate D2E/DX2                !
 ! D23   D(13,7,8,9)          -178.9398         estimate D2E/DX2                !
 ! D24   D(13,7,8,11)           -6.4558         estimate D2E/DX2                !
 ! D25   D(5,7,13,12)          178.2609         estimate D2E/DX2                !
 ! D26   D(8,7,13,12)            6.8179         estimate D2E/DX2                !
 ! D27   D(7,8,9,10)           173.4575         estimate D2E/DX2                !
 ! D28   D(11,8,9,10)            1.9823         estimate D2E/DX2                !
 ! D29   D(7,8,11,12)            2.8192         estimate D2E/DX2                !
 ! D30   D(7,8,11,45)          179.88           estimate D2E/DX2                !
 ! D31   D(9,8,11,12)          174.948          estimate D2E/DX2                !
 ! D32   D(9,8,11,45)           -7.9912         estimate D2E/DX2                !
 ! D33   D(8,9,10,42)          -63.9599         estimate D2E/DX2                !
 ! D34   D(8,9,10,43)           60.434          estimate D2E/DX2                !
 ! D35   D(8,9,10,44)         -177.048          estimate D2E/DX2                !
 ! D36   D(8,11,12,13)           2.1435         estimate D2E/DX2                !
 ! D37   D(8,11,12,14)         175.6668         estimate D2E/DX2                !
 ! D38   D(45,11,12,13)       -175.2282         estimate D2E/DX2                !
 ! D39   D(45,11,12,14)         -1.7049         estimate D2E/DX2                !
 ! D40   D(11,12,13,7)          -5.0802         estimate D2E/DX2                !
 ! D41   D(14,12,13,7)        -178.4197         estimate D2E/DX2                !
 ! D42   D(11,12,14,15)       -160.8887         estimate D2E/DX2                !
 ! D43   D(11,12,14,19)         28.7454         estimate D2E/DX2                !
 ! D44   D(13,12,14,15)         11.5182         estimate D2E/DX2                !
 ! D45   D(13,12,14,19)       -158.8478         estimate D2E/DX2                !
 ! D46   D(12,14,15,16)       -176.9025         estimate D2E/DX2                !
 ! D47   D(12,14,15,46)         11.3234         estimate D2E/DX2                !
 ! D48   D(19,14,15,16)         -5.2568         estimate D2E/DX2                !
 ! D49   D(19,14,15,46)       -177.031          estimate D2E/DX2                !
 ! D50   D(12,14,19,18)        174.3854         estimate D2E/DX2                !
 ! D51   D(15,14,19,18)          2.8696         estimate D2E/DX2                !
 ! D52   D(14,15,16,17)       -177.8223         estimate D2E/DX2                !
 ! D53   D(14,15,16,18)          5.8413         estimate D2E/DX2                !
 ! D54   D(46,15,16,17)         -5.0901         estimate D2E/DX2                !
 ! D55   D(46,15,16,18)        178.5734         estimate D2E/DX2                !
 ! D56   D(15,16,18,19)         -3.6993         estimate D2E/DX2                !
 ! D57   D(15,16,18,20)        178.0392         estimate D2E/DX2                !
 ! D58   D(17,16,18,19)       -179.8698         estimate D2E/DX2                !
 ! D59   D(17,16,18,20)          1.8687         estimate D2E/DX2                !
 ! D60   D(16,18,19,14)          0.6401         estimate D2E/DX2                !
 ! D61   D(20,18,19,14)        179.0034         estimate D2E/DX2                !
 ! D62   D(16,18,20,21)        128.9867         estimate D2E/DX2                !
 ! D63   D(16,18,20,26)        -49.5683         estimate D2E/DX2                !
 ! D64   D(19,18,20,21)        -49.1527         estimate D2E/DX2                !
 ! D65   D(19,18,20,26)        132.2923         estimate D2E/DX2                !
 ! D66   D(18,20,21,22)         -4.3084         estimate D2E/DX2                !
 ! D67   D(18,20,21,24)       -178.6369         estimate D2E/DX2                !
 ! D68   D(26,20,21,22)        174.3617         estimate D2E/DX2                !
 ! D69   D(26,20,21,24)          0.0332         estimate D2E/DX2                !
 ! D70   D(18,20,26,25)       -177.9989         estimate D2E/DX2                !
 ! D71   D(21,20,26,25)          3.2627         estimate D2E/DX2                !
 ! D72   D(20,21,22,23)        177.7795         estimate D2E/DX2                !
 ! D73   D(24,21,22,23)         -8.8563         estimate D2E/DX2                !
 ! D74   D(20,21,24,25)         -4.1272         estimate D2E/DX2                !
 ! D75   D(20,21,24,50)        179.7393         estimate D2E/DX2                !
 ! D76   D(22,21,24,25)       -178.2378         estimate D2E/DX2                !
 ! D77   D(22,21,24,50)          5.6286         estimate D2E/DX2                !
 ! D78   D(21,22,23,47)        -55.636          estimate D2E/DX2                !
 ! D79   D(21,22,23,48)         66.7649         estimate D2E/DX2                !
 ! D80   D(21,22,23,49)       -175.331          estimate D2E/DX2                !
 ! D81   D(21,24,25,26)          6.4578         estimate D2E/DX2                !
 ! D82   D(21,24,25,27)       -179.341          estimate D2E/DX2                !
 ! D83   D(50,24,25,26)       -177.4644         estimate D2E/DX2                !
 ! D84   D(50,24,25,27)         -3.2633         estimate D2E/DX2                !
 ! D85   D(24,25,26,20)         -5.632          estimate D2E/DX2                !
 ! D86   D(27,25,26,20)       -179.8419         estimate D2E/DX2                !
 ! D87   D(24,25,27,28)        177.4447         estimate D2E/DX2                !
 ! D88   D(24,25,27,32)         -3.6091         estimate D2E/DX2                !
 ! D89   D(26,25,27,28)         -9.1389         estimate D2E/DX2                !
 ! D90   D(26,25,27,32)        169.8072         estimate D2E/DX2                !
 ! D91   D(25,27,28,29)       -177.1012         estimate D2E/DX2                !
 ! D92   D(25,27,28,51)         -3.0721         estimate D2E/DX2                !
 ! D93   D(32,27,28,29)          3.7799         estimate D2E/DX2                !
 ! D94   D(32,27,28,51)        177.809          estimate D2E/DX2                !
 ! D95   D(25,27,32,31)       -179.3321         estimate D2E/DX2                !
 ! D96   D(28,27,32,31)         -0.1863         estimate D2E/DX2                !
 ! D97   D(27,28,29,30)       -178.7352         estimate D2E/DX2                !
 ! D98   D(27,28,29,31)         -6.1879         estimate D2E/DX2                !
 ! D99   D(51,28,29,30)          7.234          estimate D2E/DX2                !
 ! D100  D(51,28,29,31)        179.7813         estimate D2E/DX2                !
 ! D101  D(28,29,31,32)          5.6469         estimate D2E/DX2                !
 ! D102  D(28,29,31,33)       -176.7675         estimate D2E/DX2                !
 ! D103  D(30,29,31,32)        178.2829         estimate D2E/DX2                !
 ! D104  D(30,29,31,33)         -4.1314         estimate D2E/DX2                !
 ! D105  D(29,31,32,27)         -3.0403         estimate D2E/DX2                !
 ! D106  D(33,31,32,27)        179.3338         estimate D2E/DX2                !
 ! D107  D(29,31,33,34)       -123.8217         estimate D2E/DX2                !
 ! D108  D(29,31,33,39)         53.374          estimate D2E/DX2                !
 ! D109  D(32,31,33,34)         53.425          estimate D2E/DX2                !
 ! D110  D(32,31,33,39)       -129.3793         estimate D2E/DX2                !
 ! D111  D(31,33,34,35)         -4.2399         estimate D2E/DX2                !
 ! D112  D(31,33,34,37)       -178.0774         estimate D2E/DX2                !
 ! D113  D(39,33,34,35)        178.3092         estimate D2E/DX2                !
 ! D114  D(39,33,34,37)          4.4718         estimate D2E/DX2                !
 ! D115  D(31,33,39,38)        179.4102         estimate D2E/DX2                !
 ! D116  D(34,33,39,38)         -2.9312         estimate D2E/DX2                !
 ! D117  D(33,34,35,36)        177.9361         estimate D2E/DX2                !
 ! D118  D(37,34,35,36)         -8.9798         estimate D2E/DX2                !
 ! D119  D(33,34,37,38)         -3.924          estimate D2E/DX2                !
 ! D120  D(33,34,37,55)        177.5465         estimate D2E/DX2                !
 ! D121  D(35,34,37,38)       -177.1923         estimate D2E/DX2                !
 ! D122  D(35,34,37,55)          4.2783         estimate D2E/DX2                !
 ! D123  D(34,35,36,52)        -51.9821         estimate D2E/DX2                !
 ! D124  D(34,35,36,53)         67.8299         estimate D2E/DX2                !
 ! D125  D(34,35,36,54)       -178.163          estimate D2E/DX2                !
 ! D126  D(34,37,38,39)          1.5398         estimate D2E/DX2                !
 ! D127  D(34,37,38,56)       -177.8921         estimate D2E/DX2                !
 ! D128  D(55,37,38,39)       -179.7497         estimate D2E/DX2                !
 ! D129  D(55,37,38,56)          0.8184         estimate D2E/DX2                !
 ! D130  D(37,38,39,33)          0.8019         estimate D2E/DX2                !
 ! D131  D(56,38,39,33)       -179.7286         estimate D2E/DX2                !
 --------------------------------------------------------------------------------
 Trust Radius=3.00D-01 FncErr=1.00D-07 GrdErr=1.00D-06 EigMax=2.50D+02 EigMin=1.00D-04
 Number of steps in this run=    301 maximum allowed number of steps=    336.
 GradGradGradGradGradGradGradGradGradGradGradGradGradGradGradGradGradGrad

 Leave Link  103 at Thu Jul 23 17:44:50 2020, MaxMem=  4026531840 cpu:               0.2 elap:               0.0
 (Enter /opt/ohpc/pub/libs/gaussian/g16-A.03/sandybridge/g16/l202.exe)
 Stoichiometry    C27H17F3O3S6
 Framework group  C1[X(C27H17F3O3S6)]
 Deg. of freedom   162
 Full point group                 C1      NOp   1
 Largest Abelian subgroup         C1      NOp   1
 Largest concise Abelian subgroup C1      NOp   1
                         Standard orientation:                         
 ---------------------------------------------------------------------
 Center     Atomic      Atomic             Coordinates (Angstroms)
 Number     Number       Type             X           Y           Z
 ---------------------------------------------------------------------
      1          6           0       10.710842   -0.769812   -1.504002
      2          6           0       10.519227   -1.474663   -0.359105
      3          6           0        9.175551   -1.345626    0.162762
      4          9           0        8.783608   -1.934600    1.281814
      5          6           0        8.495085   -0.360993   -0.493747
      6         16           0        9.402639    0.204822   -1.872899
      7          6           0        7.121996    0.048951   -0.307445
      8          6           0        6.633896    1.342012   -0.197581
      9          8           0        7.382789    2.373945   -0.450846
     10          6           0        6.754811    3.685443   -0.452559
     11          6           0        5.193694    1.379719    0.048376
     12          6           0        4.653308    0.035533    0.180341
     13         16           0        5.902058   -1.077785    0.058754
     14          6           0        3.290994   -0.251568    0.513386
     15          6           0        2.852389   -1.470942    1.007710
     16          6           0        1.359700   -1.477655    1.185700
     17          9           0        0.691830   -2.534544    1.694213
     18          6           0        0.818496   -0.357261    0.706875
     19         16           0        1.959534    0.742890    0.152193
     20          6           0       -0.607621   -0.037158    0.673724
     21          6           0       -1.215936    1.172221    1.157994
     22          8           0       -0.519341    2.161193    1.801689
     23          6           0       -1.295677    3.303499    2.160068
     24          6           0       -2.686095    1.105047    0.976131
     25          6           0       -3.077508   -0.106143    0.280866
     26         16           0       -1.745807   -1.126528    0.062772
     27          6           0       -4.378769   -0.438855   -0.043161
     28          6           0       -4.852542   -1.574723   -0.763820
     29          6           0       -6.187056   -1.633245   -0.999765
     30          9           0       -6.782963   -2.602825   -1.616668
     31          6           0       -6.890781   -0.557939   -0.322989
     32         16           0       -5.806684    0.460497    0.382412
     33          6           0       -8.270022   -0.370883   -0.308371
     34          6           0       -8.996235    0.753811   -0.703009
     35          8           0       -8.292155    1.888289   -1.095176
     36          6           0       -9.114945    3.001359   -1.536346
     37          6           0      -10.384068    0.658398   -0.531312
     38          6           0      -10.773341   -0.654174   -0.053028
     39         16           0       -9.342413   -1.630339    0.176359
     40          1           0       11.644514   -0.650629   -2.046878
     41          1           0       11.281154   -2.239882    0.044188
     42          1           0        6.044509    3.683170   -1.252801
     43          1           0        6.309684    3.933534    0.517479
     44          1           0        7.549714    4.381166   -0.737858
     45          1           0        4.561650    2.214369    0.174993
     46          1           0        3.414214   -2.289805    1.363858
     47          1           0       -1.759300    3.693626    1.335758
     48          1           0       -1.988935    2.973900    2.902666
     49          1           0       -0.550861    3.992315    2.573087
     50          1           0       -3.311040    1.835398    1.246213
     51          1           0       -4.119596   -2.356079   -1.218741
     52          1           0       -9.823326    2.676663   -2.302020
     53          1           0       -9.690699    3.412304   -0.665956
     54          1           0       -8.432903    3.788873   -1.836911
     55          1           0      -11.191648    1.425551   -0.730260
     56          1           0      -11.745302   -1.017225    0.134009
 ---------------------------------------------------------------------
 Rotational constants (GHZ):           0.2356675           0.0178534           0.0172657
 Leave Link  202 at Thu Jul 23 17:44:50 2020, MaxMem=  4026531840 cpu:               0.2 elap:               0.0
 (Enter /opt/ohpc/pub/libs/gaussian/g16-A.03/sandybridge/g16/l301.exe)
 Standard basis: CC-pVDZ (5D, 7F)
 Ernie: Thresh=  0.10000D-02 Tol=  0.10000D-05 Strict=F.
 Ernie:  126 primitive shells out of 1111 were deleted.
 There are   694 symmetry adapted cartesian basis functions of A   symmetry.
 There are   655 symmetry adapted basis functions of A   symmetry.
   655 basis functions,  1634 primitive gaussians,   694 cartesian basis functions
   163 alpha electrons      163 beta electrons
       nuclear repulsion energy      5033.9175205351 Hartrees.
 IExCor=32609 DFT=T Ex+Corr=LC-wPBE ExCW=0 ScaHFX=  1.000000
 ScaDFX=  1.000000  0.000000  1.000000  1.000000 ScalE2=  1.000000  1.000000
 IRadAn=      5 IRanWt=     -1 IRanGd=            0 ICorTp=0 IEmpDi=  4
 HFx  wShort=  0.000000 wLong=  0.097400 cFull=  0.000000 cShort=  0.000000 cLong=  1.000000
 DFx  wShort=  0.000000 wLong=  0.097400 cFull=  0.000000 cShort=  0.000000 cLong=  1.000000
 NAtoms=   56 NActive=   56 NUniq=   56 SFac= 1.00D+00 NAtFMM=   60 NAOKFM=F Big=F
 Integral buffers will be    131072 words long.
 Raffenetti 2 integral format.
 Two-electron integral symmetry is turned on.
 Leave Link  301 at Thu Jul 23 17:44:51 2020, MaxMem=  4026531840 cpu:               0.8 elap:               0.2
 (Enter /opt/ohpc/pub/libs/gaussian/g16-A.03/sandybridge/g16/l302.exe)
 NPDir=0 NMtPBC=     1 NCelOv=     1 NCel=       1 NClECP=     1 NCelD=      1
         NCelK=      1 NCelE2=     1 NClLst=     1 CellRange=     0.0.
 One-electron integrals computed using PRISM.
 One-electron integral symmetry used in STVInt
 NBasis=   655 RedAO= T EigKep=  3.24D-04  NBF=   655
 NBsUse=   655 1.00D-06 EigRej= -1.00D+00 NBFU=   655
 Precomputing XC quadrature grid using
 IXCGrd= 4 IRadAn=           5 IRanWt=          -1 IRanGd=           0 AccXCQ= 0.00D+00.
 Generated NRdTot=       0 NPtTot=           0 NUsed=           0 NTot=          32
 NSgBfM=   593   589   592   593   593 MxSgAt=    56 MxSgA2=    56.
 Leave Link  302 at Thu Jul 23 17:44:52 2020, MaxMem=  4026531840 cpu:              11.3 elap:               1.5
 (Enter /opt/ohpc/pub/libs/gaussian/g16-A.03/sandybridge/g16/l303.exe)
 DipDrv:  MaxL=1.
 Leave Link  303 at Thu Jul 23 17:44:52 2020, MaxMem=  4026531840 cpu:               1.0 elap:               0.2
 (Enter /opt/ohpc/pub/libs/gaussian/g16-A.03/sandybridge/g16/l401.exe)
 ExpMin= 1.22D-01 ExpMax= 1.11D+05 ExpMxC= 1.07D+03 IAcc=3 IRadAn=         5 AccDes= 0.00D+00
 Harris functional with IExCor=32609 and IRadAn=       5 diagonalized for initial guess.
 HarFok:  IExCor=32609 AccDes= 0.00D+00 IRadAn=         5 IDoV= 1 UseB2=F ITyADJ=14
 ICtDFT=  3500011 ScaDFX=  1.000000  1.000000  1.000000  1.000000
 FoFCou: FMM=F IPFlag=           0 FMFlag=      100000 FMFlg1=           0
         NFxFlg=           0 DoJE=T BraDBF=F KetDBF=T FulRan=T
         wScrn=  0.000000 ICntrl=       500 IOpCl=  0 I1Cent=   200000004 NGrid=           0
         NMat0=    1 NMatS0=      1 NMatT0=    0 NMatD0=    1 NMtDS0=    0 NMtDT0=    0
 Petite list used in FoFCou.
 Harris En= -3951.01046514930    
 JPrj=0 DoOrth=F DoCkMO=F.
 Initial guess <Sx>= 0.0000 <Sy>= 0.0000 <Sz>= 0.0000 <S**2>= 0.0000 S= 0.0000
 Leave Link  401 at Thu Jul 23 17:44:58 2020, MaxMem=  4026531840 cpu:              47.8 elap:               6.0
 (Enter /opt/ohpc/pub/libs/gaussian/g16-A.03/sandybridge/g16/l502.exe)
 Integral symmetry usage will be decided dynamically.
 UHF open shell SCF:
 Using DIIS extrapolation, IDIIS=  1040.
 NGot=  4026531840 LenX=  4025555992 LenY=  4025073662
 Requested convergence on RMS density matrix=1.00D-08 within 128 cycles.
 Requested convergence on MAX density matrix=1.00D-06.
 Requested convergence on             energy=1.00D-06.
 No special actions if energy rises.
 Fock matrices will be formed incrementally for  20 cycles.
 Integral accuracy reduced to 1.0D-05 until final iterations.

 Cycle   1  Pass 0  IDiag  1:
 FoFJK:  IHMeth= 1 ICntrl=       0 DoSepK=T KAlg= 0 I1Cent=           0 FoldK=F
 IRaf=         1 NMat=       1 IRICut=       1 DoRegI=T DoRafI=F ISym2E= 0 IDoP0=0 IntGTp=1.
 FoFCou: FMM=F IPFlag=           0 FMFlag=      100000 FMFlg1=           0
         NFxFlg=           0 DoJE=T BraDBF=F KetDBF=F FulRan=T
         wScrn=  0.000000 ICntrl=       500 IOpCl=  0 I1Cent=           0 NGrid=           0
         NMat0=    1 NMatS0=      1 NMatT0=    0 NMatD0=    1 NMtDS0=    0 NMtDT0=    0
 Symmetry not used in FoFCou.
 E= -3950.17523714321    
 DIIS: error= 1.52D-02 at cycle   1 NSaved=   1.
 NSaved= 1 IEnMin= 1 EnMin= -3950.17523714321     IErMin= 1 ErrMin= 1.52D-02
 ErrMax= 1.52D-02  0.00D+00 EMaxC= 1.00D-01 BMatC= 2.90D+00 BMatP= 2.90D+00
 IDIUse=3 WtCom= 8.48D-01 WtEn= 1.52D-01
 Coeff-Com:  0.100D+01
 Coeff-En:   0.100D+01
 Coeff:      0.100D+01
 Gap=     0.135 Goal=   None    Shift=    0.000
 Gap=     0.135 Goal=   None    Shift=    0.000
 GapD=    0.135 DampG=1.000 DampE=0.500 DampFc=0.5000 IDamp=-1.
 Damping current iteration by 5.00D-01
 RMSDP=3.35D-03 MaxDP=1.68D-01              OVMax= 2.26D-01

 Cycle   2  Pass 0  IDiag  1:
 RMSU=  1.67D-03    CP:  9.93D-01
 E= -3950.49866710613     Delta-E=       -0.323429962920 Rises=F Damp=T
 DIIS: error= 3.67D-03 at cycle   2 NSaved=   2.
 NSaved= 2 IEnMin= 2 EnMin= -3950.49866710613     IErMin= 2 ErrMin= 3.67D-03
 ErrMax= 3.67D-03  0.00D+00 EMaxC= 1.00D-01 BMatC= 1.75D-01 BMatP= 2.90D+00
 IDIUse=3 WtCom= 9.63D-01 WtEn= 3.67D-02
 Coeff-Com:  0.144D+00 0.856D+00
 Coeff-En:   0.237D+00 0.763D+00
 Coeff:      0.148D+00 0.852D+00
 Gap=     0.163 Goal=   None    Shift=    0.000
 Gap=     0.163 Goal=   None    Shift=    0.000
 RMSDP=7.30D-04 MaxDP=3.76D-02 DE=-3.23D-01 OVMax= 1.88D-01

 Cycle   3  Pass 0  IDiag  1:
 RMSU=  7.00D-04    CP:  9.95D-01  8.77D-01
 E= -3950.98628220923     Delta-E=       -0.487615103100 Rises=F Damp=F
 DIIS: error= 2.37D-03 at cycle   3 NSaved=   3.
 NSaved= 3 IEnMin= 3 EnMin= -3950.98628220923     IErMin= 3 ErrMin= 2.37D-03
 ErrMax= 2.37D-03  0.00D+00 EMaxC= 1.00D-01 BMatC= 6.03D-02 BMatP= 1.75D-01
 IDIUse=3 WtCom= 9.76D-01 WtEn= 2.37D-02
 Coeff-Com:  0.582D-01 0.370D+00 0.571D+00
 Coeff-En:   0.000D+00 0.000D+00 0.100D+01
 Coeff:      0.568D-01 0.362D+00 0.581D+00
 Gap=     0.158 Goal=   None    Shift=    0.000
 Gap=     0.158 Goal=   None    Shift=    0.000
 RMSDP=3.23D-04 MaxDP=2.02D-02 DE=-4.88D-01 OVMax= 3.55D-02

 Cycle   4  Pass 0  IDiag  1:
 RMSU=  2.44D-04    CP:  9.94D-01  9.05D-01  7.07D-01
 E= -3950.99558210636     Delta-E=       -0.009299897129 Rises=F Damp=F
 DIIS: error= 1.53D-03 at cycle   4 NSaved=   4.
 NSaved= 4 IEnMin= 4 EnMin= -3950.99558210636     IErMin= 4 ErrMin= 1.53D-03
 ErrMax= 1.53D-03  0.00D+00 EMaxC= 1.00D-01 BMatC= 2.36D-02 BMatP= 6.03D-02
 IDIUse=3 WtCom= 9.85D-01 WtEn= 1.53D-02
 Coeff-Com:  0.210D-01 0.881D-01 0.375D+00 0.516D+00
 Coeff-En:   0.000D+00 0.000D+00 0.303D+00 0.697D+00
 Coeff:      0.206D-01 0.867D-01 0.374D+00 0.519D+00
 Gap=     0.156 Goal=   None    Shift=    0.000
 Gap=     0.156 Goal=   None    Shift=    0.000
 RMSDP=1.47D-04 MaxDP=1.15D-02 DE=-9.30D-03 OVMax= 1.91D-02

 Cycle   5  Pass 0  IDiag  1:
 RMSU=  9.05D-05    CP:  9.94D-01  8.94D-01  8.01D-01  6.18D-01
 E= -3951.00112637563     Delta-E=       -0.005544269268 Rises=F Damp=F
 DIIS: error= 3.96D-04 at cycle   5 NSaved=   5.
 NSaved= 5 IEnMin= 5 EnMin= -3951.00112637563     IErMin= 5 ErrMin= 3.96D-04
 ErrMax= 3.96D-04  0.00D+00 EMaxC= 1.00D-01 BMatC= 2.29D-03 BMatP= 2.36D-02
 IDIUse=3 WtCom= 9.96D-01 WtEn= 3.96D-03
 Coeff-Com:  0.926D-02 0.790D-02 0.158D+00 0.302D+00 0.523D+00
 Coeff-En:   0.000D+00 0.000D+00 0.000D+00 0.893D-02 0.991D+00
 Coeff:      0.922D-02 0.787D-02 0.157D+00 0.301D+00 0.525D+00
 Gap=     0.157 Goal=   None    Shift=    0.000
 Gap=     0.157 Goal=   None    Shift=    0.000
 RMSDP=5.00D-05 MaxDP=3.56D-03 DE=-5.54D-03 OVMax= 6.07D-03

 Cycle   6  Pass 0  IDiag  1:
 RMSU=  3.57D-05    CP:  9.94D-01  8.91D-01  8.13D-01  7.02D-01  7.06D-01
 E= -3951.00161857306     Delta-E=       -0.000492197427 Rises=F Damp=F
 DIIS: error= 1.86D-04 at cycle   6 NSaved=   6.
 NSaved= 6 IEnMin= 6 EnMin= -3951.00161857306     IErMin= 6 ErrMin= 1.86D-04
 ErrMax= 1.86D-04  0.00D+00 EMaxC= 1.00D-01 BMatC= 4.66D-04 BMatP= 2.29D-03
 IDIUse=3 WtCom= 9.98D-01 WtEn= 1.86D-03
 Coeff-Com:  0.315D-02-0.154D-01 0.276D-01 0.937D-01 0.342D+00 0.549D+00
 Coeff-En:   0.000D+00 0.000D+00 0.000D+00 0.000D+00 0.132D+00 0.868D+00
 Coeff:      0.314D-02-0.154D-01 0.275D-01 0.935D-01 0.342D+00 0.550D+00
 Gap=     0.157 Goal=   None    Shift=    0.000
 Gap=     0.157 Goal=   None    Shift=    0.000
 RMSDP=2.12D-05 MaxDP=1.09D-03 DE=-4.92D-04 OVMax= 2.66D-03

 Cycle   7  Pass 0  IDiag  1:
 RMSU=  1.34D-05    CP:  9.94D-01  8.89D-01  8.17D-01  7.14D-01  8.25D-01
                    CP:  7.00D-01
 E= -3951.00173318005     Delta-E=       -0.000114606990 Rises=F Damp=F
 DIIS: error= 5.90D-05 at cycle   7 NSaved=   7.
 NSaved= 7 IEnMin= 7 EnMin= -3951.00173318005     IErMin= 7 ErrMin= 5.90D-05
 ErrMax= 5.90D-05  0.00D+00 EMaxC= 1.00D-01 BMatC= 3.56D-05 BMatP= 4.66D-04
 IDIUse=1 WtCom= 1.00D+00 WtEn= 0.00D+00
 Coeff-Com:  0.108D-02-0.945D-02 0.878D-03 0.204D-01 0.123D+00 0.289D+00
 Coeff-Com:  0.575D+00
 Coeff:      0.108D-02-0.945D-02 0.878D-03 0.204D-01 0.123D+00 0.289D+00
 Coeff:      0.575D+00
 Gap=     0.157 Goal=   None    Shift=    0.000
 Gap=     0.157 Goal=   None    Shift=    0.000
 RMSDP=7.21D-06 MaxDP=4.86D-04 DE=-1.15D-04 OVMax= 9.81D-04

 Initial convergence to 1.0D-05 achieved.  Increase integral accuracy.
 Cycle   8  Pass 1  IDiag  1:
 E= -3951.00125783855     Delta-E=        0.000475341500 Rises=F Damp=F
 DIIS: error= 2.15D-04 at cycle   1 NSaved=   1.
 NSaved= 1 IEnMin= 1 EnMin= -3951.00125783855     IErMin= 1 ErrMin= 2.15D-04
 ErrMax= 2.15D-04  0.00D+00 EMaxC= 1.00D-01 BMatC= 3.92D-05 BMatP= 3.92D-05
 IDIUse=3 WtCom= 9.98D-01 WtEn= 2.15D-03
 Coeff-Com:  0.100D+01
 Coeff-En:   0.100D+01
 Coeff:      0.100D+01
 Gap=     0.157 Goal=   None    Shift=    0.000
 Gap=     0.157 Goal=   None    Shift=    0.000
 RMSDP=7.21D-06 MaxDP=4.86D-04 DE= 4.75D-04 OVMax= 9.40D-04

 Cycle   9  Pass 1  IDiag  1:
 RMSU=  7.02D-05    CP:  1.00D+00
 E= -3951.00126038900     Delta-E=       -0.000002550454 Rises=F Damp=F
 DIIS: error= 5.39D-05 at cycle   2 NSaved=   2.
 NSaved= 2 IEnMin= 2 EnMin= -3951.00126038900     IErMin= 2 ErrMin= 5.39D-05
 ErrMax= 5.39D-05  0.00D+00 EMaxC= 1.00D-01 BMatC= 2.51D-05 BMatP= 3.92D-05
 IDIUse=1 WtCom= 1.00D+00 WtEn= 0.00D+00
 Coeff-Com:  0.418D+00 0.582D+00
 Coeff:      0.418D+00 0.582D+00
 Gap=     0.157 Goal=   None    Shift=    0.000
 Gap=     0.157 Goal=   None    Shift=    0.000
 RMSDP=7.38D-06 MaxDP=6.58D-04 DE=-2.55D-06 OVMax= 1.01D-03

 Cycle  10  Pass 1  IDiag  1:
 RMSU=  7.29D-06    CP:  1.00D+00  1.02D+00
 E= -3951.00126231076     Delta-E=       -0.000001921759 Rises=F Damp=F
 DIIS: error= 5.25D-05 at cycle   3 NSaved=   3.
 NSaved= 3 IEnMin= 3 EnMin= -3951.00126231076     IErMin= 3 ErrMin= 5.25D-05
 ErrMax= 5.25D-05  0.00D+00 EMaxC= 1.00D-01 BMatC= 1.80D-05 BMatP= 2.51D-05
 IDIUse=1 WtCom= 1.00D+00 WtEn= 0.00D+00
 Coeff-Com:  0.266D-02 0.457D+00 0.540D+00
 Coeff:      0.266D-02 0.457D+00 0.540D+00
 Gap=     0.157 Goal=   None    Shift=    0.000
 Gap=     0.157 Goal=   None    Shift=    0.000
 RMSDP=3.90D-06 MaxDP=3.11D-04 DE=-1.92D-06 OVMax= 6.00D-04

 Cycle  11  Pass 1  IDiag  1:
 RMSU=  1.56D-06    CP:  1.00D+00  1.04D+00  5.65D-01
 E= -3951.00126680523     Delta-E=       -0.000004494472 Rises=F Damp=F
 DIIS: error= 1.14D-05 at cycle   4 NSaved=   4.
 NSaved= 4 IEnMin= 4 EnMin= -3951.00126680523     IErMin= 4 ErrMin= 1.14D-05
 ErrMax= 1.14D-05  0.00D+00 EMaxC= 1.00D-01 BMatC= 1.11D-06 BMatP= 1.80D-05
 IDIUse=1 WtCom= 1.00D+00 WtEn= 0.00D+00
 Coeff-Com: -0.148D-01 0.281D+00 0.356D+00 0.378D+00
 Coeff:     -0.148D-01 0.281D+00 0.356D+00 0.378D+00
 Gap=     0.157 Goal=   None    Shift=    0.000
 Gap=     0.157 Goal=   None    Shift=    0.000
 RMSDP=8.76D-07 MaxDP=6.38D-05 DE=-4.49D-06 OVMax= 1.07D-04

 Cycle  12  Pass 1  IDiag  1:
 RMSU=  5.85D-07    CP:  1.00D+00  1.04D+00  5.84D-01  5.96D-01
 E= -3951.00126706948     Delta-E=       -0.000000264252 Rises=F Damp=F
 DIIS: error= 1.29D-06 at cycle   5 NSaved=   5.
 NSaved= 5 IEnMin= 5 EnMin= -3951.00126706948     IErMin= 5 ErrMin= 1.29D-06
 ErrMax= 1.29D-06  0.00D+00 EMaxC= 1.00D-01 BMatC= 2.07D-08 BMatP= 1.11D-06
 IDIUse=1 WtCom= 1.00D+00 WtEn= 0.00D+00
 Coeff-Com: -0.718D-02 0.110D+00 0.139D+00 0.173D+00 0.585D+00
 Coeff:     -0.718D-02 0.110D+00 0.139D+00 0.173D+00 0.585D+00
 Gap=     0.157 Goal=   None    Shift=    0.000
 Gap=     0.157 Goal=   None    Shift=    0.000
 RMSDP=2.02D-07 MaxDP=1.03D-05 DE=-2.64D-07 OVMax= 3.36D-05

 Cycle  13  Pass 1  IDiag  1:
 RMSU=  1.69D-07    CP:  1.00D+00  1.04D+00  5.86D-01  6.63D-01  1.02D+00
 E= -3951.00126707720     Delta-E=       -0.000000007716 Rises=F Damp=F
 DIIS: error= 8.11D-07 at cycle   6 NSaved=   6.
 NSaved= 6 IEnMin= 6 EnMin= -3951.00126707720     IErMin= 6 ErrMin= 8.11D-07
 ErrMax= 8.11D-07  0.00D+00 EMaxC= 1.00D-01 BMatC= 6.06D-09 BMatP= 2.07D-08
 IDIUse=1 WtCom= 1.00D+00 WtEn= 0.00D+00
 Coeff-Com:  0.143D-02-0.405D-01-0.521D-01-0.446D-01 0.344D+00 0.792D+00
 Coeff:      0.143D-02-0.405D-01-0.521D-01-0.446D-01 0.344D+00 0.792D+00
 Gap=     0.157 Goal=   None    Shift=    0.000
 Gap=     0.157 Goal=   None    Shift=    0.000
 RMSDP=1.62D-07 MaxDP=5.77D-06 DE=-7.72D-09 OVMax= 4.71D-05

 Cycle  14  Pass 1  IDiag  1:
 RMSU=  9.86D-08    CP:  1.00D+00  1.04D+00  5.87D-01  6.99D-01  1.21D+00
                    CP:  9.53D-01
 E= -3951.00126708071     Delta-E=       -0.000000003507 Rises=F Damp=F
 DIIS: error= 4.32D-07 at cycle   7 NSaved=   7.
 NSaved= 7 IEnMin= 7 EnMin= -3951.00126708071     IErMin= 7 ErrMin= 4.32D-07
 ErrMax= 4.32D-07  0.00D+00 EMaxC= 1.00D-01 BMatC= 1.37D-09 BMatP= 6.06D-09
 IDIUse=1 WtCom= 1.00D+00 WtEn= 0.00D+00
 Coeff-Com:  0.182D-02-0.399D-01-0.512D-01-0.515D-01 0.129D+00 0.482D+00
 Coeff-Com:  0.529D+00
 Coeff:      0.182D-02-0.399D-01-0.512D-01-0.515D-01 0.129D+00 0.482D+00
 Coeff:      0.529D+00
 Gap=     0.157 Goal=   None    Shift=    0.000
 Gap=     0.157 Goal=   None    Shift=    0.000
 RMSDP=5.24D-08 MaxDP=1.96D-06 DE=-3.51D-09 OVMax= 8.28D-06

 Cycle  15  Pass 1  IDiag  1:
 RMSU=  3.49D-08    CP:  1.00D+00  1.04D+00  5.87D-01  7.09D-01  1.25D+00
                    CP:  1.12D+00  9.68D-01
 E= -3951.00126708085     Delta-E=       -0.000000000147 Rises=F Damp=F
 DIIS: error= 9.84D-08 at cycle   8 NSaved=   8.
 NSaved= 8 IEnMin= 8 EnMin= -3951.00126708085     IErMin= 8 ErrMin= 9.84D-08
 ErrMax= 9.84D-08  0.00D+00 EMaxC= 1.00D-01 BMatC= 1.42D-10 BMatP= 1.37D-09
 IDIUse=1 WtCom= 1.00D+00 WtEn= 0.00D+00
 Coeff-Com:  0.807D-03-0.162D-01-0.207D-01-0.221D-01 0.182D-01 0.149D+00
 Coeff-Com:  0.291D+00 0.600D+00
 Coeff:      0.807D-03-0.162D-01-0.207D-01-0.221D-01 0.182D-01 0.149D+00
 Coeff:      0.291D+00 0.600D+00
 Gap=     0.157 Goal=   None    Shift=    0.000
 Gap=     0.157 Goal=   None    Shift=    0.000
 RMSDP=1.83D-08 MaxDP=1.07D-06 DE=-1.47D-10 OVMax= 3.28D-06

 Cycle  16  Pass 1  IDiag  1:
 RMSU=  1.21D-08    CP:  1.00D+00  1.04D+00  5.87D-01  7.12D-01  1.26D+00
                    CP:  1.14D+00  1.07D+00  9.03D-01
 E= -3951.00126708096     Delta-E=       -0.000000000111 Rises=F Damp=F
 DIIS: error= 5.05D-08 at cycle   9 NSaved=   9.
 NSaved= 9 IEnMin= 9 EnMin= -3951.00126708096     IErMin= 9 ErrMin= 5.05D-08
 ErrMax= 5.05D-08  0.00D+00 EMaxC= 1.00D-01 BMatC= 3.29D-11 BMatP= 1.42D-10
 IDIUse=1 WtCom= 1.00D+00 WtEn= 0.00D+00
 Coeff-Com:  0.180D-03-0.304D-02-0.390D-02-0.454D-02-0.855D-02 0.125D-01
 Coeff-Com:  0.876D-01 0.369D+00 0.551D+00
 Coeff:      0.180D-03-0.304D-02-0.390D-02-0.454D-02-0.855D-02 0.125D-01
 Coeff:      0.876D-01 0.369D+00 0.551D+00
 Gap=     0.157 Goal=   None    Shift=    0.000
 Gap=     0.157 Goal=   None    Shift=    0.000
 RMSDP=7.27D-09 MaxDP=4.19D-07 DE=-1.11D-10 OVMax= 1.32D-06

 SCF Done:  E(ULC-wPBE) =  -3951.00126708     A.U. after   16 cycles
            NFock= 16  Conv=0.73D-08     -V/T= 2.0034
 <Sx>= 0.0000 <Sy>= 0.0000 <Sz>= 0.0000 <S**2>=-0.0000 S=-0.0000
 <L.S>= 0.000000000000E+00
 KE= 3.937774794380D+03 PE=-1.940219636940D+04 EE= 6.479502787400D+03
 Annihilation of the first spin contaminant:
 S**2 before annihilation    -0.0000,   after     0.0000
 Leave Link  502 at Thu Jul 23 17:53:12 2020, MaxMem=  4026531840 cpu:            3931.7 elap:             493.3
 (Enter /opt/ohpc/pub/libs/gaussian/g16-A.03/sandybridge/g16/l601.exe)
 Copying SCF densities to generalized density rwf, IOpCl= 1 IROHF=0.

 **********************************************************************

            Population analysis using the SCF density.

 **********************************************************************

 Orbital symmetries:
 Alpha Orbitals:
       Occupied  (A) (A) (A) (A) (A) (A) (A) (A) (A) (A) (A) (A)
                 (A) (A) (A) (A) (A) (A) (A) (A) (A) (A) (A) (A)
                 (A) (A) (A) (A) (A) (A) (A) (A) (A) (A) (A) (A)
                 (A) (A) (A) (A) (A) (A) (A) (A) (A) (A) (A) (A)
                 (A) (A) (A) (A) (A) (A) (A) (A) (A) (A) (A) (A)
                 (A) (A) (A) (A) (A) (A) (A) (A) (A) (A) (A) (A)
                 (A) (A) (A) (A) (A) (A) (A) (A) (A) (A) (A) (A)
                 (A) (A) (A) (A) (A) (A) (A) (A) (A) (A) (A) (A)
                 (A) (A) (A) (A) (A) (A) (A) (A) (A) (A) (A) (A)
                 (A) (A) (A) (A) (A) (A) (A) (A) (A) (A) (A) (A)
                 (A) (A) (A) (A) (A) (A) (A) (A) (A) (A) (A) (A)
                 (A) (A) (A) (A) (A) (A) (A) (A) (A) (A) (A) (A)
                 (A) (A) (A) (A) (A) (A) (A) (A) (A) (A) (A) (A)
                 (A) (A) (A) (A) (A) (A) (A)
       Virtual   (A) (A) (A) (A) (A) (A) (A) (A) (A) (A) (A) (A)
                 (A) (A) (A) (A) (A) (A) (A) (A) (A) (A) (A) (A)
                 (A) (A) (A) (A) (A) (A) (A) (A) (A) (A) (A) (A)
                 (A) (A) (A) (A) (A) (A) (A) (A) (A) (A) (A) (A)
                 (A) (A) (A) (A) (A) (A) (A) (A) (A) (A) (A) (A)
                 (A) (A) (A) (A) (A) (A) (A) (A) (A) (A) (A) (A)
                 (A) (A) (A) (A) (A) (A) (A) (A) (A) (A) (A) (A)
                 (A) (A) (A) (A) (A) (A) (A) (A) (A) (A) (A) (A)
                 (A) (A) (A) (A) (A) (A) (A) (A) (A) (A) (A) (A)
                 (A) (A) (A) (A) (A) (A) (A) (A) (A) (A) (A) (A)
                 (A) (A) (A) (A) (A) (A) (A) (A) (A) (A) (A) (A)
                 (A) (A) (A) (A) (A) (A) (A) (A) (A) (A) (A) (A)
                 (A) (A) (A) (A) (A) (A) (A) (A) (A) (A) (A) (A)
                 (A) (A) (A) (A) (A) (A) (A) (A) (A) (A) (A) (A)
                 (A) (A) (A) (A) (A) (A) (A) (A) (A) (A) (A) (A)
                 (A) (A) (A) (A) (A) (A) (A) (A) (A) (A) (A) (A)
                 (A) (A) (A) (A) (A) (A) (A) (A) (A) (A) (A) (A)
                 (A) (A) (A) (A) (A) (A) (A) (A) (A) (A) (A) (A)
                 (A) (A) (A) (A) (A) (A) (A) (A) (A) (A) (A) (A)
                 (A) (A) (A) (A) (A) (A) (A) (A) (A) (A) (A) (A)
                 (A) (A) (A) (A) (A) (A) (A) (A) (A) (A) (A) (A)
                 (A) (A) (A) (A) (A) (A) (A) (A) (A) (A) (A) (A)
                 (A) (A) (A) (A) (A) (A) (A) (A) (A) (A) (A) (A)
                 (A) (A) (A) (A) (A) (A) (A) (A) (A) (A) (A) (A)
                 (A) (A) (A) (A) (A) (A) (A) (A) (A) (A) (A) (A)
                 (A) (A) (A) (A) (A) (A) (A) (A) (A) (A) (A) (A)
                 (A) (A) (A) (A) (A) (A) (A) (A) (A) (A) (A) (A)
                 (A) (A) (A) (A) (A) (A) (A) (A) (A) (A) (A) (A)
                 (A) (A) (A) (A) (A) (A) (A) (A) (A) (A) (A) (A)
                 (A) (A) (A) (A) (A) (A) (A) (A) (A) (A) (A) (A)
                 (A) (A) (A) (A) (A) (A) (A) (A) (A) (A) (A) (A)
                 (A) (A) (A) (A) (A) (A) (A) (A) (A) (A) (A) (A)
                 (A) (A) (A) (A) (A) (A) (A) (A) (A) (A) (A) (A)
                 (A) (A) (A) (A) (A) (A) (A) (A) (A) (A) (A) (A)
                 (A) (A) (A) (A) (A) (A) (A) (A) (A) (A) (A) (A)
                 (A) (A) (A) (A) (A) (A) (A) (A) (A) (A) (A) (A)
                 (A) (A) (A) (A) (A) (A) (A) (A) (A) (A) (A) (A)
                 (A) (A) (A) (A) (A) (A) (A) (A) (A) (A) (A) (A)
                 (A) (A) (A) (A) (A) (A) (A) (A) (A) (A) (A) (A)
                 (A) (A) (A) (A) (A) (A) (A) (A) (A) (A) (A) (A)
                 (A) (A) (A) (A) (A) (A) (A) (A) (A) (A) (A) (A)
 Beta  Orbitals:
       Occupied  (A) (A) (A) (A) (A) (A) (A) (A) (A) (A) (A) (A)
                 (A) (A) (A) (A) (A) (A) (A) (A) (A) (A) (A) (A)
                 (A) (A) (A) (A) (A) (A) (A) (A) (A) (A) (A) (A)
                 (A) (A) (A) (A) (A) (A) (A) (A) (A) (A) (A) (A)
                 (A) (A) (A) (A) (A) (A) (A) (A) (A) (A) (A) (A)
                 (A) (A) (A) (A) (A) (A) (A) (A) (A) (A) (A) (A)
                 (A) (A) (A) (A) (A) (A) (A) (A) (A) (A) (A) (A)
                 (A) (A) (A) (A) (A) (A) (A) (A) (A) (A) (A) (A)
                 (A) (A) (A) (A) (A) (A) (A) (A) (A) (A) (A) (A)
                 (A) (A) (A) (A) (A) (A) (A) (A) (A) (A) (A) (A)
                 (A) (A) (A) (A) (A) (A) (A) (A) (A) (A) (A) (A)
                 (A) (A) (A) (A) (A) (A) (A) (A) (A) (A) (A) (A)
                 (A) (A) (A) (A) (A) (A) (A) (A) (A) (A) (A) (A)
                 (A) (A) (A) (A) (A) (A) (A)
       Virtual   (A) (A) (A) (A) (A) (A) (A) (A) (A) (A) (A) (A)
                 (A) (A) (A) (A) (A) (A) (A) (A) (A) (A) (A) (A)
                 (A) (A) (A) (A) (A) (A) (A) (A) (A) (A) (A) (A)
                 (A) (A) (A) (A) (A) (A) (A) (A) (A) (A) (A) (A)
                 (A) (A) (A) (A) (A) (A) (A) (A) (A) (A) (A) (A)
                 (A) (A) (A) (A) (A) (A) (A) (A) (A) (A) (A) (A)
                 (A) (A) (A) (A) (A) (A) (A) (A) (A) (A) (A) (A)
                 (A) (A) (A) (A) (A) (A) (A) (A) (A) (A) (A) (A)
                 (A) (A) (A) (A) (A) (A) (A) (A) (A) (A) (A) (A)
                 (A) (A) (A) (A) (A) (A) (A) (A) (A) (A) (A) (A)
                 (A) (A) (A) (A) (A) (A) (A) (A) (A) (A) (A) (A)
                 (A) (A) (A) (A) (A) (A) (A) (A) (A) (A) (A) (A)
                 (A) (A) (A) (A) (A) (A) (A) (A) (A) (A) (A) (A)
                 (A) (A) (A) (A) (A) (A) (A) (A) (A) (A) (A) (A)
                 (A) (A) (A) (A) (A) (A) (A) (A) (A) (A) (A) (A)
                 (A) (A) (A) (A) (A) (A) (A) (A) (A) (A) (A) (A)
                 (A) (A) (A) (A) (A) (A) (A) (A) (A) (A) (A) (A)
                 (A) (A) (A) (A) (A) (A) (A) (A) (A) (A) (A) (A)
                 (A) (A) (A) (A) (A) (A) (A) (A) (A) (A) (A) (A)
                 (A) (A) (A) (A) (A) (A) (A) (A) (A) (A) (A) (A)
                 (A) (A) (A) (A) (A) (A) (A) (A) (A) (A) (A) (A)
                 (A) (A) (A) (A) (A) (A) (A) (A) (A) (A) (A) (A)
                 (A) (A) (A) (A) (A) (A) (A) (A) (A) (A) (A) (A)
                 (A) (A) (A) (A) (A) (A) (A) (A) (A) (A) (A) (A)
                 (A) (A) (A) (A) (A) (A) (A) (A) (A) (A) (A) (A)
                 (A) (A) (A) (A) (A) (A) (A) (A) (A) (A) (A) (A)
                 (A) (A) (A) (A) (A) (A) (A) (A) (A) (A) (A) (A)
                 (A) (A) (A) (A) (A) (A) (A) (A) (A) (A) (A) (A)
                 (A) (A) (A) (A) (A) (A) (A) (A) (A) (A) (A) (A)
                 (A) (A) (A) (A) (A) (A) (A) (A) (A) (A) (A) (A)
                 (A) (A) (A) (A) (A) (A) (A) (A) (A) (A) (A) (A)
                 (A) (A) (A) (A) (A) (A) (A) (A) (A) (A) (A) (A)
                 (A) (A) (A) (A) (A) (A) (A) (A) (A) (A) (A) (A)
                 (A) (A) (A) (A) (A) (A) (A) (A) (A) (A) (A) (A)
                 (A) (A) (A) (A) (A) (A) (A) (A) (A) (A) (A) (A)
                 (A) (A) (A) (A) (A) (A) (A) (A) (A) (A) (A) (A)
                 (A) (A) (A) (A) (A) (A) (A) (A) (A) (A) (A) (A)
                 (A) (A) (A) (A) (A) (A) (A) (A) (A) (A) (A) (A)
                 (A) (A) (A) (A) (A) (A) (A) (A) (A) (A) (A) (A)
                 (A) (A) (A) (A) (A) (A) (A) (A) (A) (A) (A) (A)
                 (A) (A) (A) (A) (A) (A) (A) (A) (A) (A) (A) (A)
 The electronic state is 1-A.
 Alpha  occ. eigenvalues --  -88.15964 -88.15950 -88.15888 -88.15582 -88.15392
 Alpha  occ. eigenvalues --  -88.15284 -24.35686 -24.34898 -24.34684 -18.86289
 Alpha  occ. eigenvalues --  -18.86189 -18.85669 -10.03336 -10.03111 -10.03079
 Alpha  occ. eigenvalues --  -10.02414 -10.01600 -10.01507 -10.01482 -10.01130
 Alpha  occ. eigenvalues --  -10.00294  -9.99603  -9.99461  -9.99436  -9.99362
 Alpha  occ. eigenvalues --   -9.98873  -9.98748  -9.98534  -9.98492  -9.98413
 Alpha  occ. eigenvalues --   -9.98180  -9.97761  -9.97663  -9.97258  -9.96376
 Alpha  occ. eigenvalues --   -9.96346  -9.96083  -9.96025  -9.95980  -7.76387
 Alpha  occ. eigenvalues --   -7.76354  -7.76200  -7.76095  -7.75847  -7.75708
 Alpha  occ. eigenvalues --   -5.78477  -5.78424  -5.78278  -5.78206  -5.77994
 Alpha  occ. eigenvalues --   -5.77946  -5.77932  -5.77828  -5.77796  -5.77713
 Alpha  occ. eigenvalues --   -5.77611  -5.77604  -5.77482  -5.77442  -5.77328
 Alpha  occ. eigenvalues --   -5.77265  -5.77080  -5.76935  -1.20802  -1.18907
 Alpha  occ. eigenvalues --   -1.17722  -1.05667  -1.03897  -1.02325  -0.89263
 Alpha  occ. eigenvalues --   -0.88837  -0.87921  -0.86824  -0.86005  -0.85334
 Alpha  occ. eigenvalues --   -0.78548  -0.76976  -0.75034  -0.74202  -0.74026
 Alpha  occ. eigenvalues --   -0.73567  -0.73244  -0.72423  -0.72195  -0.71882
 Alpha  occ. eigenvalues --   -0.70386  -0.70035  -0.68669  -0.67651  -0.65678
 Alpha  occ. eigenvalues --   -0.62318  -0.61292  -0.60036  -0.58781  -0.57983
 Alpha  occ. eigenvalues --   -0.57627  -0.57462  -0.55955  -0.55652  -0.55492
 Alpha  occ. eigenvalues --   -0.55147  -0.54758  -0.54085  -0.53816  -0.52885
 Alpha  occ. eigenvalues --   -0.50507  -0.49736  -0.48899  -0.48687  -0.48624
 Alpha  occ. eigenvalues --   -0.47883  -0.47479  -0.47245  -0.46890  -0.46652
 Alpha  occ. eigenvalues --   -0.46438  -0.46093  -0.45996  -0.45797  -0.45172
 Alpha  occ. eigenvalues --   -0.44976  -0.44328  -0.44063  -0.43981  -0.43710
 Alpha  occ. eigenvalues --   -0.42656  -0.42386  -0.42077  -0.41961  -0.41466
 Alpha  occ. eigenvalues --   -0.41337  -0.40886  -0.39924  -0.39281  -0.38382
 Alpha  occ. eigenvalues --   -0.38212  -0.37983  -0.37216  -0.36985  -0.36725
 Alpha  occ. eigenvalues --   -0.36232  -0.35848  -0.35783  -0.35527  -0.35472
 Alpha  occ. eigenvalues --   -0.35095  -0.34865  -0.34372  -0.34055  -0.33746
 Alpha  occ. eigenvalues --   -0.33274  -0.30780  -0.29290  -0.27633  -0.27141
 Alpha  occ. eigenvalues --   -0.26752  -0.26539  -0.26248  -0.25252  -0.25084
 Alpha  occ. eigenvalues --   -0.24015  -0.21884  -0.20012
 Alpha virt. eigenvalues --   -0.04269  -0.02446  -0.00239   0.01288   0.02886
 Alpha virt. eigenvalues --    0.04090   0.04303   0.05081   0.05415   0.05503
 Alpha virt. eigenvalues --    0.05945   0.06212   0.07019   0.07454   0.07968
 Alpha virt. eigenvalues --    0.08556   0.08956   0.09341   0.09727   0.09842
 Alpha virt. eigenvalues --    0.09941   0.10263   0.10819   0.11426   0.11641
 Alpha virt. eigenvalues --    0.11956   0.12127   0.12676   0.12788   0.13317
 Alpha virt. eigenvalues --    0.14054   0.14453   0.14475   0.14651   0.14998
 Alpha virt. eigenvalues --    0.15395   0.15761   0.15898   0.16344   0.16670
 Alpha virt. eigenvalues --    0.16746   0.17487   0.18445   0.19273   0.20210
 Alpha virt. eigenvalues --    0.20974   0.22167   0.23779   0.24053   0.24919
 Alpha virt. eigenvalues --    0.25442   0.25980   0.25998   0.26745   0.27074
 Alpha virt. eigenvalues --    0.27605   0.28603   0.29588   0.30911   0.31218
 Alpha virt. eigenvalues --    0.32301   0.33431   0.35120   0.35274   0.36564
 Alpha virt. eigenvalues --    0.37471   0.37981   0.38713   0.38978   0.39675
 Alpha virt. eigenvalues --    0.40301   0.40921   0.41884   0.42134   0.43035
 Alpha virt. eigenvalues --    0.43251   0.44011   0.44083   0.44114   0.44285
 Alpha virt. eigenvalues --    0.44630   0.44780   0.44881   0.45148   0.45334
 Alpha virt. eigenvalues --    0.45432   0.45770   0.46044   0.46054   0.46240
 Alpha virt. eigenvalues --    0.46274   0.46694   0.46868   0.46924   0.47117
 Alpha virt. eigenvalues --    0.47607   0.47839   0.47890   0.47934   0.48271
 Alpha virt. eigenvalues --    0.48455   0.48540   0.48751   0.48907   0.49317
 Alpha virt. eigenvalues --    0.49362   0.49606   0.49782   0.49885   0.50056
 Alpha virt. eigenvalues --    0.50395   0.50549   0.50809   0.51382   0.51756
 Alpha virt. eigenvalues --    0.52282   0.52524   0.52925   0.53006   0.53125
 Alpha virt. eigenvalues --    0.53396   0.54226   0.54490   0.54684   0.54834
 Alpha virt. eigenvalues --    0.55271   0.55728   0.56476   0.56964   0.57267
 Alpha virt. eigenvalues --    0.57390   0.57598   0.58184   0.58493   0.58696
 Alpha virt. eigenvalues --    0.58965   0.59063   0.59431   0.59445   0.60238
 Alpha virt. eigenvalues --    0.60445   0.61150   0.61307   0.62557   0.62744
 Alpha virt. eigenvalues --    0.62955   0.63753   0.64090   0.64578   0.64816
 Alpha virt. eigenvalues --    0.65176   0.65606   0.65831   0.65892   0.66466
 Alpha virt. eigenvalues --    0.66613   0.66752   0.67119   0.67456   0.67511
 Alpha virt. eigenvalues --    0.67965   0.68555   0.69053   0.69383   0.69741
 Alpha virt. eigenvalues --    0.70284   0.71054   0.71839   0.72052   0.72515
 Alpha virt. eigenvalues --    0.72824   0.73202   0.73819   0.74092   0.74493
 Alpha virt. eigenvalues --    0.75228   0.75752   0.76467   0.76695   0.77612
 Alpha virt. eigenvalues --    0.77706   0.77921   0.78759   0.79043   0.79651
 Alpha virt. eigenvalues --    0.79898   0.80158   0.80885   0.81898   0.82424
 Alpha virt. eigenvalues --    0.83358   0.84211   0.84574   0.85209   0.85310
 Alpha virt. eigenvalues --    0.85924   0.86607   0.87055   0.87178   0.87915
 Alpha virt. eigenvalues --    0.88231   0.89080   0.89455   0.89937   0.90176
 Alpha virt. eigenvalues --    0.91003   0.92188   0.92602   0.93028   0.93334
 Alpha virt. eigenvalues --    0.93560   0.93960   0.94138   0.94403   0.95162
 Alpha virt. eigenvalues --    0.95427   0.96126   0.96438   0.97123   0.97399
 Alpha virt. eigenvalues --    0.98375   0.98748   0.99348   0.99856   1.00507
 Alpha virt. eigenvalues --    1.00849   1.00977   1.01667   1.02539   1.02868
 Alpha virt. eigenvalues --    1.03036   1.03766   1.04268   1.04676   1.06023
 Alpha virt. eigenvalues --    1.06711   1.07504   1.08152   1.08500   1.08860
 Alpha virt. eigenvalues --    1.09510   1.10118   1.10800   1.11344   1.11950
 Alpha virt. eigenvalues --    1.12616   1.13141   1.13724   1.13754   1.14310
 Alpha virt. eigenvalues --    1.15343   1.15921   1.16811   1.17217   1.18294
 Alpha virt. eigenvalues --    1.19305   1.19950   1.20115   1.20544   1.20956
 Alpha virt. eigenvalues --    1.21227   1.21998   1.22576   1.22821   1.23396
 Alpha virt. eigenvalues --    1.24042   1.24400   1.25773   1.26315   1.26579
 Alpha virt. eigenvalues --    1.27198   1.27944   1.28522   1.29687   1.30247
 Alpha virt. eigenvalues --    1.30628   1.30959   1.31339   1.31987   1.32293
 Alpha virt. eigenvalues --    1.33079   1.33190   1.33471   1.34594   1.35290
 Alpha virt. eigenvalues --    1.35747   1.35847   1.35898   1.36547   1.37032
 Alpha virt. eigenvalues --    1.37192   1.37321   1.37491   1.38464   1.38940
 Alpha virt. eigenvalues --    1.39580   1.40329   1.41657   1.42297   1.43142
 Alpha virt. eigenvalues --    1.43260   1.44622   1.44910   1.46011   1.47568
 Alpha virt. eigenvalues --    1.47585   1.48348   1.49391   1.49547   1.50210
 Alpha virt. eigenvalues --    1.51015   1.51295   1.51678   1.52376   1.52726
 Alpha virt. eigenvalues --    1.53358   1.53679   1.53826   1.53988   1.54991
 Alpha virt. eigenvalues --    1.55698   1.56192   1.56719   1.57212   1.57559
 Alpha virt. eigenvalues --    1.57910   1.58198   1.58708   1.59046   1.60077
 Alpha virt. eigenvalues --    1.60565   1.61179   1.61864   1.62702   1.63418
 Alpha virt. eigenvalues --    1.64090   1.64413   1.64778   1.65319   1.65931
 Alpha virt. eigenvalues --    1.66220   1.66557   1.66721   1.67171   1.67803
 Alpha virt. eigenvalues --    1.68317   1.68487   1.69651   1.69766   1.69929
 Alpha virt. eigenvalues --    1.70660   1.70910   1.71732   1.72089   1.72487
 Alpha virt. eigenvalues --    1.73240   1.73724   1.73946   1.74548   1.75180
 Alpha virt. eigenvalues --    1.75451   1.76741   1.77125   1.77750   1.78649
 Alpha virt. eigenvalues --    1.80086   1.81377   1.81673   1.81994   1.83142
 Alpha virt. eigenvalues --    1.83191   1.84427   1.85008   1.85856   1.86278
 Alpha virt. eigenvalues --    1.87633   1.87764   1.88860   1.89462   1.89490
 Alpha virt. eigenvalues --    1.90182   1.90608   1.91031   1.92434   1.93346
 Alpha virt. eigenvalues --    1.93793   1.94745   1.96454   1.97035   1.98022
 Alpha virt. eigenvalues --    1.98706   1.99463   2.00230   2.00834   2.02607
 Alpha virt. eigenvalues --    2.03230   2.04080   2.04615   2.05259   2.05616
 Alpha virt. eigenvalues --    2.06219   2.06629   2.06816   2.07193   2.08262
 Alpha virt. eigenvalues --    2.08435   2.09202   2.09629   2.10488   2.11616
 Alpha virt. eigenvalues --    2.11928   2.12557   2.12953   2.14667   2.16633
 Alpha virt. eigenvalues --    2.17897   2.19448   2.20851   2.21277   2.22460
 Alpha virt. eigenvalues --    2.23212   2.25146   2.26301   2.26899   2.28891
 Alpha virt. eigenvalues --    2.29587   2.30276   2.31124   2.34683   2.36186
 Alpha virt. eigenvalues --    2.36681   2.37923   2.38010   2.39047   2.39966
 Alpha virt. eigenvalues --    2.40706   2.41247   2.41558   2.42350   2.43379
 Alpha virt. eigenvalues --    2.44208   2.44880   2.45140   2.45972   2.46758
 Alpha virt. eigenvalues --    2.47835   2.48249   2.50327   2.51422   2.52551
 Alpha virt. eigenvalues --    2.54556   2.55657   2.56022   2.58765   2.60573
 Alpha virt. eigenvalues --    2.61798   2.82009   2.83811   2.84633   2.87211
 Alpha virt. eigenvalues --    2.88818   2.88887   2.90894   2.92515   2.93842
 Alpha virt. eigenvalues --    2.95995   2.97215   2.97904   2.98881   2.98928
 Alpha virt. eigenvalues --    3.02357   3.25999   3.26317   3.34320   3.37883
 Alpha virt. eigenvalues --    3.38776   3.41502   3.51522   3.52208   3.52258
 Alpha virt. eigenvalues --    3.53379   3.53387   3.53662   3.72416   3.74817
 Alpha virt. eigenvalues --    3.76096   3.89037   3.91534   3.95847   4.12682
 Alpha virt. eigenvalues --    4.12915   4.15475
  Beta  occ. eigenvalues --  -88.15964 -88.15950 -88.15888 -88.15582 -88.15392
  Beta  occ. eigenvalues --  -88.15284 -24.35686 -24.34898 -24.34684 -18.86289
  Beta  occ. eigenvalues --  -18.86189 -18.85669 -10.03336 -10.03111 -10.03079
  Beta  occ. eigenvalues --  -10.02414 -10.01600 -10.01507 -10.01482 -10.01130
  Beta  occ. eigenvalues --  -10.00294  -9.99603  -9.99461  -9.99436  -9.99362
  Beta  occ. eigenvalues --   -9.98873  -9.98748  -9.98534  -9.98492  -9.98413
  Beta  occ. eigenvalues --   -9.98180  -9.97761  -9.97663  -9.97258  -9.96376
  Beta  occ. eigenvalues --   -9.96346  -9.96083  -9.96025  -9.95980  -7.76387
  Beta  occ. eigenvalues --   -7.76354  -7.76200  -7.76095  -7.75847  -7.75708
  Beta  occ. eigenvalues --   -5.78477  -5.78424  -5.78278  -5.78206  -5.77994
  Beta  occ. eigenvalues --   -5.77946  -5.77932  -5.77828  -5.77796  -5.77713
  Beta  occ. eigenvalues --   -5.77611  -5.77604  -5.77482  -5.77442  -5.77328
  Beta  occ. eigenvalues --   -5.77265  -5.77080  -5.76935  -1.20802  -1.18907
  Beta  occ. eigenvalues --   -1.17722  -1.05667  -1.03897  -1.02325  -0.89263
  Beta  occ. eigenvalues --   -0.88837  -0.87921  -0.86824  -0.86005  -0.85334
  Beta  occ. eigenvalues --   -0.78548  -0.76976  -0.75034  -0.74202  -0.74026
  Beta  occ. eigenvalues --   -0.73567  -0.73244  -0.72423  -0.72195  -0.71882
[...]
    24   Atom        0.000000     -0.000000     -0.000000
    25   Atom        0.000000     -0.000000     -0.000000
    26   Atom       -0.000000      0.000000      0.000000
    27   Atom        0.000000     -0.000000      0.000000
    28   Atom        0.000000      0.000000     -0.000000
    29   Atom       -0.000000     -0.000000      0.000000
    30   Atom        0.000000      0.000000     -0.000000
    31   Atom       -0.000000     -0.000000      0.000000
    32   Atom        0.000000      0.000000     -0.000000
    33   Atom        0.000000      0.000000     -0.000000
    34   Atom        0.000000      0.000000     -0.000000
    35   Atom        0.000000      0.000000     -0.000000
    36   Atom       -0.000000      0.000000     -0.000000
    37   Atom        0.000000      0.000000     -0.000000
    38   Atom        0.000000     -0.000000      0.000000
    39   Atom       -0.000000     -0.000000     -0.000000
    40   Atom        0.000000      0.000000      0.000000
    41   Atom        0.000000      0.000000     -0.000000
    42   Atom        0.000000     -0.000000      0.000000
    43   Atom        0.000000     -0.000000     -0.000000
    44   Atom        0.000000      0.000000      0.000000
    45   Atom       -0.000000     -0.000000      0.000000
    46   Atom       -0.000000      0.000000     -0.000000
    47   Atom        0.000000     -0.000000      0.000000
    48   Atom        0.000000      0.000000     -0.000000
    49   Atom       -0.000000      0.000000      0.000000
    50   Atom       -0.000000     -0.000000      0.000000
    51   Atom       -0.000000     -0.000000      0.000000
    52   Atom       -0.000000      0.000000     -0.000000
    53   Atom        0.000000      0.000000     -0.000000
    54   Atom       -0.000000      0.000000      0.000000
    55   Atom       -0.000000     -0.000000      0.000000
    56   Atom        0.000000      0.000000     -0.000000
 --------------------------------------------------------


 ---------------------------------------------------------------------------------
              Anisotropic Spin Dipole Couplings in Principal Axis System
 ---------------------------------------------------------------------------------

       Atom             a.u.   MegaHertz   Gauss  10(-4) cm-1        Axes

              Baa    -0.0000    -0.000    -0.000    -0.000  0.3461  0.9380  0.0168
     1 C(13)  Bbb    -0.0000    -0.000    -0.000    -0.000  0.9380 -0.3463  0.0148
              Bcc     0.0000     0.000     0.000     0.000 -0.0197 -0.0107  0.9997
 
              Baa    -0.0000    -0.000    -0.000    -0.000 -0.4337  0.9011  0.0008
     2 C(13)  Bbb     0.0000     0.000     0.000     0.000  0.8390  0.4034  0.3652
              Bcc     0.0000     0.000     0.000     0.000 -0.3288 -0.1590  0.9309
 
              Baa    -0.0000    -0.000    -0.000    -0.000  0.8140 -0.5788 -0.0478
     3 C(13)  Bbb     0.0000     0.000     0.000     0.000  0.5807  0.8128  0.0471
              Bcc     0.0000     0.000     0.000     0.000  0.0116 -0.0661  0.9977
 
              Baa    -0.0000    -0.000    -0.000    -0.000  0.9482  0.2505  0.1956
     4 F(19)  Bbb    -0.0000    -0.000    -0.000    -0.000 -0.1736 -0.1070  0.9790
              Bcc     0.0000     0.000     0.000     0.000 -0.2662  0.9622  0.0580
 
              Baa    -0.0000    -0.000    -0.000    -0.000  0.8753 -0.4836 -0.0049
     5 C(13)  Bbb     0.0000     0.000     0.000     0.000  0.4817  0.8708  0.0986
              Bcc     0.0000     0.000     0.000     0.000 -0.0434 -0.0887  0.9951
 
              Baa    -0.0000    -0.000    -0.000    -0.000  0.9968  0.0212 -0.0766
     6 S(33)  Bbb     0.0000     0.000     0.000     0.000  0.0786 -0.4100  0.9087
              Bcc     0.0000     0.000     0.000     0.000  0.0122  0.9118  0.4104
 
              Baa    -0.0000    -0.000    -0.000    -0.000  0.4490  0.8681  0.2116
     7 C(13)  Bbb     0.0000     0.000     0.000     0.000 -0.3903 -0.0225  0.9204
              Bcc     0.0000     0.000     0.000     0.000  0.8038 -0.4959  0.3287
 
              Baa    -0.0000    -0.000    -0.000    -0.000 -0.5212  0.8504  0.0717
     8 C(13)  Bbb     0.0000     0.000     0.000     0.000 -0.0273 -0.1005  0.9946
              Bcc     0.0000     0.000     0.000     0.000  0.8530  0.5164  0.0756
 
              Baa    -0.0000     0.000     0.000     0.000  0.9755 -0.2099 -0.0660
     9 O(17)  Bbb     0.0000    -0.000    -0.000    -0.000 -0.0144 -0.3602  0.9328
              Bcc     0.0000    -0.000    -0.000    -0.000  0.2196  0.9090  0.3544
 
              Baa    -0.0000    -0.000    -0.000    -0.000 -0.1135  0.9894  0.0903
    10 C(13)  Bbb     0.0000     0.000     0.000     0.000  0.1495 -0.0729  0.9861
              Bcc     0.0000     0.000     0.000     0.000  0.9822  0.1254 -0.1397
 
              Baa    -0.0000    -0.000    -0.000    -0.000  0.0518 -0.1106  0.9925
    11 C(13)  Bbb     0.0000     0.000     0.000     0.000  0.8227 -0.5586 -0.1052
              Bcc     0.0000     0.000     0.000     0.000  0.5661  0.8220  0.0620
 
              Baa    -0.0000    -0.000    -0.000    -0.000  0.9296 -0.3645  0.0550
    12 C(13)  Bbb     0.0000     0.000     0.000     0.000 -0.0911 -0.0825  0.9924
              Bcc     0.0000     0.000     0.000     0.000  0.3572  0.9276  0.1099
 
              Baa    -0.0000    -0.000    -0.000    -0.000 -0.1456 -0.5184  0.8426
    13 S(33)  Bbb    -0.0000    -0.000    -0.000    -0.000  0.4182  0.7396  0.5273
              Bcc     0.0000     0.000     0.000     0.000  0.8966 -0.4292 -0.1091
 
              Baa    -0.0000    -0.000    -0.000    -0.000 -0.0181  0.0983  0.9950
    14 C(13)  Bbb    -0.0000    -0.000    -0.000    -0.000 -0.2186  0.9707 -0.0999
              Bcc     0.0000     0.000     0.000     0.000  0.9757  0.2193 -0.0039
 
              Baa    -0.0000    -0.000    -0.000    -0.000  0.1187  0.9772 -0.1762
    15 C(13)  Bbb     0.0000     0.000     0.000     0.000  0.7995  0.0112  0.6006
              Bcc     0.0000     0.000     0.000     0.000 -0.5889  0.2122  0.7799
 
              Baa    -0.0000    -0.000    -0.000    -0.000 -0.2513  0.8299 -0.4981
    16 C(13)  Bbb     0.0000     0.000     0.000     0.000  0.9665  0.2434 -0.0819
              Bcc     0.0000     0.000     0.000     0.000 -0.0532  0.5020  0.8632
 
              Baa    -0.0000    -0.000    -0.000    -0.000  0.6591  0.7499 -0.0568
    17 F(19)  Bbb    -0.0000    -0.000    -0.000    -0.000 -0.0653  0.1323  0.9891
              Bcc     0.0000     0.000     0.000     0.000  0.7492 -0.6482  0.1361
 
              Baa    -0.0000    -0.000    -0.000    -0.000 -0.6823  0.7117 -0.1672
    18 C(13)  Bbb     0.0000     0.000     0.000     0.000  0.7310  0.6672 -0.1431
              Bcc     0.0000     0.000     0.000     0.000 -0.0097  0.2198  0.9755
 
              Baa    -0.0000    -0.000    -0.000    -0.000  0.7938 -0.5979 -0.1112
    19 S(33)  Bbb     0.0000     0.000     0.000     0.000  0.1110 -0.0372  0.9931
              Bcc     0.0000     0.000     0.000     0.000  0.5979  0.8007 -0.0368
 
              Baa    -0.0000    -0.000    -0.000    -0.000  0.9677 -0.2419  0.0709
    20 C(13)  Bbb     0.0000     0.000     0.000     0.000  0.2521  0.9302 -0.2666
              Bcc     0.0000     0.000     0.000     0.000 -0.0014  0.2759  0.9612
 
              Baa    -0.0000    -0.000    -0.000    -0.000  0.1038  0.9737 -0.2029
    21 C(13)  Bbb    -0.0000    -0.000    -0.000    -0.000  0.9945 -0.0992  0.0326
              Bcc     0.0000     0.000     0.000     0.000 -0.0116  0.2052  0.9786
 
              Baa    -0.0000     0.000     0.000     0.000  0.6363  0.7704  0.0410
    22 O(17)  Bbb     0.0000    -0.000    -0.000    -0.000 -0.1624  0.0818  0.9833
              Bcc     0.0000    -0.000    -0.000    -0.000  0.7542 -0.6323  0.1771
 
              Baa    -0.0000    -0.000    -0.000    -0.000 -0.3935  0.3924  0.8314
    23 C(13)  Bbb     0.0000     0.000     0.000     0.000  0.6990 -0.4597  0.5478
              Bcc     0.0000     0.000     0.000     0.000  0.5971  0.7967 -0.0933
 
              Baa    -0.0000    -0.000    -0.000    -0.000 -0.1895  0.2717  0.9435
    24 C(13)  Bbb    -0.0000    -0.000    -0.000    -0.000  0.8414 -0.4503  0.2987
              Bcc     0.0000     0.000     0.000     0.000  0.5061  0.8505 -0.1433
 
              Baa    -0.0000    -0.000    -0.000    -0.000  0.0989  0.1239  0.9873
    25 C(13)  Bbb    -0.0000    -0.000    -0.000    -0.000  0.7102 -0.7038  0.0172
              Bcc     0.0000     0.000     0.000     0.000  0.6970  0.6995 -0.1576
 
              Baa    -0.0000    -0.000    -0.000    -0.000  0.6939  0.7007 -0.1658
    26 S(33)  Bbb     0.0000     0.000     0.000     0.000 -0.0916  0.3142  0.9449
              Bcc     0.0000     0.000     0.000     0.000  0.7142 -0.6405  0.2822
 
              Baa    -0.0000    -0.000    -0.000    -0.000  0.2938 -0.2147  0.9314
    27 C(13)  Bbb    -0.0000    -0.000    -0.000    -0.000  0.7663 -0.5296 -0.3638
              Bcc     0.0000     0.000     0.000     0.000  0.5714  0.8206  0.0089
 
              Baa    -0.0000    -0.000    -0.000    -0.000 -0.5400  0.8337  0.1154
    28 C(13)  Bbb     0.0000     0.000     0.000     0.000  0.0170 -0.1263  0.9918
              Bcc     0.0000     0.000     0.000     0.000  0.8415  0.5375  0.0540
 
              Baa    -0.0000    -0.000    -0.000    -0.000  0.7817  0.6218 -0.0482
    29 C(13)  Bbb    -0.0000    -0.000    -0.000    -0.000  0.0830 -0.0271  0.9962
              Bcc     0.0000     0.000     0.000     0.000 -0.6181  0.7827  0.0728
 
              Baa    -0.0000    -0.000    -0.000    -0.000 -0.5245  0.8506  0.0383
    30 F(19)  Bbb     0.0000     0.000     0.000     0.000 -0.1179 -0.1170  0.9861
              Bcc     0.0000     0.000     0.000     0.000  0.8432  0.5127  0.1617
 
              Baa    -0.0000    -0.000    -0.000    -0.000  0.0284 -0.0708  0.9971
    31 C(13)  Bbb     0.0000     0.000     0.000     0.000  0.5258  0.8494  0.0453
              Bcc     0.0000     0.000     0.000     0.000  0.8501 -0.5230 -0.0613
 
              Baa    -0.0000    -0.000    -0.000    -0.000  0.7420 -0.3545 -0.5690
    32 S(33)  Bbb    -0.0000    -0.000    -0.000    -0.000  0.4937 -0.2853  0.8215
              Bcc     0.0000     0.000     0.000     0.000  0.4535  0.8905  0.0366
 
              Baa    -0.0000    -0.000    -0.000    -0.000  0.9279 -0.3707 -0.0406
    33 C(13)  Bbb     0.0000     0.000     0.000     0.000  0.3692  0.9285 -0.0400
              Bcc     0.0000     0.000     0.000     0.000  0.0525  0.0221  0.9984
 
              Baa    -0.0000    -0.000    -0.000    -0.000  0.7921 -0.5960 -0.1320
    34 C(13)  Bbb     0.0000     0.000     0.000     0.000  0.0444 -0.1594  0.9862
              Bcc     0.0000     0.000     0.000     0.000  0.6088  0.7870  0.0998
 
              Baa    -0.0000     0.000     0.000     0.000 -0.6147  0.7480  0.2504
    35 O(17)  Bbb     0.0000    -0.000    -0.000    -0.000  0.0580 -0.2737  0.9601
              Bcc     0.0000    -0.000    -0.000    -0.000  0.7866  0.6047  0.1248
 
              Baa    -0.0000    -0.000    -0.000    -0.000  0.3791  0.9244 -0.0413
    36 C(13)  Bbb    -0.0000    -0.000    -0.000    -0.000 -0.4775  0.2336  0.8470
              Bcc     0.0000     0.000     0.000     0.000  0.7927 -0.3014  0.5300
 
              Baa    -0.0000    -0.000    -0.000    -0.000 -0.4155  0.9076  0.0607
    37 C(13)  Bbb    -0.0000    -0.000    -0.000    -0.000 -0.0205 -0.0760  0.9969
              Bcc     0.0000     0.000     0.000     0.000  0.9094  0.4130  0.0502
 
              Baa    -0.0000    -0.000    -0.000    -0.000  0.0401 -0.0765  0.9963
    38 C(13)  Bbb    -0.0000    -0.000    -0.000    -0.000 -0.2197  0.9720  0.0835
              Bcc     0.0000     0.000     0.000     0.000  0.9747  0.2222 -0.0222
 
              Baa    -0.0000    -0.000    -0.000    -0.000  0.4468  0.8864  0.1212
    39 S(33)  Bbb     0.0000     0.000     0.000     0.000  0.1660 -0.2152  0.9624
              Bcc     0.0000     0.000     0.000     0.000  0.8791 -0.4098 -0.2433
 
              Baa    -0.0000    -0.000    -0.000    -0.000  0.9978 -0.0465 -0.0470
    40 H(1)   Bbb     0.0000     0.000     0.000     0.000  0.0445 -0.0535  0.9976
              Bcc     0.0000     0.000     0.000     0.000  0.0489  0.9975  0.0513
 
              Baa    -0.0000    -0.000    -0.000    -0.000 -0.4222  0.8625  0.2789
    41 H(1)   Bbb     0.0000     0.000     0.000     0.000  0.8507  0.4833 -0.2068
              Bcc     0.0000     0.000     0.000     0.000  0.3131 -0.1499  0.9378
 
              Baa    -0.0000    -0.000    -0.000    -0.000 -0.4173  0.8904 -0.1817
    42 H(1)   Bbb     0.0000     0.000     0.000     0.000  0.0433  0.2192  0.9747
              Bcc     0.0000     0.000     0.000     0.000  0.9077  0.3989 -0.1300
 
              Baa    -0.0000    -0.000    -0.000    -0.000 -0.2235  0.9542  0.1987
    43 H(1)   Bbb     0.0000     0.000     0.000     0.000  0.2580 -0.1387  0.9562
              Bcc     0.0000     0.000     0.000     0.000  0.9399  0.2650 -0.2152
 
              Baa    -0.0000    -0.000    -0.000    -0.000  0.8065 -0.5895 -0.0455
    44 H(1)   Bbb    -0.0000    -0.000    -0.000    -0.000 -0.0199 -0.1039  0.9944
              Bcc     0.0000     0.000     0.000     0.000  0.5909  0.8011  0.0955
 
              Baa    -0.0000    -0.000    -0.000    -0.000  0.1185 -0.0067  0.9929
    45 H(1)   Bbb    -0.0000    -0.000    -0.000    -0.000  0.7920  0.6038 -0.0904
              Bcc     0.0000     0.000     0.000     0.000 -0.5990  0.7971  0.0768
 
              Baa    -0.0000    -0.000    -0.000    -0.000  0.9962  0.0862 -0.0077
    46 H(1)   Bbb     0.0000     0.000     0.000     0.000 -0.0049  0.1456  0.9893
              Bcc     0.0000     0.000     0.000     0.000 -0.0864  0.9856 -0.1455
 
              Baa    -0.0000    -0.000    -0.000    -0.000  0.1698 -0.0589  0.9837
    47 H(1)   Bbb     0.0000     0.000     0.000     0.000 -0.3495  0.9297  0.1160
              Bcc     0.0000     0.000     0.000     0.000  0.9214  0.3635 -0.1373
 
              Baa    -0.0000    -0.000    -0.000    -0.000 -0.5642  0.3471  0.7492
    48 H(1)   Bbb     0.0000     0.000     0.000     0.000 -0.3980  0.6807 -0.6151
              Bcc     0.0000     0.000     0.000     0.000  0.7234  0.6452  0.2459
 
              Baa    -0.0000    -0.000    -0.000    -0.000 -0.5967 -0.5061  0.6227
    49 H(1)   Bbb     0.0000     0.000     0.000     0.000 -0.4657  0.8504  0.2449
              Bcc     0.0000     0.000     0.000     0.000  0.6535  0.1439  0.7431
 
              Baa    -0.0000    -0.000    -0.000    -0.000  0.0900  0.9754 -0.2011
    50 H(1)   Bbb     0.0000     0.000     0.000     0.000  0.9935 -0.0737  0.0872
              Bcc     0.0000     0.000     0.000     0.000 -0.0702  0.2077  0.9757
 
              Baa    -0.0000    -0.000    -0.000    -0.000  0.0861 -0.0817  0.9929
    51 H(1)   Bbb    -0.0000    -0.000    -0.000    -0.000  0.7470  0.6648 -0.0101
              Bcc     0.0000     0.000     0.000     0.000 -0.6592  0.7426  0.1182
 
              Baa    -0.0000    -0.000    -0.000    -0.000 -0.0103  0.9508  0.3097
    52 H(1)   Bbb    -0.0000    -0.000    -0.000    -0.000  0.9260  0.1260 -0.3560
              Bcc     0.0000     0.000     0.000     0.000  0.3775 -0.2831  0.8817
 
              Baa    -0.0000    -0.000    -0.000    -0.000  0.8785 -0.0828 -0.4706
    53 H(1)   Bbb     0.0000     0.000     0.000     0.000  0.0665  0.9965 -0.0512
              Bcc     0.0000     0.000     0.000     0.000  0.4731  0.0137  0.8809
 
              Baa    -0.0000    -0.000    -0.000    -0.000  0.5475  0.6755 -0.4938
    54 H(1)   Bbb     0.0000     0.000     0.000     0.000 -0.6390  0.7186  0.2744
              Bcc     0.0000     0.000     0.000     0.000  0.5402  0.1653  0.8251
 
              Baa    -0.0000    -0.000    -0.000    -0.000  0.8600  0.5100  0.0183
    55 H(1)   Bbb    -0.0000    -0.000    -0.000    -0.000  0.0416 -0.1057  0.9935
              Bcc     0.0000     0.000     0.000     0.000 -0.5086  0.8537  0.1121
 
              Baa    -0.0000    -0.000    -0.000    -0.000 -0.2679  0.8842  0.3827
    56 H(1)   Bbb    -0.0000    -0.000    -0.000    -0.000  0.1001 -0.3695  0.9238
              Bcc     0.0000     0.000     0.000     0.000  0.9582  0.2858  0.0105
 

 ---------------------------------------------------------------------------------

 No NMR shielding tensors so no spin-rotation constants.
 Leave Link  601 at Thu Jul 23 22:07:51 2020, MaxMem=  4026531840 cpu:               6.2 elap:               0.9
 (Enter /opt/ohpc/pub/libs/gaussian/g16-A.03/sandybridge/g16/l9999.exe)

 Test job not archived.
 1\1\GINC-SKYLAKE038\FOpt\ULC-wPBE\CC-pVDZ\C27H17F3O3S6\RDU230\23-Jul-2
 020\0\\#P uLC-wPBE/cc-pVDZ iop(3/107=0097400000, 3/108=0097400000) opt
 \\H17 C27 S6 O3 F3\\0,1\C,11.1641148005,-0.22002473,0.0666160717\C,10.
 6553129126,-1.4969520602,-0.0330727153\C,9.2367528687,-1.4817611378,-0
 .0183785906\F,8.4971064208,-2.6170277174,-0.1051719311\C,8.6410016641,
 -0.2289037215,0.0902458298\S,9.9154442984,0.9858158906,0.1777345544\C,
 7.2355392752,0.09254679,0.1303092297\C,6.639755676,1.3559944276,0.2391
 252001\O,7.44383763,2.456573919,0.3194792973\C,6.7938937129,3.72107162
 61,0.4350273122\C,5.2181895705,1.3269629543,0.2623774157\C,4.703888092
 8,0.0368887994,0.1678661591\S,5.9914480659,-1.1473596171,0.0387269523\
 C,3.3213339263,-0.3844635247,0.1606643393\C,2.7967755331,-1.6620611467
 ,0.3243672495\C,1.3873565359,-1.6632330838,0.257268055\F,0.6567219082,
 -2.7974334486,0.3987461203\C,0.7773816165,-0.4278593929,0.0483782834\S
 ,2.0381107631,0.7979484271,-0.0876914111\C,-0.6263597296,-0.1300706846
 ,-0.0521721147\C,-1.2339298568,1.1150102705,-0.2707498803\O,-0.4400392
 955,2.2167011784,-0.411457667\C,-1.1003782814,3.4598660869,-0.64349199
 58\C,-2.6531048103,1.0657050014,-0.3300433313\C,-3.1558931164,-0.22070
 15675,-0.1542412613\S,-1.8603170431,-1.3762108762,0.0978072589\C,-4.53
 34248664,-0.6583330144,-0.1544484358\C,-5.0386292515,-1.951136611,-0.2
 364721836\C,-6.4500066892,-1.9654263466,-0.2080625605\F,-7.1637348966,
 -3.1166218146,-0.283267799\C,-7.0780868861,-0.7269462437,-0.1091968511
 \S,-5.8365904481,0.5217292071,-0.0312356568\C,-8.4903911614,-0.4390054
 219,-0.0688518323\C,-9.1135844089,0.8106114377,0.0390694316\O,-8.33671
 68351,1.9317054227,0.1195457354\C,-9.0181737767,3.1793675684,0.2334918
 601\C,-10.541182367,0.7446937625,0.0516890322\C,-10.9979236294,-0.5533
 154461,-0.0461863291\S,-9.7092708353,-1.7052633411,-0.1547665008\H,12.
 2137182471,0.0906362017,0.0814725663\H,11.2510965761,-2.4130008077,-0.
 1141603323\H,6.1471412239,3.9274924561,-0.4455173682\H,6.1817045028,3.
 780521692,1.3612911826\H,7.6002874222,4.4743576919,0.4810450199\H,4.58
 02237224,2.2119098739,0.3667729176\H,3.3930406209,-2.5638441131,0.5055
 689992\H,-1.6859862255,3.4385144427,-1.588293803\H,-1.7744301452,3.725
 1926789,0.1999208023\H,-0.3014655839,4.2179859873,-0.7258758801\H,-3.2
 978273352,1.9318889744,-0.5173148048\H,-4.4277054019,-2.8562031591,-0.
 3329039778\H,-9.663456167,3.3732119077,-0.6510593786\H,-9.6379901832,3
 .2219028172,1.1556095865\H,-8.2310947198,3.9524134447,0.2873265325\H,-
 11.2053171396,1.6124069962,0.1299468036\H,-12.0358385006,-0.9011579062
 ,-0.0599182064\\Version=EM64L-G16RevA.03\State=1-A\HF=-3951.1225922\S2
 =0.\S2-1=0.\S2A=0.\RMSD=3.686e-09\RMSF=5.177e-06\Dipole=-0.9292103,2.7
 961339,0.0032436\Quadrupole=22.3805848,3.4862701,-25.8668549,-10.19248
 76,0.4418055,0.0298707\PG=C01 [X(C27H17F3O3S6)]\\@


 TOM, TOM, THE BURGLAR'S SON
 STOLE A MACHINE AND AWAY HE RUN
 THE JOB WAS NEAT, BUT TOM GOT BEAT
 BY THE TIME HE GOT HOME IT WAS OBSOLETE.
 Job cpu time:       1 days 10 hours 52 minutes 31.9 seconds.
 Elapsed time:       0 days  4 hours 22 minutes 58.5 seconds.
 File lengths (MBytes):  RWF=    528 Int=      0 D2E=      0 Chk=     48 Scr=      8
 Normal termination of Gaussian 16 at Thu Jul 23 22:07:51 2020.
