 Entering Gaussian System, Link 0=g16
 Input=mols_66_3_06_c-c-c-cOC_opt_0.gjf
 Output=mols_66_3_06_c-c-c-cOC_opt_0.log
 Initial command:
 /opt/ohpc/pub/libs/gaussian/g16-A.03/sandybridge/g16/l1.exe "/mnt/gpfs2_4m/scratch/rdu230/ondemand/projects/dihedral_energies/7trial/wtuning/mols_66_3_06_c-c-c-cOC/Gau-74296.inp" -scrdir="/mnt/gpfs2_4m/scratch/rdu230/ondemand/projects/dihedral_energies/7trial/wtuning/mols_66_3_06_c-c-c-cOC/"
 Entering Link 1 = /opt/ohpc/pub/libs/gaussian/g16-A.03/sandybridge/g16/l1.exe PID=     74297.
  
 Copyright (c) 1988,1990,1992,1993,1995,1998,2003,2009,2016,
            Gaussian, Inc.  All Rights Reserved.
  
 This is part of the Gaussian(R) 16 program.  It is based on
 the Gaussian(R) 09 system (copyright 2009, Gaussian, Inc.),
 the Gaussian(R) 03 system (copyright 2003, Gaussian, Inc.),
 the Gaussian(R) 98 system (copyright 1998, Gaussian, Inc.),
 the Gaussian(R) 94 system (copyright 1995, Gaussian, Inc.),
 the Gaussian 92(TM) system (copyright 1992, Gaussian, Inc.),
 the Gaussian 90(TM) system (copyright 1990, Gaussian, Inc.),
 the Gaussian 88(TM) system (copyright 1988, Gaussian, Inc.),
 the Gaussian 86(TM) system (copyright 1986, Carnegie Mellon
 University), and the Gaussian 82(TM) system (copyright 1983,
 Carnegie Mellon University). Gaussian is a federally registered
 trademark of Gaussian, Inc.
  
 This software contains proprietary and confidential information,
 including trade secrets, belonging to Gaussian, Inc.
  
 This software is provided under written license and may be
 used, copied, transmitted, or stored only in accord with that
 written license.
  
 The following legend is applicable only to US Government
 contracts under FAR:
  
                    RESTRICTED RIGHTS LEGEND
  
 Use, reproduction and disclosure by the US Government is
 subject to restrictions as set forth in subparagraphs (a)
 and (c) of the Commercial Computer Software - Restricted
 Rights clause in FAR 52.227-19.
  
 Gaussian, Inc.
 340 Quinnipiac St., Bldg. 40, Wallingford CT 06492
  
  
 ---------------------------------------------------------------
 Warning -- This program may not be used in any manner that
 competes with the business of Gaussian, Inc. or will provide
 assistance to any competitor of Gaussian, Inc.  The licensee
 of this program is prohibited from giving any competitor of
 Gaussian, Inc. access to this program.  By using this program,
 the user acknowledges that Gaussian, Inc. is engaged in the
 business of creating and licensing software in the field of
 computational chemistry and represents and warrants to the
 licensee that it is not a competitor of Gaussian, Inc. and that
 it will not use this program in any manner prohibited above.
 ---------------------------------------------------------------
  

 Cite this work as:
 Gaussian 16, Revision A.03,
 M. J. Frisch, G. W. Trucks, H. B. Schlegel, G. E. Scuseria, 
 M. A. Robb, J. R. Cheeseman, G. Scalmani, V. Barone, 
 G. A. Petersson, H. Nakatsuji, X. Li, M. Caricato, A. V. Marenich, 
 J. Bloino, B. G. Janesko, R. Gomperts, B. Mennucci, H. P. Hratchian, 
 J. V. Ortiz, A. F. Izmaylov, J. L. Sonnenberg, D. Williams-Young, 
 F. Ding, F. Lipparini, F. Egidi, J. Goings, B. Peng, A. Petrone, 
 T. Henderson, D. Ranasinghe, V. G. Zakrzewski, J. Gao, N. Rega, 
 G. Zheng, W. Liang, M. Hada, M. Ehara, K. Toyota, R. Fukuda, 
 J. Hasegawa, M. Ishida, T. Nakajima, Y. Honda, O. Kitao, H. Nakai, 
 T. Vreven, K. Throssell, J. A. Montgomery, Jr., J. E. Peralta, 
 F. Ogliaro, M. J. Bearpark, J. J. Heyd, E. N. Brothers, K. N. Kudin, 
 V. N. Staroverov, T. A. Keith, R. Kobayashi, J. Normand, 
 K. Raghavachari, A. P. Rendell, J. C. Burant, S. S. Iyengar, 
 J. Tomasi, M. Cossi, J. M. Millam, M. Klene, C. Adamo, R. Cammi, 
 J. W. Ochterski, R. L. Martin, K. Morokuma, O. Farkas, 
 J. B. Foresman, and D. J. Fox, Gaussian, Inc., Wallingford CT, 2016.
 
 ******************************************
 Gaussian 16:  EM64L-G16RevA.03 25-Dec-2016
                23-Jul-2020 
 ******************************************
 %mem=30GB
 %nproc=8
 Will use up to    8 processors via shared memory.
 ---------------------------------------------------------------
 #P uLC-wPBE/cc-pVDZ iop(3/107=0208700000, 3/108=0208700000) opt
 ---------------------------------------------------------------
 1/18=20,19=15,26=3,38=1/1,3;
 2/9=110,12=2,17=6,18=5,40=1/2;
 3/5=16,11=2,25=1,30=1,71=1,74=-41,107=208700000,108=208700000,116=2/1,2,3;
 4//1;
 5/5=2,38=5/2;
 6/7=2,8=2,9=2,10=2,28=1/1;
 7//1,2,3,16;
 1/18=20,19=15,26=3/3(2);
 2/9=110/2;
 99//99;
 2/9=110/2;
 3/5=16,11=2,25=1,30=1,71=1,74=-41,107=208700000,108=208700000,116=2/1,2,3;
 4/5=5,16=3,69=1/1;
 5/5=2,38=5/2;
 7//1,2,3,16;
 1/18=20,19=15,26=3/3(-5);
 2/9=110/2;
 6/7=2,8=2,9=2,10=2,19=2,28=1/1;
 99/9=1/99;
 Leave Link    1 at Thu Jul 23 18:23:57 2020, MaxMem=  4026531840 cpu:               1.9 elap:               0.3
 (Enter /opt/ohpc/pub/libs/gaussian/g16-A.03/sandybridge/g16/l101.exe)
 ----------
 H32 C39 O3
 ----------
 Symbolic Z-matrix:
 Charge =  0 Multiplicity = 1
 C                    -12.39326  -0.79073   0.39986 
 C                    -11.56088  -1.09377   1.47414 
 C                    -10.16097  -0.97968   1.39318 
 C                    -9.5953   -0.57403   0.23848 
 C                    -10.37108  -0.26093  -0.89519 
 C                    -11.72182  -0.33168  -0.81103 
 C                    -8.0479   -0.43205   0.14643 
 C                    -7.29636  -1.66982   0.34099 
 C                    -5.96909  -1.58921   0.27475 
 C                    -5.2675   -0.43043   0.06217 
 C                    -5.96506   0.76911  -0.09766 
 C                    -7.42032   0.7664   -0.01591 
 O                    -8.21483   1.85226  -0.16148 
 C                    -7.51523   3.09437  -0.4682 
 C                    -3.79909  -0.37126  -0.07631 
 C                    -3.01892   0.41707   0.88049 
 C                    -1.64112   0.48587   0.83805 
 C                    -0.96551  -0.26042  -0.17902 
 C                    -1.701    -1.08342  -1.06968 
 C                    -3.02667  -1.14454  -0.96054 
 C                     0.55901  -0.28236  -0.14765 
 C                     1.28616  -1.47786   0.0182 
 C                     2.65982  -1.46799   0.05249 
 C                     3.36387  -0.37491  -0.25571 
 C                     2.66294   0.89209  -0.43851 
 C                     1.28939   0.95235  -0.45205 
 O                     0.59794   2.02282  -0.69863 
 C                     1.3079    3.26924  -0.97351 
 C                     4.80823  -0.36532  -0.22472 
 C                     5.57005   0.12723  -1.30703 
 C                     7.02568   0.05061  -1.36221 
 C                     7.68265  -0.49064  -0.24969 
 C                     7.00946  -0.91734   0.84316 
 C                     5.53645  -0.84677   0.88899 
 C                     9.15268  -0.53776  -0.21124 
 C                     9.78445  -1.26775  -1.23143 
 C                     11.17526  -1.40882  -1.28865 
 C                     12.0338  -0.69031  -0.34712 
 C                     11.35693   0.12456   0.59105 
 C                     9.98879   0.21104   0.7373 
 O                     9.3011    0.92225   1.62538 
 C                     10.0425   1.73591   2.55275 
 H                    -13.42504  -0.79583   0.50063 
 H                    -12.08883  -1.39487   2.46063 
 H                    -9.56228  -1.17283   2.33966 
 H                    -9.92532   0.10024  -1.82892 
 H                    -12.32242  -0.11256  -1.65131 
 H                    -7.82907  -2.53518   0.49641 
 H                    -5.35115  -2.48594   0.36677 
 H                    -5.47272   1.73871  -0.27689 
 H                    -8.34723   3.84153  -0.517 
 H                    -6.8999    3.43345   0.43162 
 H                    -7.04009   3.08684  -1.37606 
 H                    -3.49917   1.04772   1.58199 
 H                    -1.11097   1.08051   1.45259 
 H                    -1.16803  -1.70259  -1.72724 
 H                    -3.56892  -1.74376  -1.65572 
 H                     0.69035  -2.36081   0.20242 
 H                     3.10955  -2.4872    0.1873 
 H                     3.24345   1.76254  -0.67427 
 H                     0.55168   4.07894  -1.14115 
 H                     1.91137   3.13111  -1.8824 
 H                     1.89551   3.50221  -0.15429 
 H                     5.0977    0.49791  -2.23918 
 H                     7.50605   0.44382  -2.24018 
 H                     7.47021  -1.30026   1.78885 
 H                     5.06355  -1.19854   1.74163 
 H                     9.26444  -1.88933  -1.91954 
 H                     11.64575  -2.02744  -2.03134 
 H                     13.11251  -0.74215  -0.38561 
 H                     12.00376   0.59767   1.29041 
 H                     10.74272   2.46969   1.95956 
 H                     10.70213   1.11944   3.20541 
 H                     9.36911   2.27408   3.11713 
 
 ITRead=  0  0  0  0  0  0  0  0  0  0  0  0  0  0  0  0  0  0  0  0
 ITRead=  0  0  0  0  0  0  0  0  0  0  0  0  0  0  0  0  0  0  0  0
 ITRead=  0  0  0  0  0  0  0  0  0  0  0  0  0  0  0  0  0  0  0  0
 ITRead=  0  0  0  0  0  0  0  0  0  0  0  0  0  0
 MicOpt= -1 -1 -1 -1 -1 -1 -1 -1 -1 -1 -1 -1 -1 -1 -1 -1 -1 -1 -1 -1
 MicOpt= -1 -1 -1 -1 -1 -1 -1 -1 -1 -1 -1 -1 -1 -1 -1 -1 -1 -1 -1 -1
 MicOpt= -1 -1 -1 -1 -1 -1 -1 -1 -1 -1 -1 -1 -1 -1 -1 -1 -1 -1 -1 -1
 MicOpt= -1 -1 -1 -1 -1 -1 -1 -1 -1 -1 -1 -1 -1 -1
 NAtoms=     74 NQM=       74 NQMF=       0 NMMI=      0 NMMIF=      0
                NMic=       0 NMicF=      0.
                    Isotopes and Nuclear Properties:
 (Nuclear quadrupole moments (NQMom) in fm**2, nuclear magnetic moments (NMagM)
  in nuclear magnetons)

  Atom         1           2           3           4           5           6           7           8           9          10
 IAtWgt=          12          12          12          12          12          12          12          12          12          12
 AtmWgt=  12.0000000  12.0000000  12.0000000  12.0000000  12.0000000  12.0000000  12.0000000  12.0000000  12.0000000  12.0000000
 NucSpn=           0           0           0           0           0           0           0           0           0           0
 AtZEff=  -0.0000000  -0.0000000  -0.0000000  -0.0000000  -0.0000000  -0.0000000  -0.0000000  -0.0000000  -0.0000000  -0.0000000
 NQMom=    0.0000000   0.0000000   0.0000000   0.0000000   0.0000000   0.0000000   0.0000000   0.0000000   0.0000000   0.0000000
 NMagM=    0.0000000   0.0000000   0.0000000   0.0000000   0.0000000   0.0000000   0.0000000   0.0000000   0.0000000   0.0000000
 AtZNuc=   6.0000000   6.0000000   6.0000000   6.0000000   6.0000000   6.0000000   6.0000000   6.0000000   6.0000000   6.0000000

  Atom        11          12          13          14          15          16          17          18          19          20
 IAtWgt=          12          12          16          12          12          12          12          12          12          12
 AtmWgt=  12.0000000  12.0000000  15.9949146  12.0000000  12.0000000  12.0000000  12.0000000  12.0000000  12.0000000  12.0000000
 NucSpn=           0           0           0           0           0           0           0           0           0           0
 AtZEff=  -0.0000000  -0.0000000  -0.0000000  -0.0000000  -0.0000000  -0.0000000  -0.0000000  -0.0000000  -0.0000000  -0.0000000
 NQMom=    0.0000000   0.0000000   0.0000000   0.0000000   0.0000000   0.0000000   0.0000000   0.0000000   0.0000000   0.0000000
 NMagM=    0.0000000   0.0000000   0.0000000   0.0000000   0.0000000   0.0000000   0.0000000   0.0000000   0.0000000   0.0000000
 AtZNuc=   6.0000000   6.0000000   8.0000000   6.0000000   6.0000000   6.0000000   6.0000000   6.0000000   6.0000000   6.0000000

  Atom        21          22          23          24          25          26          27          28          29          30
 IAtWgt=          12          12          12          12          12          12          16          12          12          12
 AtmWgt=  12.0000000  12.0000000  12.0000000  12.0000000  12.0000000  12.0000000  15.9949146  12.0000000  12.0000000  12.0000000
 NucSpn=           0           0           0           0           0           0           0           0           0           0
 AtZEff=  -0.0000000  -0.0000000  -0.0000000  -0.0000000  -0.0000000  -0.0000000  -0.0000000  -0.0000000  -0.0000000  -0.0000000
 NQMom=    0.0000000   0.0000000   0.0000000   0.0000000   0.0000000   0.0000000   0.0000000   0.0000000   0.0000000   0.0000000
 NMagM=    0.0000000   0.0000000   0.0000000   0.0000000   0.0000000   0.0000000   0.0000000   0.0000000   0.0000000   0.0000000
 AtZNuc=   6.0000000   6.0000000   6.0000000   6.0000000   6.0000000   6.0000000   8.0000000   6.0000000   6.0000000   6.0000000

  Atom        31          32          33          34          35          36          37          38          39          40
 IAtWgt=          12          12          12          12          12          12          12          12          12          12
 AtmWgt=  12.0000000  12.0000000  12.0000000  12.0000000  12.0000000  12.0000000  12.0000000  12.0000000  12.0000000  12.0000000
 NucSpn=           0           0           0           0           0           0           0           0           0           0
 AtZEff=  -0.0000000  -0.0000000  -0.0000000  -0.0000000  -0.0000000  -0.0000000  -0.0000000  -0.0000000  -0.0000000  -0.0000000
 NQMom=    0.0000000   0.0000000   0.0000000   0.0000000   0.0000000   0.0000000   0.0000000   0.0000000   0.0000000   0.0000000
 NMagM=    0.0000000   0.0000000   0.0000000   0.0000000   0.0000000   0.0000000   0.0000000   0.0000000   0.0000000   0.0000000
 AtZNuc=   6.0000000   6.0000000   6.0000000   6.0000000   6.0000000   6.0000000   6.0000000   6.0000000   6.0000000   6.0000000

  Atom        41          42          43          44          45          46          47          48          49          50
 IAtWgt=          16          12           1           1           1           1           1           1           1           1
 AtmWgt=  15.9949146  12.0000000   1.0078250   1.0078250   1.0078250   1.0078250   1.0078250   1.0078250   1.0078250   1.0078250
 NucSpn=           0           0           1           1           1           1           1           1           1           1
 AtZEff=  -0.0000000  -0.0000000  -0.0000000  -0.0000000  -0.0000000  -0.0000000  -0.0000000  -0.0000000  -0.0000000  -0.0000000
 NQMom=    0.0000000   0.0000000   0.0000000   0.0000000   0.0000000   0.0000000   0.0000000   0.0000000   0.0000000   0.0000000
 NMagM=    0.0000000   0.0000000   2.7928460   2.7928460   2.7928460   2.7928460   2.7928460   2.7928460   2.7928460   2.7928460
 AtZNuc=   8.0000000   6.0000000   1.0000000   1.0000000   1.0000000   1.0000000   1.0000000   1.0000000   1.0000000   1.0000000

  Atom        51          52          53          54          55          56          57          58          59          60
 IAtWgt=           1           1           1           1           1           1           1           1           1           1
 AtmWgt=   1.0078250   1.0078250   1.0078250   1.0078250   1.0078250   1.0078250   1.0078250   1.0078250   1.0078250   1.0078250
 NucSpn=           1           1           1           1           1           1           1           1           1           1
 AtZEff=  -0.0000000  -0.0000000  -0.0000000  -0.0000000  -0.0000000  -0.0000000  -0.0000000  -0.0000000  -0.0000000  -0.0000000
 NQMom=    0.0000000   0.0000000   0.0000000   0.0000000   0.0000000   0.0000000   0.0000000   0.0000000   0.0000000   0.0000000
 NMagM=    2.7928460   2.7928460   2.7928460   2.7928460   2.7928460   2.7928460   2.7928460   2.7928460   2.7928460   2.7928460
 AtZNuc=   1.0000000   1.0000000   1.0000000   1.0000000   1.0000000   1.0000000   1.0000000   1.0000000   1.0000000   1.0000000

  Atom        61          62          63          64          65          66          67          68          69          70
 IAtWgt=           1           1           1           1           1           1           1           1           1           1
 AtmWgt=   1.0078250   1.0078250   1.0078250   1.0078250   1.0078250   1.0078250   1.0078250   1.0078250   1.0078250   1.0078250
 NucSpn=           1           1           1           1           1           1           1           1           1           1
 AtZEff=  -0.0000000  -0.0000000  -0.0000000  -0.0000000  -0.0000000  -0.0000000  -0.0000000  -0.0000000  -0.0000000  -0.0000000
 NQMom=    0.0000000   0.0000000   0.0000000   0.0000000   0.0000000   0.0000000   0.0000000   0.0000000   0.0000000   0.0000000
 NMagM=    2.7928460   2.7928460   2.7928460   2.7928460   2.7928460   2.7928460   2.7928460   2.7928460   2.7928460   2.7928460
 AtZNuc=   1.0000000   1.0000000   1.0000000   1.0000000   1.0000000   1.0000000   1.0000000   1.0000000   1.0000000   1.0000000

  Atom        71          72          73          74
 IAtWgt=           1           1           1           1
 AtmWgt=   1.0078250   1.0078250   1.0078250   1.0078250
 NucSpn=           1           1           1           1
 AtZEff=  -0.0000000  -0.0000000  -0.0000000  -0.0000000
 NQMom=    0.0000000   0.0000000   0.0000000   0.0000000
 NMagM=    2.7928460   2.7928460   2.7928460   2.7928460
 AtZNuc=   1.0000000   1.0000000   1.0000000   1.0000000
 Leave Link  101 at Thu Jul 23 18:23:57 2020, MaxMem=  4026531840 cpu:               3.4 elap:               0.4
 (Enter /opt/ohpc/pub/libs/gaussian/g16-A.03/sandybridge/g16/l103.exe)

 GradGradGradGradGradGradGradGradGradGradGradGradGradGradGradGradGradGrad
 Berny optimization.
 Initialization pass.
                           ----------------------------
                           !    Initial Parameters    !
                           ! (Angstroms and Degrees)  !
 --------------------------                            --------------------------
 ! Name  Definition              Value          Derivative Info.                !
 --------------------------------------------------------------------------------
 ! R1    R(1,2)                  1.3924         estimate D2E/DX2                !
 ! R2    R(1,6)                  1.4587         estimate D2E/DX2                !
 ! R3    R(1,43)                 1.0367         estimate D2E/DX2                !
 ! R4    R(2,3)                  1.4069         estimate D2E/DX2                !
 ! R5    R(2,44)                 1.1587         estimate D2E/DX2                !
 ! R6    R(3,4)                  1.3483         estimate D2E/DX2                !
 ! R7    R(3,45)                 1.1365         estimate D2E/DX2                !
 ! R8    R(4,5)                  1.4089         estimate D2E/DX2                !
 ! R9    R(4,7)                  1.5566         estimate D2E/DX2                !
 ! R10   R(5,6)                  1.3552         estimate D2E/DX2                !
 ! R11   R(5,46)                 1.0959         estimate D2E/DX2                !
 ! R12   R(6,47)                 1.0559         estimate D2E/DX2                !
 ! R13   R(7,8)                  1.4611         estimate D2E/DX2                !
 ! R14   R(7,12)                 1.3625         estimate D2E/DX2                !
 ! R15   R(8,9)                  1.3314         estimate D2E/DX2                !
 ! R16   R(8,48)                 1.028          estimate D2E/DX2                !
 ! R17   R(9,10)                 1.3712         estimate D2E/DX2                !
 ! R18   R(9,49)                 1.0929         estimate D2E/DX2                !
 ! R19   R(10,11)                1.3968         estimate D2E/DX2                !
 ! R20   R(10,15)                1.4761         estimate D2E/DX2                !
 ! R21   R(11,12)                1.4576         estimate D2E/DX2                !
 ! R22   R(11,50)                1.1021         estimate D2E/DX2                !
 ! R23   R(12,13)                1.3533         estimate D2E/DX2                !
 ! R24   R(13,14)                1.4582         estimate D2E/DX2                !
 ! R25   R(14,51)                1.1193         estimate D2E/DX2                !
 ! R26   R(14,52)                1.1416         estimate D2E/DX2                !
 ! R27   R(14,53)                1.0247         estimate D2E/DX2                !
 ! R28   R(15,16)                1.4648         estimate D2E/DX2                !
 ! R29   R(15,20)                1.4059         estimate D2E/DX2                !
 ! R30   R(16,17)                1.3802         estimate D2E/DX2                !
 ! R31   R(16,54)                1.0585         estimate D2E/DX2                !
 ! R32   R(17,18)                1.431          estimate D2E/DX2                !
 ! R33   R(17,55)                1.0061         estimate D2E/DX2                !
 ! R34   R(18,19)                1.4183         estimate D2E/DX2                !
 ! R35   R(18,21)                1.525          estimate D2E/DX2                !
 ! R36   R(19,20)                1.3316         estimate D2E/DX2                !
 ! R37   R(19,56)                1.0487         estimate D2E/DX2                !
 ! R38   R(20,57)                1.066          estimate D2E/DX2                !
 ! R39   R(21,22)                1.4091         estimate D2E/DX2                !
 ! R40   R(21,26)                1.4665         estimate D2E/DX2                !
 ! R41   R(22,23)                1.3741         estimate D2E/DX2                !
 ! R42   R(22,58)                1.081          estimate D2E/DX2                !
 ! R43   R(23,24)                1.3362         estimate D2E/DX2                !
 ! R44   R(23,59)                1.1222         estimate D2E/DX2                !
 ! R45   R(24,25)                1.4595         estimate D2E/DX2                !
 ! R46   R(24,29)                1.4447         estimate D2E/DX2                !
 ! R47   R(25,26)                1.3749         estimate D2E/DX2                !
 ! R48   R(25,60)                1.0725         estimate D2E/DX2                !
 ! R49   R(26,27)                1.298          estimate D2E/DX2                !
 ! R50   R(27,28)                1.4605         estimate D2E/DX2                !
 ! R51   R(28,61)                1.1205         estimate D2E/DX2                !
 ! R52   R(28,62)                1.0997         estimate D2E/DX2                !
 ! R53   R(28,63)                1.0347         estimate D2E/DX2                !
 ! R54   R(29,30)                1.4122         estimate D2E/DX2                !
 ! R55   R(29,34)                1.4151         estimate D2E/DX2                !
 ! R56   R(30,31)                1.4587         estimate D2E/DX2                !
 ! R57   R(30,64)                1.1088         estimate D2E/DX2                !
 ! R58   R(31,32)                1.4008         estimate D2E/DX2                !
 ! R59   R(31,65)                1.0753         estimate D2E/DX2                !
 ! R60   R(32,33)                1.3526         estimate D2E/DX2                !
 ! R61   R(32,35)                1.4713         estimate D2E/DX2                !
 ! R62   R(33,34)                1.4754         estimate D2E/DX2                !
 ! R63   R(33,66)                1.1195         estimate D2E/DX2                !
 ! R64   R(34,67)                1.0365         estimate D2E/DX2                !
 ! R65   R(35,36)                1.4046         estimate D2E/DX2                !
 ! R66   R(35,40)                1.4695         estimate D2E/DX2                !
 ! R67   R(36,37)                1.3991         estimate D2E/DX2                !
 ! R68   R(36,68)                1.0631         estimate D2E/DX2                !
 ! R69   R(37,38)                1.4628         estimate D2E/DX2                !
 ! R70   R(37,69)                1.075          estimate D2E/DX2                !
 ! R71   R(38,39)                1.415          estimate D2E/DX2                !
 ! R72   R(38,70)                1.0806         estimate D2E/DX2                !
 ! R73   R(39,40)                1.3786         estimate D2E/DX2                !
 ! R74   R(39,71)                1.0636         estimate D2E/DX2                !
 ! R75   R(40,41)                1.3294         estimate D2E/DX2                !
 ! R76   R(41,42)                1.4393         estimate D2E/DX2                !
 ! R77   R(42,72)                1.175          estimate D2E/DX2                !
 ! R78   R(42,73)                1.114          estimate D2E/DX2                !
 ! R79   R(42,74)                1.0303         estimate D2E/DX2                !
 ! A1    A(2,1,6)              115.7079         estimate D2E/DX2                !
 ! A2    A(2,1,43)             121.2582         estimate D2E/DX2                !
 ! A3    A(6,1,43)             122.7079         estimate D2E/DX2                !
 ! A4    A(1,2,3)              122.1943         estimate D2E/DX2                !
 ! A5    A(1,2,44)             116.1704         estimate D2E/DX2                !
 ! A6    A(3,2,44)             121.5644         estimate D2E/DX2                !
 ! A7    A(2,3,4)              119.416          estimate D2E/DX2                !
 ! A8    A(2,3,45)             117.5473         estimate D2E/DX2                !
 ! A9    A(4,3,45)             122.9133         estimate D2E/DX2                !
 ! A10   A(3,4,5)              121.6654         estimate D2E/DX2                !
 ! A11   A(3,4,7)              119.6794         estimate D2E/DX2                !
 ! A12   A(5,4,7)              118.653          estimate D2E/DX2                !
 ! A13   A(4,5,6)              119.1588         estimate D2E/DX2                !
 ! A14   A(4,5,46)             122.333          estimate D2E/DX2                !
 ! A15   A(6,5,46)             118.3937         estimate D2E/DX2                !
 ! A16   A(1,6,5)              121.7872         estimate D2E/DX2                !
 ! A17   A(1,6,47)             117.6528         estimate D2E/DX2                !
 ! A18   A(5,6,47)             120.4441         estimate D2E/DX2                !
 ! A19   A(4,7,8)              115.2251         estimate D2E/DX2                !
 ! A20   A(4,7,12)             123.0349         estimate D2E/DX2                !
 ! A21   A(8,7,12)             121.6068         estimate D2E/DX2                !
 ! A22   A(7,8,9)              117.0566         estimate D2E/DX2                !
 ! A23   A(7,8,48)             117.822          estimate D2E/DX2                !
 ! A24   A(9,8,48)             125.1061         estimate D2E/DX2                !
 ! A25   A(8,9,10)             124.6786         estimate D2E/DX2                !
 ! A26   A(8,9,49)             120.6506         estimate D2E/DX2                !
 ! A27   A(10,9,49)            114.6545         estimate D2E/DX2                !
 ! A28   A(9,10,11)            119.2064         estimate D2E/DX2                !
 ! A29   A(9,10,15)            123.8772         estimate D2E/DX2                !
 ! A30   A(11,10,15)           116.8485         estimate D2E/DX2                !
 ! A31   A(10,11,12)           119.3796         estimate D2E/DX2                !
 ! A32   A(10,11,50)           123.4389         estimate D2E/DX2                !
 ! A33   A(12,11,50)           117.1793         estimate D2E/DX2                !
 ! A34   A(7,12,11)            117.9176         estimate D2E/DX2                !
 ! A35   A(7,12,13)            116.6242         estimate D2E/DX2                !
 ! A36   A(11,12,13)           125.3536         estimate D2E/DX2                !
 ! A37   A(12,13,14)           115.114          estimate D2E/DX2                !
 ! A38   A(13,14,51)           102.7769         estimate D2E/DX2                !
 ! A39   A(13,14,52)           110.2312         estimate D2E/DX2                !
 ! A40   A(13,14,53)           113.7385         estimate D2E/DX2                !
 ! A41   A(51,14,52)           103.694          estimate D2E/DX2                !
 ! A42   A(51,14,53)           108.1159         estimate D2E/DX2                !
 ! A43   A(52,14,53)           116.7807         estimate D2E/DX2                !
 ! A44   A(10,15,16)           119.3496         estimate D2E/DX2                !
 ! A45   A(10,15,20)           125.6982         estimate D2E/DX2                !
 ! A46   A(16,15,20)           114.4703         estimate D2E/DX2                !
 ! A47   A(15,16,17)           122.578          estimate D2E/DX2                !
 ! A48   A(15,16,54)           120.7891         estimate D2E/DX2                !
 ! A49   A(17,16,54)           116.334          estimate D2E/DX2                !
 ! A50   A(16,17,18)           117.8503         estimate D2E/DX2                !
 ! A51   A(16,17,55)           122.4587         estimate D2E/DX2                !
 ! A52   A(18,17,55)           119.5747         estimate D2E/DX2                !
 ! A53   A(17,18,19)           120.2727         estimate D2E/DX2                !
 ! A54   A(17,18,21)           117.7006         estimate D2E/DX2                !
 ! A55   A(19,18,21)           121.5322         estimate D2E/DX2                !
 ! A56   A(18,19,20)           119.4355         estimate D2E/DX2                !
 ! A57   A(18,19,56)           118.2165         estimate D2E/DX2                !
 ! A58   A(20,19,56)           122.0227         estimate D2E/DX2                !
 ! A59   A(15,20,19)           124.9809         estimate D2E/DX2                !
 ! A60   A(15,20,57)           116.0955         estimate D2E/DX2                !
 ! A61   A(19,20,57)           118.6053         estimate D2E/DX2                !
 ! A62   A(18,21,22)           122.0404         estimate D2E/DX2                !
 ! A63   A(18,21,26)           118.7836         estimate D2E/DX2                !
 ! A64   A(22,21,26)           118.7996         estimate D2E/DX2                !
 ! A65   A(21,22,23)           120.8449         estimate D2E/DX2                !
 ! A66   A(21,22,58)           115.3804         estimate D2E/DX2                !
 ! A67   A(23,22,58)           123.546          estimate D2E/DX2                !
 ! A68   A(22,23,24)           121.7923         estimate D2E/DX2                !
 ! A69   A(22,23,59)           113.3976         estimate D2E/DX2                !
 ! A70   A(24,23,59)           124.0236         estimate D2E/DX2                !
 ! A71   A(23,24,25)           119.0782         estimate D2E/DX2                !
 ! A72   A(23,24,29)           121.8198         estimate D2E/DX2                !
 ! A73   A(25,24,29)           118.4939         estimate D2E/DX2                !
 ! A74   A(24,25,26)           121.2694         estimate D2E/DX2                !
 ! A75   A(24,25,60)           118.175          estimate D2E/DX2                !
 ! A76   A(26,25,60)           120.1978         estimate D2E/DX2                !
 ! A77   A(21,26,25)           117.2967         estimate D2E/DX2                !
 ! A78   A(21,26,27)           117.9353         estimate D2E/DX2                !
 ! A79   A(25,26,27)           124.763          estimate D2E/DX2                !
 ! A80   A(26,27,28)           118.7249         estimate D2E/DX2                !
 ! A81   A(27,28,61)           108.4676         estimate D2E/DX2                !
 ! A82   A(27,28,62)           108.367          estimate D2E/DX2                !
 ! A83   A(27,28,63)           108.6139         estimate D2E/DX2                !
 ! A84   A(61,28,62)           109.7218         estimate D2E/DX2                !
 ! A85   A(61,28,63)           109.8165         estimate D2E/DX2                !
 ! A86   A(62,28,63)           111.7774         estimate D2E/DX2                !
 ! A87   A(24,29,30)           121.6812         estimate D2E/DX2                !
 ! A88   A(24,29,34)           121.945          estimate D2E/DX2                !
 ! A89   A(30,29,34)           116.3738         estimate D2E/DX2                !
 ! A90   A(29,30,31)           123.2976         estimate D2E/DX2                !
 ! A91   A(29,30,64)           122.0787         estimate D2E/DX2                !
 ! A92   A(31,30,64)           114.2597         estimate D2E/DX2                !
 ! A93   A(30,31,32)           117.2753         estimate D2E/DX2                !
 ! A94   A(30,31,65)           117.2245         estimate D2E/DX2                !
 ! A95   A(32,31,65)           125.4683         estimate D2E/DX2                !
 ! A96   A(31,32,33)           122.0154         estimate D2E/DX2                !
 ! A97   A(31,32,35)           120.1142         estimate D2E/DX2                !
 ! A98   A(33,32,35)           117.7781         estimate D2E/DX2                !
 ! A99   A(32,33,34)           120.4567         estimate D2E/DX2                !
 ! A100  A(32,33,66)           125.8446         estimate D2E/DX2                !
 ! A101  A(34,33,66)           113.6423         estimate D2E/DX2                !
 ! A102  A(29,34,33)           120.3716         estimate D2E/DX2                !
 ! A103  A(29,34,67)           121.8761         estimate D2E/DX2                !
 ! A104  A(33,34,67)           117.6984         estimate D2E/DX2                !
 ! A105  A(32,35,36)           116.5565         estimate D2E/DX2                !
 ! A106  A(32,35,40)           124.6825         estimate D2E/DX2                !
 ! A107  A(36,35,40)           118.5376         estimate D2E/DX2                !
 ! A108  A(35,36,37)           121.9539         estimate D2E/DX2                !
 ! A109  A(35,36,68)           123.6398         estimate D2E/DX2                !
 ! A110  A(37,36,68)           113.6285         estimate D2E/DX2                !
 ! A111  A(36,37,38)           120.5025         estimate D2E/DX2                !
 ! A112  A(36,37,69)           121.4221         estimate D2E/DX2                !
 ! A113  A(38,37,69)           118.0644         estimate D2E/DX2                !
 ! A114  A(37,38,39)           115.3946         estimate D2E/DX2                !
 ! A115  A(37,38,70)           122.6408         estimate D2E/DX2                !
 ! A116  A(39,38,70)           121.9194         estimate D2E/DX2                !
 ! A117  A(38,39,40)           125.5314         estimate D2E/DX2                !
 ! A118  A(38,39,71)           113.6523         estimate D2E/DX2                !
 ! A119  A(40,39,71)           120.3875         estimate D2E/DX2                !
 ! A120  A(35,40,39)           117.6581         estimate D2E/DX2                !
 ! A121  A(35,40,41)           114.1709         estimate D2E/DX2                !
 ! A122  A(39,40,41)           128.1524         estimate D2E/DX2                !
 ! A123  A(40,41,42)           117.7983         estimate D2E/DX2                !
 ! A124  A(41,42,72)           109.5555         estimate D2E/DX2                !
 ! A125  A(41,42,73)           111.6934         estimate D2E/DX2                !
 ! A126  A(41,42,74)           108.152          estimate D2E/DX2                !
 ! A127  A(72,42,73)           106.7668         estimate D2E/DX2                !
 ! A128  A(72,42,74)           109.8659         estimate D2E/DX2                !
 ! A129  A(73,42,74)           110.7995         estimate D2E/DX2                !
 ! D1    D(6,1,2,3)             -0.7039         estimate D2E/DX2                !
 ! D2    D(6,1,2,44)           176.2754         estimate D2E/DX2                !
 ! D3    D(43,1,2,3)          -174.3184         estimate D2E/DX2                !
 ! D4    D(43,1,2,44)            2.6609         estimate D2E/DX2                !
 ! D5    D(2,1,6,5)              2.6475         estimate D2E/DX2                !
 ! D6    D(2,1,6,47)           178.7496         estimate D2E/DX2                !
 ! D7    D(43,1,6,5)           176.1598         estimate D2E/DX2                !
 ! D8    D(43,1,6,47)           -7.738          estimate D2E/DX2                !
 ! D9    D(1,2,3,4)             -0.5176         estimate D2E/DX2                !
 ! D10   D(1,2,3,45)           175.5626         estimate D2E/DX2                !
 ! D11   D(44,2,3,4)          -177.3357         estimate D2E/DX2                !
 ! D12   D(44,2,3,45)           -1.2555         estimate D2E/DX2                !
 ! D13   D(2,3,4,5)             -0.0608         estimate D2E/DX2                !
 ! D14   D(2,3,4,7)            179.3938         estimate D2E/DX2                !
 ! D15   D(45,3,4,5)          -175.9206         estimate D2E/DX2                !
 ! D16   D(45,3,4,7)             3.534          estimate D2E/DX2                !
 ! D17   D(3,4,5,6)              1.9603         estimate D2E/DX2                !
 ! D18   D(3,4,5,46)           178.0059         estimate D2E/DX2                !
 ! D19   D(7,4,5,6)           -177.4998         estimate D2E/DX2                !
 ! D20   D(7,4,5,46)            -1.4541         estimate D2E/DX2                !
 ! D21   D(3,4,7,8)             62.3988         estimate D2E/DX2                !
 ! D22   D(3,4,7,12)          -113.4617         estimate D2E/DX2                !
 ! D23   D(5,4,7,8)           -118.1301         estimate D2E/DX2                !
 ! D24   D(5,4,7,12)            66.0093         estimate D2E/DX2                !
 ! D25   D(4,5,6,1)             -3.2763         estimate D2E/DX2                !
 ! D26   D(4,5,6,47)          -179.2713         estimate D2E/DX2                !
 ! D27   D(46,5,6,1)          -179.4784         estimate D2E/DX2                !
 ! D28   D(46,5,6,47)            4.5266         estimate D2E/DX2                !
 ! D29   D(4,7,8,9)           -179.754          estimate D2E/DX2                !
 ! D30   D(4,7,8,48)             1.5966         estimate D2E/DX2                !
 ! D31   D(12,7,8,9)            -3.8285         estimate D2E/DX2                !
 ! D32   D(12,7,8,48)          177.522          estimate D2E/DX2                !
 ! D33   D(4,7,12,11)         -179.5802         estimate D2E/DX2                !
 ! D34   D(4,7,12,13)           -3.0984         estimate D2E/DX2                !
 ! D35   D(8,7,12,11)            4.8171         estimate D2E/DX2                !
 ! D36   D(8,7,12,13)         -178.7011         estimate D2E/DX2                !
 ! D37   D(7,8,9,10)             1.2121         estimate D2E/DX2                !
 ! D38   D(7,8,9,49)          -177.2378         estimate D2E/DX2                !
 ! D39   D(48,8,9,10)          179.752          estimate D2E/DX2                !
 ! D40   D(48,8,9,49)            1.3022         estimate D2E/DX2                !
 ! D41   D(8,9,10,11)            0.1364         estimate D2E/DX2                !
 ! D42   D(8,9,10,15)         -176.7702         estimate D2E/DX2                !
 ! D43   D(49,9,10,11)         178.6691         estimate D2E/DX2                !
 ! D44   D(49,9,10,15)           1.7625         estimate D2E/DX2                !
 ! D45   D(9,10,11,12)           0.879          estimate D2E/DX2                !
 ! D46   D(9,10,11,50)        -179.6704         estimate D2E/DX2                !
 ! D47   D(15,10,11,12)        178.0006         estimate D2E/DX2                !
 ! D48   D(15,10,11,50)         -2.5488         estimate D2E/DX2                !
 ! D49   D(9,10,15,16)        -119.1823         estimate D2E/DX2                !
 ! D50   D(9,10,15,20)          52.3921         estimate D2E/DX2                !
 ! D51   D(11,10,15,16)         63.844          estimate D2E/DX2                !
 ! D52   D(11,10,15,20)       -124.5816         estimate D2E/DX2                !
 ! D53   D(10,11,12,7)          -3.3455         estimate D2E/DX2                !
 ! D54   D(10,11,12,13)       -179.4887         estimate D2E/DX2                !
 ! D55   D(50,11,12,7)         177.1699         estimate D2E/DX2                !
 ! D56   D(50,11,12,13)          1.0267         estimate D2E/DX2                !
 ! D57   D(7,12,13,14)        -174.0368         estimate D2E/DX2                !
 ! D58   D(11,12,13,14)          2.1511         estimate D2E/DX2                !
 ! D59   D(12,13,14,51)       -178.6407         estimate D2E/DX2                !
 ! D60   D(12,13,14,52)        -68.6246         estimate D2E/DX2                !
 ! D61   D(12,13,14,53)         64.7419         estimate D2E/DX2                !
 ! D62   D(10,15,16,17)        177.9831         estimate D2E/DX2                !
 ! D63   D(10,15,16,54)         -8.5284         estimate D2E/DX2                !
 ! D64   D(20,15,16,17)          5.4952         estimate D2E/DX2                !
 ! D65   D(20,15,16,54)        178.9838         estimate D2E/DX2                !
 ! D66   D(10,15,20,19)       -179.702          estimate D2E/DX2                !
 ! D67   D(10,15,20,57)          6.8936         estimate D2E/DX2                !
 ! D68   D(16,15,20,19)         -7.7685         estimate D2E/DX2                !
 ! D69   D(16,15,20,57)        178.8271         estimate D2E/DX2                !
 ! D70   D(15,16,17,18)         -0.6778         estimate D2E/DX2                !
 ! D71   D(15,16,17,55)        175.3813         estimate D2E/DX2                !
 ! D72   D(54,16,17,18)       -174.4375         estimate D2E/DX2                !
 ! D73   D(54,16,17,55)          1.6217         estimate D2E/DX2                !
 ! D74   D(16,17,18,19)         -2.6183         estimate D2E/DX2                !
 ! D75   D(16,17,18,21)       -174.6756         estimate D2E/DX2                !
 ! D76   D(55,17,18,19)       -178.7951         estimate D2E/DX2                !
 ! D77   D(55,17,18,21)          9.1476         estimate D2E/DX2                !
 ! D78   D(17,18,19,20)          0.7156         estimate D2E/DX2                !
 ! D79   D(17,18,19,56)       -172.8692         estimate D2E/DX2                !
 ! D80   D(21,18,19,20)        172.4629         estimate D2E/DX2                !
 ! D81   D(21,18,19,56)         -1.1219         estimate D2E/DX2                !
 ! D82   D(17,18,21,22)        118.3014         estimate D2E/DX2                !
 ! D83   D(17,18,21,26)        -68.8294         estimate D2E/DX2                !
 ! D84   D(19,18,21,22)        -53.65           estimate D2E/DX2                !
 ! D85   D(19,18,21,26)        119.2193         estimate D2E/DX2                !
 ! D86   D(18,19,20,15)          4.8926         estimate D2E/DX2                !
 ! D87   D(18,19,20,57)        178.1451         estimate D2E/DX2                !
 ! D88   D(56,19,20,15)        178.2241         estimate D2E/DX2                !
 ! D89   D(56,19,20,57)         -8.5234         estimate D2E/DX2                !
 ! D90   D(18,21,22,23)       -179.5277         estimate D2E/DX2                !
 ! D91   D(18,21,22,58)         -4.8324         estimate D2E/DX2                !
 ! D92   D(26,21,22,23)          7.6041         estimate D2E/DX2                !
 ! D93   D(26,21,22,58)       -177.7006         estimate D2E/DX2                !
 ! D94   D(18,21,26,25)       -178.8595         estimate D2E/DX2                !
 ! D95   D(18,21,26,27)          1.9207         estimate D2E/DX2                !
 ! D96   D(22,21,26,25)         -5.756          estimate D2E/DX2                !
 ! D97   D(22,21,26,27)        175.0241         estimate D2E/DX2                !
 ! D98   D(21,22,23,24)         -9.6531         estimate D2E/DX2                !
 ! D99   D(21,22,23,59)       -179.8787         estimate D2E/DX2                !
 ! D100  D(58,22,23,24)        176.0987         estimate D2E/DX2                !
 ! D101  D(58,22,23,59)          5.8731         estimate D2E/DX2                !
 ! D102  D(22,23,24,25)          9.3147         estimate D2E/DX2                !
 ! D103  D(22,23,24,29)       -179.7628         estimate D2E/DX2                !
 ! D104  D(59,23,24,25)        178.479          estimate D2E/DX2                !
 ! D105  D(59,23,24,29)        -10.5985         estimate D2E/DX2                !
 ! D106  D(23,24,25,26)         -7.5616         estimate D2E/DX2                !
 ! D107  D(23,24,25,60)        179.2947         estimate D2E/DX2                !
 ! D108  D(29,24,25,26)       -178.7877         estimate D2E/DX2                !
 ! D109  D(29,24,25,60)          8.0686         estimate D2E/DX2                !
 ! D110  D(23,24,29,30)        130.4789         estimate D2E/DX2                !
 ! D111  D(23,24,29,34)        -49.5625         estimate D2E/DX2                !
 ! D112  D(25,24,29,30)        -58.5475         estimate D2E/DX2                !
 ! D113  D(25,24,29,34)        121.4112         estimate D2E/DX2                !
 ! D114  D(24,25,26,21)          5.7271         estimate D2E/DX2                !
 ! D115  D(24,25,26,27)       -175.1119         estimate D2E/DX2                !
 ! D116  D(60,25,26,21)        178.7335         estimate D2E/DX2                !
 ! D117  D(60,25,26,27)         -2.1055         estimate D2E/DX2                !
 ! D118  D(21,26,27,28)        178.6052         estimate D2E/DX2                !
 ! D119  D(25,26,27,28)         -0.5509         estimate D2E/DX2                !
 ! D120  D(26,27,28,61)       -178.9084         estimate D2E/DX2                !
 ! D121  D(26,27,28,62)         62.0298         estimate D2E/DX2                !
 ! D122  D(26,27,28,63)        -59.5925         estimate D2E/DX2                !
 ! D123  D(24,29,30,31)       -174.6391         estimate D2E/DX2                !
 ! D124  D(24,29,30,64)         -1.9677         estimate D2E/DX2                !
 ! D125  D(34,29,30,31)          5.4            estimate D2E/DX2                !
 ! D126  D(34,29,30,64)        178.0714         estimate D2E/DX2                !
 ! D127  D(24,29,34,33)        175.2768         estimate D2E/DX2                !
 ! D128  D(24,29,34,67)         -1.9916         estimate D2E/DX2                !
 ! D129  D(30,29,34,33)         -4.7625         estimate D2E/DX2                !
 ! D130  D(30,29,34,67)        177.9691         estimate D2E/DX2                !
 ! D131  D(29,30,31,32)         -2.8066         estimate D2E/DX2                !
 ! D132  D(29,30,31,65)        179.134          estimate D2E/DX2                !
 ! D133  D(64,30,31,32)       -175.998          estimate D2E/DX2                !
 ! D134  D(64,30,31,65)          5.9426         estimate D2E/DX2                !
 ! D135  D(30,31,32,33)         -0.606          estimate D2E/DX2                !
 ! D136  D(30,31,32,35)       -177.0353         estimate D2E/DX2                !
 ! D137  D(65,31,32,33)        177.2751         estimate D2E/DX2                !
 ! D138  D(65,31,32,35)          0.8458         estimate D2E/DX2                !
 ! D139  D(31,32,33,34)          1.0927         estimate D2E/DX2                !
 ! D140  D(31,32,33,66)       -175.9969         estimate D2E/DX2                !
 ! D141  D(35,32,33,34)        177.6017         estimate D2E/DX2                !
 ! D142  D(35,32,33,66)          0.5121         estimate D2E/DX2                !
 ! D143  D(31,32,35,36)        -59.7842         estimate D2E/DX2                !
 ! D144  D(31,32,35,40)        114.6872         estimate D2E/DX2                !
 ! D145  D(33,32,35,36)        123.6376         estimate D2E/DX2                !
 ! D146  D(33,32,35,40)        -61.891          estimate D2E/DX2                !
 ! D147  D(32,33,34,29)          1.7228         estimate D2E/DX2                !
 ! D148  D(32,33,34,67)        179.1031         estimate D2E/DX2                !
 ! D149  D(66,33,34,29)        179.1477         estimate D2E/DX2                !
 ! D150  D(66,33,34,67)         -3.4721         estimate D2E/DX2                !
 ! D151  D(32,35,36,37)       -178.7104         estimate D2E/DX2                !
 ! D152  D(32,35,36,68)         -9.4616         estimate D2E/DX2                !
 ! D153  D(40,35,36,37)          6.4636         estimate D2E/DX2                !
 ! D154  D(40,35,36,68)        175.7124         estimate D2E/DX2                !
 ! D155  D(32,35,40,39)       -176.0519         estimate D2E/DX2                !
 ! D156  D(32,35,40,41)          2.5054         estimate D2E/DX2                !
 ! D157  D(36,35,40,39)         -1.6814         estimate D2E/DX2                !
 ! D158  D(36,35,40,41)        176.8759         estimate D2E/DX2                !
 ! D159  D(35,36,37,38)         -5.713          estimate D2E/DX2                !
 ! D160  D(35,36,37,69)        175.5192         estimate D2E/DX2                !
 ! D161  D(68,36,37,38)       -175.9533         estimate D2E/DX2                !
 ! D162  D(68,36,37,69)          5.2789         estimate D2E/DX2                !
 ! D163  D(36,37,38,39)          0.1552         estimate D2E/DX2                !
 ! D164  D(36,37,38,70)       -177.4416         estimate D2E/DX2                !
 ! D165  D(69,37,38,39)        178.9635         estimate D2E/DX2                !
 ! D166  D(69,37,38,70)          1.3667         estimate D2E/DX2                !
 ! D167  D(37,38,39,40)          4.8155         estimate D2E/DX2                !
 ! D168  D(37,38,39,71)        177.2769         estimate D2E/DX2                !
 ! D169  D(70,38,39,40)       -177.5687         estimate D2E/DX2                !
 ! D170  D(70,38,39,71)         -5.1072         estimate D2E/DX2                !
 ! D171  D(38,39,40,35)         -4.0729         estimate D2E/DX2                !
 ! D172  D(38,39,40,41)        177.601          estimate D2E/DX2                !
 ! D173  D(71,39,40,35)       -176.065          estimate D2E/DX2                !
 ! D174  D(71,39,40,41)          5.6089         estimate D2E/DX2                !
 ! D175  D(35,40,41,42)       -177.1451         estimate D2E/DX2                !
 ! D176  D(39,40,41,42)          1.2298         estimate D2E/DX2                !
 ! D177  D(40,41,42,72)         55.8849         estimate D2E/DX2                !
 ! D178  D(40,41,42,73)        -62.1999         estimate D2E/DX2                !
 ! D179  D(40,41,42,74)        175.6183         estimate D2E/DX2                !
 --------------------------------------------------------------------------------
 Trust Radius=3.00D-01 FncErr=1.00D-07 GrdErr=1.00D-06 EigMax=2.50D+02 EigMin=1.00D-04
 Number of steps in this run=    397 maximum allowed number of steps=    444.
 GradGradGradGradGradGradGradGradGradGradGradGradGradGradGradGradGradGrad

 Leave Link  103 at Thu Jul 23 18:23:57 2020, MaxMem=  4026531840 cpu:               0.2 elap:               0.0
 (Enter /opt/ohpc/pub/libs/gaussian/g16-A.03/sandybridge/g16/l202.exe)
 Stoichiometry    C39H32O3
 Framework group  C1[X(C39H32O3)]
 Deg. of freedom   216
 Full point group                 C1      NOp   1
 Largest Abelian subgroup         C1      NOp   1
 Largest concise Abelian subgroup C1      NOp   1
                         Standard orientation:                         
 ---------------------------------------------------------------------
 Center     Atomic      Atomic             Coordinates (Angstroms)
 Number     Number       Type             X           Y           Z
 ---------------------------------------------------------------------
      1          6           0      -12.395058   -0.778921    0.405409
      2          6           0      -11.562648   -1.080612    1.480053
      3          6           0      -10.162679   -0.967594    1.398593
      4          6           0       -9.596992   -0.564372    0.243049
      5          6           0      -10.372808   -0.252768   -0.891007
      6          6           0      -11.723574   -0.322477   -0.806432
      7          6           0       -8.049521   -0.423579    0.150415
      8          6           0       -7.298763   -1.661504    0.347021
      9          6           0       -5.971448   -1.581891    0.280356
     10          6           0       -5.269133   -0.423964    0.065564
     11          6           0       -5.965930    0.775760   -0.096243
     12          6           0       -7.421173    0.774155   -0.014187
     13          8           0       -8.214993    1.860285   -0.161514
     14          6           0       -7.514636    3.101383   -0.470590
     15          6           0       -3.800718   -0.366014   -0.073330
     16          6           0       -3.019815    0.423494    0.881904
     17          6           0       -1.641979    0.491305    0.839045
     18          6           0       -0.967087   -0.257233   -0.176841
     19          6           0       -1.703316   -1.081325   -1.065886
     20          6           0       -3.028999   -1.141376   -0.956348
     21          6           0        0.557427   -0.280133   -0.145760
     22          6           0        1.283821   -1.475822    0.022064
     23          6           0        2.657493   -1.466797    0.056046
     24          6           0        3.362200   -0.374744   -0.254249
     25          6           0        2.662073    0.892400   -0.439155
     26          6           0        1.288562    0.953548   -0.452504
     27          8           0        0.597765    2.024033   -0.700843
     28          6           0        1.308502    3.269498   -0.978080
     29          6           0        4.806578   -0.366052   -0.223587
     30          6           0        5.568493    0.124064   -1.306926
     31          6           0        7.024059    0.046376   -1.362277
     32          6           0        7.680908   -0.493328   -0.248940
     33          6           0        7.007669   -0.917640    0.844810
     34          6           0        5.534717   -0.846007    0.890822
     35          6           0        9.150909   -0.541360   -0.210720
     36          6           0        9.781981   -1.273580   -1.229748
     37          6           0       11.172680   -1.415673   -1.287014
     38          6           0       12.031897   -0.696066   -0.346939
     39          6           0       11.355768    0.120924    0.589925
     40          6           0        9.987723    0.208574    0.736309
     41          8           0        9.300694    0.921817    1.623269
     42          6           0       10.042836    1.736624    2.549034
     43          1           0      -13.426826   -0.783164    0.506409
     44          1           0      -12.090587   -1.379600    2.467185
     45          1           0       -9.563919   -1.159455    2.345278
     46          1           0       -9.927010    0.106446   -1.825477
     47          1           0      -12.324210   -0.104448   -1.646980
     48          1           0       -7.832007   -2.526235    0.504092
     49          1           0       -5.354082   -2.478871    0.373838
     50          1           0       -5.472991    1.744710   -0.277302
     51          1           0       -8.346148    3.849013   -0.520540
     52          1           0       -6.898893    3.441658    0.428495
     53          1           0       -7.039692    3.091929   -1.378538
     54          1           0       -3.499499    1.055715    1.582377
     55          1           0       -1.111305    1.086681    1.452409
     56          1           0       -1.170895   -1.702023   -1.722458
     57          1           0       -3.571794   -1.741465   -1.650348
     58          1           0        0.687462   -2.358050    0.207974
     59          1           0        3.106578   -2.486074    0.192563
     60          1           0        3.243109    1.762043   -0.676578
     61          1           0        0.552784    4.079397   -1.147002
     62          1           0        1.911678    3.129354   -1.886852
     63          1           0        1.896435    3.503531   -0.159407
     64          1           0        5.096188    0.493398   -2.239633
     65          1           0        7.504497    0.437710   -2.241051
     66          1           0        7.468364   -1.299187    1.791081
     67          1           0        5.061756   -1.195946    1.744191
     68          1           0        9.261413   -1.896028   -1.916636
     69          1           0       11.642599   -2.035928   -2.028701
     70          1           0       13.110564   -0.748688   -0.385570
     71          1           0       12.003065    0.594848    1.288302
     72          1           0       10.743414    2.468887    1.954397
     73          1           0       10.702195    1.120881    3.202647
     74          1           0        9.369924    2.276243    3.112602
 ---------------------------------------------------------------------
 Rotational constants (GHZ):           0.3799024           0.0164382           0.0162253
 Leave Link  202 at Thu Jul 23 18:23:57 2020, MaxMem=  4026531840 cpu:               0.1 elap:               0.0
 (Enter /opt/ohpc/pub/libs/gaussian/g16-A.03/sandybridge/g16/l301.exe)
 Standard basis: CC-pVDZ (5D, 7F)
 Ernie: Thresh=  0.10000D-02 Tol=  0.10000D-05 Strict=F.
 Ernie:  84 primitive shells out of 1084 were deleted.
 There are   790 symmetry adapted cartesian basis functions of A   symmetry.
 There are   748 symmetry adapted basis functions of A   symmetry.
   748 basis functions,  1610 primitive gaussians,   790 cartesian basis functions
   145 alpha electrons      145 beta electrons
       nuclear repulsion energy      3959.6074687575 Hartrees.
 IExCor=32609 DFT=T Ex+Corr=LC-wPBE ExCW=0 ScaHFX=  1.000000
 ScaDFX=  1.000000  0.000000  1.000000  1.000000 ScalE2=  1.000000  1.000000
 IRadAn=      5 IRanWt=     -1 IRanGd=            0 ICorTp=0 IEmpDi=  4
 HFx  wShort=  0.000000 wLong=  0.208700 cFull=  0.000000 cShort=  0.000000 cLong=  1.000000
 DFx  wShort=  0.000000 wLong=  0.208700 cFull=  0.000000 cShort=  0.000000 cLong=  1.000000
 NAtoms=   74 NActive=   74 NUniq=   74 SFac= 1.00D+00 NAtFMM=   60 NAOKFM=T Big=T
 Integral buffers will be    131072 words long.
 Raffenetti 2 integral format.
 Two-electron integral symmetry is turned on.
 Leave Link  301 at Thu Jul 23 18:23:58 2020, MaxMem=  4026531840 cpu:               0.5 elap:               0.1
 (Enter /opt/ohpc/pub/libs/gaussian/g16-A.03/sandybridge/g16/l302.exe)
 NPDir=0 NMtPBC=     1 NCelOv=     1 NCel=       1 NClECP=     1 NCelD=      1
         NCelK=      1 NCelE2=     1 NClLst=     1 CellRange=     0.0.
 One-electron integrals computed using PRISM.
 One-electron integral symmetry used in STVInt
 NBasis=   748 RedAO= T EigKep=  2.72D-04  NBF=   748
 NBsUse=   748 1.00D-06 EigRej= -1.00D+00 NBFU=   748
 Precomputing XC quadrature grid using
 IXCGrd= 4 IRadAn=           5 IRanWt=          -1 IRanGd=           0 AccXCQ= 0.00D+00.
 Generated NRdTot=       0 NPtTot=           0 NUsed=           0 NTot=          32
 NSgBfM=   673   661   664   670   673 MxSgAt=    74 MxSgA2=    74.
 Leave Link  302 at Thu Jul 23 18:24:01 2020, MaxMem=  4026531840 cpu:              26.2 elap:               3.3
 (Enter /opt/ohpc/pub/libs/gaussian/g16-A.03/sandybridge/g16/l303.exe)
 DipDrv:  MaxL=1.
 Leave Link  303 at Thu Jul 23 18:24:01 2020, MaxMem=  4026531840 cpu:               1.7 elap:               0.2
 (Enter /opt/ohpc/pub/libs/gaussian/g16-A.03/sandybridge/g16/l401.exe)
 ExpMin= 1.22D-01 ExpMax= 1.17D+04 ExpMxC= 4.01D+02 IAcc=3 IRadAn=         5 AccDes= 0.00D+00
 Harris functional with IExCor=32609 and IRadAn=       5 diagonalized for initial guess.
 HarFok:  IExCor=32609 AccDes= 0.00D+00 IRadAn=         5 IDoV= 1 UseB2=F ITyADJ=14
 ICtDFT=  3500011 ScaDFX=  1.000000  1.000000  1.000000  1.000000
 FoFCou: FMM=F IPFlag=           0 FMFlag=      100000 FMFlg1=        2001
         NFxFlg=           0 DoJE=T BraDBF=F KetDBF=T FulRan=T
         wScrn=  0.000000 ICntrl=       500 IOpCl=  0 I1Cent=   200000004 NGrid=           0
         NMat0=    1 NMatS0=      1 NMatT0=    0 NMatD0=    1 NMtDS0=    0 NMtDT0=    0
 Petite list used in FoFCou.
 Harris En= -1729.69697906652    
 JPrj=0 DoOrth=F DoCkMO=F.
 Initial guess <Sx>= 0.0000 <Sy>= 0.0000 <Sz>= 0.0000 <S**2>=-0.0000 S=-0.0000
 Leave Link  401 at Thu Jul 23 18:24:15 2020, MaxMem=  4026531840 cpu:             113.0 elap:              14.2
 (Enter /opt/ohpc/pub/libs/gaussian/g16-A.03/sandybridge/g16/l502.exe)
 Integral symmetry usage will be decided dynamically.
 UHF open shell SCF:
 Using DIIS extrapolation, IDIIS=  1040.
 NGot=  4026531840 LenX=  4025269018 LenY=  4024644128
 Requested convergence on RMS density matrix=1.00D-08 within 128 cycles.
 Requested convergence on MAX density matrix=1.00D-06.
 Requested convergence on             energy=1.00D-06.
 No special actions if energy rises.
 Fock matrices will be formed incrementally for  20 cycles.
 Integral accuracy reduced to 1.0D-05 until final iterations.

 Cycle   1  Pass 0  IDiag  1:
 FoFJK:  IHMeth= 1 ICntrl=       0 DoSepK=T KAlg= 0 I1Cent=           0 FoldK=F
 IRaf=         1 NMat=       1 IRICut=       1 DoRegI=T DoRafI=F ISym2E= 0 IDoP0=0 IntGTp=1.
 FoFCou: FMM=T IPFlag=           0 FMFlag=      100000 FMFlg1=        2001
         NFxFlg=           0 DoJE=T BraDBF=F KetDBF=F FulRan=T
         wScrn=  0.000000 ICntrl=       500 IOpCl=  0 I1Cent=           0 NGrid=           0
         NMat0=    1 NMatS0=      1 NMatT0=    0 NMatD0=    1 NMtDS0=    0 NMtDT0=    0
 Symmetry not used in FoFCou.
 FMM levels:  10  Number of levels for PrismC:   9
 E= -1728.82947308824    
 DIIS: error= 1.65D-02 at cycle   1 NSaved=   1.
 NSaved= 1 IEnMin= 1 EnMin= -1728.82947308824     IErMin= 1 ErrMin= 1.65D-02
 ErrMax= 1.65D-02  0.00D+00 EMaxC= 1.00D-01 BMatC= 2.19D+00 BMatP= 2.19D+00
 IDIUse=3 WtCom= 8.35D-01 WtEn= 1.65D-01
 Coeff-Com:  0.100D+01
 Coeff-En:   0.100D+01
 Coeff:      0.100D+01
 Gap=     0.298 Goal=   None    Shift=    0.000
 Gap=     0.298 Goal=   None    Shift=    0.000
 GapD=    0.298 DampG=1.000 DampE=0.500 DampFc=0.5000 IDamp=-1.
 Damping current iteration by 5.00D-01
 RMSDP=2.14D-03 MaxDP=8.75D-02              OVMax= 1.34D-01

 Cycle   2  Pass 0  IDiag  1:
 RMSU=  1.03D-03    CP:  9.78D-01
 E= -1729.17992576253     Delta-E=       -0.350452674290 Rises=F Damp=T
 DIIS: error= 4.14D-03 at cycle   2 NSaved=   2.
 NSaved= 2 IEnMin= 2 EnMin= -1729.17992576253     IErMin= 2 ErrMin= 4.14D-03
 ErrMax= 4.14D-03  0.00D+00 EMaxC= 1.00D-01 BMatC= 1.24D-01 BMatP= 2.19D+00
 IDIUse=3 WtCom= 9.59D-01 WtEn= 4.14D-02
 Coeff-Com: -0.129D+00 0.113D+01
 Coeff-En:   0.000D+00 0.100D+01
 Coeff:     -0.123D+00 0.112D+01
 Gap=     0.293 Goal=   None    Shift=    0.000
 Gap=     0.293 Goal=   None    Shift=    0.000
 RMSDP=6.14D-04 MaxDP=2.28D-02 DE=-3.50D-01 OVMax= 7.51D-02

 Cycle   3  Pass 0  IDiag  1:
 RMSU=  4.94D-04    CP:  9.66D-01  1.33D+00
 E= -1729.48359293217     Delta-E=       -0.303667169636 Rises=F Damp=F
 DIIS: error= 2.45D-03 at cycle   3 NSaved=   3.
 NSaved= 3 IEnMin= 3 EnMin= -1729.48359293217     IErMin= 3 ErrMin= 2.45D-03
 ErrMax= 2.45D-03  0.00D+00 EMaxC= 1.00D-01 BMatC= 5.01D-02 BMatP= 1.24D-01
 IDIUse=3 WtCom= 9.76D-01 WtEn= 2.45D-02
 Coeff-Com: -0.808D-01 0.472D+00 0.609D+00
 Coeff-En:   0.000D+00 0.000D+00 0.100D+01
 Coeff:     -0.788D-01 0.460D+00 0.618D+00
 Gap=     0.287 Goal=   None    Shift=    0.000
 Gap=     0.287 Goal=   None    Shift=    0.000
 RMSDP=2.08D-04 MaxDP=1.56D-02 DE=-3.04D-01 OVMax= 2.87D-02

 Cycle   4  Pass 0  IDiag  1:
 RMSU=  1.61D-04    CP:  9.67D-01  1.33D+00  7.36D-01
 E= -1729.49406461606     Delta-E=       -0.010471683895 Rises=F Damp=F
 DIIS: error= 9.40D-04 at cycle   4 NSaved=   4.
 NSaved= 4 IEnMin= 4 EnMin= -1729.49406461606     IErMin= 4 ErrMin= 9.40D-04
 ErrMax= 9.40D-04  0.00D+00 EMaxC= 1.00D-01 BMatC= 8.91D-03 BMatP= 5.01D-02
 IDIUse=3 WtCom= 9.91D-01 WtEn= 9.40D-03
 Coeff-Com: -0.202D-01 0.101D+00 0.318D+00 0.601D+00
 Coeff-En:   0.000D+00 0.000D+00 0.121D+00 0.879D+00
 Coeff:     -0.200D-01 0.997D-01 0.316D+00 0.604D+00
 Gap=     0.284 Goal=   None    Shift=    0.000
 Gap=     0.284 Goal=   None    Shift=    0.000
 RMSDP=7.83D-05 MaxDP=5.93D-03 DE=-1.05D-02 OVMax= 9.25D-03

 Cycle   5  Pass 0  IDiag  1:
 RMSU=  4.53D-05    CP:  9.67D-01  1.33D+00  8.18D-01  6.98D-01
 E= -1729.49618849413     Delta-E=       -0.002123878066 Rises=F Damp=F
 DIIS: error= 2.65D-04 at cycle   5 NSaved=   5.
 NSaved= 5 IEnMin= 5 EnMin= -1729.49618849413     IErMin= 5 ErrMin= 2.65D-04
 ErrMax= 2.65D-04  0.00D+00 EMaxC= 1.00D-01 BMatC= 5.53D-04 BMatP= 8.91D-03
 IDIUse=3 WtCom= 9.97D-01 WtEn= 2.65D-03
 Coeff-Com: -0.188D-02 0.102D-01 0.101D+00 0.273D+00 0.617D+00
 Coeff-En:   0.000D+00 0.000D+00 0.000D+00 0.000D+00 0.100D+01
 Coeff:     -0.187D-02 0.102D-01 0.101D+00 0.272D+00 0.618D+00
 Gap=     0.285 Goal=   None    Shift=    0.000
 Gap=     0.285 Goal=   None    Shift=    0.000
 RMSDP=2.31D-05 MaxDP=1.59D-03 DE=-2.12D-03 OVMax= 2.65D-03

 Cycle   6  Pass 0  IDiag  1:
 RMSU=  2.09D-05    CP:  9.67D-01  1.34D+00  8.22D-01  7.40D-01  8.52D-01
 E= -1729.49630367246     Delta-E=       -0.000115178329 Rises=F Damp=F
 DIIS: error= 1.15D-04 at cycle   6 NSaved=   6.
 NSaved= 6 IEnMin= 6 EnMin= -1729.49630367246     IErMin= 6 ErrMin= 1.15D-04
 ErrMax= 1.15D-04  0.00D+00 EMaxC= 1.00D-01 BMatC= 9.06D-05 BMatP= 5.53D-04
 IDIUse=3 WtCom= 9.99D-01 WtEn= 1.15D-03
 Coeff-Com:  0.193D-02-0.732D-02 0.123D-01 0.577D-01 0.318D+00 0.618D+00
 Coeff-En:   0.000D+00 0.000D+00 0.000D+00 0.000D+00 0.869D-01 0.913D+00
 Coeff:      0.193D-02-0.731D-02 0.123D-01 0.576D-01 0.318D+00 0.618D+00
 Gap=     0.285 Goal=   None    Shift=    0.000
 Gap=     0.285 Goal=   None    Shift=    0.000
 RMSDP=1.43D-05 MaxDP=4.92D-04 DE=-1.15D-04 OVMax= 1.09D-03

 Cycle   7  Pass 0  IDiag  1:
 RMSU=  1.25D-05    CP:  9.67D-01  1.34D+00  8.27D-01  7.52D-01  9.88D-01
                    CP:  9.64D-01
 E= -1729.49632541089     Delta-E=       -0.000021738432 Rises=F Damp=F
 DIIS: error= 4.16D-05 at cycle   7 NSaved=   7.
 NSaved= 7 IEnMin= 7 EnMin= -1729.49632541089     IErMin= 7 ErrMin= 4.16D-05
 ErrMax= 4.16D-05  0.00D+00 EMaxC= 1.00D-01 BMatC= 8.09D-06 BMatP= 9.06D-05
 IDIUse=1 WtCom= 1.00D+00 WtEn= 0.00D+00
 Coeff-Com:  0.117D-02-0.417D-02-0.269D-02-0.124D-02 0.789D-01 0.252D+00
 Coeff-Com:  0.676D+00
 Coeff:      0.117D-02-0.417D-02-0.269D-02-0.124D-02 0.789D-01 0.252D+00
 Coeff:      0.676D+00
 Gap=     0.285 Goal=   None    Shift=    0.000
 Gap=     0.285 Goal=   None    Shift=    0.000
 RMSDP=1.56D-05 MaxDP=3.70D-04 DE=-2.17D-05 OVMax= 3.47D-04

 Cycle   8  Pass 0  IDiag  1:
 RMSU=  1.18D-05    CP:  9.67D-01  1.34D+00  8.29D-01  7.59D-01  1.06D+00
                    CP:  1.25D+00  1.61D+00
 E= -1729.49632862082     Delta-E=       -0.000003209931 Rises=F Damp=F
 DIIS: error= 5.81D-05 at cycle   8 NSaved=   8.
 NSaved= 8 IEnMin= 8 EnMin= -1729.49632862082     IErMin= 7 ErrMin= 4.16D-05
 ErrMax= 5.81D-05  0.00D+00 EMaxC= 1.00D-01 BMatC= 6.18D-06 BMatP= 8.09D-06
 IDIUse=1 WtCom= 1.00D+00 WtEn= 0.00D+00
 Coeff-Com:  0.847D-03-0.294D-02-0.229D-02-0.336D-02 0.482D-01 0.167D+00
 Coeff-Com:  0.489D+00 0.304D+00
 Coeff:      0.847D-03-0.294D-02-0.229D-02-0.336D-02 0.482D-01 0.167D+00
 Coeff:      0.489D+00 0.304D+00
 Gap=     0.285 Goal=   None    Shift=    0.000
 Gap=     0.285 Goal=   None    Shift=    0.000
 RMSDP=1.00D-05 MaxDP=2.24D-04 DE=-3.21D-06 OVMax= 9.30D-05

 Cycle   9  Pass 0  IDiag  1:
 RMSU=  5.07D-06    CP:  9.67D-01  1.34D+00  8.29D-01  7.60D-01  1.08D+00
                    CP:  1.35D+00  2.12D+00  1.45D+00
 E= -1729.49632830757     Delta-E=        0.000000313245 Rises=F Damp=F
 DIIS: error= 9.17D-05 at cycle   9 NSaved=   9.
 NSaved= 9 IEnMin= 8 EnMin= -1729.49632862082     IErMin= 7 ErrMin= 4.16D-05
 ErrMax= 9.17D-05  0.00D+00 EMaxC= 1.00D-01 BMatC= 9.54D-06 BMatP= 6.18D-06
 IDIUse=1 WtCom= 1.00D+00 WtEn= 0.00D+00
 Coeff-Com:  0.816D-03-0.277D-02-0.356D-02-0.863D-02 0.285D-01 0.138D+00
 Coeff-Com:  0.551D+00 0.827D+00-0.530D+00
 Coeff:      0.816D-03-0.277D-02-0.356D-02-0.863D-02 0.285D-01 0.138D+00
 Coeff:      0.551D+00 0.827D+00-0.530D+00
 Gap=     0.285 Goal=   None    Shift=    0.000
 Gap=     0.285 Goal=   None    Shift=    0.000
 RMSDP=1.14D-05 MaxDP=3.25D-04 DE= 3.13D-07 OVMax= 2.62D-05

 Cycle  10  Pass 0  IDiag  1:
 RMSU=  7.88D-06    CP:  9.67D-01  1.34D+00  8.30D-01  7.60D-01  1.07D+00
                    CP:  1.26D+00  1.71D+00  9.95D-01  4.03D-01
 E= -1729.49632806265     Delta-E=        0.000000244926 Rises=F Damp=F
 DIIS: error= 8.69D-05 at cycle  10 NSaved=  10.
 NSaved=10 IEnMin= 8 EnMin= -1729.49632862082     IErMin= 7 ErrMin= 4.16D-05
 ErrMax= 8.69D-05  0.00D+00 EMaxC= 1.00D-01 BMatC= 7.84D-06 BMatP= 6.18D-06
 IDIUse=1 WtCom= 1.00D+00 WtEn= 0.00D+00
 Coeff-Com:  0.711D-03-0.239D-02-0.335D-02-0.890D-02 0.204D-01 0.114D+00
 Coeff-Com:  0.492D+00 0.856D+00-0.831D+00 0.363D+00
 Coeff:      0.711D-03-0.239D-02-0.335D-02-0.890D-02 0.204D-01 0.114D+00
 Coeff:      0.492D+00 0.856D+00-0.831D+00 0.363D+00
 Gap=     0.285 Goal=   None    Shift=    0.000
 Gap=     0.285 Goal=   None    Shift=    0.000
 RMSDP=7.21D-06 MaxDP=2.07D-04 DE= 2.45D-07 OVMax= 2.70D-05

 Initial convergence to 1.0D-05 achieved.  Increase integral accuracy.
 Cycle  11  Pass 1  IDiag  1:
 E= -1729.49566554696     Delta-E=        0.000662515690 Rises=F Damp=F
 DIIS: error= 3.37D-04 at cycle   1 NSaved=   1.
 NSaved= 1 IEnMin= 1 EnMin= -1729.49566554696     IErMin= 1 ErrMin= 3.37D-04
 ErrMax= 3.37D-04  0.00D+00 EMaxC= 1.00D-01 BMatC= 1.88D-04 BMatP= 1.88D-04
 IDIUse=3 WtCom= 9.97D-01 WtEn= 3.37D-03
 Coeff-Com:  0.100D+01
 Coeff-En:   0.100D+01
 Coeff:      0.100D+01
 Gap=     0.285 Goal=   None    Shift=    0.000
 Gap=     0.285 Goal=   None    Shift=    0.000
 RMSDP=7.21D-06 MaxDP=2.07D-04 DE= 6.63D-04 OVMax= 7.90D-04

 Cycle  12  Pass 1  IDiag  1:
 RMSU=  2.18D-04    CP:  9.99D-01
 E= -1729.49570623839     Delta-E=       -0.000040691431 Rises=F Damp=F
 DIIS: error= 1.56D-05 at cycle   2 NSaved=   2.
 NSaved= 2 IEnMin= 2 EnMin= -1729.49570623839     IErMin= 2 ErrMin= 1.56D-05
 ErrMax= 1.56D-05  0.00D+00 EMaxC= 1.00D-01 BMatC= 4.88D-07 BMatP= 1.88D-04
 IDIUse=1 WtCom= 1.00D+00 WtEn= 0.00D+00
 Coeff-Com: -0.367D-01 0.104D+01
 Coeff:     -0.367D-01 0.104D+01
 Gap=     0.285 Goal=   None    Shift=    0.000
 Gap=     0.285 Goal=   None    Shift=    0.000
 RMSDP=1.18D-05 MaxDP=4.37D-04 DE=-4.07D-05 OVMax= 1.16D-04

 Cycle  13  Pass 1  IDiag  1:
 RMSU=  3.08D-06    CP:  9.99D-01  1.05D+00
 E= -1729.49570636910     Delta-E=       -0.000000130706 Rises=F Damp=F
 DIIS: error= 5.49D-06 at cycle   3 NSaved=   3.
 NSaved= 3 IEnMin= 3 EnMin= -1729.49570636910     IErMin= 3 ErrMin= 5.49D-06
 ErrMax= 5.49D-06  0.00D+00 EMaxC= 1.00D-01 BMatC= 2.47D-07 BMatP= 4.88D-07
 IDIUse=1 WtCom= 1.00D+00 WtEn= 0.00D+00
 Coeff-Com: -0.194D-01 0.515D+00 0.504D+00
 Coeff:     -0.194D-01 0.515D+00 0.504D+00
 Gap=     0.285 Goal=   None    Shift=    0.000
 Gap=     0.285 Goal=   None    Shift=    0.000
 RMSDP=4.86D-07 MaxDP=3.10D-05 DE=-1.31D-07 OVMax= 5.39D-05

 Cycle  14  Pass 1  IDiag  1:
 RMSU=  4.38D-07    CP:  9.99D-01  1.05D+00  1.03D+00
 E= -1729.49570642523     Delta-E=       -0.000000056132 Rises=F Damp=F
 DIIS: error= 1.67D-06 at cycle   4 NSaved=   4.
 NSaved= 4 IEnMin= 4 EnMin= -1729.49570642523     IErMin= 4 ErrMin= 1.67D-06
 ErrMax= 1.67D-06  0.00D+00 EMaxC= 1.00D-01 BMatC= 2.16D-08 BMatP= 2.47D-07
 IDIUse=1 WtCom= 1.00D+00 WtEn= 0.00D+00
 Coeff-Com: -0.443D-03-0.150D-02 0.208D+00 0.794D+00
 Coeff:     -0.443D-03-0.150D-02 0.208D+00 0.794D+00
 Gap=     0.285 Goal=   None    Shift=    0.000
 Gap=     0.285 Goal=   None    Shift=    0.000
 RMSDP=2.78D-07 MaxDP=9.91D-06 DE=-5.61D-08 OVMax= 2.73D-05

 Cycle  15  Pass 1  IDiag  1:
 RMSU=  1.26D-07    CP:  9.99D-01  1.05D+00  1.08D+00  8.76D-01
 E= -1729.49570643616     Delta-E=       -0.000000010930 Rises=F Damp=F
 DIIS: error= 7.03D-07 at cycle   5 NSaved=   5.
 NSaved= 5 IEnMin= 5 EnMin= -1729.49570643616     IErMin= 5 ErrMin= 7.03D-07
 ErrMax= 7.03D-07  0.00D+00 EMaxC= 1.00D-01 BMatC= 4.61D-09 BMatP= 2.16D-08
 IDIUse=1 WtCom= 1.00D+00 WtEn= 0.00D+00
 Coeff-Com:  0.132D-02-0.421D-01 0.611D-01 0.424D+00 0.556D+00
 Coeff:      0.132D-02-0.421D-01 0.611D-01 0.424D+00 0.556D+00
 Gap=     0.285 Goal=   None    Shift=    0.000
 Gap=     0.285 Goal=   None    Shift=    0.000
 RMSDP=6.38D-08 MaxDP=3.56D-06 DE=-1.09D-08 OVMax= 8.73D-06

 Cycle  16  Pass 1  IDiag  1:
 RMSU=  4.85D-08    CP:  9.99D-01  1.05D+00  1.09D+00  9.32D-01  9.44D-01
 E= -1729.49570643777     Delta-E=       -0.000000001608 Rises=F Damp=F
 DIIS: error= 1.71D-07 at cycle   6 NSaved=   6.
 NSaved= 6 IEnMin= 6 EnMin= -1729.49570643777     IErMin= 6 ErrMin= 1.71D-07
 ErrMax= 1.71D-07  0.00D+00 EMaxC= 1.00D-01 BMatC= 2.10D-10 BMatP= 4.61D-09
 IDIUse=1 WtCom= 1.00D+00 WtEn= 0.00D+00
 Coeff-Com:  0.129D-03-0.219D-02-0.295D-01-0.645D-01 0.665D-01 0.103D+01
 Coeff:      0.129D-03-0.219D-02-0.295D-01-0.645D-01 0.665D-01 0.103D+01
 Gap=     0.285 Goal=   None    Shift=    0.000
 Gap=     0.285 Goal=   None    Shift=    0.000
 RMSDP=2.96D-08 MaxDP=9.46D-07 DE=-1.61D-09 OVMax= 6.03D-06

 Cycle  17  Pass 1  IDiag  1:
 RMSU=  1.75D-08    CP:  9.99D-01  1.05D+00  1.09D+00  9.48D-01  1.10D+00
                    CP:  1.22D+00
 E= -1729.49570643777     Delta-E=       -0.000000000007 Rises=F Damp=F
 DIIS: error= 9.08D-08 at cycle   7 NSaved=   7.
 NSaved= 7 IEnMin= 7 EnMin= -1729.49570643777     IErMin= 7 ErrMin= 9.08D-08
 ErrMax= 9.08D-08  0.00D+00 EMaxC= 1.00D-01 BMatC= 7.88D-11 BMatP= 2.10D-10
 IDIUse=1 WtCom= 1.00D+00 WtEn= 0.00D+00
 Coeff-Com: -0.196D-03 0.727D-02-0.295D-01-0.117D+00-0.629D-01 0.564D+00
 Coeff-Com:  0.638D+00
 Coeff:     -0.196D-03 0.727D-02-0.295D-01-0.117D+00-0.629D-01 0.564D+00
 Coeff:      0.638D+00
 Gap=     0.285 Goal=   None    Shift=    0.000
 Gap=     0.285 Goal=   None    Shift=    0.000
 RMSDP=1.08D-08 MaxDP=4.09D-07 DE=-7.28D-12 OVMax= 2.76D-06

 Cycle  18  Pass 1  IDiag  1:
 RMSU=  7.44D-09    CP:  9.99D-01  1.05D+00  1.09D+00  9.54D-01  1.13D+00
                    CP:  1.34D+00  1.02D+00
 E= -1729.49570643755     Delta-E=        0.000000000224 Rises=F Damp=F
 DIIS: error= 2.55D-08 at cycle   8 NSaved=   8.
 NSaved= 8 IEnMin= 7 EnMin= -1729.49570643777     IErMin= 8 ErrMin= 2.55D-08
 ErrMax= 2.55D-08  0.00D+00 EMaxC= 1.00D-01 BMatC= 4.15D-12 BMatP= 7.88D-11
 IDIUse=1 WtCom= 1.00D+00 WtEn= 0.00D+00
 Coeff-Com: -0.840D-04 0.290D-02-0.878D-02-0.389D-01-0.279D-01 0.119D+00
 Coeff-Com:  0.231D+00 0.723D+00
 Coeff:     -0.840D-04 0.290D-02-0.878D-02-0.389D-01-0.279D-01 0.119D+00
 Coeff:      0.231D+00 0.723D+00
 Gap=     0.285 Goal=   None    Shift=    0.000
 Gap=     0.285 Goal=   None    Shift=    0.000
 RMSDP=2.93D-09 MaxDP=1.34D-07 DE= 2.24D-10 OVMax= 4.83D-07

 SCF Done:  E(ULC-wPBE) =  -1729.49570644     A.U. after   18 cycles
            NFock= 18  Conv=0.29D-08     -V/T= 2.0064
 <Sx>= 0.0000 <Sy>= 0.0000 <Sz>= 0.0000 <S**2>=-0.0000 S=-0.0000
 <L.S>= 0.000000000000E+00
 KE= 1.718484671164D+03 PE=-1.194035752510D+04 EE= 4.532769678737D+03
 Annihilation of the first spin contaminant:
 S**2 before annihilation    -0.0000,   after    -0.0000
 Leave Link  502 at Thu Jul 23 18:37:39 2020, MaxMem=  4026531840 cpu:            6326.0 elap:             803.6
 (Enter /opt/ohpc/pub/libs/gaussian/g16-A.03/sandybridge/g16/l601.exe)
 Copying SCF densities to generalized density rwf, IOpCl= 1 IROHF=0.

 **********************************************************************

            Population analysis using the SCF density.

 **********************************************************************

 Orbital symmetries:
 Alpha Orbitals:
       Occupied  (A) (A) (A) (A) (A) (A) (A) (A) (A) (A) (A) (A)
                 (A) (A) (A) (A) (A) (A) (A) (A) (A) (A) (A) (A)
                 (A) (A) (A) (A) (A) (A) (A) (A) (A) (A) (A) (A)
                 (A) (A) (A) (A) (A) (A) (A) (A) (A) (A) (A) (A)
                 (A) (A) (A) (A) (A) (A) (A) (A) (A) (A) (A) (A)
                 (A) (A) (A) (A) (A) (A) (A) (A) (A) (A) (A) (A)
                 (A) (A) (A) (A) (A) (A) (A) (A) (A) (A) (A) (A)
                 (A) (A) (A) (A) (A) (A) (A) (A) (A) (A) (A) (A)
                 (A) (A) (A) (A) (A) (A) (A) (A) (A) (A) (A) (A)
                 (A) (A) (A) (A) (A) (A) (A) (A) (A) (A) (A) (A)
                 (A) (A) (A) (A) (A) (A) (A) (A) (A) (A) (A) (A)
                 (A) (A) (A) (A) (A) (A) (A) (A) (A) (A) (A) (A)
                 (A)
       Virtual   (A) (A) (A) (A) (A) (A) (A) (A) (A) (A) (A) (A)
                 (A) (A) (A) (A) (A) (A) (A) (A) (A) (A) (A) (A)
                 (A) (A) (A) (A) (A) (A) (A) (A) (A) (A) (A) (A)
                 (A) (A) (A) (A) (A) (A) (A) (A) (A) (A) (A) (A)
                 (A) (A) (A) (A) (A) (A) (A) (A) (A) (A) (A) (A)
                 (A) (A) (A) (A) (A) (A) (A) (A) (A) (A) (A) (A)
                 (A) (A) (A) (A) (A) (A) (A) (A) (A) (A) (A) (A)
                 (A) (A) (A) (A) (A) (A) (A) (A) (A) (A) (A) (A)
                 (A) (A) (A) (A) (A) (A) (A) (A) (A) (A) (A) (A)
                 (A) (A) (A) (A) (A) (A) (A) (A) (A) (A) (A) (A)
                 (A) (A) (A) (A) (A) (A) (A) (A) (A) (A) (A) (A)
                 (A) (A) (A) (A) (A) (A) (A) (A) (A) (A) (A) (A)
                 (A) (A) (A) (A) (A) (A) (A) (A) (A) (A) (A) (A)
                 (A) (A) (A) (A) (A) (A) (A) (A) (A) (A) (A) (A)
                 (A) (A) (A) (A) (A) (A) (A) (A) (A) (A) (A) (A)
                 (A) (A) (A) (A) (A) (A) (A) (A) (A) (A) (A) (A)
                 (A) (A) (A) (A) (A) (A) (A) (A) (A) (A) (A) (A)
                 (A) (A) (A) (A) (A) (A) (A) (A) (A) (A) (A) (A)
                 (A) (A) (A) (A) (A) (A) (A) (A) (A) (A) (A) (A)
                 (A) (A) (A) (A) (A) (A) (A) (A) (A) (A) (A) (A)
                 (A) (A) (A) (A) (A) (A) (A) (A) (A) (A) (A) (A)
                 (A) (A) (A) (A) (A) (A) (A) (A) (A) (A) (A) (A)
                 (A) (A) (A) (A) (A) (A) (A) (A) (A) (A) (A) (A)
                 (A) (A) (A) (A) (A) (A) (A) (A) (A) (A) (A) (A)
                 (A) (A) (A) (A) (A) (A) (A) (A) (A) (A) (A) (A)
                 (A) (A) (A) (A) (A) (A) (A) (A) (A) (A) (A) (A)
                 (A) (A) (A) (A) (A) (A) (A) (A) (A) (A) (A) (A)
                 (A) (A) (A) (A) (A) (A) (A) (A) (A) (A) (A) (A)
                 (A) (A) (A) (A) (A) (A) (A) (A) (A) (A) (A) (A)
                 (A) (A) (A) (A) (A) (A) (A) (A) (A) (A) (A) (A)
                 (A) (A) (A) (A) (A) (A) (A) (A) (A) (A) (A) (A)
                 (A) (A) (A) (A) (A) (A) (A) (A) (A) (A) (A) (A)
                 (A) (A) (A) (A) (A) (A) (A) (A) (A) (A) (A) (A)
                 (A) (A) (A) (A) (A) (A) (A) (A) (A) (A) (A) (A)
                 (A) (A) (A) (A) (A) (A) (A) (A) (A) (A) (A) (A)
                 (A) (A) (A) (A) (A) (A) (A) (A) (A) (A) (A) (A)
                 (A) (A) (A) (A) (A) (A) (A) (A) (A) (A) (A) (A)
                 (A) (A) (A) (A) (A) (A) (A) (A) (A) (A) (A) (A)
                 (A) (A) (A) (A) (A) (A) (A) (A) (A) (A) (A) (A)
                 (A) (A) (A) (A) (A) (A) (A) (A) (A) (A) (A) (A)
                 (A) (A) (A) (A) (A) (A) (A) (A) (A) (A) (A) (A)
                 (A) (A) (A) (A) (A) (A) (A) (A) (A) (A) (A) (A)
                 (A) (A) (A) (A) (A) (A) (A) (A) (A) (A) (A) (A)
                 (A) (A) (A) (A) (A) (A) (A) (A) (A) (A) (A) (A)
                 (A) (A) (A) (A) (A) (A) (A) (A) (A) (A) (A) (A)
                 (A) (A) (A) (A) (A) (A) (A) (A) (A) (A) (A) (A)
                 (A) (A) (A) (A) (A) (A) (A) (A) (A) (A) (A) (A)
                 (A) (A) (A) (A) (A) (A) (A) (A) (A) (A) (A) (A)
                 (A) (A) (A) (A) (A) (A) (A) (A) (A) (A) (A) (A)
                 (A) (A) (A) (A) (A) (A) (A) (A) (A) (A) (A) (A)
                 (A) (A) (A)
 Beta  Orbitals:
       Occupied  (A) (A) (A) (A) (A) (A) (A) (A) (A) (A) (A) (A)
                 (A) (A) (A) (A) (A) (A) (A) (A) (A) (A) (A) (A)
                 (A) (A) (A) (A) (A) (A) (A) (A) (A) (A) (A) (A)
                 (A) (A) (A) (A) (A) (A) (A) (A) (A) (A) (A) (A)
                 (A) (A) (A) (A) (A) (A) (A) (A) (A) (A) (A) (A)
                 (A) (A) (A) (A) (A) (A) (A) (A) (A) (A) (A) (A)
                 (A) (A) (A) (A) (A) (A) (A) (A) (A) (A) (A) (A)
                 (A) (A) (A) (A) (A) (A) (A) (A) (A) (A) (A) (A)
                 (A) (A) (A) (A) (A) (A) (A) (A) (A) (A) (A) (A)
                 (A) (A) (A) (A) (A) (A) (A) (A) (A) (A) (A) (A)
                 (A) (A) (A) (A) (A) (A) (A) (A) (A) (A) (A) (A)
                 (A) (A) (A) (A) (A) (A) (A) (A) (A) (A) (A) (A)
                 (A)
       Virtual   (A) (A) (A) (A) (A) (A) (A) (A) (A) (A) (A) (A)
                 (A) (A) (A) (A) (A) (A) (A) (A) (A) (A) (A) (A)
[...]
 
              Baa    -0.0000     0.000     0.000     0.000 -0.1612  0.9498  0.2681
    13 O(17)  Bbb     0.0000    -0.000    -0.000    -0.000  0.0186 -0.2687  0.9630
              Bcc     0.0000    -0.000    -0.000    -0.000  0.9867  0.1603  0.0257
 
              Baa    -0.0000    -0.000    -0.000    -0.000  0.8895  0.4569  0.0051
    14 C(13)  Bbb     0.0000     0.000     0.000     0.000  0.0896 -0.1853  0.9786
              Bcc     0.0000     0.000     0.000     0.000 -0.4480  0.8700  0.2058
 
              Baa    -0.0000    -0.000    -0.000    -0.000  0.6728 -0.4036  0.6200
    15 C(13)  Bbb     0.0000     0.000     0.000     0.000  0.7216  0.5428 -0.4297
              Bcc     0.0000     0.000     0.000     0.000 -0.1631  0.7366  0.6564
 
              Baa    -0.0000    -0.000    -0.000    -0.000 -0.5539  0.4685  0.6883
    16 C(13)  Bbb    -0.0000    -0.000    -0.000    -0.000  0.8282  0.2252  0.5132
              Bcc     0.0000     0.000     0.000     0.000  0.0854  0.8543 -0.5127
 
              Baa    -0.0000    -0.000    -0.000    -0.000 -0.4229  0.7678 -0.4812
    17 C(13)  Bbb     0.0000     0.000     0.000     0.000  0.8437  0.5274  0.1001
              Bcc     0.0000     0.000     0.000     0.000 -0.3307  0.3636  0.8709
 
              Baa    -0.0000    -0.000    -0.000    -0.000 -0.1839  0.9490 -0.2560
    18 C(13)  Bbb     0.0000     0.000     0.000     0.000 -0.5521  0.1157  0.8257
              Bcc     0.0000     0.000     0.000     0.000  0.8133  0.2932  0.5026
 
              Baa    -0.0000    -0.000    -0.000    -0.000  0.1527  0.8142 -0.5602
    19 C(13)  Bbb    -0.0000    -0.000    -0.000    -0.000  0.8803  0.1456  0.4516
              Bcc     0.0000     0.000     0.000     0.000 -0.4492  0.5621  0.6945
 
              Baa    -0.0000    -0.000    -0.000    -0.000 -0.0304  0.8871 -0.4606
    20 C(13)  Bbb     0.0000     0.000     0.000     0.000  0.3732  0.4376  0.8181
              Bcc     0.0000     0.000     0.000     0.000  0.9273 -0.1470 -0.3443
 
              Baa    -0.0000    -0.000    -0.000    -0.000  0.9243  0.3805  0.0300
    21 C(13)  Bbb    -0.0000    -0.000    -0.000    -0.000 -0.3814  0.9180  0.1087
              Bcc     0.0000     0.000     0.000     0.000  0.0138 -0.1119  0.9936
 
              Baa    -0.0000    -0.000    -0.000    -0.000  0.8924 -0.4512  0.0116
    22 C(13)  Bbb     0.0000     0.000     0.000     0.000  0.4454  0.8845  0.1387
              Bcc     0.0000     0.000     0.000     0.000 -0.0729 -0.1186  0.9903
 
              Baa    -0.0000    -0.000    -0.000    -0.000  0.8507 -0.5222  0.0602
    23 C(13)  Bbb    -0.0000    -0.000    -0.000    -0.000  0.5204  0.8528  0.0430
              Bcc     0.0000     0.000     0.000     0.000 -0.0738 -0.0053  0.9973
 
              Baa    -0.0000    -0.000    -0.000    -0.000 -0.6552  0.7545  0.0382
    24 C(13)  Bbb    -0.0000    -0.000    -0.000    -0.000  0.0017 -0.0491  0.9988
              Bcc     0.0000     0.000     0.000     0.000  0.7554  0.6545  0.0308
 
              Baa    -0.0000    -0.000    -0.000    -0.000  0.9924 -0.0955 -0.0774
    25 C(13)  Bbb    -0.0000    -0.000    -0.000    -0.000  0.1021  0.9911  0.0856
              Bcc     0.0000     0.000     0.000     0.000  0.0685 -0.0928  0.9933
 
              Baa    -0.0000    -0.000    -0.000    -0.000  0.7867 -0.4334  0.4396
    26 C(13)  Bbb    -0.0000    -0.000    -0.000    -0.000 -0.3860  0.2104  0.8982
              Bcc     0.0000     0.000     0.000     0.000  0.4818  0.8763  0.0017
 
              Baa    -0.0000     0.000     0.000     0.000 -0.6030  0.7168  0.3500
    27 O(17)  Bbb    -0.0000     0.000     0.000     0.000  0.3051 -0.1982  0.9315
              Bcc     0.0000    -0.000    -0.000    -0.000  0.7371  0.6685 -0.0991
 
              Baa    -0.0000    -0.000    -0.000    -0.000  0.8814  0.0144  0.4722
    28 C(13)  Bbb    -0.0000    -0.000    -0.000    -0.000 -0.2891  0.8070  0.5149
              Bcc     0.0000     0.000     0.000     0.000 -0.3736 -0.5903  0.7155
 
              Baa    -0.0000    -0.000    -0.000    -0.000 -0.0717  0.7513 -0.6560
    29 C(13)  Bbb     0.0000     0.000     0.000     0.000  0.6283 -0.4768 -0.6147
              Bcc     0.0000     0.000     0.000     0.000  0.7746  0.4562  0.4379
 
              Baa    -0.0000    -0.000    -0.000    -0.000 -0.4757  0.7480 -0.4628
    30 C(13)  Bbb    -0.0000    -0.000    -0.000    -0.000  0.8771  0.3639 -0.3135
              Bcc     0.0000     0.000     0.000     0.000  0.0661  0.5550  0.8292
 
              Baa    -0.0000    -0.000    -0.000    -0.000  0.2063  0.8425 -0.4977
    31 C(13)  Bbb     0.0000     0.000     0.000     0.000 -0.5441  0.5215  0.6573
              Bcc     0.0000     0.000     0.000     0.000  0.8133  0.1352  0.5660
 
              Baa    -0.0000    -0.000    -0.000    -0.000  0.2532  0.7844 -0.5663
    32 C(13)  Bbb    -0.0000    -0.000    -0.000    -0.000  0.9147 -0.0036  0.4040
              Bcc     0.0000     0.000     0.000     0.000 -0.3149  0.6203  0.7184
 
              Baa    -0.0000    -0.000    -0.000    -0.000  0.0801 -0.6871  0.7221
    33 C(13)  Bbb     0.0000     0.000     0.000     0.000  0.9464  0.2798  0.1612
              Bcc     0.0000     0.000     0.000     0.000 -0.3128  0.6705  0.6727
 
              Baa    -0.0000    -0.000    -0.000    -0.000 -0.3573 -0.6601  0.6607
    34 C(13)  Bbb     0.0000     0.000     0.000     0.000  0.9314 -0.1989  0.3050
              Bcc     0.0000     0.000     0.000     0.000 -0.0699  0.7243  0.6859
 
              Baa    -0.0000    -0.000    -0.000    -0.000  0.2229 -0.1102  0.9686
    35 C(13)  Bbb    -0.0000    -0.000    -0.000    -0.000  0.9714 -0.0585 -0.2302
              Bcc     0.0000     0.000     0.000     0.000  0.0820  0.9922  0.0940
 
              Baa    -0.0000    -0.000    -0.000    -0.000 -0.5652 -0.1424  0.8125
    36 C(13)  Bbb     0.0000     0.000     0.000     0.000  0.8187  0.0235  0.5737
              Bcc     0.0000     0.000     0.000     0.000 -0.1008  0.9895  0.1033
 
              Baa    -0.0000    -0.000    -0.000    -0.000  0.0242  0.9974  0.0672
    37 C(13)  Bbb    -0.0000    -0.000    -0.000    -0.000 -0.4833 -0.0472  0.8742
              Bcc     0.0000     0.000     0.000     0.000  0.8751 -0.0537  0.4809
 
              Baa    -0.0000    -0.000    -0.000    -0.000 -0.0965 -0.5004  0.8604
    38 C(13)  Bbb    -0.0000    -0.000    -0.000    -0.000 -0.1107  0.8645  0.4904
              Bcc     0.0000     0.000     0.000     0.000  0.9892  0.0480  0.1388
 
              Baa    -0.0000    -0.000    -0.000    -0.000  0.8205  0.0093  0.5715
    39 C(13)  Bbb     0.0000     0.000     0.000     0.000 -0.5704 -0.0513  0.8198
              Bcc     0.0000     0.000     0.000     0.000 -0.0369  0.9986  0.0368
 
              Baa    -0.0000    -0.000    -0.000    -0.000  0.7755 -0.0923  0.6245
    40 C(13)  Bbb     0.0000     0.000     0.000     0.000 -0.6307 -0.0723  0.7726
              Bcc     0.0000     0.000     0.000     0.000  0.0261  0.9931  0.1143
 
              Baa    -0.0000     0.000     0.000     0.000  0.3366 -0.0680  0.9392
    41 O(17)  Bbb     0.0000    -0.000    -0.000    -0.000  0.9390  0.0984 -0.3294
              Bcc     0.0000    -0.000    -0.000    -0.000 -0.0701  0.9928  0.0970
 
              Baa    -0.0000    -0.000    -0.000    -0.000  0.7061 -0.0684  0.7048
    42 C(13)  Bbb     0.0000     0.000     0.000     0.000  0.7080  0.0862 -0.7009
              Bcc     0.0000     0.000     0.000     0.000 -0.0128  0.9939  0.1093
 
              Baa    -0.0000    -0.000    -0.000    -0.000  0.1177  0.8777 -0.4645
    43 H(1)   Bbb    -0.0000    -0.000    -0.000    -0.000 -0.0381  0.4714  0.8811
              Bcc     0.0000     0.000     0.000     0.000  0.9923 -0.0860  0.0889
 
              Baa    -0.0000    -0.000    -0.000    -0.000 -0.1097 -0.5975  0.7943
    44 H(1)   Bbb     0.0000     0.000     0.000     0.000  0.7761 -0.5508 -0.3072
              Bcc     0.0000     0.000     0.000     0.000  0.6211  0.5828  0.5241
 
              Baa    -0.0000    -0.000    -0.000    -0.000  0.8455  0.0894 -0.5264
    45 H(1)   Bbb    -0.0000    -0.000    -0.000    -0.000  0.3251  0.6958  0.6404
              Bcc     0.0000     0.000     0.000     0.000 -0.4236  0.7126 -0.5593
 
              Baa    -0.0000    -0.000    -0.000    -0.000 -0.0059  0.6093  0.7929
    46 H(1)   Bbb    -0.0000    -0.000    -0.000    -0.000  0.8708 -0.3867  0.3036
              Bcc     0.0000     0.000     0.000     0.000  0.4916  0.6923 -0.5283
 
              Baa    -0.0000    -0.000    -0.000    -0.000 -0.4241  0.7781 -0.4633
    47 H(1)   Bbb     0.0000     0.000     0.000     0.000 -0.4557  0.2588  0.8517
              Bcc     0.0000     0.000     0.000     0.000  0.7826  0.5723  0.2448
 
              Baa    -0.0000    -0.000    -0.000    -0.000 -0.0791  0.9773 -0.1965
    48 H(1)   Bbb    -0.0000    -0.000    -0.000    -0.000  0.8343  0.1728  0.5235
              Bcc     0.0000     0.000     0.000     0.000 -0.5456  0.1225  0.8291
 
              Baa    -0.0000    -0.000    -0.000    -0.000  0.9508 -0.2965  0.0898
    49 H(1)   Bbb     0.0000     0.000     0.000     0.000  0.0793  0.5132  0.8546
              Bcc     0.0000     0.000     0.000     0.000  0.2995  0.8054 -0.5115
 
              Baa    -0.0000    -0.000    -0.000    -0.000  0.6375  0.7696  0.0368
    50 H(1)   Bbb     0.0000     0.000     0.000     0.000  0.7576 -0.6174 -0.2117
              Bcc     0.0000     0.000     0.000     0.000  0.1402 -0.1628  0.9766
 
              Baa    -0.0000    -0.000    -0.000    -0.000 -0.1001  0.9913 -0.0853
    51 H(1)   Bbb     0.0000     0.000     0.000     0.000  0.1194  0.0970  0.9881
              Bcc     0.0000     0.000     0.000     0.000  0.9878  0.0887 -0.1281
 
              Baa    -0.0000    -0.000    -0.000    -0.000  0.5077  0.3558  0.7846
    52 H(1)   Bbb     0.0000     0.000     0.000     0.000  0.2831  0.7913 -0.5420
              Bcc     0.0000     0.000     0.000     0.000  0.8137 -0.4973 -0.3010
 
              Baa    -0.0000    -0.000    -0.000    -0.000 -0.4128 -0.4473  0.7935
    53 H(1)   Bbb     0.0000     0.000     0.000     0.000  0.2899  0.7613  0.5800
              Bcc     0.0000     0.000     0.000     0.000  0.8635 -0.4694  0.1846
 
              Baa    -0.0000    -0.000    -0.000    -0.000 -0.6043  0.4083  0.6842
    54 H(1)   Bbb     0.0000     0.000     0.000     0.000  0.7953  0.2586  0.5482
              Bcc     0.0000     0.000     0.000     0.000  0.0469  0.8755 -0.4810
 
              Baa    -0.0000    -0.000    -0.000    -0.000  0.1858 -0.6711  0.7177
    55 H(1)   Bbb     0.0000     0.000     0.000     0.000 -0.1971  0.6902  0.6963
              Bcc     0.0000     0.000     0.000     0.000  0.9626  0.2708  0.0041
 
              Baa    -0.0000    -0.000    -0.000    -0.000 -0.0415  0.7333 -0.6786
    56 H(1)   Bbb     0.0000     0.000     0.000     0.000  0.9544  0.2301  0.1903
              Bcc     0.0000     0.000     0.000     0.000 -0.2958  0.6397  0.7094
 
              Baa    -0.0000    -0.000    -0.000    -0.000 -0.1028  0.8122 -0.5743
    57 H(1)   Bbb    -0.0000    -0.000    -0.000    -0.000  0.9448 -0.1008 -0.3118
              Bcc     0.0000     0.000     0.000     0.000  0.3111  0.5746  0.7570
 
              Baa    -0.0000    -0.000    -0.000    -0.000  0.4979  0.8667 -0.0301
    58 H(1)   Bbb     0.0000     0.000     0.000     0.000  0.8671 -0.4969  0.0347
              Bcc     0.0000     0.000     0.000     0.000 -0.0151  0.0434  0.9989
 
              Baa    -0.0000    -0.000    -0.000    -0.000 -0.4412  0.8862  0.1414
    59 H(1)   Bbb     0.0000     0.000     0.000     0.000  0.8958  0.4443  0.0107
              Bcc     0.0000     0.000     0.000     0.000  0.0533 -0.1314  0.9899
 
              Baa    -0.0000    -0.000    -0.000    -0.000  0.7105  0.6949  0.1107
    60 H(1)   Bbb     0.0000     0.000     0.000     0.000 -0.5564  0.4586  0.6929
              Bcc     0.0000     0.000     0.000     0.000  0.4307 -0.5539  0.7125
 
              Baa    -0.0000    -0.000    -0.000    -0.000 -0.2860  0.8510 -0.4405
    61 H(1)   Bbb     0.0000     0.000     0.000     0.000  0.4782  0.5251  0.7040
              Bcc     0.0000     0.000     0.000     0.000  0.8304 -0.0093 -0.5571
 
              Baa    -0.0000    -0.000    -0.000    -0.000  0.7222 -0.5795  0.3776
    62 H(1)   Bbb    -0.0000    -0.000    -0.000    -0.000  0.4158  0.8000  0.4325
              Bcc     0.0000     0.000     0.000     0.000 -0.5527 -0.1553  0.8188
 
              Baa    -0.0000    -0.000    -0.000    -0.000  0.9774 -0.1739  0.1205
    63 H(1)   Bbb     0.0000     0.000     0.000     0.000  0.1463  0.9670  0.2086
              Bcc     0.0000     0.000     0.000     0.000 -0.1528 -0.1863  0.9705
 
              Baa    -0.0000    -0.000    -0.000    -0.000 -0.5467  0.6139 -0.5694
    64 H(1)   Bbb     0.0000     0.000     0.000     0.000  0.8122  0.2234 -0.5390
              Bcc     0.0000     0.000     0.000     0.000  0.2037  0.7571  0.6207
 
              Baa    -0.0000    -0.000    -0.000    -0.000  0.6237  0.7026 -0.3426
    65 H(1)   Bbb     0.0000     0.000     0.000     0.000  0.6845 -0.2792  0.6734
              Bcc     0.0000     0.000     0.000     0.000 -0.3775  0.6545  0.6551
 
              Baa    -0.0000    -0.000    -0.000    -0.000  0.7943 -0.5815  0.1756
    66 H(1)   Bbb    -0.0000    -0.000    -0.000    -0.000 -0.5580 -0.5842  0.5894
              Bcc     0.0000     0.000     0.000     0.000  0.2402  0.5662  0.7885
 
              Baa    -0.0000    -0.000    -0.000    -0.000  0.6033  0.6413 -0.4741
    67 H(1)   Bbb     0.0000     0.000     0.000     0.000  0.7078 -0.1566  0.6889
              Bcc     0.0000     0.000     0.000     0.000 -0.3676  0.7512  0.5483
 
              Baa    -0.0000    -0.000    -0.000    -0.000  0.9520  0.1723  0.2530
    68 H(1)   Bbb     0.0000     0.000     0.000     0.000  0.0175  0.7944 -0.6072
              Bcc     0.0000     0.000     0.000     0.000 -0.3056  0.5825  0.7532
 
              Baa    -0.0000    -0.000    -0.000    -0.000 -0.4866 -0.0709  0.8708
    69 H(1)   Bbb     0.0000     0.000     0.000     0.000  0.8734 -0.0616  0.4830
              Bcc     0.0000     0.000     0.000     0.000  0.0194  0.9956  0.0919
 
              Baa    -0.0000    -0.000    -0.000    -0.000 -0.0828 -0.0260  0.9962
    70 H(1)   Bbb     0.0000     0.000     0.000     0.000  0.5021  0.8624  0.0643
              Bcc     0.0000     0.000     0.000     0.000  0.8609 -0.5055  0.0583
 
              Baa    -0.0000    -0.000    -0.000    -0.000  0.6250 -0.1195  0.7714
    71 H(1)   Bbb     0.0000     0.000     0.000     0.000  0.7742 -0.0319 -0.6322
              Bcc     0.0000     0.000     0.000     0.000  0.1002  0.9923  0.0725
 
              Baa    -0.0000    -0.000    -0.000    -0.000  0.4435  0.3345  0.8315
    72 H(1)   Bbb    -0.0000    -0.000    -0.000    -0.000  0.8425 -0.4720 -0.2595
              Bcc     0.0000     0.000     0.000     0.000  0.3056  0.8157 -0.4912
 
              Baa    -0.0000    -0.000    -0.000    -0.000  0.3286  0.7506 -0.5733
    73 H(1)   Bbb    -0.0000    -0.000    -0.000    -0.000  0.7251  0.1884  0.6624
              Bcc     0.0000     0.000     0.000     0.000 -0.6052  0.6333  0.4823
 
              Baa    -0.0000    -0.000    -0.000    -0.000  0.1069 -0.2096  0.9719
    74 H(1)   Bbb     0.0000     0.000     0.000     0.000  0.2716  0.9465  0.1742
              Bcc     0.0000     0.000     0.000     0.000  0.9565 -0.2454 -0.1581
 

 ---------------------------------------------------------------------------------

 No NMR shielding tensors so no spin-rotation constants.
 Leave Link  601 at Thu Jul 23 21:56:34 2020, MaxMem=  4026531840 cpu:              11.6 elap:               1.6
 (Enter /opt/ohpc/pub/libs/gaussian/g16-A.03/sandybridge/g16/l9999.exe)

 Test job not archived.
 1\1\GINC-SKYLAKE052\FOpt\ULC-wPBE\CC-pVDZ\C39H32O3\RDU230\23-Jul-2020\
 0\\#P uLC-wPBE/cc-pVDZ iop(3/107=0208700000, 3/108=0208700000) opt\\H3
 2 C39 O3\\0,1\C,-12.4149919464,-0.8290809918,0.4358682298\C,-11.603641
 1584,-1.3021017251,1.4716909964\C,-10.2140082391,-1.1666121071,1.39259
 80782\C,-9.6081723484,-0.5563570204,0.2793464447\C,-10.4366246993,-0.0
 794800062,-0.753236858\C,-11.8247661056,-0.2177582853,-0.676252255\C,-
 8.1214037705,-0.4708671363,0.1985919565\C,-7.3355100551,-1.596799588,0
 .4788864532\C,-5.9389018977,-1.5620266276,0.4320764656\C,-5.2764182512
 ,-0.372447968,0.0995406463\C,-6.0472548414,0.770882999,-0.1832446509\C
 ,-7.4469290615,0.7300158533,-0.1381708064\O,-8.2403659146,1.8116753197
 ,-0.4031686526\C,-7.6053784207,3.0470265516,-0.690850985\C,-3.78983112
 67,-0.309544056,0.0418785619\C,-3.086588986,0.8016675824,0.5419024503\
 C,-1.6937443523,0.8622651784,0.4866407476\C,-0.9451382031,-0.192156001
 8,-0.0670031431\C,-1.647936107,-1.30222102,-0.568608445\C,-3.042135371
 6,-1.3608389947,-0.5158602966\C,0.5449506302,-0.1801158434,-0.09115491
 53\C,1.2642079628,-1.3092452788,0.3241469406\C,2.6610032193,-1.3532114
 262,0.3038375169\C,3.3923389421,-0.2453345769,-0.1461300081\C,2.689432
 2096,0.8983640564,-0.5692822287\C,1.2892797198,0.9388606473,-0.5436807
 091\O,0.56084633,2.0244704752,-0.9447889857\C,1.2647694448,3.144005445
 9,-1.4583638154\C,4.8808972645,-0.2676664047,-0.1789248474\C,5.5940407
 58,0.2784170294,-1.2597859601\C,6.9901529181,0.2513608873,-1.287281478
 8\C,7.7282628141,-0.3200875598,-0.2360628835\C,7.0147035979,-0.8613402
 474,0.8484753898\C,5.6199237771,-0.8383146078,0.8734118213\C,9.2162392
 558,-0.3811017673,-0.3156222854\C,9.835862106,-0.8270158059,-1.4918032
 614\C,11.2283845005,-0.8861289399,-1.6199722589\C,12.0272720934,-0.488
 551364,-0.5486070396\C,11.4420216486,-0.0360352572,0.6404589385\C,10.0
 45735317,0.0186578533,0.7634400346\O,9.4015808228,0.4580729621,1.88656
 70041\C,10.1952419872,0.9139644315,2.9704152363\H,-13.5063000701,-0.93
 41432706,0.4954059922\H,-12.0548063549,-1.7768428196,2.3531385658\H,-9
 .5828860423,-1.5259473162,2.216578577\H,-9.9820376895,0.4006461289,-1.
 6275613065\H,-12.453103773,0.1547073189,-1.4963400055\H,-7.8443285215,
 -2.5359884885,0.7336977484\H,-5.3609148026,-2.4620389508,0.6760614472\
 H,-5.5319768184,1.6953058241,-0.465611028\H,-8.4190593137,3.7764117936
 ,-0.8404623671\H,-6.9634715743,3.3849480076,0.14924512\H,-6.9917754422
 ,2.9923658698,-1.6143828527\H,-3.6424520999,1.6253068879,1.0099104343\
 H,-1.1726233389,1.7371072722,0.8920590631\H,-1.090056608,-2.1267486837
 ,-1.0324096501\H,-3.5635904035,-2.2279378162,-0.9424117478\H,0.7018740
 181,-2.180466546,0.6855261658\H,3.1841123898,-2.2638070408,0.621252074
 7\H,3.2598252176,1.7733244031,-0.8992704451\H,0.4940278734,3.878854136
 7,-1.7454703326\H,1.8646090857,2.8773273113,-2.3533096548\H,1.93381550
 88,3.5975180004,-0.6974528473\H,5.0456706463,0.7146646508,-2.105472415
 3\H,7.5229282887,0.6905921175,-2.1413854344\H,7.5644752494,-1.30482217
 77,1.6866268634\H,5.0891437137,-1.2550937886,1.7397034469\H,9.19724382
 09,-1.1532748101,-2.3235587379\H,11.6814054422,-1.2473094473,-2.551513
 1587\H,13.121711725,-0.528301312,-0.6262152876\H,12.0850447223,0.27687
 90106,1.4701243947\H,10.8315648818,1.775912079,2.6803003866\H,10.84173
 73653,0.1085424961,3.3776293499\H,9.4846644408,1.2355164942,3.75026349
 9\\Version=EM64L-G16RevA.03\State=1-A\HF=-1729.6269683\S2=0.\S2-1=0.\S
 2A=0.\RMSD=7.806e-09\RMSF=1.493e-06\Dipole=1.1657934,1.1544256,0.13501
 89\Quadrupole=7.1566118,-1.1309623,-6.0256495,-0.5730722,10.9995739,-4
 .7970075\PG=C01 [X(C39H32O3)]\\@


 SCIENCE IS LONG AND LIFE IS SHORT.

                     DON MOSER IN THE FEBRUARY 1979 SMITHSONIAN
 Job cpu time:       1 days  3 hours 55 minutes 40.9 seconds.
 Elapsed time:       0 days  3 hours 32 minutes 35.6 seconds.
 File lengths (MBytes):  RWF=    672 Int=      0 D2E=      0 Chk=     60 Scr=      8
 Normal termination of Gaussian 16 at Thu Jul 23 21:56:34 2020.
