 Entering Gaussian System, Link 0=g16
 Input=mols_66_5_04_c-n-c-cF_opt_0.gjf
 Output=mols_66_5_04_c-n-c-cF_opt_0.log
 Initial command:
 /opt/ohpc/pub/libs/gaussian/g16-A.03/sandybridge/g16/l1.exe "/mnt/gpfs2_4m/scratch/rdu230/ondemand/projects/dihedral_energies/7trial/wtuning/mols_66_5_04_c-n-c-cF/Gau-360620.inp" -scrdir="/mnt/gpfs2_4m/scratch/rdu230/ondemand/projects/dihedral_energies/7trial/wtuning/mols_66_5_04_c-n-c-cF/"
 Entering Link 1 = /opt/ohpc/pub/libs/gaussian/g16-A.03/sandybridge/g16/l1.exe PID=    360621.
  
 Copyright (c) 1988,1990,1992,1993,1995,1998,2003,2009,2016,
            Gaussian, Inc.  All Rights Reserved.
  
 This is part of the Gaussian(R) 16 program.  It is based on
 the Gaussian(R) 09 system (copyright 2009, Gaussian, Inc.),
 the Gaussian(R) 03 system (copyright 2003, Gaussian, Inc.),
 the Gaussian(R) 98 system (copyright 1998, Gaussian, Inc.),
 the Gaussian(R) 94 system (copyright 1995, Gaussian, Inc.),
 the Gaussian 92(TM) system (copyright 1992, Gaussian, Inc.),
 the Gaussian 90(TM) system (copyright 1990, Gaussian, Inc.),
 the Gaussian 88(TM) system (copyright 1988, Gaussian, Inc.),
 the Gaussian 86(TM) system (copyright 1986, Carnegie Mellon
 University), and the Gaussian 82(TM) system (copyright 1983,
 Carnegie Mellon University). Gaussian is a federally registered
 trademark of Gaussian, Inc.
  
 This software contains proprietary and confidential information,
 including trade secrets, belonging to Gaussian, Inc.
  
 This software is provided under written license and may be
 used, copied, transmitted, or stored only in accord with that
 written license.
  
 The following legend is applicable only to US Government
 contracts under FAR:
  
                    RESTRICTED RIGHTS LEGEND
  
 Use, reproduction and disclosure by the US Government is
 subject to restrictions as set forth in subparagraphs (a)
 and (c) of the Commercial Computer Software - Restricted
 Rights clause in FAR 52.227-19.
  
 Gaussian, Inc.
 340 Quinnipiac St., Bldg. 40, Wallingford CT 06492
  
  
 ---------------------------------------------------------------
 Warning -- This program may not be used in any manner that
 competes with the business of Gaussian, Inc. or will provide
 assistance to any competitor of Gaussian, Inc.  The licensee
 of this program is prohibited from giving any competitor of
 Gaussian, Inc. access to this program.  By using this program,
 the user acknowledges that Gaussian, Inc. is engaged in the
 business of creating and licensing software in the field of
 computational chemistry and represents and warrants to the
 licensee that it is not a competitor of Gaussian, Inc. and that
 it will not use this program in any manner prohibited above.
 ---------------------------------------------------------------
  

 Cite this work as:
 Gaussian 16, Revision A.03,
 M. J. Frisch, G. W. Trucks, H. B. Schlegel, G. E. Scuseria, 
 M. A. Robb, J. R. Cheeseman, G. Scalmani, V. Barone, 
 G. A. Petersson, H. Nakatsuji, X. Li, M. Caricato, A. V. Marenich, 
 J. Bloino, B. G. Janesko, R. Gomperts, B. Mennucci, H. P. Hratchian, 
 J. V. Ortiz, A. F. Izmaylov, J. L. Sonnenberg, D. Williams-Young, 
 F. Ding, F. Lipparini, F. Egidi, J. Goings, B. Peng, A. Petrone, 
 T. Henderson, D. Ranasinghe, V. G. Zakrzewski, J. Gao, N. Rega, 
 G. Zheng, W. Liang, M. Hada, M. Ehara, K. Toyota, R. Fukuda, 
 J. Hasegawa, M. Ishida, T. Nakajima, Y. Honda, O. Kitao, H. Nakai, 
 T. Vreven, K. Throssell, J. A. Montgomery, Jr., J. E. Peralta, 
 F. Ogliaro, M. J. Bearpark, J. J. Heyd, E. N. Brothers, K. N. Kudin, 
 V. N. Staroverov, T. A. Keith, R. Kobayashi, J. Normand, 
 K. Raghavachari, A. P. Rendell, J. C. Burant, S. S. Iyengar, 
 J. Tomasi, M. Cossi, J. M. Millam, M. Klene, C. Adamo, R. Cammi, 
 J. W. Ochterski, R. L. Martin, K. Morokuma, O. Farkas, 
 J. B. Foresman, and D. J. Fox, Gaussian, Inc., Wallingford CT, 2016.
 
 ******************************************
 Gaussian 16:  EM64L-G16RevA.03 25-Dec-2016
                23-Jul-2020 
 ******************************************
 %mem=30GB
 %nproc=8
 Will use up to    8 processors via shared memory.
 ---------------------------------------------------------------
 #P uLC-wPBE/cc-pVDZ iop(3/107=0203800000, 3/108=0203800000) opt
 ---------------------------------------------------------------
 1/18=20,19=15,26=3,38=1/1,3;
 2/9=110,12=2,17=6,18=5,40=1/2;
 3/5=16,11=2,25=1,30=1,71=1,74=-41,107=203800000,108=203800000,116=2/1,2,3;
 4//1;
 5/5=2,38=5/2;
 6/7=2,8=2,9=2,10=2,28=1/1;
 7//1,2,3,16;
 1/18=20,19=15,26=3/3(2);
 2/9=110/2;
 99//99;
 2/9=110/2;
 3/5=16,11=2,25=1,30=1,71=1,74=-41,107=203800000,108=203800000,116=2/1,2,3;
 4/5=5,16=3,69=1/1;
 5/5=2,38=5/2;
 7//1,2,3,16;
 1/18=20,19=15,26=3/3(-5);
 2/9=110/2;
 6/7=2,8=2,9=2,10=2,19=2,28=1/1;
 99/9=1/99;
 Leave Link    1 at Thu Jul 23 19:46:24 2020, MaxMem=  4026531840 cpu:               6.1 elap:               1.1
 (Enter /opt/ohpc/pub/libs/gaussian/g16-A.03/sandybridge/g16/l101.exe)
 -------------
 H32 C55 N5 F5
 -------------
 Symbolic Z-matrix:
 Charge =  0 Multiplicity = 1
 C                    -20.26742   2.02015  -1.0251 
 C                    -19.86417   0.84885  -1.5865 
 C                    -18.49994   0.42712  -1.38951 
 C                    -17.72245   1.26378  -0.69401 
 N                    -18.1001   2.46912  -0.13595 
 C                    -19.35291   2.78131  -0.35787 
 C                    -16.3003   0.93296  -0.53524 
 C                    -15.30207   1.35118  -1.47581 
 C                    -13.97442   1.12492  -1.39354 
 C                    -13.51855   0.35413  -0.31134 
 C                    -14.42083  -0.09065   0.63091 
 C                    -15.77821   0.16002   0.54262 
 F                    -16.66027  -0.31352   1.43952 
 C                    -12.06112   0.06974  -0.15225 
 C                    -11.60868  -1.33046  -0.12257 
 C                    -10.21151  -1.57009  -0.01737 
 C                    -9.34209  -0.50946   0.10172 
 N                    -9.74682   0.79272   0.07603 
 C                    -11.15835   1.04753  -0.00112 
 C                    -7.94835  -0.6832    0.20362 
 C                    -7.21701  -1.12872  -0.86782 
 C                    -5.75657  -1.29199  -0.84617 
 C                    -5.11822  -0.99079   0.38203 
 C                    -5.82439  -0.51774   1.43758 
 C                    -7.22684  -0.34339   1.4002 
 F                    -7.88705   0.18027   2.44837 
 C                    -3.6295   -1.13219   0.40036 
 C                    -2.99154  -2.01469   1.17743 
 C                    -1.61638  -2.05023   1.21983 
 C                    -0.87693  -1.15865   0.45945 
 N                    -1.49492  -0.31869  -0.40722 
 C                    -2.77775  -0.25825  -0.33181 
 C                     0.57197  -1.17111   0.405 
 C                     1.32077  -2.11997  -0.27867 
 C                     2.73618  -2.07827  -0.32259 
 C                     3.49423  -1.10398   0.30232 
 C                     2.71073  -0.11961   0.971 
 C                     1.33139  -0.15147   1.11059 
 F                     0.7341    0.74117   1.81903 
 C                     4.8645   -1.01302   0.18472 
 C                     5.58132  -1.24538  -1.08851 
 C                     6.98391  -1.0987   -1.18687 
 C                     7.70162  -0.70467   0.01489 
 N                     7.04319  -0.49381   1.18572 
 C                     5.74906  -0.68452   1.23163 
 C                     9.15735  -0.43947  -0.04703 
 C                     9.76419   0.5131    0.79745 
 C                     11.13506   0.78631   0.69356 
 C                     12.00457   0.0772   -0.14147 
 C                     11.39275  -0.98303  -0.95272 
 C                     10.01325  -1.15434  -0.94546 
 F                     9.58031  -2.16531  -1.67505 
 C                     13.42496   0.29921  -0.27498 
 C                     14.0715   0.48438  -1.45006 
 C                     15.47125   0.71301  -1.5834 
 C                     16.16767   0.80228  -0.35188 
 N                     15.56749   0.73378   0.79644 
 C                     14.17235   0.48391   0.8756 
 C                     17.63445   1.02285  -0.38581 
 C                     18.50518   0.21981  -1.09245 
 C                     19.84659   0.39186  -1.14658 
 C                     20.43612   1.47332  -0.40992 
 C                     19.60083   2.34856   0.36447 
 C                     18.19712   2.06039   0.36524 
 F                     17.40535   2.94037   1.08559 
 H                    -21.30398   2.28364  -1.10113 
 H                    -20.60132   0.1794   -2.12874 
 H                    -18.15791  -0.50013  -1.80599 
 H                    -19.6347   3.68872   0.13382 
 H                    -15.65026   2.03236  -2.36476 
 H                    -13.30061   1.43365  -2.11179 
 H                    -14.1387  -0.6989    1.51279 
 H                    -12.33356  -2.1059   -0.21306 
 H                    -9.90489  -2.59262   0.02375 
 H                    -11.35674   2.10343  -0.05048 
 H                    -7.70623  -1.38029  -1.84949 
 H                    -5.3035   -1.69275  -1.6897 
 H                    -5.33536  -0.15457   2.4051 
 H                    -3.61317  -2.67918   1.81885 
 H                    -1.05314  -2.8117    1.90894 
 H                    -3.27614   0.50393  -1.05425 
 H                     0.8287   -2.96158  -0.82671 
 H                     3.22087  -2.8672   -0.85582 
 H                     3.2363    0.73383   1.51483 
 H                     4.96517  -1.50429  -1.90037 
 H                     7.43632  -1.30934  -2.13853 
 H                     5.31902  -0.40901   2.25972 
 H                     9.11139   1.08398   1.48436 
 H                     11.47438   1.53919   1.37882 
 H                     11.9449  -1.51655  -1.65663 
 H                     13.4538   0.37549  -2.39846 
 H                     15.88313   0.82555  -2.54982 
 H                     13.76716   0.42424   1.85707 
 H                     18.07731  -0.60298  -1.65526 
 H                     20.49134  -0.31504  -1.64727 
 H                     21.51854   1.61026  -0.39037 
 H                     19.98647   3.12878   0.97051 
 
 ITRead=  0  0  0  0  0  0  0  0  0  0  0  0  0  0  0  0  0  0  0  0
 ITRead=  0  0  0  0  0  0  0  0  0  0  0  0  0  0  0  0  0  0  0  0
 ITRead=  0  0  0  0  0  0  0  0  0  0  0  0  0  0  0  0  0  0  0  0
 ITRead=  0  0  0  0  0  0  0  0  0  0  0  0  0  0  0  0  0  0  0  0
 ITRead=  0  0  0  0  0  0  0  0  0  0  0  0  0  0  0  0  0
 MicOpt= -1 -1 -1 -1 -1 -1 -1 -1 -1 -1 -1 -1 -1 -1 -1 -1 -1 -1 -1 -1
 MicOpt= -1 -1 -1 -1 -1 -1 -1 -1 -1 -1 -1 -1 -1 -1 -1 -1 -1 -1 -1 -1
 MicOpt= -1 -1 -1 -1 -1 -1 -1 -1 -1 -1 -1 -1 -1 -1 -1 -1 -1 -1 -1 -1
 MicOpt= -1 -1 -1 -1 -1 -1 -1 -1 -1 -1 -1 -1 -1 -1 -1 -1 -1 -1 -1 -1
 MicOpt= -1 -1 -1 -1 -1 -1 -1 -1 -1 -1 -1 -1 -1 -1 -1 -1 -1
 NAtoms=     97 NQM=       97 NQMF=       0 NMMI=      0 NMMIF=      0
                NMic=       0 NMicF=      0.
                    Isotopes and Nuclear Properties:
 (Nuclear quadrupole moments (NQMom) in fm**2, nuclear magnetic moments (NMagM)
  in nuclear magnetons)

  Atom         1           2           3           4           5           6           7           8           9          10
 IAtWgt=          12          12          12          12          14          12          12          12          12          12
 AtmWgt=  12.0000000  12.0000000  12.0000000  12.0000000  14.0030740  12.0000000  12.0000000  12.0000000  12.0000000  12.0000000
 NucSpn=           0           0           0           0           2           0           0           0           0           0
 AtZEff=  -0.0000000  -0.0000000  -0.0000000  -0.0000000  -0.0000000  -0.0000000  -0.0000000  -0.0000000  -0.0000000  -0.0000000
 NQMom=    0.0000000   0.0000000   0.0000000   0.0000000   2.0440000   0.0000000   0.0000000   0.0000000   0.0000000   0.0000000
 NMagM=    0.0000000   0.0000000   0.0000000   0.0000000   0.4037610   0.0000000   0.0000000   0.0000000   0.0000000   0.0000000
 AtZNuc=   6.0000000   6.0000000   6.0000000   6.0000000   7.0000000   6.0000000   6.0000000   6.0000000   6.0000000   6.0000000

  Atom        11          12          13          14          15          16          17          18          19          20
 IAtWgt=          12          12          19          12          12          12          12          14          12          12
 AtmWgt=  12.0000000  12.0000000  18.9984033  12.0000000  12.0000000  12.0000000  12.0000000  14.0030740  12.0000000  12.0000000
 NucSpn=           0           0           1           0           0           0           0           2           0           0
 AtZEff=  -0.0000000  -0.0000000  -0.0000000  -0.0000000  -0.0000000  -0.0000000  -0.0000000  -0.0000000  -0.0000000  -0.0000000
 NQMom=    0.0000000   0.0000000   0.0000000   0.0000000   0.0000000   0.0000000   0.0000000   2.0440000   0.0000000   0.0000000
 NMagM=    0.0000000   0.0000000   2.6288670   0.0000000   0.0000000   0.0000000   0.0000000   0.4037610   0.0000000   0.0000000
 AtZNuc=   6.0000000   6.0000000   9.0000000   6.0000000   6.0000000   6.0000000   6.0000000   7.0000000   6.0000000   6.0000000

  Atom        21          22          23          24          25          26          27          28          29          30
 IAtWgt=          12          12          12          12          12          19          12          12          12          12
 AtmWgt=  12.0000000  12.0000000  12.0000000  12.0000000  12.0000000  18.9984033  12.0000000  12.0000000  12.0000000  12.0000000
 NucSpn=           0           0           0           0           0           1           0           0           0           0
 AtZEff=  -0.0000000  -0.0000000  -0.0000000  -0.0000000  -0.0000000  -0.0000000  -0.0000000  -0.0000000  -0.0000000  -0.0000000
 NQMom=    0.0000000   0.0000000   0.0000000   0.0000000   0.0000000   0.0000000   0.0000000   0.0000000   0.0000000   0.0000000
 NMagM=    0.0000000   0.0000000   0.0000000   0.0000000   0.0000000   2.6288670   0.0000000   0.0000000   0.0000000   0.0000000
 AtZNuc=   6.0000000   6.0000000   6.0000000   6.0000000   6.0000000   9.0000000   6.0000000   6.0000000   6.0000000   6.0000000

  Atom        31          32          33          34          35          36          37          38          39          40
 IAtWgt=          14          12          12          12          12          12          12          12          19          12
 AtmWgt=  14.0030740  12.0000000  12.0000000  12.0000000  12.0000000  12.0000000  12.0000000  12.0000000  18.9984033  12.0000000
 NucSpn=           2           0           0           0           0           0           0           0           1           0
 AtZEff=  -0.0000000  -0.0000000  -0.0000000  -0.0000000  -0.0000000  -0.0000000  -0.0000000  -0.0000000  -0.0000000  -0.0000000
 NQMom=    2.0440000   0.0000000   0.0000000   0.0000000   0.0000000   0.0000000   0.0000000   0.0000000   0.0000000   0.0000000
 NMagM=    0.4037610   0.0000000   0.0000000   0.0000000   0.0000000   0.0000000   0.0000000   0.0000000   2.6288670   0.0000000
 AtZNuc=   7.0000000   6.0000000   6.0000000   6.0000000   6.0000000   6.0000000   6.0000000   6.0000000   9.0000000   6.0000000

  Atom        41          42          43          44          45          46          47          48          49          50
 IAtWgt=          12          12          12          14          12          12          12          12          12          12
 AtmWgt=  12.0000000  12.0000000  12.0000000  14.0030740  12.0000000  12.0000000  12.0000000  12.0000000  12.0000000  12.0000000
 NucSpn=           0           0           0           2           0           0           0           0           0           0
 AtZEff=  -0.0000000  -0.0000000  -0.0000000  -0.0000000  -0.0000000  -0.0000000  -0.0000000  -0.0000000  -0.0000000  -0.0000000
 NQMom=    0.0000000   0.0000000   0.0000000   2.0440000   0.0000000   0.0000000   0.0000000   0.0000000   0.0000000   0.0000000
 NMagM=    0.0000000   0.0000000   0.0000000   0.4037610   0.0000000   0.0000000   0.0000000   0.0000000   0.0000000   0.0000000
 AtZNuc=   6.0000000   6.0000000   6.0000000   7.0000000   6.0000000   6.0000000   6.0000000   6.0000000   6.0000000   6.0000000

  Atom        51          52          53          54          55          56          57          58          59          60
 IAtWgt=          12          19          12          12          12          12          14          12          12          12
 AtmWgt=  12.0000000  18.9984033  12.0000000  12.0000000  12.0000000  12.0000000  14.0030740  12.0000000  12.0000000  12.0000000
 NucSpn=           0           1           0           0           0           0           2           0           0           0
 AtZEff=  -0.0000000  -0.0000000  -0.0000000  -0.0000000  -0.0000000  -0.0000000  -0.0000000  -0.0000000  -0.0000000  -0.0000000
 NQMom=    0.0000000   0.0000000   0.0000000   0.0000000   0.0000000   0.0000000   2.0440000   0.0000000   0.0000000   0.0000000
 NMagM=    0.0000000   2.6288670   0.0000000   0.0000000   0.0000000   0.0000000   0.4037610   0.0000000   0.0000000   0.0000000
 AtZNuc=   6.0000000   9.0000000   6.0000000   6.0000000   6.0000000   6.0000000   7.0000000   6.0000000   6.0000000   6.0000000

  Atom        61          62          63          64          65          66          67          68          69          70
 IAtWgt=          12          12          12          12          19           1           1           1           1           1
 AtmWgt=  12.0000000  12.0000000  12.0000000  12.0000000  18.9984033   1.0078250   1.0078250   1.0078250   1.0078250   1.0078250
 NucSpn=           0           0           0           0           1           1           1           1           1           1
 AtZEff=  -0.0000000  -0.0000000  -0.0000000  -0.0000000  -0.0000000  -0.0000000  -0.0000000  -0.0000000  -0.0000000  -0.0000000
 NQMom=    0.0000000   0.0000000   0.0000000   0.0000000   0.0000000   0.0000000   0.0000000   0.0000000   0.0000000   0.0000000
 NMagM=    0.0000000   0.0000000   0.0000000   0.0000000   2.6288670   2.7928460   2.7928460   2.7928460   2.7928460   2.7928460
 AtZNuc=   6.0000000   6.0000000   6.0000000   6.0000000   9.0000000   1.0000000   1.0000000   1.0000000   1.0000000   1.0000000

  Atom        71          72          73          74          75          76          77          78          79          80
 IAtWgt=           1           1           1           1           1           1           1           1           1           1
 AtmWgt=   1.0078250   1.0078250   1.0078250   1.0078250   1.0078250   1.0078250   1.0078250   1.0078250   1.0078250   1.0078250
 NucSpn=           1           1           1           1           1           1           1           1           1           1
 AtZEff=  -0.0000000  -0.0000000  -0.0000000  -0.0000000  -0.0000000  -0.0000000  -0.0000000  -0.0000000  -0.0000000  -0.0000000
 NQMom=    0.0000000   0.0000000   0.0000000   0.0000000   0.0000000   0.0000000   0.0000000   0.0000000   0.0000000   0.0000000
 NMagM=    2.7928460   2.7928460   2.7928460   2.7928460   2.7928460   2.7928460   2.7928460   2.7928460   2.7928460   2.7928460
 AtZNuc=   1.0000000   1.0000000   1.0000000   1.0000000   1.0000000   1.0000000   1.0000000   1.0000000   1.0000000   1.0000000

  Atom        81          82          83          84          85          86          87          88          89          90
 IAtWgt=           1           1           1           1           1           1           1           1           1           1
 AtmWgt=   1.0078250   1.0078250   1.0078250   1.0078250   1.0078250   1.0078250   1.0078250   1.0078250   1.0078250   1.0078250
 NucSpn=           1           1           1           1           1           1           1           1           1           1
 AtZEff=  -0.0000000  -0.0000000  -0.0000000  -0.0000000  -0.0000000  -0.0000000  -0.0000000  -0.0000000  -0.0000000  -0.0000000
 NQMom=    0.0000000   0.0000000   0.0000000   0.0000000   0.0000000   0.0000000   0.0000000   0.0000000   0.0000000   0.0000000
 NMagM=    2.7928460   2.7928460   2.7928460   2.7928460   2.7928460   2.7928460   2.7928460   2.7928460   2.7928460   2.7928460
 AtZNuc=   1.0000000   1.0000000   1.0000000   1.0000000   1.0000000   1.0000000   1.0000000   1.0000000   1.0000000   1.0000000

  Atom        91          92          93          94          95          96          97
 IAtWgt=           1           1           1           1           1           1           1
 AtmWgt=   1.0078250   1.0078250   1.0078250   1.0078250   1.0078250   1.0078250   1.0078250
 NucSpn=           1           1           1           1           1           1           1
 AtZEff=  -0.0000000  -0.0000000  -0.0000000  -0.0000000  -0.0000000  -0.0000000  -0.0000000
 NQMom=    0.0000000   0.0000000   0.0000000   0.0000000   0.0000000   0.0000000   0.0000000
 NMagM=    2.7928460   2.7928460   2.7928460   2.7928460   2.7928460   2.7928460   2.7928460
 AtZNuc=   1.0000000   1.0000000   1.0000000   1.0000000   1.0000000   1.0000000   1.0000000
 Leave Link  101 at Thu Jul 23 19:46:25 2020, MaxMem=  4026531840 cpu:               2.6 elap:               0.4
 (Enter /opt/ohpc/pub/libs/gaussian/g16-A.03/sandybridge/g16/l103.exe)

 GradGradGradGradGradGradGradGradGradGradGradGradGradGradGradGradGradGrad
 Berny optimization.
 Initialization pass.
                           ----------------------------
                           !    Initial Parameters    !
                           ! (Angstroms and Degrees)  !
 --------------------------                            --------------------------
 ! Name  Definition              Value          Derivative Info.                !
 --------------------------------------------------------------------------------
 ! R1    R(1,2)                  1.36           estimate D2E/DX2                !
 ! R2    R(1,6)                  1.3641         estimate D2E/DX2                !
 ! R3    R(1,66)                 1.0722         estimate D2E/DX2                !
 ! R4    R(2,3)                  1.4415         estimate D2E/DX2                !
 ! R5    R(2,67)                 1.1338         estimate D2E/DX2                !
 ! R6    R(3,4)                  1.3372         estimate D2E/DX2                !
 ! R7    R(3,68)                 1.0725         estimate D2E/DX2                !
 ! R8    R(4,5)                  1.3809         estimate D2E/DX2                !
 ! R9    R(4,7)                  1.4687         estimate D2E/DX2                !
 ! R10   R(5,6)                  1.3101         estimate D2E/DX2                !
 ! R11   R(6,69)                 1.0698         estimate D2E/DX2                !
 ! R12   R(7,8)                  1.4339         estimate D2E/DX2                !
 ! R13   R(7,12)                 1.4254         estimate D2E/DX2                !
 ! R14   R(8,9)                  1.3493         estimate D2E/DX2                !
 ! R15   R(8,70)                 1.1728         estimate D2E/DX2                !
 ! R16   R(9,10)                 1.4047         estimate D2E/DX2                !
 ! R17   R(9,71)                 1.0321         estimate D2E/DX2                !
 ! R18   R(10,11)                1.3783         estimate D2E/DX2                !
 ! R19   R(10,14)                1.4934         estimate D2E/DX2                !
 ! R20   R(11,12)                1.3832         estimate D2E/DX2                !
 ! R21   R(11,72)                1.1078         estimate D2E/DX2                !
 ! R22   R(12,13)                1.3441         estimate D2E/DX2                !
 ! R23   R(14,15)                1.4718         estimate D2E/DX2                !
 ! R24   R(14,19)                1.3394         estimate D2E/DX2                !
 ! R25   R(15,16)                1.4215         estimate D2E/DX2                !
 ! R26   R(15,73)                1.0653         estimate D2E/DX2                !
 ! R27   R(16,17)                1.3766         estimate D2E/DX2                !
 ! R28   R(16,74)                1.0683         estimate D2E/DX2                !
 ! R29   R(17,18)                1.3639         estimate D2E/DX2                !
 ! R30   R(17,20)                1.4082         estimate D2E/DX2                !
 ! R31   R(18,19)                1.4364         estimate D2E/DX2                !
 ! R32   R(19,75)                1.0755         estimate D2E/DX2                !
 ! R33   R(20,21)                1.3716         estimate D2E/DX2                !
 ! R34   R(20,25)                1.438          estimate D2E/DX2                !
 ! R35   R(21,22)                1.4697         estimate D2E/DX2                !
 ! R36   R(21,76)                1.1253         estimate D2E/DX2                !
 ! R37   R(22,23)                1.4166         estimate D2E/DX2                !
 ! R38   R(22,77)                1.038          estimate D2E/DX2                !
 ! R39   R(23,24)                1.3552         estimate D2E/DX2                !
 ! R40   R(23,27)                1.4955         estimate D2E/DX2                !
 ! R41   R(24,25)                1.4137         estimate D2E/DX2                !
 ! R42   R(24,78)                1.1433         estimate D2E/DX2                !
 ! R43   R(25,26)                1.3449         estimate D2E/DX2                !
 ! R44   R(27,28)                1.3378         estimate D2E/DX2                !
 ! R45   R(27,32)                1.4231         estimate D2E/DX2                !
 ! R46   R(28,29)                1.3763         estimate D2E/DX2                !
 ! R47   R(28,79)                1.1133         estimate D2E/DX2                !
 ! R48   R(29,30)                1.3856         estimate D2E/DX2                !
 ! R49   R(29,80)                1.1713         estimate D2E/DX2                !
 ! R50   R(30,31)                1.3559         estimate D2E/DX2                !
 ! R51   R(30,33)                1.45           estimate D2E/DX2                !
 ! R52   R(31,32)                1.2865         estimate D2E/DX2                !
 ! R53   R(32,81)                1.1624         estimate D2E/DX2                !
 ! R54   R(33,34)                1.3887         estimate D2E/DX2                !
 ! R55   R(33,38)                1.454          estimate D2E/DX2                !
 ! R56   R(34,35)                1.4167         estimate D2E/DX2                !
 ! R57   R(34,82)                1.1184         estimate D2E/DX2                !
 ! R58   R(35,36)                1.3836         estimate D2E/DX2                !
 ! R59   R(35,83)                1.0685         estimate D2E/DX2                !
 ! R60   R(36,37)                1.4248         estimate D2E/DX2                !
 ! R61   R(36,40)                1.3783         estimate D2E/DX2                !
 ! R62   R(37,38)                1.3868         estimate D2E/DX2                !
 ! R63   R(37,84)                1.1403         estimate D2E/DX2                !
 ! R64   R(38,39)                1.2866         estimate D2E/DX2                !
 ! R65   R(40,41)                1.4795         estimate D2E/DX2                !
 ! R66   R(40,45)                1.4094         estimate D2E/DX2                !
 ! R67   R(41,42)                1.4137         estimate D2E/DX2                !
 ! R68   R(41,85)                1.0516         estimate D2E/DX2                !
 ! R69   R(42,43)                1.4542         estimate D2E/DX2                !
 ! R70   R(42,86)                1.0746         estimate D2E/DX2                !
 ! R71   R(43,44)                1.3597         estimate D2E/DX2                !
 ! R72   R(43,46)                1.481          estimate D2E/DX2                !
 ! R73   R(44,45)                1.3089         estimate D2E/DX2                !
 ! R74   R(45,87)                1.148          estimate D2E/DX2                !
 ! R75   R(46,47)                1.4102         estimate D2E/DX2                !
 ! R76   R(46,51)                1.4321         estimate D2E/DX2                !
 ! R77   R(47,48)                1.4017         estimate D2E/DX2                !
 ! R78   R(47,88)                1.1063         estimate D2E/DX2                !
 ! R79   R(48,49)                1.3986         estimate D2E/DX2                !
 ! R80   R(48,89)                1.0731         estimate D2E/DX2                !
 ! R81   R(49,50)                1.4685         estimate D2E/DX2                !
 ! R82   R(49,53)                1.4438         estimate D2E/DX2                !
 ! R83   R(50,51)                1.3901         estimate D2E/DX2                !
 ! R84   R(50,90)                1.0416         estimate D2E/DX2                !
 ! R85   R(51,52)                1.3198         estimate D2E/DX2                !
 ! R86   R(53,54)                1.3539         estimate D2E/DX2                !
 ! R87   R(53,58)                1.3844         estimate D2E/DX2                !
 ! R88   R(54,55)                1.4246         estimate D2E/DX2                !
 ! R89   R(54,91)                1.137          estimate D2E/DX2                !
 ! R90   R(55,56)                1.4176         estimate D2E/DX2                !
 ! R91   R(55,92)                1.0565         estimate D2E/DX2                !
 ! R92   R(56,57)                1.2975         estimate D2E/DX2                !
 ! R93   R(56,59)                1.4837         estimate D2E/DX2                !
 ! R94   R(57,58)                1.4195         estimate D2E/DX2                !
 ! R95   R(58,93)                1.0635         estimate D2E/DX2                !
 ! R96   R(59,60)                1.3793         estimate D2E/DX2                !
 ! R97   R(59,64)                1.399          estimate D2E/DX2                !
 ! R98   R(60,61)                1.3535         estimate D2E/DX2                !
 ! R99   R(60,94)                1.0848         estimate D2E/DX2                !
 ! R100  R(61,62)                1.4352         estimate D2E/DX2                !
 ! R101  R(61,95)                1.0799         estimate D2E/DX2                !
 ! R102  R(62,63)                1.4365         estimate D2E/DX2                !
 ! R103  R(62,96)                1.0912         estimate D2E/DX2                !
 ! R104  R(63,64)                1.433          estimate D2E/DX2                !
 ! R105  R(63,97)                1.0605         estimate D2E/DX2                !
 ! R106  R(64,65)                1.3857         estimate D2E/DX2                !
 ! A1    A(2,1,6)              118.9253         estimate D2E/DX2                !
 ! A2    A(2,1,66)             117.9695         estimate D2E/DX2                !
 ! A3    A(6,1,66)             123.0698         estimate D2E/DX2                !
 ! A4    A(1,2,3)              118.4355         estimate D2E/DX2                !
 ! A5    A(1,2,67)             120.8731         estimate D2E/DX2                !
 ! A6    A(3,2,67)             120.5254         estimate D2E/DX2                !
 ! A7    A(2,3,4)              115.9949         estimate D2E/DX2                !
 ! A8    A(2,3,68)             120.1128         estimate D2E/DX2                !
 ! A9    A(4,3,68)             123.8823         estimate D2E/DX2                !
 ! A10   A(3,4,5)              126.6771         estimate D2E/DX2                !
 ! A11   A(3,4,7)              118.5726         estimate D2E/DX2                !
 ! A12   A(5,4,7)              114.6909         estimate D2E/DX2                !
 ! A13   A(4,5,6)              113.6453         estimate D2E/DX2                !
 ! A14   A(1,6,5)              126.2272         estimate D2E/DX2                !
 ! A15   A(1,6,69)             121.4313         estimate D2E/DX2                !
 ! A16   A(5,6,69)             112.0956         estimate D2E/DX2                !
 ! A17   A(4,7,8)              122.5127         estimate D2E/DX2                !
 ! A18   A(4,7,12)             123.9547         estimate D2E/DX2                !
 ! A19   A(8,7,12)             113.5277         estimate D2E/DX2                !
 ! A20   A(7,8,9)              126.5906         estimate D2E/DX2                !
 ! A21   A(7,8,70)             117.3818         estimate D2E/DX2                !
 ! A22   A(9,8,70)             115.8318         estimate D2E/DX2                !
 ! A23   A(8,9,10)             117.2787         estimate D2E/DX2                !
 ! A24   A(8,9,71)             123.3528         estimate D2E/DX2                !
 ! A25   A(10,9,71)            119.2368         estimate D2E/DX2                !
 ! A26   A(9,10,11)            119.4268         estimate D2E/DX2                !
 ! A27   A(9,10,14)            120.2176         estimate D2E/DX2                !
 ! A28   A(11,10,14)           120.3028         estimate D2E/DX2                !
 ! A29   A(10,11,12)           122.7042         estimate D2E/DX2                !
 ! A30   A(10,11,72)           123.6872         estimate D2E/DX2                !
 ! A31   A(12,11,72)           113.5934         estimate D2E/DX2                !
 ! A32   A(7,12,11)            120.397          estimate D2E/DX2                !
 ! A33   A(7,12,13)            117.081          estimate D2E/DX2                !
 ! A34   A(11,12,13)           122.5178         estimate D2E/DX2                !
 ! A35   A(10,14,15)           118.9027         estimate D2E/DX2                !
 ! A36   A(10,14,19)           122.0581         estimate D2E/DX2                !
 ! A37   A(15,14,19)           119.0161         estimate D2E/DX2                !
 ! A38   A(14,15,16)           117.6475         estimate D2E/DX2                !
 ! A39   A(14,15,73)           118.79           estimate D2E/DX2                !
 ! A40   A(16,15,73)           123.5294         estimate D2E/DX2                !
 ! A41   A(15,16,17)           119.821          estimate D2E/DX2                !
 ! A42   A(15,16,74)           116.5071         estimate D2E/DX2                !
 ! A43   A(17,16,74)           123.5639         estimate D2E/DX2                !
 ! A44   A(16,17,18)           123.1324         estimate D2E/DX2                !
 ! A45   A(16,17,20)           122.4308         estimate D2E/DX2                !
 ! A46   A(18,17,20)           114.3847         estimate D2E/DX2                !
 ! A47   A(17,18,19)           117.516          estimate D2E/DX2                !
 ! A48   A(14,19,18)           122.6087         estimate D2E/DX2                !
 ! A49   A(14,19,75)           125.9601         estimate D2E/DX2                !
 ! A50   A(18,19,75)           110.9708         estimate D2E/DX2                !
 ! A51   A(17,20,21)           120.7479         estimate D2E/DX2                !
 ! A52   A(17,20,25)           121.8462         estimate D2E/DX2                !
 ! A53   A(21,20,25)           117.338          estimate D2E/DX2                !
 ! A54   A(20,21,22)           123.6699         estimate D2E/DX2                !
 ! A55   A(20,21,76)           121.4839         estimate D2E/DX2                !
 ! A56   A(22,21,76)           114.8364         estimate D2E/DX2                !
 ! A57   A(21,22,23)           115.9095         estimate D2E/DX2                !
 ! A58   A(21,22,77)           117.6876         estimate D2E/DX2                !
 ! A59   A(23,22,77)           126.1562         estimate D2E/DX2                !
 ! A60   A(22,23,24)           120.9775         estimate D2E/DX2                !
 ! A61   A(22,23,27)           116.0468         estimate D2E/DX2                !
 ! A62   A(24,23,27)           122.8305         estimate D2E/DX2                !
 ! A63   A(23,24,25)           122.6405         estimate D2E/DX2                !
 ! A64   A(23,24,78)           123.1695         estimate D2E/DX2                !
 ! A65   A(25,24,78)           114.0491         estimate D2E/DX2                !
 ! A66   A(20,25,24)           119.3796         estimate D2E/DX2                !
 ! A67   A(20,25,26)           119.6189         estimate D2E/DX2                !
 ! A68   A(24,25,26)           120.9566         estimate D2E/DX2                !
 ! A69   A(23,27,28)           122.9702         estimate D2E/DX2                !
 ! A70   A(23,27,32)           122.1003         estimate D2E/DX2                !
 ! A71   A(28,27,32)           114.7421         estimate D2E/DX2                !
 ! A72   A(27,28,29)           120.7586         estimate D2E/DX2                !
 ! A73   A(27,28,79)           117.5249         estimate D2E/DX2                !
 ! A74   A(29,28,79)           121.6527         estimate D2E/DX2                !
 ! A75   A(28,29,30)           119.9817         estimate D2E/DX2                !
 ! A76   A(28,29,80)           121.0228         estimate D2E/DX2                !
 ! A77   A(30,29,80)           118.9835         estimate D2E/DX2                !
 ! A78   A(29,30,31)           120.4063         estimate D2E/DX2                !
 ! A79   A(29,30,33)           123.2541         estimate D2E/DX2                !
 ! A80   A(31,30,33)           115.8969         estimate D2E/DX2                !
 ! A81   A(30,31,32)           116.495          estimate D2E/DX2                !
 ! A82   A(27,32,31)           126.7349         estimate D2E/DX2                !
 ! A83   A(27,32,81)           117.7612         estimate D2E/DX2                !
 ! A84   A(31,32,81)           114.9555         estimate D2E/DX2                !
 ! A85   A(30,33,34)           124.2756         estimate D2E/DX2                !
 ! A86   A(30,33,38)           119.8443         estimate D2E/DX2                !
 ! A87   A(34,33,38)           115.8761         estimate D2E/DX2                !
 ! A88   A(33,34,35)           122.2676         estimate D2E/DX2                !
 ! A89   A(33,34,82)           121.2107         estimate D2E/DX2                !
 ! A90   A(35,34,82)           116.5217         estimate D2E/DX2                !
 ! A91   A(34,35,36)           123.6489         estimate D2E/DX2                !
 ! A92   A(34,35,83)           116.5476         estimate D2E/DX2                !
 ! A93   A(36,35,83)           119.7881         estimate D2E/DX2                !
 ! A94   A(35,36,37)           113.4024         estimate D2E/DX2                !
 ! A95   A(35,36,40)           123.5468         estimate D2E/DX2                !
 ! A96   A(37,36,40)           122.7619         estimate D2E/DX2                !
 ! A97   A(36,37,38)           125.3339         estimate D2E/DX2                !
 ! A98   A(36,37,84)           119.173          estimate D2E/DX2                !
 ! A99   A(38,37,84)           115.317          estimate D2E/DX2                !
 ! A100  A(33,38,37)           119.1274         estimate D2E/DX2                !
 ! A101  A(33,38,39)           120.7464         estimate D2E/DX2                !
 ! A102  A(37,38,39)           120.0814         estimate D2E/DX2                !
 ! A103  A(36,40,41)           123.0065         estimate D2E/DX2                !
 ! A104  A(36,40,45)           125.167          estimate D2E/DX2                !
 ! A105  A(41,40,45)           111.8248         estimate D2E/DX2                !
 ! A106  A(40,41,42)           121.6199         estimate D2E/DX2                !
 ! A107  A(40,41,85)           114.7832         estimate D2E/DX2                !
 ! A108  A(42,41,85)           123.5856         estimate D2E/DX2                !
 ! A109  A(41,42,43)           117.4069         estimate D2E/DX2                !
 ! A110  A(41,42,86)           117.3219         estimate D2E/DX2                !
 ! A111  A(43,42,86)           125.2555         estimate D2E/DX2                !
 ! A112  A(42,43,44)           120.9733         estimate D2E/DX2                !
 ! A113  A(42,43,46)           119.9409         estimate D2E/DX2                !
 ! A114  A(44,43,46)           118.9614         estimate D2E/DX2                !
 ! A115  A(43,44,45)           119.1034         estimate D2E/DX2                !
 ! A116  A(40,45,44)           128.9346         estimate D2E/DX2                !
 ! A117  A(40,45,87)           119.0826         estimate D2E/DX2                !
 ! A118  A(44,45,87)           111.5205         estimate D2E/DX2                !
 ! A119  A(43,46,47)           121.2579         estimate D2E/DX2                !
 ! A120  A(43,46,51)           121.623          estimate D2E/DX2                !
 ! A121  A(47,46,51)           117.1084         estimate D2E/DX2                !
 ! A122  A(46,47,48)           120.5392         estimate D2E/DX2                !
 ! A123  A(46,47,88)           117.8039         estimate D2E/DX2                !
 ! A124  A(48,47,88)           121.5031         estimate D2E/DX2                !
 ! A125  A(47,48,49)           123.6042         estimate D2E/DX2                !
 ! A126  A(47,48,89)           113.4956         estimate D2E/DX2                !
 ! A127  A(49,48,89)           122.7093         estimate D2E/DX2                !
 ! A128  A(48,49,50)           115.903          estimate D2E/DX2                !
 ! A129  A(48,49,53)           126.0754         estimate D2E/DX2                !
 ! A130  A(50,49,53)           118.021          estimate D2E/DX2                !
 ! A131  A(49,50,51)           119.9691         estimate D2E/DX2                !
 ! A132  A(49,50,90)           121.4845         estimate D2E/DX2                !
 ! A133  A(51,50,90)           117.803          estimate D2E/DX2                !
 ! A134  A(46,51,50)           122.335          estimate D2E/DX2                !
 ! A135  A(46,51,52)           122.2179         estimate D2E/DX2                !
 ! A136  A(50,51,52)           114.6489         estimate D2E/DX2                !
 ! A137  A(49,53,54)           124.8246         estimate D2E/DX2                !
 ! A138  A(49,53,58)           118.3441         estimate D2E/DX2                !
 ! A139  A(54,53,58)           116.4411         estimate D2E/DX2                !
 ! A140  A(53,54,55)           124.918          estimate D2E/DX2                !
 ! A141  A(53,54,91)           116.8335         estimate D2E/DX2                !
 ! A142  A(55,54,91)           118.1048         estimate D2E/DX2                !
 ! A143  A(54,55,56)           114.2991         estimate D2E/DX2                !
 ! A144  A(54,55,92)           119.0622         estimate D2E/DX2                !
 ! A145  A(56,55,92)           126.6137         estimate D2E/DX2                !
 ! A146  A(55,56,57)           122.5661         estimate D2E/DX2                !
 ! A147  A(55,56,59)           118.37           estimate D2E/DX2                !
 ! A148  A(57,56,59)           119.0383         estimate D2E/DX2                !
 ! A149  A(56,57,58)           120.8811         estimate D2E/DX2                !
 ! A150  A(53,58,57)           120.512          estimate D2E/DX2                !
 ! A151  A(53,58,93)           123.6306         estimate D2E/DX2                !
 ! A152  A(57,58,93)           115.8354         estimate D2E/DX2                !
 ! A153  A(56,59,60)           123.3172         estimate D2E/DX2                !
 ! A154  A(56,59,64)           119.7098         estimate D2E/DX2                !
 ! A155  A(60,59,64)           116.9319         estimate D2E/DX2                !
 ! A156  A(59,60,61)           124.9            estimate D2E/DX2                !
 ! A157  A(59,60,94)           117.2838         estimate D2E/DX2                !
 ! A158  A(61,60,94)           117.8119         estimate D2E/DX2                !
 ! A159  A(60,61,62)           118.84           estimate D2E/DX2                !
 ! A160  A(60,61,95)           121.808          estimate D2E/DX2                !
 ! A161  A(62,61,95)           119.0785         estimate D2E/DX2                !
 ! A162  A(61,62,63)           119.8005         estimate D2E/DX2                !
 ! A163  A(61,62,96)           120.7446         estimate D2E/DX2                !
 ! A164  A(63,62,96)           119.3849         estimate D2E/DX2                !
 ! A165  A(62,63,64)           116.5747         estimate D2E/DX2                !
 ! A166  A(62,63,97)           123.016          estimate D2E/DX2                !
 ! A167  A(64,63,97)           120.2542         estimate D2E/DX2                !
 ! A168  A(59,64,63)           122.8773         estimate D2E/DX2                !
 ! A169  A(59,64,65)           121.3482         estimate D2E/DX2                !
 ! A170  A(63,64,65)           115.6126         estimate D2E/DX2                !
 ! D1    D(6,1,2,3)              3.2933         estimate D2E/DX2                !
 ! D2    D(6,1,2,67)           178.634          estimate D2E/DX2                !
 ! D3    D(66,1,2,3)          -174.6116         estimate D2E/DX2                !
 ! D4    D(66,1,2,67)            0.7291         estimate D2E/DX2                !
 ! D5    D(2,1,6,5)             -3.5529         estimate D2E/DX2                !
 ! D6    D(2,1,6,69)          -177.3944         estimate D2E/DX2                !
 ! D7    D(66,1,6,5)           174.2389         estimate D2E/DX2                !
 ! D8    D(66,1,6,69)            0.3974         estimate D2E/DX2                !
 ! D9    D(1,2,3,4)             -2.1477         estimate D2E/DX2                !
 ! D10   D(1,2,3,68)           178.9524         estimate D2E/DX2                !
 ! D11   D(67,2,3,4)          -177.5053         estimate D2E/DX2                !
 ! D12   D(67,2,3,68)            3.5949         estimate D2E/DX2                !
 ! D13   D(2,3,4,5)              1.0134         estimate D2E/DX2                !
 ! D14   D(2,3,4,7)           -176.0219         estimate D2E/DX2                !
 ! D15   D(68,3,4,5)           179.867          estimate D2E/DX2                !
 ! D16   D(68,3,4,7)             2.8317         estimate D2E/DX2                !
 ! D17   D(3,4,5,6)             -0.9752         estimate D2E/DX2                !
 ! D18   D(7,4,5,6)            176.1592         estimate D2E/DX2                !
 ! D19   D(3,4,7,8)             89.1507         estimate D2E/DX2                !
 ! D20   D(3,4,7,12)           -89.9875         estimate D2E/DX2                !
 ! D21   D(5,4,7,8)            -88.2325         estimate D2E/DX2                !
 ! D22   D(5,4,7,12)            92.6293         estimate D2E/DX2                !
 ! D23   D(4,5,6,1)              2.2315         estimate D2E/DX2                !
 ! D24   D(4,5,6,69)           176.5618         estimate D2E/DX2                !
 ! D25   D(4,7,8,9)            178.1375         estimate D2E/DX2                !
 ! D26   D(4,7,8,70)             3.46           estimate D2E/DX2                !
 ! D27   D(12,7,8,9)            -2.6422         estimate D2E/DX2                !
 ! D28   D(12,7,8,70)         -177.3198         estimate D2E/DX2                !
 ! D29   D(4,7,12,11)         -179.0109         estimate D2E/DX2                !
 ! D30   D(4,7,12,13)            1.7075         estimate D2E/DX2                !
 ! D31   D(8,7,12,11)            1.7818         estimate D2E/DX2                !
 ! D32   D(8,7,12,13)         -177.4998         estimate D2E/DX2                !
 ! D33   D(7,8,9,10)             2.9305         estimate D2E/DX2                !
 ! D34   D(7,8,9,71)           178.7191         estimate D2E/DX2                !
 ! D35   D(70,8,9,10)          177.6799         estimate D2E/DX2                !
 ! D36   D(70,8,9,71)           -6.5315         estimate D2E/DX2                !
 ! D37   D(8,9,10,11)           -2.2939         estimate D2E/DX2                !
 ! D38   D(8,9,10,14)         -179.6601         estimate D2E/DX2                !
 ! D39   D(71,9,10,11)        -178.2629         estimate D2E/DX2                !
 ! D40   D(71,9,10,14)           4.371          estimate D2E/DX2                !
 ! D41   D(9,10,11,12)           1.7319         estimate D2E/DX2                !
 ! D42   D(9,10,11,72)        -179.7773         estimate D2E/DX2                !
 ! D43   D(14,10,11,12)        179.0957         estimate D2E/DX2                !
 ! D44   D(14,10,11,72)         -2.4134         estimate D2E/DX2                !
 ! D45   D(9,10,14,15)        -121.3965         estimate D2E/DX2                !
 ! D46   D(9,10,14,19)          60.3718         estimate D2E/DX2                !
 ! D47   D(11,10,14,15)         61.2606         estimate D2E/DX2                !
 ! D48   D(11,10,14,19)       -116.9712         estimate D2E/DX2                !
 ! D49   D(10,11,12,7)          -1.534          estimate D2E/DX2                !
 ! D50   D(10,11,12,13)        177.7074         estimate D2E/DX2                !
 ! D51   D(72,11,12,7)         179.8362         estimate D2E/DX2                !
 ! D52   D(72,11,12,13)         -0.9224         estimate D2E/DX2                !
 ! D53   D(10,14,15,16)        177.838          estimate D2E/DX2                !
 ! D54   D(10,14,15,73)         -0.1464         estimate D2E/DX2                !
 ! D55   D(19,14,15,16)         -3.8757         estimate D2E/DX2                !
 ! D56   D(19,14,15,73)        178.1399         estimate D2E/DX2                !
 ! D57   D(10,14,19,18)       -176.3397         estimate D2E/DX2                !
 ! D58   D(10,14,19,75)         -4.8409         estimate D2E/DX2                !
 ! D59   D(15,14,19,18)          5.4305         estimate D2E/DX2                !
 ! D60   D(15,14,19,75)        176.9293         estimate D2E/DX2                !
 ! D61   D(14,15,16,17)          2.3739         estimate D2E/DX2                !
 ! D62   D(14,15,16,74)        178.7304         estimate D2E/DX2                !
 ! D63   D(73,15,16,17)       -179.7453         estimate D2E/DX2                !
 ! D64   D(73,15,16,74)         -3.3887         estimate D2E/DX2                !
 ! D65   D(15,16,17,18)         -2.4908         estimate D2E/DX2                !
 ! D66   D(15,16,17,20)       -179.715          estimate D2E/DX2                !
 ! D67   D(74,16,17,18)       -178.5776         estimate D2E/DX2                !
 ! D68   D(74,16,17,20)          4.1982         estimate D2E/DX2                !
 ! D69   D(16,17,18,19)          3.7295         estimate D2E/DX2                !
 ! D70   D(20,17,18,19)       -178.8427         estimate D2E/DX2                !
 ! D71   D(16,17,20,21)         69.3967         estimate D2E/DX2                !
 ! D72   D(16,17,20,25)       -113.6813         estimate D2E/DX2                !
 ! D73   D(18,17,20,21)       -108.0513         estimate D2E/DX2                !
 ! D74   D(18,17,20,25)         68.8707         estimate D2E/DX2                !
 ! D75   D(17,18,19,14)         -5.3366         estimate D2E/DX2                !
 ! D76   D(17,18,19,75)       -177.9742         estimate D2E/DX2                !
 ! D77   D(17,20,21,22)        177.9824         estimate D2E/DX2                !
 ! D78   D(17,20,21,76)         -0.8238         estimate D2E/DX2                !
 ! D79   D(25,20,21,22)          0.9257         estimate D2E/DX2                !
 ! D80   D(25,20,21,76)       -177.8805         estimate D2E/DX2                !
 ! D81   D(17,20,25,24)       -178.9242         estimate D2E/DX2                !
 ! D82   D(17,20,25,26)         -1.336          estimate D2E/DX2                !
 ! D83   D(21,20,25,24)         -1.902          estimate D2E/DX2                !
 ! D84   D(21,20,25,26)        175.6862         estimate D2E/DX2                !
 ! D85   D(20,21,22,23)          1.5694         estimate D2E/DX2                !
 ! D86   D(20,21,22,77)        176.2186         estimate D2E/DX2                !
 ! D87   D(76,21,22,23)       -179.5524         estimate D2E/DX2                !
 ! D88   D(76,21,22,77)         -4.9032         estimate D2E/DX2                !
 ! D89   D(21,22,23,24)         -3.1985         estimate D2E/DX2                !
 ! D90   D(21,22,23,27)       -178.939          estimate D2E/DX2                !
 ! D91   D(77,22,23,24)       -177.3285         estimate D2E/DX2                !
 ! D92   D(77,22,23,27)          6.931          estimate D2E/DX2                !
 ! D93   D(22,23,24,25)          2.3688         estimate D2E/DX2                !
 ! D94   D(22,23,24,78)       -173.0579         estimate D2E/DX2                !
 ! D95   D(27,23,24,25)        177.8139         estimate D2E/DX2                !
 ! D96   D(27,23,24,78)          2.3873         estimate D2E/DX2                !
 ! D97   D(22,23,27,28)       -116.7528         estimate D2E/DX2                !
 ! D98   D(22,23,27,32)         68.4847         estimate D2E/DX2                !
 ! D99   D(24,23,27,28)         67.5935         estimate D2E/DX2                !
 ! D100  D(24,23,27,32)       -107.169          estimate D2E/DX2                !
 ! D101  D(23,24,25,20)          0.3129         estimate D2E/DX2                !
 ! D102  D(23,24,25,26)       -177.2422         estimate D2E/DX2                !
 ! D103  D(78,24,25,20)        176.1215         estimate D2E/DX2                !
 ! D104  D(78,24,25,26)         -1.4336         estimate D2E/DX2                !
 ! D105  D(23,27,28,29)       -175.9546         estimate D2E/DX2                !
 ! D106  D(23,27,28,79)          1.1874         estimate D2E/DX2                !
 ! D107  D(32,27,28,29)         -0.839          estimate D2E/DX2                !
 ! D108  D(32,27,28,79)        176.303          estimate D2E/DX2                !
 ! D109  D(23,27,32,31)       -178.096          estimate D2E/DX2                !
 ! D110  D(23,27,32,81)         -7.0581         estimate D2E/DX2                !
 ! D111  D(28,27,32,31)          6.7412         estimate D2E/DX2                !
 ! D112  D(28,27,32,81)        177.779          estimate D2E/DX2                !
 ! D113  D(27,28,29,30)          0.4773         estimate D2E/DX2                !
 ! D114  D(27,28,29,80)        179.2048         estimate D2E/DX2                !
 ! D115  D(79,28,29,30)       -176.5451         estimate D2E/DX2                !
 ! D116  D(79,28,29,80)          2.1824         estimate D2E/DX2                !
 ! D117  D(28,29,30,31)         -5.1701         estimate D2E/DX2                !
 ! D118  D(28,29,30,33)       -177.2174         estimate D2E/DX2                !
 ! D119  D(80,29,30,31)        176.0765         estimate D2E/DX2                !
 ! D120  D(80,29,30,33)          4.0292         estimate D2E/DX2                !
 ! D121  D(29,30,31,32)         10.1086         estimate D2E/DX2                !
 ! D122  D(33,30,31,32)       -177.2808         estimate D2E/DX2                !
 ! D123  D(29,30,33,34)         73.9933         estimate D2E/DX2                !
 ! D124  D(29,30,33,38)       -105.2481         estimate D2E/DX2                !
 ! D125  D(31,30,33,34)        -98.3842         estimate D2E/DX2                !
 ! D126  D(31,30,33,38)         82.3744         estimate D2E/DX2                !
 ! D127  D(30,31,32,27)        -11.3152         estimate D2E/DX2                !
 ! D128  D(30,31,32,81)        177.4304         estimate D2E/DX2                !
 ! D129  D(30,33,34,35)        178.8933         estimate D2E/DX2                !
 ! D130  D(30,33,34,82)         -1.0732         estimate D2E/DX2                !
 ! D131  D(38,33,34,35)         -1.8381         estimate D2E/DX2                !
 ! D132  D(38,33,34,82)        178.1955         estimate D2E/DX2                !
 ! D133  D(30,33,38,37)       -175.4177         estimate D2E/DX2                !
 ! D134  D(30,33,38,39)          2.1518         estimate D2E/DX2                !
 ! D135  D(34,33,38,37)          5.279          estimate D2E/DX2                !
 ! D136  D(34,33,38,39)       -177.1515         estimate D2E/DX2                !
 ! D137  D(33,34,35,36)          0.0363         estimate D2E/DX2                !
 ! D138  D(33,34,35,83)        178.605          estimate D2E/DX2                !
 ! D139  D(82,34,35,36)       -179.9958         estimate D2E/DX2                !
 ! D140  D(82,34,35,83)         -1.427          estimate D2E/DX2                !
 ! D141  D(34,35,36,37)         -1.5145         estimate D2E/DX2                !
 ! D142  D(34,35,36,40)       -175.4834         estimate D2E/DX2                !
 ! D143  D(83,35,36,37)        179.9608         estimate D2E/DX2                !
 ! D144  D(83,35,36,40)          5.9919         estimate D2E/DX2                !
 ! D145  D(35,36,37,38)          5.3919         estimate D2E/DX2                !
 ! D146  D(35,36,37,84)       -179.669          estimate D2E/DX2                !
 ! D147  D(40,36,37,38)        179.4148         estimate D2E/DX2                !
 ! D148  D(40,36,37,84)         -5.6462         estimate D2E/DX2                !
 ! D149  D(35,36,40,41)         40.0708         estimate D2E/DX2                !
 ! D150  D(35,36,40,45)       -140.4293         estimate D2E/DX2                !
 ! D151  D(37,36,40,41)       -133.345          estimate D2E/DX2                !
 ! D152  D(37,36,40,45)         46.155          estimate D2E/DX2                !
 ! D153  D(36,37,38,33)         -7.5005         estimate D2E/DX2                !
 ! D154  D(36,37,38,39)        174.9135         estimate D2E/DX2                !
 ! D155  D(84,37,38,33)        177.3876         estimate D2E/DX2                !
 ! D156  D(84,37,38,39)         -0.1984         estimate D2E/DX2                !
 ! D157  D(36,40,41,42)        177.7587         estimate D2E/DX2                !
 ! D158  D(36,40,41,85)         -1.0615         estimate D2E/DX2                !
 ! D159  D(45,40,41,42)         -1.801          estimate D2E/DX2                !
 ! D160  D(45,40,41,85)        179.3789         estimate D2E/DX2                !
 ! D161  D(36,40,45,44)       -175.1338         estimate D2E/DX2                !
 ! D162  D(36,40,45,87)         -3.6498         estimate D2E/DX2                !
 ! D163  D(41,40,45,44)          4.4145         estimate D2E/DX2                !
 ! D164  D(41,40,45,87)        175.8984         estimate D2E/DX2                !
 ! D165  D(40,41,42,43)         -0.1843         estimate D2E/DX2                !
 ! D166  D(40,41,42,86)        178.4521         estimate D2E/DX2                !
 ! D167  D(85,41,42,43)        178.5298         estimate D2E/DX2                !
 ! D168  D(85,41,42,86)         -2.8338         estimate D2E/DX2                !
 ! D169  D(41,42,43,44)          0.3207         estimate D2E/DX2                !
 ! D170  D(41,42,43,46)       -175.5823         estimate D2E/DX2                !
 ! D171  D(86,42,43,44)       -178.1957         estimate D2E/DX2                !
 ! D172  D(86,42,43,46)          5.9014         estimate D2E/DX2                !
 ! D173  D(42,43,44,45)          1.8008         estimate D2E/DX2                !
 ! D174  D(46,43,44,45)        177.7432         estimate D2E/DX2                !
 ! D175  D(42,43,46,47)        148.4566         estimate D2E/DX2                !
 ! D176  D(42,43,46,51)        -32.7694         estimate D2E/DX2                !
 ! D177  D(44,43,46,47)        -27.5287         estimate D2E/DX2                !
 ! D178  D(44,43,46,51)        151.2454         estimate D2E/DX2                !
 ! D179  D(43,44,45,40)         -4.5557         estimate D2E/DX2                !
 ! D180  D(43,44,45,87)       -176.5591         estimate D2E/DX2                !
 ! D181  D(43,46,47,48)       -177.724          estimate D2E/DX2                !
 ! D182  D(43,46,47,88)         -2.1641         estimate D2E/DX2                !
 ! D183  D(51,46,47,48)          3.4487         estimate D2E/DX2                !
 ! D184  D(51,46,47,88)        179.0087         estimate D2E/DX2                !
 ! D185  D(43,46,51,50)       -175.5228         estimate D2E/DX2                !
 ! D186  D(43,46,51,52)         -6.3053         estimate D2E/DX2                !
 ! D187  D(47,46,51,50)          3.2999         estimate D2E/DX2                !
 ! D188  D(47,46,51,52)        172.5173         estimate D2E/DX2                !
 ! D189  D(46,47,48,49)         -5.7961         estimate D2E/DX2                !
 ! D190  D(46,47,48,89)        179.1128         estimate D2E/DX2                !
 ! D191  D(88,47,48,49)        178.8106         estimate D2E/DX2                !
 ! D192  D(88,47,48,89)          3.7195         estimate D2E/DX2                !
 ! D193  D(47,48,49,50)          1.277          estimate D2E/DX2                !
 ! D194  D(47,48,49,53)       -179.0047         estimate D2E/DX2                !
 ! D195  D(89,48,49,50)        175.9254         estimate D2E/DX2                !
 ! D196  D(89,48,49,53)         -4.3564         estimate D2E/DX2                !
 ! D197  D(48,49,50,51)          5.4045         estimate D2E/DX2                !
 ! D198  D(48,49,50,90)        175.309          estimate D2E/DX2                !
 ! D199  D(53,49,50,51)       -174.3376         estimate D2E/DX2                !
 ! D200  D(53,49,50,90)         -4.433          estimate D2E/DX2                !
 ! D201  D(48,49,53,54)       -128.1043         estimate D2E/DX2                !
 ! D202  D(48,49,53,58)         44.4525         estimate D2E/DX2                !
 ! D203  D(50,49,53,54)         51.6086         estimate D2E/DX2                !
 ! D204  D(50,49,53,58)       -135.8346         estimate D2E/DX2                !
 ! D205  D(49,50,51,46)         -7.8204         estimate D2E/DX2                !
 ! D206  D(49,50,51,52)       -177.7915         estimate D2E/DX2                !
 ! D207  D(90,50,51,46)       -178.0912         estimate D2E/DX2                !
 ! D208  D(90,50,51,52)         11.9376         estimate D2E/DX2                !
 ! D209  D(49,53,54,55)        179.53           estimate D2E/DX2                !
 ! D210  D(49,53,54,91)         -4.925          estimate D2E/DX2                !
 ! D211  D(58,53,54,55)          6.8456         estimate D2E/DX2                !
 ! D212  D(58,53,54,91)       -177.6094         estimate D2E/DX2                !
 ! D213  D(49,53,58,57)       -178.6647         estimate D2E/DX2                !
 ! D214  D(49,53,58,93)          3.1133         estimate D2E/DX2                !
 ! D215  D(54,53,58,57)         -5.4857         estimate D2E/DX2                !
 ! D216  D(54,53,58,93)        176.2923         estimate D2E/DX2                !
 ! D217  D(53,54,55,56)         -2.984          estimate D2E/DX2                !
 ! D218  D(53,54,55,92)        178.7162         estimate D2E/DX2                !
 ! D219  D(91,54,55,56)       -178.4772         estimate D2E/DX2                !
 ! D220  D(91,54,55,92)          3.223          estimate D2E/DX2                !
 ! D221  D(54,55,56,57)         -2.5931         estimate D2E/DX2                !
 ! D222  D(54,55,56,59)        179.2633         estimate D2E/DX2                !
 ! D223  D(92,55,56,57)        175.5554         estimate D2E/DX2                !
 ! D224  D(92,55,56,59)         -2.5882         estimate D2E/DX2                !
 ! D225  D(55,56,57,58)          3.773          estimate D2E/DX2                !
 ! D226  D(59,56,57,58)       -178.0953         estimate D2E/DX2                !
 ! D227  D(55,56,59,60)        -53.9606         estimate D2E/DX2                !
 ! D228  D(55,56,59,64)        128.4449         estimate D2E/DX2                !
 ! D229  D(57,56,59,60)        127.8288         estimate D2E/DX2                !
 ! D230  D(57,56,59,64)        -49.7657         estimate D2E/DX2                !
 ! D231  D(56,57,58,53)          0.4297         estimate D2E/DX2                !
 ! D232  D(56,57,58,93)        178.7849         estimate D2E/DX2                !
 ! D233  D(56,59,60,61)        179.9471         estimate D2E/DX2                !
 ! D234  D(56,59,60,94)          0.7259         estimate D2E/DX2                !
 ! D235  D(64,59,60,61)         -2.3964         estimate D2E/DX2                !
 ! D236  D(64,59,60,94)        178.3825         estimate D2E/DX2                !
 ! D237  D(56,59,64,63)       -178.8894         estimate D2E/DX2                !
 ! D238  D(56,59,64,65)         -3.7192         estimate D2E/DX2                !
 ! D239  D(60,59,64,63)          3.3652         estimate D2E/DX2                !
 ! D240  D(60,59,64,65)        178.5354         estimate D2E/DX2                !
 ! D241  D(59,60,61,62)          0.8055         estimate D2E/DX2                !
 ! D242  D(59,60,61,95)        174.7409         estimate D2E/DX2                !
 ! D243  D(94,60,61,62)       -179.9772         estimate D2E/DX2                !
 ! D244  D(94,60,61,95)         -6.0417         estimate D2E/DX2                !
 ! D245  D(60,61,62,63)         -0.0734         estimate D2E/DX2                !
 ! D246  D(60,61,62,96)        176.8663         estimate D2E/DX2                !
 ! D247  D(95,61,62,63)       -174.1769         estimate D2E/DX2                !
 ! D248  D(95,61,62,96)          2.7628         estimate D2E/DX2                !
 ! D249  D(61,62,63,64)          0.9855         estimate D2E/DX2                !
 ! D250  D(61,62,63,97)        176.461          estimate D2E/DX2                !
 ! D251  D(96,62,63,64)       -175.9961         estimate D2E/DX2                !
 ! D252  D(96,62,63,97)         -0.5206         estimate D2E/DX2                !
 ! D253  D(62,63,64,59)         -2.7104         estimate D2E/DX2                !
 ! D254  D(62,63,64,65)       -178.1367         estimate D2E/DX2                !
 ! D255  D(97,63,64,59)       -178.3186         estimate D2E/DX2                !
 ! D256  D(97,63,64,65)          6.2551         estimate D2E/DX2                !
 --------------------------------------------------------------------------------
 Trust Radius=3.00D-01 FncErr=1.00D-07 GrdErr=1.00D-06 EigMax=2.50D+02 EigMin=1.00D-04
 Number of steps in this run=    542 maximum allowed number of steps=    582.
 GradGradGradGradGradGradGradGradGradGradGradGradGradGradGradGradGradGrad

 Leave Link  103 at Thu Jul 23 19:46:25 2020, MaxMem=  4026531840 cpu:               0.2 elap:               0.1
 (Enter /opt/ohpc/pub/libs/gaussian/g16-A.03/sandybridge/g16/l202.exe)
 Stoichiometry    C55H32F5N5
 Framework group  C1[X(C55H32F5N5)]
 Deg. of freedom   285
 Full point group                 C1      NOp   1
 Largest Abelian subgroup         C1      NOp   1
 Largest concise Abelian subgroup C1      NOp   1
                         Standard orientation:                         
 ---------------------------------------------------------------------
 Center     Atomic      Atomic             Coordinates (Angstroms)
 Number     Number       Type             X           Y           Z
 ---------------------------------------------------------------------
      1          6           0      -20.270870    2.017367   -1.027037
      2          6           0      -19.867677    0.844358   -1.584906
      3          6           0      -18.503444    0.423191   -1.386696
      4          6           0      -17.725903    1.261936   -0.693777
      5          7           0      -18.103490    2.468971   -0.139352
      6          6           0      -19.356303    2.780519   -0.362158
      7          6           0      -16.303747    0.931562   -0.534074
      8          6           0      -15.305552    1.346905   -1.475952
      9          6           0      -13.977907    1.120856   -1.393063
     10          6           0      -13.522009    0.353344   -0.308548
     11          6           0      -14.424251   -0.088556    0.635087
     12          6           0      -15.781629    0.161884    0.546103
     13          9           0      -16.663664   -0.308916    1.444473
     14          6           0      -12.064577    0.069394   -0.148666
     15          6           0      -11.612172   -1.330715   -0.114761
     16          6           0      -10.214996   -1.570066   -0.008899
     17          6           0       -9.345545   -0.509104    0.106928
     18          7           0       -9.750244    0.793000    0.077311
     19          6           0      -11.161775    1.047620   -0.000549
     20          6           0       -7.951807   -0.682572    0.209289
     21          6           0       -7.220532   -1.131351   -0.860834
     22          6           0       -5.760095   -1.294596   -0.838750
     23          6           0       -5.121673   -0.989689    0.388496
     24          6           0       -5.827785   -0.513428    1.442643
     25          6           0       -7.230236   -0.339154    1.404801
     26          9           0       -7.890380    0.187698    2.451409
     27          6           0       -3.632958   -1.131075    0.407186
     28          6           0       -2.994983   -2.011235    1.186895
     29          6           0       -1.619822   -2.046673    1.229333
     30          6           0       -0.880382   -1.157426    0.466219
     31          7           0       -1.498398   -0.320083   -0.402962
     32          6           0       -2.781224   -0.259379   -0.327674
     33          6           0        0.568508   -1.170088    0.411739
     34          6           0        1.317249   -2.121033   -0.269083
     35          6           0        2.732664   -2.079506   -0.313192
     36          6           0        3.490768   -1.103349    0.308716
     37          6           0        2.707323   -0.116932    0.974448
     38          6           0        1.327986   -0.148333    1.114200
     39          9           0        0.730752    0.746462    1.819957
     40          6           0        4.861033   -1.012778    0.190776
     41          6           0        5.577789   -1.249023   -1.081777
     42          6           0        6.980375   -1.102673   -1.180642
     43          6           0        7.698153   -0.705024    0.019884
     44          7           0        7.039782   -0.490599    1.190093
     45          6           0        5.745656   -0.681132    1.236648
     46          6           0        9.153883   -0.440054   -0.042912
     47          6           0        9.760795    0.515062    0.798642
     48          6           0       11.131660    0.787916    0.693861
     49          6           0       12.001116    0.076260   -0.139057
     50          6           0       11.389234   -0.986414   -0.947051
     51          6           0       10.009731   -1.157665   -0.939214
     52          9           0        9.576726   -2.170825   -1.665712
     53          6           0       13.421510    0.297828   -0.273307
     54          6           0       14.067997    0.479414   -1.448966
     55          6           0       15.467749    0.707605   -1.583066
     56          6           0       16.164227    0.800581   -0.351855
     57          7           0       15.564094    0.735579    0.796691
     58          6           0       14.168953    0.485992    0.876676
     59          6           0       17.631007    1.021018   -0.386529
     60          6           0       18.501689    0.215807   -1.090771
     61          6           0       19.843094    0.387657   -1.145483
     62          6           0       20.432689    1.471333   -0.412136
     63          6           0       19.597462    2.348945    0.359641
     64          6           0       18.193745    2.060815    0.361343
     65          9           0       17.402028    2.942995    1.079067
     66          1           0      -21.307425    2.280649   -1.103814
     67          1           0      -20.604862    0.173287   -2.125076
     68          1           0      -18.161460   -0.505324   -1.800385
     69          1           0      -19.638045    3.689422    0.126790
     70          1           0      -15.653764    2.025395   -2.366946
     71          1           0      -13.304122    1.427390   -2.112271
     72          1           0      -14.142094   -0.694132    1.518796
     73          1           0      -12.337075   -2.106415   -0.202871
     74          1           0       -9.908409   -2.592472    0.035301
     75          1           0      -11.360136    2.103362   -0.053096
     76          1           0       -7.709805   -1.385891   -1.841708
     77          1           0       -5.307077   -1.697922   -1.681089
     78          1           0       -5.338700   -0.147335    2.409034
     79          1           0       -3.616599   -2.673756    1.830359
     80          1           0       -1.056574   -2.806072    1.920724
     81          1           0       -3.279626    0.500614   -1.052394
     82          1           0        0.825132   -2.964297   -0.814540
     83          1           0        3.217307   -2.870068   -0.844052
     84          1           0        3.232945    0.738136    1.515663
     85          1           0        4.961590   -1.510374   -1.892816
     86          1           0        7.432730   -1.316214   -2.131678
     87          1           0        5.315669   -0.402493    2.263916
     88          1           0        9.108038    1.088041    1.483849
     89          1           0       11.471037    1.542861    1.376817
     90          1           0       11.941328   -1.522074   -1.649370
     91          1           0       13.450251    0.367664   -2.397006
     92          1           0       15.879579    0.817194   -2.549840
     93          1           0       13.763808    0.429310    1.858340
     94          1           0       18.073767   -0.608674   -1.651064
     95          1           0       20.487801   -0.320765   -1.644062
     96          1           0       21.515112    1.608303   -0.393054
     97          1           0       19.983150    3.130987    0.963292
 ---------------------------------------------------------------------
 Rotational constants (GHZ):           0.2252878           0.0039152           0.0039003
 Leave Link  202 at Thu Jul 23 19:46:25 2020, MaxMem=  4026531840 cpu:               0.4 elap:               0.1
 (Enter /opt/ohpc/pub/libs/gaussian/g16-A.03/sandybridge/g16/l301.exe)
 Standard basis: CC-pVDZ (5D, 7F)
 Ernie: Thresh=  0.10000D-02 Tol=  0.10000D-05 Strict=F.
 Ernie:  130 primitive shells out of 1590 were deleted.
 There are  1135 symmetry adapted cartesian basis functions of A   symmetry.
 There are  1070 symmetry adapted basis functions of A   symmetry.
  1070 basis functions,  2369 primitive gaussians,  1135 cartesian basis functions
   221 alpha electrons      221 beta electrons
       nuclear repulsion energy      6881.3781080056 Hartrees.
 IExCor=32609 DFT=T Ex+Corr=LC-wPBE ExCW=0 ScaHFX=  1.000000
 ScaDFX=  1.000000  0.000000  1.000000  1.000000 ScalE2=  1.000000  1.000000
 IRadAn=      5 IRanWt=     -1 IRanGd=            0 ICorTp=0 IEmpDi=  4
 HFx  wShort=  0.000000 wLong=  0.203800 cFull=  0.000000 cShort=  0.000000 cLong=  1.000000
 DFx  wShort=  0.000000 wLong=  0.203800 cFull=  0.000000 cShort=  0.000000 cLong=  1.000000
 NAtoms=   97 NActive=   97 NUniq=   97 SFac= 1.00D+00 NAtFMM=   60 NAOKFM=T Big=T
 Integral buffers will be    131072 words long.
 Raffenetti 2 integral format.
 Two-electron integral symmetry is turned on.
 Leave Link  301 at Thu Jul 23 19:46:25 2020, MaxMem=  4026531840 cpu:               1.1 elap:               0.2
 (Enter /opt/ohpc/pub/libs/gaussian/g16-A.03/sandybridge/g16/l302.exe)
 NPDir=0 NMtPBC=     1 NCelOv=     1 NCel=       1 NClECP=     1 NCelD=      1
         NCelK=      1 NCelE2=     1 NClLst=     1 CellRange=     0.0.
 One-electron integrals computed using PRISM.
 One-electron integral symmetry used in STVInt
 NBasis=  1070 RedAO= T EigKep=  3.04D-04  NBF=  1070
 NBsUse=  1070 1.00D-06 EigRej= -1.00D+00 NBFU=  1070
 Precomputing XC quadrature grid using
 IXCGrd= 4 IRadAn=           5 IRanWt=          -1 IRanGd=           0 AccXCQ= 0.00D+00.
 Generated NRdTot=       0 NPtTot=           0 NUsed=           0 NTot=          32
 NSgBfM=   628   628   628   628   628 MxSgAt=    97 MxSgA2=    82.
 Leave Link  302 at Thu Jul 23 19:46:29 2020, MaxMem=  4026531840 cpu:              28.4 elap:               3.6
 (Enter /opt/ohpc/pub/libs/gaussian/g16-A.03/sandybridge/g16/l303.exe)
 DipDrv:  MaxL=1.
 Leave Link  303 at Thu Jul 23 19:46:29 2020, MaxMem=  4026531840 cpu:               1.5 elap:               0.3
 (Enter /opt/ohpc/pub/libs/gaussian/g16-A.03/sandybridge/g16/l401.exe)
 ExpMin= 1.22D-01 ExpMax= 1.47D+04 ExpMxC= 5.03D+02 IAcc=3 IRadAn=         5 AccDes= 0.00D+00
 Harris functional with IExCor=32609 and IRadAn=       5 diagonalized for initial guess.
 HarFok:  IExCor=32609 AccDes= 0.00D+00 IRadAn=         5 IDoV= 1 UseB2=F ITyADJ=14
 ICtDFT=  3500011 ScaDFX=  1.000000  1.000000  1.000000  1.000000
 FoFCou: FMM=F IPFlag=           0 FMFlag=      100000 FMFlg1=        2001
         NFxFlg=           0 DoJE=T BraDBF=F KetDBF=T FulRan=T
         wScrn=  0.000000 ICntrl=       500 IOpCl=  0 I1Cent=   200000004 NGrid=           0
         NMat0=    1 NMatS0=      1 NMatT0=    0 NMatD0=    1 NMtDS0=    0 NMtDT0=    0
 Petite list used in FoFCou.
 Harris En= -2885.64035031308    
 JPrj=0 DoOrth=F DoCkMO=F.
 Initial guess <Sx>= 0.0000 <Sy>= 0.0000 <Sz>= 0.0000 <S**2>=-0.0000 S=-0.0000
 Leave Link  401 at Thu Jul 23 19:46:40 2020, MaxMem=  4026531840 cpu:              86.2 elap:              10.9
 (Enter /opt/ohpc/pub/libs/gaussian/g16-A.03/sandybridge/g16/l502.exe)
 Integral symmetry usage will be decided dynamically.
 UHF open shell SCF:
 Using DIIS extrapolation, IDIIS=  1040.
 NGot=  4026531840 LenX=  4023934959 LenY=  4022645599
 Requested convergence on RMS density matrix=1.00D-08 within 128 cycles.
 Requested convergence on MAX density matrix=1.00D-06.
 Requested convergence on             energy=1.00D-06.
 No special actions if energy rises.
 Fock matrices will be formed incrementally for  20 cycles.
 Integral accuracy reduced to 1.0D-05 until final iterations.

 Cycle   1  Pass 0  IDiag  1:
 FoFJK:  IHMeth= 1 ICntrl=       0 DoSepK=T KAlg= 0 I1Cent=           0 FoldK=F
 IRaf=         1 NMat=       1 IRICut=       1 DoRegI=T DoRafI=F ISym2E= 0 IDoP0=0 IntGTp=1.
 FoFCou: FMM=T IPFlag=           0 FMFlag=      100000 FMFlg1=        2001
         NFxFlg=           0 DoJE=T BraDBF=F KetDBF=F FulRan=T
         wScrn=  0.000000 ICntrl=       500 IOpCl=  0 I1Cent=           0 NGrid=           0
         NMat0=    1 NMatS0=      1 NMatT0=    0 NMatD0=    1 NMtDS0=    0 NMtDT0=    0
 Symmetry not used in FoFCou.
 FMM levels:  10  Number of levels for PrismC:   9
 E= -2884.78943658916    
 DIIS: error= 1.50D-02 at cycle   1 NSaved=   1.
 NSaved= 1 IEnMin= 1 EnMin= -2884.78943658916     IErMin= 1 ErrMin= 1.50D-02
 ErrMax= 1.50D-02  0.00D+00 EMaxC= 1.00D-01 BMatC= 2.81D+00 BMatP= 2.81D+00
 IDIUse=3 WtCom= 8.50D-01 WtEn= 1.50D-01
 Coeff-Com:  0.100D+01
 Coeff-En:   0.100D+01
 Coeff:      0.100D+01
 Gap=     0.261 Goal=   None    Shift=    0.000
 Gap=     0.261 Goal=   None    Shift=    0.000
 GapD=    0.261 DampG=1.000 DampE=0.500 DampFc=0.5000 IDamp=-1.
 Damping current iteration by 5.00D-01
 RMSDP=1.67D-03 MaxDP=9.08D-02              OVMax= 1.56D-01

 Cycle   2  Pass 0  IDiag  1:
 RMSU=  8.20D-04    CP:  9.86D-01
 E= -2885.20424248137     Delta-E=       -0.414805892213 Rises=F Damp=T
 DIIS: error= 3.12D-03 at cycle   2 NSaved=   2.
 NSaved= 2 IEnMin= 2 EnMin= -2885.20424248137     IErMin= 2 ErrMin= 3.12D-03
 ErrMax= 3.12D-03  0.00D+00 EMaxC= 1.00D-01 BMatC= 1.74D-01 BMatP= 2.81D+00
 IDIUse=3 WtCom= 9.69D-01 WtEn= 3.12D-02
 Coeff-Com: -0.663D-01 0.107D+01
 Coeff-En:   0.000D+00 0.100D+01
 Coeff:     -0.642D-01 0.106D+01
 Gap=     0.274 Goal=   None    Shift=    0.000
 Gap=     0.274 Goal=   None    Shift=    0.000
 RMSDP=6.00D-04 MaxDP=2.80D-02 DE=-4.15D-01 OVMax= 1.00D-01

 Cycle   3  Pass 0  IDiag  1:
 RMSU=  5.33D-04    CP:  9.80D-01  1.33D+00
 E= -2885.58331290531     Delta-E=       -0.379070423935 Rises=F Damp=F
 DIIS: error= 3.08D-03 at cycle   3 NSaved=   3.
 NSaved= 3 IEnMin= 3 EnMin= -2885.58331290531     IErMin= 3 ErrMin= 3.08D-03
 ErrMax= 3.08D-03  0.00D+00 EMaxC= 1.00D-01 BMatC= 1.10D-01 BMatP= 1.74D-01
 IDIUse=3 WtCom= 9.69D-01 WtEn= 3.08D-02
 Coeff-Com: -0.744D-01 0.496D+00 0.578D+00
 Coeff-En:   0.000D+00 0.000D+00 0.100D+01
 Coeff:     -0.721D-01 0.481D+00 0.591D+00
 Gap=     0.261 Goal=   None    Shift=    0.000
[...]
              Bcc     0.0000     0.000     0.000     0.000 -0.2606  0.8779  0.4017
 
              Baa    -0.0000    -0.000    -0.000    -0.000  0.0468 -0.2162  0.9752
    41 C(13)  Bbb     0.0000     0.000     0.000     0.000  0.4095  0.8946  0.1787
              Bcc     0.0000     0.000     0.000     0.000  0.9111 -0.3910 -0.1304
 
              Baa    -0.0000    -0.000    -0.000    -0.000  0.5097  0.8393  0.1893
    42 C(13)  Bbb     0.0000     0.000     0.000     0.000  0.7020 -0.2785 -0.6555
              Bcc     0.0000     0.000     0.000     0.000  0.4974 -0.4670  0.7311
 
              Baa    -0.0000    -0.000    -0.000    -0.000 -0.1011  0.0205  0.9947
    43 C(13)  Bbb    -0.0000    -0.000    -0.000    -0.000 -0.4371  0.8972 -0.0629
              Bcc     0.0000     0.000     0.000     0.000  0.8937  0.4411  0.0817
 
              Baa    -0.0000    -0.000    -0.000    -0.000  0.9731 -0.2234 -0.0558
    44 N(14)  Bbb    -0.0000    -0.000    -0.000    -0.000  0.0382 -0.0821  0.9959
              Bcc     0.0000     0.000     0.000     0.000  0.2271  0.9712  0.0714
 
              Baa    -0.0000    -0.000    -0.000    -0.000  0.7578 -0.6286 -0.1749
    45 C(13)  Bbb     0.0000     0.000     0.000     0.000  0.6336  0.6450  0.4272
              Bcc     0.0000     0.000     0.000     0.000 -0.1557 -0.4346  0.8871
 
              Baa    -0.0000    -0.000    -0.000    -0.000 -0.5608  0.8268  0.0430
    46 C(13)  Bbb     0.0000     0.000     0.000     0.000  0.8279  0.5600  0.0296
              Bcc     0.0000     0.000     0.000     0.000 -0.0004 -0.0522  0.9986
 
              Baa    -0.0000    -0.000    -0.000    -0.000 -0.5508  0.8185  0.1637
    47 C(13)  Bbb    -0.0000    -0.000    -0.000    -0.000  0.1681 -0.0834  0.9822
              Bcc     0.0000     0.000     0.000     0.000  0.8176  0.5685 -0.0917
 
              Baa    -0.0000    -0.000    -0.000    -0.000  0.0369  0.9975  0.0608
    48 C(13)  Bbb     0.0000     0.000     0.000     0.000  0.9378 -0.0556  0.3428
              Bcc     0.0000     0.000     0.000     0.000 -0.3453 -0.0444  0.9374
 
              Baa    -0.0000    -0.000    -0.000    -0.000  0.9669  0.2549 -0.0100
    49 C(13)  Bbb     0.0000     0.000     0.000     0.000 -0.2538  0.9652  0.0625
              Bcc     0.0000     0.000     0.000     0.000  0.0256 -0.0579  0.9980
 
              Baa    -0.0000    -0.000    -0.000    -0.000  0.8684  0.4959 -0.0039
    50 C(13)  Bbb    -0.0000    -0.000    -0.000    -0.000 -0.4937  0.8651  0.0887
              Bcc     0.0000     0.000     0.000     0.000  0.0473 -0.0751  0.9960
 
              Baa    -0.0000    -0.000    -0.000    -0.000 -0.4778  0.8762  0.0629
    51 C(13)  Bbb     0.0000     0.000     0.000     0.000 -0.6028 -0.3791  0.7020
              Bcc     0.0000     0.000     0.000     0.000  0.6390  0.2975  0.7093
 
              Baa    -0.0000    -0.000    -0.000    -0.000  0.9915  0.1287 -0.0200
    52 F(19)  Bbb    -0.0000    -0.000    -0.000    -0.000 -0.1274  0.9903  0.0545
              Bcc     0.0000     0.000     0.000     0.000  0.0268 -0.0515  0.9983
 
              Baa    -0.0000    -0.000    -0.000    -0.000  0.9798 -0.1770 -0.0927
    53 C(13)  Bbb     0.0000     0.000     0.000     0.000  0.1157  0.1242  0.9855
              Bcc     0.0000     0.000     0.000     0.000  0.1630  0.9763 -0.1421
 
              Baa    -0.0000    -0.000    -0.000    -0.000  0.7851 -0.2560 -0.5641
    54 C(13)  Bbb    -0.0000    -0.000    -0.000    -0.000 -0.2327  0.7221 -0.6515
              Bcc     0.0000     0.000     0.000     0.000  0.5741  0.6427  0.5074
 
              Baa    -0.0000    -0.000    -0.000    -0.000 -0.4124  0.6805  0.6057
    55 C(13)  Bbb     0.0000     0.000     0.000     0.000  0.8425  0.0320  0.5377
              Bcc     0.0000     0.000     0.000     0.000  0.3465  0.7320 -0.5866
 
              Baa    -0.0000    -0.000    -0.000    -0.000  0.5228  0.6046  0.6010
    56 C(13)  Bbb    -0.0000    -0.000    -0.000    -0.000 -0.0246  0.7154 -0.6983
              Bcc     0.0000     0.000     0.000     0.000  0.8521 -0.3503 -0.3889
 
              Baa    -0.0000    -0.000    -0.000    -0.000 -0.3697  0.8541 -0.3659
    57 N(14)  Bbb     0.0000     0.000     0.000     0.000  0.9117  0.2574 -0.3202
              Bcc     0.0000     0.000     0.000     0.000  0.1793  0.4519  0.8738
 
              Baa    -0.0000    -0.000    -0.000    -0.000 -0.1487 -0.5802  0.8008
    58 C(13)  Bbb    -0.0000    -0.000    -0.000    -0.000  0.7217 -0.6173 -0.3132
              Bcc     0.0000     0.000     0.000     0.000  0.6760  0.5314  0.5106
 
              Baa    -0.0000    -0.000    -0.000    -0.000  0.3330  0.9427  0.0205
    59 C(13)  Bbb     0.0000     0.000     0.000     0.000 -0.1469  0.0304  0.9887
              Bcc     0.0000     0.000     0.000     0.000  0.9314 -0.3322  0.1486
 
              Baa    -0.0000    -0.000    -0.000    -0.000 -0.1280  0.0202  0.9916
    60 C(13)  Bbb     0.0000     0.000     0.000     0.000  0.9789 -0.1583  0.1296
              Bcc     0.0000     0.000     0.000     0.000  0.1595  0.9872  0.0005
 
              Baa    -0.0000    -0.000    -0.000    -0.000  0.7183 -0.6957 -0.0034
    61 C(13)  Bbb    -0.0000    -0.000    -0.000    -0.000 -0.0141 -0.0194  0.9997
              Bcc     0.0000     0.000     0.000     0.000  0.6956  0.7180  0.0238
 
              Baa    -0.0000    -0.000    -0.000    -0.000 -0.0582  0.0050  0.9983
    62 C(13)  Bbb    -0.0000    -0.000    -0.000    -0.000  0.2284  0.9735  0.0084
              Bcc     0.0000     0.000     0.000     0.000  0.9718 -0.2285  0.0578
 
              Baa    -0.0000    -0.000    -0.000    -0.000  0.1271  0.0793  0.9887
    63 C(13)  Bbb    -0.0000    -0.000    -0.000    -0.000  0.9564  0.2545 -0.1434
              Bcc     0.0000     0.000     0.000     0.000 -0.2630  0.9638 -0.0435
 
              Baa    -0.0000    -0.000    -0.000    -0.000  0.1944  0.9809  0.0024
    64 C(13)  Bbb    -0.0000    -0.000    -0.000    -0.000 -0.0435  0.0062  0.9990
              Bcc     0.0000     0.000     0.000     0.000  0.9800 -0.1943  0.0439
 
              Baa    -0.0000    -0.000    -0.000    -0.000  0.6489  0.7499  0.1286
    65 F(19)  Bbb     0.0000     0.000     0.000     0.000  0.7588 -0.6256 -0.1811
              Bcc     0.0000     0.000     0.000     0.000  0.0553 -0.2151  0.9750
 
              Baa    -0.0000    -0.000    -0.000    -0.000  0.9677 -0.2511  0.0204
    66 H(1)   Bbb     0.0000     0.000     0.000     0.000  0.2489  0.9655  0.0766
              Bcc     0.0000     0.000     0.000     0.000 -0.0389 -0.0691  0.9969
 
              Baa    -0.0000    -0.000    -0.000    -0.000  0.3895  0.9164  0.0921
    67 H(1)   Bbb     0.0000     0.000     0.000     0.000  0.9190 -0.3933  0.0264
              Bcc     0.0000     0.000     0.000     0.000 -0.0604 -0.0743  0.9954
 
              Baa    -0.0000    -0.000    -0.000    -0.000 -0.6873  0.7075  0.1644
    68 H(1)   Bbb     0.0000     0.000     0.000     0.000  0.7236  0.6867  0.0695
              Bcc     0.0000     0.000     0.000     0.000  0.0637 -0.1667  0.9839
 
              Baa    -0.0000    -0.000    -0.000    -0.000 -0.0047  0.9981  0.0615
    69 H(1)   Bbb     0.0000     0.000     0.000     0.000 -0.1530 -0.0615  0.9863
              Bcc     0.0000     0.000     0.000     0.000  0.9882 -0.0048  0.1530
 
              Baa    -0.0000    -0.000    -0.000    -0.000  0.2372  0.9588 -0.1561
    70 H(1)   Bbb     0.0000     0.000     0.000     0.000 -0.0024  0.1613  0.9869
              Bcc     0.0000     0.000     0.000     0.000  0.9715 -0.2337  0.0405
 
              Baa    -0.0000    -0.000    -0.000    -0.000  0.8081  0.5887 -0.0205
    71 H(1)   Bbb     0.0000     0.000     0.000     0.000 -0.5882  0.8045 -0.0831
              Bcc     0.0000     0.000     0.000     0.000 -0.0324  0.0793  0.9963
 
              Baa    -0.0000    -0.000    -0.000    -0.000 -0.5539  0.8181 -0.1545
    72 H(1)   Bbb     0.0000     0.000     0.000     0.000  0.8287  0.5239 -0.1969
              Bcc     0.0000     0.000     0.000     0.000  0.0802  0.2371  0.9682
 
              Baa    -0.0000    -0.000    -0.000    -0.000 -0.4001  0.5280  0.7490
    73 H(1)   Bbb    -0.0000    -0.000    -0.000    -0.000  0.1463  0.8437 -0.5166
              Bcc     0.0000     0.000     0.000     0.000  0.9047  0.0971  0.4148
 
              Baa    -0.0000    -0.000    -0.000    -0.000 -0.3282  0.8532  0.4055
    74 H(1)   Bbb     0.0000     0.000     0.000     0.000  0.7242  0.5029 -0.4719
              Bcc     0.0000     0.000     0.000     0.000  0.6065 -0.1388  0.7829
 
              Baa    -0.0000    -0.000    -0.000    -0.000 -0.0401 -0.4526  0.8908
    75 H(1)   Bbb    -0.0000    -0.000    -0.000    -0.000  0.7868  0.5353  0.3074
              Bcc     0.0000     0.000     0.000     0.000 -0.6160  0.7132  0.3346
 
              Baa    -0.0000    -0.000    -0.000    -0.000  0.1346  0.4416  0.8871
    76 H(1)   Bbb     0.0000     0.000     0.000     0.000  0.9879 -0.1295 -0.0854
              Bcc     0.0000     0.000     0.000     0.000  0.0772  0.8878 -0.4537
 
              Baa    -0.0000    -0.000    -0.000    -0.000  0.9179 -0.1987 -0.3435
    77 H(1)   Bbb     0.0000     0.000     0.000     0.000  0.1876 -0.5456  0.8168
              Bcc     0.0000     0.000     0.000     0.000  0.3498  0.8141  0.4635
 
              Baa    -0.0000    -0.000    -0.000    -0.000  0.9832  0.1140 -0.1424
    78 H(1)   Bbb    -0.0000    -0.000    -0.000    -0.000 -0.1518  0.9443 -0.2920
              Bcc     0.0000     0.000     0.000     0.000  0.1012  0.3087  0.9458
 
              Baa    -0.0000    -0.000    -0.000    -0.000 -0.0859  0.7410  0.6660
    79 H(1)   Bbb    -0.0000    -0.000    -0.000    -0.000  0.9406 -0.1602  0.2995
              Bcc     0.0000     0.000     0.000     0.000 -0.3286 -0.6521  0.6832
 
              Baa    -0.0000    -0.000    -0.000    -0.000  0.7354  0.2572  0.6270
    80 H(1)   Bbb    -0.0000    -0.000    -0.000    -0.000 -0.4830 -0.4500  0.7511
              Bcc     0.0000     0.000     0.000     0.000 -0.4753  0.8552  0.2066
 
              Baa    -0.0000    -0.000    -0.000    -0.000 -0.1582  0.7026  0.6938
    81 H(1)   Bbb    -0.0000    -0.000    -0.000    -0.000  0.8048  0.4989 -0.3217
              Bcc     0.0000     0.000     0.000     0.000  0.5721 -0.5075  0.6443
 
              Baa    -0.0000    -0.000    -0.000    -0.000  0.1907  0.2180  0.9571
    82 H(1)   Bbb     0.0000     0.000     0.000     0.000  0.2480  0.9327 -0.2619
              Bcc     0.0000     0.000     0.000     0.000  0.9498 -0.2873 -0.1238
 
              Baa    -0.0000    -0.000    -0.000    -0.000  0.7238 -0.6218  0.2993
    83 H(1)   Bbb     0.0000     0.000     0.000     0.000  0.6833  0.7062 -0.1853
              Bcc     0.0000     0.000     0.000     0.000 -0.0961  0.3386  0.9360
 
              Baa    -0.0000    -0.000    -0.000    -0.000  0.8860  0.3399 -0.3153
    84 H(1)   Bbb     0.0000     0.000     0.000     0.000 -0.1860  0.8836  0.4297
              Bcc     0.0000     0.000     0.000     0.000  0.4247 -0.3221  0.8461
 
              Baa    -0.0000    -0.000    -0.000    -0.000  0.9397 -0.3421  0.0059
    85 H(1)   Bbb    -0.0000    -0.000    -0.000    -0.000 -0.1427 -0.3762  0.9155
              Bcc     0.0000     0.000     0.000     0.000  0.3109  0.8611  0.4023
 
              Baa    -0.0000    -0.000    -0.000    -0.000  0.8182 -0.5577 -0.1394
    86 H(1)   Bbb    -0.0000    -0.000    -0.000    -0.000  0.1010 -0.0993  0.9899
              Bcc     0.0000     0.000     0.000     0.000  0.5660  0.8241  0.0249
 
              Baa    -0.0000    -0.000    -0.000    -0.000  0.0550 -0.0209  0.9983
    87 H(1)   Bbb    -0.0000    -0.000    -0.000    -0.000  0.8748 -0.4810 -0.0582
              Bcc     0.0000     0.000     0.000     0.000  0.4814  0.8765 -0.0082
 
              Baa    -0.0000    -0.000    -0.000    -0.000  0.0145 -0.0416  0.9990
    88 H(1)   Bbb    -0.0000    -0.000    -0.000    -0.000  0.9411  0.3381  0.0004
              Bcc     0.0000     0.000     0.000     0.000 -0.3378  0.9402  0.0440
 
              Baa    -0.0000    -0.000    -0.000    -0.000  0.2027  0.9792  0.0012
    89 H(1)   Bbb     0.0000     0.000     0.000     0.000  0.9787 -0.2026  0.0338
              Bcc     0.0000     0.000     0.000     0.000 -0.0333  0.0057  0.9994
 
              Baa    -0.0000    -0.000    -0.000    -0.000 -0.3598  0.9329 -0.0186
    90 H(1)   Bbb     0.0000     0.000     0.000     0.000  0.8141  0.3041 -0.4947
              Bcc     0.0000     0.000     0.000     0.000  0.4559  0.1931  0.8688
 
              Baa    -0.0000    -0.000    -0.000    -0.000 -0.5639  0.6941 -0.4474
    91 H(1)   Bbb    -0.0000    -0.000    -0.000    -0.000 -0.6824 -0.0865  0.7259
              Bcc     0.0000     0.000     0.000     0.000  0.4652  0.7146  0.5224
 
              Baa    -0.0000    -0.000    -0.000    -0.000 -0.3732  0.4857  0.7905
    92 H(1)   Bbb    -0.0000    -0.000    -0.000    -0.000  0.0569  0.8624 -0.5030
              Bcc     0.0000     0.000     0.000     0.000  0.9260  0.1427  0.3495
 
              Baa    -0.0000    -0.000    -0.000    -0.000  0.3943  0.0340  0.9183
    93 H(1)   Bbb    -0.0000    -0.000    -0.000    -0.000  0.2418  0.9603 -0.1394
              Bcc     0.0000     0.000     0.000     0.000  0.8866 -0.2770 -0.3705
 
              Baa    -0.0000    -0.000    -0.000    -0.000 -0.4110  0.2206  0.8845
    94 H(1)   Bbb    -0.0000    -0.000    -0.000    -0.000  0.8319 -0.3060  0.4629
              Bcc     0.0000     0.000     0.000     0.000  0.3728  0.9261 -0.0577
 
              Baa    -0.0000    -0.000    -0.000    -0.000 -0.0558  0.0119  0.9984
    95 H(1)   Bbb    -0.0000    -0.000    -0.000    -0.000  0.8699  0.4914  0.0427
              Bcc     0.0000     0.000     0.000     0.000 -0.4901  0.8709 -0.0378
 
              Baa    -0.0000    -0.000    -0.000    -0.000  0.1547 -0.4090  0.8993
    96 H(1)   Bbb    -0.0000    -0.000    -0.000    -0.000 -0.4226  0.7954  0.4344
              Bcc     0.0000     0.000     0.000     0.000  0.8930  0.4473  0.0498
 
              Baa    -0.0000    -0.000    -0.000    -0.000  0.0208 -0.0156  0.9997
    97 H(1)   Bbb    -0.0000    -0.000    -0.000    -0.000 -0.1911  0.9814  0.0193
              Bcc     0.0000     0.000     0.000     0.000  0.9813  0.1915 -0.0174
 

 ---------------------------------------------------------------------------------

 No NMR shielding tensors so no spin-rotation constants.
 Leave Link  601 at Fri Jul 24 00:40:07 2020, MaxMem=  4026531840 cpu:              18.2 elap:               2.7
 (Enter /opt/ohpc/pub/libs/gaussian/g16-A.03/sandybridge/g16/l9999.exe)

 Test job not archived.
 1\1\GINC-SKYLAKE025\FOpt\ULC-wPBE\CC-pVDZ\C55H32F5N5\RDU230\24-Jul-202
 0\0\\#P uLC-wPBE/cc-pVDZ iop(3/107=0203800000, 3/108=0203800000) opt\\
 H32 C55 N5 F5\\0,1\C,-20.6627182675,1.408827863,-0.2274656521\C,-20.28
 77824371,0.1205068247,-0.6120196689\C,-18.933720285,-0.2208317556,-0.6
 263184931\C,-17.9818352856,0.7466955336,-0.2515041546\N,-18.3449464899
 ,1.995411472,0.1106554605\C,-19.6458517056,2.3044782733,0.1193650916\C
 ,-16.5069638225,0.4967726304,-0.2472088512\C,-15.6264189966,1.59275664
 17,-0.1530176788\C,-14.2425125072,1.4385800138,-0.1430471268\C,-13.660
 9821072,0.1588756852,-0.2207628699\C,-14.5179316273,-0.9486139129,-0.3
 058519372\C,-15.8983032388,-0.7666169848,-0.3172884412\F,-16.654175831
 8,-1.8961607285,-0.3804339954\C,-12.186998236,-0.0218911426,-0.2109334
 049\C,-11.5438515745,-0.9729682482,-1.0183290446\C,-10.156128937,-1.09
 34189618,-0.9647418656\C,-9.4288955766,-0.2494826602,-0.1075643462\N,-
 10.0293270654,0.659634474,0.6850275581\C,-11.361325451,0.7542682085,0.
 624956893\C,-7.9412489614,-0.3187292233,-0.055968515\C,-7.173848623,-0
 .4191847446,-1.2292254459\C,-5.7796251661,-0.4757143596,-1.1961558917\
 C,-5.0922239733,-0.4361987065,0.0302958086\C,-5.8441056622,-0.34359431
 26,1.2131750489\C,-7.234210526,-0.2872506777,1.157026998\F,-7.90685440
 68,-0.2255286296,2.3231643592\C,-3.6083923172,-0.4926477029,0.08017410
 1\C,-2.9200101886,-1.2294931487,1.0564837269\C,-1.5261524632,-1.245220
 4771,1.0486726983\C,-0.8394119019,-0.5284235964,0.0534614932\N,-1.4821
 471272,0.1961007823,-0.8830777735\C,-2.8185523506,0.2053440899,-0.8533
 340283\C,0.6489620478,-0.5580292815,-0.0130186642\C,1.3629519623,-1.75
 84268859,0.1457141281\C,2.7560425938,-1.8015729606,0.0764311553\C,3.49
 71394732,-0.6283691623,-0.1534560112\C,2.7999372337,0.5814702831,-0.30
 65215376\C,1.4092199045,0.6013517813,-0.2357622736\F,0.7917240061,1.79
 19270088,-0.3652716143\C,4.9799638496,-0.6624765425,-0.229086994\C,5.6
 739955736,-1.6979195238,-0.8721634611\C,7.0677323816,-1.6873950421,-0.
 909524437\C,7.7630942634,-0.6271523335,-0.298201771\N,7.1042925044,0.3
 756612736,0.3203299172\C,5.7708476991,0.347667784,0.3492801729\C,9.251
 8756083,-0.4988317808,-0.2973890522\C,9.835478629,0.7202885174,0.10218
 0285\C,11.2140769597,0.9139670256,0.1272955536\C,12.0929156658,-0.1208
 544226,-0.2454944005\C,11.5352211622,-1.3465509514,-0.6390518186\C,10.
 1532242435,-1.5133807409,-0.6584398282\F,9.6998834395,-2.7405200529,-1
 .03344315\C,13.56565686,0.0686670352,-0.2238018907\C,14.4024503559,-0.
 4589467815,-1.219659937\C,15.7777288339,-0.2451097573,-1.1444726151\C,
 16.2982367925,0.4938200928,-0.0677391078\N,15.5109667752,1.0076172533,
 0.897621215\C,14.1947369049,0.792337154,0.8072183866\C,17.7660939298,0
 .7232647596,0.0555561821\C,18.6846354858,-0.3186659041,-0.1637555659\C
 ,20.0624781244,-0.1175063427,-0.0442316141\C,20.5523335595,1.147848346
 5,0.2967751973\C,19.6639017542,2.2047777007,0.5132910468\C,18.29326624
 93,1.9809026623,0.3915764721\F,17.4613131788,3.0266282825,0.5737948425
 \H,-21.7147134306,1.7187435458,-0.1990115214\H,-21.0434628839,-0.62116
 59843,-0.9031493905\H,-18.6185202167,-1.2224223632,-0.929644834\H,-19.
 8903844394,3.3344704447,0.4234571003\H,-16.0839488906,2.5867127255,-0.
 0878785019\H,-13.600762543,2.327484246,-0.0981159488\H,-14.1333309181,
 -1.9753669881,-0.3345591611\H,-12.1284833085,-1.6089486576,-1.69669105
 25\H,-9.6369353898,-1.8411319965,-1.5772723925\H,-11.8165657829,1.4922
 575181,1.3043592692\H,-7.6919294595,-0.4370521986,-2.1972004043\H,-5.2
 180820578,-0.5678336486,-2.1341386328\H,-5.3629977289,-0.2953812692,2.
 1977723865\H,-3.4752560806,-1.7991538967,1.8138370987\H,-0.9701945387,
 -1.8026663238,1.8128666409\H,-3.306733779,0.8283468915,-1.6196002943\H
 ,0.8011245975,-2.6869628101,0.3128227817\H,3.2769541163,-2.7567301261,
 0.2192298729\H,3.3228684262,1.5256355878,-0.5013502875\H,5.1213051137,
 -2.5071690012,-1.3681056275\H,7.6090845809,-2.4865601512,-1.4218055994
 \H,5.2879153703,1.1785813594,0.8878612602\H,9.1481014393,1.5223616547,
 0.3948177716\H,11.6162700981,1.8925496863,0.4180352365\H,12.1618075429
 ,-2.2048926208,-0.9103042099\H,13.9738354856,-1.0104897598,-2.06737051
 83\H,16.4451060633,-0.6235626229,-1.9287616534\H,13.5880192925,1.20739
 47488,1.6277239473\H,18.2977835611,-1.3163765072,-0.4110509682\H,20.75
 40037661,-0.9529802489,-0.2101418677\H,21.6323461962,1.3173693607,0.39
 53100224\H,20.011066903,3.2125033926,0.7714756149\\Version=EM64L-G16Re
 vA.03\State=1-A\HF=-2885.7801768\S2=0.\S2-1=0.\S2A=0.\RMSD=5.222e-09\R
 MSF=1.332e-06\Dipole=-1.0257755,-1.8754522,-1.135097\Quadrupole=53.801
 3588,-22.5169846,-31.2843742,-9.8298657,-1.4760001,3.4388403\PG=C01 [X
 (C55H32F5N5)]\\@


 ... UNTIL SCIENCE IS MIXED WITH EMOTION AND APPEALS TO THE HEART AND
 IMAGINATION , IT IS LIKE DEAD INORGANIC MATTER; AND WHEN IT IS SO MIXED
 AND SO TRANSFORMED IT IS LITERATURE.

                                  -- JOHN BURROUGHS
 Job cpu time:       1 days 14 hours 26 minutes 15.9 seconds.
 Elapsed time:       0 days  4 hours 53 minutes 41.0 seconds.
 File lengths (MBytes):  RWF=   1308 Int=      0 D2E=      0 Chk=    120 Scr=      8
 Normal termination of Gaussian 16 at Fri Jul 24 00:40:07 2020.
