 Entering Gaussian System, Link 0=g16
 Input=mols_66_7_04_c-n-c-cF_opt_0.gjf
 Output=mols_66_7_04_c-n-c-cF_opt_0.log
 Initial command:
 /opt/ohpc/pub/libs/gaussian/g16-A.03/sandybridge/g16/l1.exe "/mnt/gpfs2_4m/scratch/rdu230/ondemand/projects/dihedral_energies/7trial/wtuning/mols_66_7_04_c-n-c-cF/Gau-10674.inp" -scrdir="/mnt/gpfs2_4m/scratch/rdu230/ondemand/projects/dihedral_energies/7trial/wtuning/mols_66_7_04_c-n-c-cF/"
 Entering Link 1 = /opt/ohpc/pub/libs/gaussian/g16-A.03/sandybridge/g16/l1.exe PID=     10676.
  
 Copyright (c) 1988,1990,1992,1993,1995,1998,2003,2009,2016,
            Gaussian, Inc.  All Rights Reserved.
  
 This is part of the Gaussian(R) 16 program.  It is based on
 the Gaussian(R) 09 system (copyright 2009, Gaussian, Inc.),
 the Gaussian(R) 03 system (copyright 2003, Gaussian, Inc.),
 the Gaussian(R) 98 system (copyright 1998, Gaussian, Inc.),
 the Gaussian(R) 94 system (copyright 1995, Gaussian, Inc.),
 the Gaussian 92(TM) system (copyright 1992, Gaussian, Inc.),
 the Gaussian 90(TM) system (copyright 1990, Gaussian, Inc.),
 the Gaussian 88(TM) system (copyright 1988, Gaussian, Inc.),
 the Gaussian 86(TM) system (copyright 1986, Carnegie Mellon
 University), and the Gaussian 82(TM) system (copyright 1983,
 Carnegie Mellon University). Gaussian is a federally registered
 trademark of Gaussian, Inc.
  
 This software contains proprietary and confidential information,
 including trade secrets, belonging to Gaussian, Inc.
  
 This software is provided under written license and may be
 used, copied, transmitted, or stored only in accord with that
 written license.
  
 The following legend is applicable only to US Government
 contracts under FAR:
  
                    RESTRICTED RIGHTS LEGEND
  
 Use, reproduction and disclosure by the US Government is
 subject to restrictions as set forth in subparagraphs (a)
 and (c) of the Commercial Computer Software - Restricted
 Rights clause in FAR 52.227-19.
  
 Gaussian, Inc.
 340 Quinnipiac St., Bldg. 40, Wallingford CT 06492
  
  
 ---------------------------------------------------------------
 Warning -- This program may not be used in any manner that
 competes with the business of Gaussian, Inc. or will provide
 assistance to any competitor of Gaussian, Inc.  The licensee
 of this program is prohibited from giving any competitor of
 Gaussian, Inc. access to this program.  By using this program,
 the user acknowledges that Gaussian, Inc. is engaged in the
 business of creating and licensing software in the field of
 computational chemistry and represents and warrants to the
 licensee that it is not a competitor of Gaussian, Inc. and that
 it will not use this program in any manner prohibited above.
 ---------------------------------------------------------------
  

 Cite this work as:
 Gaussian 16, Revision A.03,
 M. J. Frisch, G. W. Trucks, H. B. Schlegel, G. E. Scuseria, 
 M. A. Robb, J. R. Cheeseman, G. Scalmani, V. Barone, 
 G. A. Petersson, H. Nakatsuji, X. Li, M. Caricato, A. V. Marenich, 
 J. Bloino, B. G. Janesko, R. Gomperts, B. Mennucci, H. P. Hratchian, 
 J. V. Ortiz, A. F. Izmaylov, J. L. Sonnenberg, D. Williams-Young, 
 F. Ding, F. Lipparini, F. Egidi, J. Goings, B. Peng, A. Petrone, 
 T. Henderson, D. Ranasinghe, V. G. Zakrzewski, J. Gao, N. Rega, 
 G. Zheng, W. Liang, M. Hada, M. Ehara, K. Toyota, R. Fukuda, 
 J. Hasegawa, M. Ishida, T. Nakajima, Y. Honda, O. Kitao, H. Nakai, 
 T. Vreven, K. Throssell, J. A. Montgomery, Jr., J. E. Peralta, 
 F. Ogliaro, M. J. Bearpark, J. J. Heyd, E. N. Brothers, K. N. Kudin, 
 V. N. Staroverov, T. A. Keith, R. Kobayashi, J. Normand, 
 K. Raghavachari, A. P. Rendell, J. C. Burant, S. S. Iyengar, 
 J. Tomasi, M. Cossi, J. M. Millam, M. Klene, C. Adamo, R. Cammi, 
 J. W. Ochterski, R. L. Martin, K. Morokuma, O. Farkas, 
 J. B. Foresman, and D. J. Fox, Gaussian, Inc., Wallingford CT, 2016.
 
 ******************************************
 Gaussian 16:  EM64L-G16RevA.03 25-Dec-2016
                23-Jul-2020 
 ******************************************
 %mem=30GB
 %nproc=8
 Will use up to    8 processors via shared memory.
 ---------------------------------------------------------------
 #P uLC-wPBE/cc-pVDZ iop(3/107=0052000000, 3/108=0052000000) opt
 ---------------------------------------------------------------
 1/18=20,19=15,26=3,38=1/1,3;
 2/9=110,12=2,17=6,18=5,40=1/2;
 3/5=16,11=2,25=1,30=1,71=1,74=-41,107=52000000,108=52000000,116=2/1,2,3;
 4//1;
 5/5=2,38=5/2;
 6/7=2,8=2,9=2,10=2,28=1/1;
 7//1,2,3,16;
 1/18=20,19=15,26=3/3(2);
 2/9=110/2;
 99//99;
 2/9=110/2;
 3/5=16,11=2,25=1,30=1,71=1,74=-41,107=52000000,108=52000000,116=2/1,2,3;
 4/5=5,16=3,69=1/1;
 5/5=2,38=5/2;
 7//1,2,3,16;
 1/18=20,19=15,26=3/3(-5);
 2/9=110/2;
 6/7=2,8=2,9=2,10=2,19=2,28=1/1;
 99/9=1/99;
 Leave Link    1 at Thu Jul 23 15:37:56 2020, MaxMem=  4026531840 cpu:               2.9 elap:               0.4
 (Enter /opt/ohpc/pub/libs/gaussian/g16-A.03/sandybridge/g16/l101.exe)
 -------------
 H44 C77 N7 F7
 -------------
 Symbolic Z-matrix:
 Charge =  0 Multiplicity = 1
 C                    -28.88193   1.8677   -1.10058 
 C                    -28.00472   1.90839  -2.26574 
 C                    -26.71299   1.4901   -2.05351 
 C                    -26.27704   1.05901  -0.78738 
 N                    -27.10765   0.99493   0.28207 
 C                    -28.34493   1.35967   0.10809 
 C                    -24.90368   0.65557  -0.58121 
 C                    -24.47832  -0.70575  -0.71726 
 C                    -23.12509  -1.10432  -0.45755 
 C                    -22.13863  -0.13996  -0.29407 
 C                    -22.54742   1.18057  -0.18468 
 C                    -23.82822   1.58778  -0.30883 
 F                    -24.20418   2.91142  -0.22379 
 C                    -20.71095  -0.51884  -0.14824 
 C                    -20.2739  -1.16946   1.03656 
 C                    -18.88205  -1.49816   1.17438 
 C                    -18.02353  -1.0237    0.09558 
 N                    -18.49446  -0.44389  -1.00256 
 C                    -19.78069  -0.21239  -1.0844 
 C                    -16.49578  -1.16544   0.22023 
 C                    -15.76038  -1.39349  -0.91623 
 C                    -14.33924  -1.3353   -0.84066 
 C                    -13.72165  -1.21068   0.33677 
 C                    -14.49777  -1.12597   1.49332 
 C                    -15.81599  -1.06124   1.47776 
 F                    -16.49004  -0.93145   2.59651 
 C                    -12.16797  -1.11845   0.42367 
 C                    -11.57786  -0.02793   1.0846 
 C                    -10.14306   0.03191   1.04467 
 C                    -9.43822  -0.8619    0.39859 
 N                    -10.00871  -1.92788  -0.20309 
 C                    -11.37772  -2.08627  -0.1781 
 C                    -7.92848  -0.85942   0.32578 
 C                    -7.12498  -1.98878   0.25847 
 C                    -5.73808  -1.96045   0.12887 
 C                    -5.06139  -0.65755   0.17962 
 C                    -5.83845   0.43692   0.16521 
 C                    -7.246     0.43983   0.26314 
 F                    -7.96045   1.55071   0.31772 
 C                    -3.63975  -0.58573   0.09625 
 C                    -2.86958  -1.42666  -0.71591 
 C                    -1.48959  -1.29807  -0.7908 
 C                    -0.85383  -0.38899   0.12466 
 N                    -1.54267   0.44444   0.93453 
 C                    -2.85915   0.25578   0.96955 
 C                     0.6844   -0.16992   0.15857 
 C                     1.23357   1.06289   0.42007 
 C                     2.56778   1.27349   0.4608 
 C                     3.49425   0.20346   0.21505 
 C                     2.97573  -1.05568  -0.074 
 C                     1.54919  -1.18978  -0.04794 
 F                     1.08025  -2.4756   -0.32384 
 C                     4.89619   0.47758   0.21731 
 C                     5.48221   1.50005  -0.56403 
 C                     6.93188   1.60391  -0.56245 
 C                     7.69245   0.75374   0.13683 
 N                     7.167    -0.24609   0.86282 
 C                     5.77383  -0.34841   0.94437 
 C                     9.15454   0.78677   0.19735 
 C                     9.97264  -0.29605   0.00802 
 C                     11.35401  -0.24307  -0.00428 
 C                     12.01441   0.90408   0.23586 
 C                     11.30156   2.11702   0.39553 
 C                     9.92493   2.03261   0.38012 
 F                     9.18979   3.17058   0.54032 
 C                     13.46014   0.96772   0.20479 
 C                     14.20437   1.58286   1.24239 
 C                     15.68185   1.53663   1.20213 
 C                     16.24031   0.88073   0.19132 
 N                     15.5601   0.27708  -0.84806 
 C                     14.27032   0.36353  -0.7708 
 C                     17.7511   0.68637   0.12553 
 C                     18.63071   1.85905  -0.01732 
 C                     19.92793   1.7086   -0.05814 
 C                     20.56176   0.38528   0.00859 
 C                     19.71549  -0.72322   0.18187 
 C                     18.37784  -0.55257   0.19149 
 F                     17.56289  -1.59404   0.38261 
 C                     22.04512   0.28822  -0.0275 
 C                     22.77059  -0.01765   1.04957 
 C                     24.19404  -0.18275   0.92358 
 C                     24.76278  -0.16285  -0.33108 
 N                     24.02643   0.09136  -1.40142 
 C                     22.72349   0.34232  -1.2517 
 C                     26.18654  -0.37547  -0.46032 
 C                     27.06375   0.68597  -0.22584 
 C                     28.46146   0.41982  -0.42536 
 C                     28.89879  -0.77889  -0.8775 
 C                     28.06154  -1.79662  -1.06508 
 C                     26.645   -1.53753  -0.92749 
 F                     25.77735  -2.57526  -1.14705 
 H                    -29.87868   2.16726  -1.18413 
 H                    -28.34765   2.32094  -3.21751 
 H                    -25.9698   1.49655  -2.94852 
 H                    -29.01746   1.37074   0.97959 
 H                    -25.19647  -1.46336  -0.89553 
 H                    -22.87858  -2.20961  -0.58613 
 H                    -21.83381   1.95552   0.04069 
 H                    -20.95324  -1.50914   1.85077 
 H                    -18.52914  -1.9455    1.98916 
 H                    -20.11513   0.40707  -1.95536 
 H                    -16.21636  -1.41857  -1.86246 
 H                    -13.82071  -1.4836   -1.83784 
 H                    -13.9916  -0.99801   2.43571 
 H                    -12.12466   0.71535   1.53828 
 H                    -9.77898   0.89124   1.58448 
 H                    -11.78614  -2.91048  -0.6873 
 H                    -7.67392  -2.93158   0.22085 
 H                    -5.20386  -2.90391   0.16646 
 H                    -5.42932   1.41613   0.13009 
 H                    -3.30191  -2.08015  -1.39512 
 H                    -0.89901  -1.90114  -1.41652 
 H                    -3.44261   0.88092   1.65167 
 H                     0.48205   1.92453   0.59258 
 H                     2.91123   2.26078   0.62379 
 H                     3.601    -1.83823  -0.23507 
 H                     4.87309   2.15145  -1.15128 
 H                     7.35278   2.38759  -1.13813 
 H                     5.43341  -1.20707   1.54849 
 H                     9.42126  -1.31023  -0.10483 
 H                     11.86537  -1.2264   -0.09782 
 H                     11.71844   3.07105   0.5586 
 H                     13.76339   2.11115   2.0469 
 H                     16.21644   1.97235   2.02887 
 H                     13.80581  -0.15753  -1.60514 
 H                     18.14406   2.80474  -0.12442 
 H                     20.61804   2.55337  -0.2284 
 H                     20.18332  -1.67571   0.21625 
 H                     22.33567  -0.00332   2.10075 
 H                     24.77399  -0.42624   1.838 
 H                     22.15415   0.45723  -2.17111 
 H                     26.76214   1.71137   0.09338 
 H                     29.23063   1.27996  -0.26573 
 H                     30.00266  -0.90996  -1.02441 
 H                     28.35905  -2.82256  -1.4599 
 
 ITRead=  0  0  0  0  0  0  0  0  0  0  0  0  0  0  0  0  0  0  0  0
 ITRead=  0  0  0  0  0  0  0  0  0  0  0  0  0  0  0  0  0  0  0  0
 ITRead=  0  0  0  0  0  0  0  0  0  0  0  0  0  0  0  0  0  0  0  0
 ITRead=  0  0  0  0  0  0  0  0  0  0  0  0  0  0  0  0  0  0  0  0
 ITRead=  0  0  0  0  0  0  0  0  0  0  0  0  0  0  0  0  0  0  0  0
 ITRead=  0  0  0  0  0  0  0  0  0  0  0  0  0  0  0  0  0  0  0  0
 ITRead=  0  0  0  0  0  0  0  0  0  0  0  0  0  0  0
 MicOpt= -1 -1 -1 -1 -1 -1 -1 -1 -1 -1 -1 -1 -1 -1 -1 -1 -1 -1 -1 -1
 MicOpt= -1 -1 -1 -1 -1 -1 -1 -1 -1 -1 -1 -1 -1 -1 -1 -1 -1 -1 -1 -1
 MicOpt= -1 -1 -1 -1 -1 -1 -1 -1 -1 -1 -1 -1 -1 -1 -1 -1 -1 -1 -1 -1
 MicOpt= -1 -1 -1 -1 -1 -1 -1 -1 -1 -1 -1 -1 -1 -1 -1 -1 -1 -1 -1 -1
 MicOpt= -1 -1 -1 -1 -1 -1 -1 -1 -1 -1 -1 -1 -1 -1 -1 -1 -1 -1 -1 -1
 MicOpt= -1 -1 -1 -1 -1 -1 -1 -1 -1 -1 -1 -1 -1 -1 -1 -1 -1 -1 -1 -1
 MicOpt= -1 -1 -1 -1 -1 -1 -1 -1 -1 -1 -1 -1 -1 -1 -1
 NAtoms=    135 NQM=      135 NQMF=       0 NMMI=      0 NMMIF=      0
                NMic=       0 NMicF=      0.
                    Isotopes and Nuclear Properties:
 (Nuclear quadrupole moments (NQMom) in fm**2, nuclear magnetic moments (NMagM)
  in nuclear magnetons)

  Atom         1           2           3           4           5           6           7           8           9          10
 IAtWgt=          12          12          12          12          14          12          12          12          12          12
 AtmWgt=  12.0000000  12.0000000  12.0000000  12.0000000  14.0030740  12.0000000  12.0000000  12.0000000  12.0000000  12.0000000
 NucSpn=           0           0           0           0           2           0           0           0           0           0
 AtZEff=  -0.0000000  -0.0000000  -0.0000000  -0.0000000  -0.0000000  -0.0000000  -0.0000000  -0.0000000  -0.0000000  -0.0000000
 NQMom=    0.0000000   0.0000000   0.0000000   0.0000000   2.0440000   0.0000000   0.0000000   0.0000000   0.0000000   0.0000000
 NMagM=    0.0000000   0.0000000   0.0000000   0.0000000   0.4037610   0.0000000   0.0000000   0.0000000   0.0000000   0.0000000
 AtZNuc=   6.0000000   6.0000000   6.0000000   6.0000000   7.0000000   6.0000000   6.0000000   6.0000000   6.0000000   6.0000000

  Atom        11          12          13          14          15          16          17          18          19          20
 IAtWgt=          12          12          19          12          12          12          12          14          12          12
 AtmWgt=  12.0000000  12.0000000  18.9984033  12.0000000  12.0000000  12.0000000  12.0000000  14.0030740  12.0000000  12.0000000
 NucSpn=           0           0           1           0           0           0           0           2           0           0
 AtZEff=  -0.0000000  -0.0000000  -0.0000000  -0.0000000  -0.0000000  -0.0000000  -0.0000000  -0.0000000  -0.0000000  -0.0000000
 NQMom=    0.0000000   0.0000000   0.0000000   0.0000000   0.0000000   0.0000000   0.0000000   2.0440000   0.0000000   0.0000000
 NMagM=    0.0000000   0.0000000   2.6288670   0.0000000   0.0000000   0.0000000   0.0000000   0.4037610   0.0000000   0.0000000
 AtZNuc=   6.0000000   6.0000000   9.0000000   6.0000000   6.0000000   6.0000000   6.0000000   7.0000000   6.0000000   6.0000000

  Atom        21          22          23          24          25          26          27          28          29          30
 IAtWgt=          12          12          12          12          12          19          12          12          12          12
 AtmWgt=  12.0000000  12.0000000  12.0000000  12.0000000  12.0000000  18.9984033  12.0000000  12.0000000  12.0000000  12.0000000
 NucSpn=           0           0           0           0           0           1           0           0           0           0
 AtZEff=  -0.0000000  -0.0000000  -0.0000000  -0.0000000  -0.0000000  -0.0000000  -0.0000000  -0.0000000  -0.0000000  -0.0000000
 NQMom=    0.0000000   0.0000000   0.0000000   0.0000000   0.0000000   0.0000000   0.0000000   0.0000000   0.0000000   0.0000000
 NMagM=    0.0000000   0.0000000   0.0000000   0.0000000   0.0000000   2.6288670   0.0000000   0.0000000   0.0000000   0.0000000
 AtZNuc=   6.0000000   6.0000000   6.0000000   6.0000000   6.0000000   9.0000000   6.0000000   6.0000000   6.0000000   6.0000000

  Atom        31          32          33          34          35          36          37          38          39          40
 IAtWgt=          14          12          12          12          12          12          12          12          19          12
 AtmWgt=  14.0030740  12.0000000  12.0000000  12.0000000  12.0000000  12.0000000  12.0000000  12.0000000  18.9984033  12.0000000
 NucSpn=           2           0           0           0           0           0           0           0           1           0
 AtZEff=  -0.0000000  -0.0000000  -0.0000000  -0.0000000  -0.0000000  -0.0000000  -0.0000000  -0.0000000  -0.0000000  -0.0000000
 NQMom=    2.0440000   0.0000000   0.0000000   0.0000000   0.0000000   0.0000000   0.0000000   0.0000000   0.0000000   0.0000000
 NMagM=    0.4037610   0.0000000   0.0000000   0.0000000   0.0000000   0.0000000   0.0000000   0.0000000   2.6288670   0.0000000
 AtZNuc=   7.0000000   6.0000000   6.0000000   6.0000000   6.0000000   6.0000000   6.0000000   6.0000000   9.0000000   6.0000000

  Atom        41          42          43          44          45          46          47          48          49          50
 IAtWgt=          12          12          12          14          12          12          12          12          12          12
 AtmWgt=  12.0000000  12.0000000  12.0000000  14.0030740  12.0000000  12.0000000  12.0000000  12.0000000  12.0000000  12.0000000
 NucSpn=           0           0           0           2           0           0           0           0           0           0
 AtZEff=  -0.0000000  -0.0000000  -0.0000000  -0.0000000  -0.0000000  -0.0000000  -0.0000000  -0.0000000  -0.0000000  -0.0000000
 NQMom=    0.0000000   0.0000000   0.0000000   2.0440000   0.0000000   0.0000000   0.0000000   0.0000000   0.0000000   0.0000000
 NMagM=    0.0000000   0.0000000   0.0000000   0.4037610   0.0000000   0.0000000   0.0000000   0.0000000   0.0000000   0.0000000
 AtZNuc=   6.0000000   6.0000000   6.0000000   7.0000000   6.0000000   6.0000000   6.0000000   6.0000000   6.0000000   6.0000000

  Atom        51          52          53          54          55          56          57          58          59          60
 IAtWgt=          12          19          12          12          12          12          14          12          12          12
 AtmWgt=  12.0000000  18.9984033  12.0000000  12.0000000  12.0000000  12.0000000  14.0030740  12.0000000  12.0000000  12.0000000
 NucSpn=           0           1           0           0           0           0           2           0           0           0
 AtZEff=  -0.0000000  -0.0000000  -0.0000000  -0.0000000  -0.0000000  -0.0000000  -0.0000000  -0.0000000  -0.0000000  -0.0000000
 NQMom=    0.0000000   0.0000000   0.0000000   0.0000000   0.0000000   0.0000000   2.0440000   0.0000000   0.0000000   0.0000000
 NMagM=    0.0000000   2.6288670   0.0000000   0.0000000   0.0000000   0.0000000   0.4037610   0.0000000   0.0000000   0.0000000
 AtZNuc=   6.0000000   9.0000000   6.0000000   6.0000000   6.0000000   6.0000000   7.0000000   6.0000000   6.0000000   6.0000000

  Atom        61          62          63          64          65          66          67          68          69          70
 IAtWgt=          12          12          12          12          19          12          12          12          12          14
 AtmWgt=  12.0000000  12.0000000  12.0000000  12.0000000  18.9984033  12.0000000  12.0000000  12.0000000  12.0000000  14.0030740
 NucSpn=           0           0           0           0           1           0           0           0           0           2
 AtZEff=  -0.0000000  -0.0000000  -0.0000000  -0.0000000  -0.0000000  -0.0000000  -0.0000000  -0.0000000  -0.0000000  -0.0000000
 NQMom=    0.0000000   0.0000000   0.0000000   0.0000000   0.0000000   0.0000000   0.0000000   0.0000000   0.0000000   2.0440000
 NMagM=    0.0000000   0.0000000   0.0000000   0.0000000   2.6288670   0.0000000   0.0000000   0.0000000   0.0000000   0.4037610
 AtZNuc=   6.0000000   6.0000000   6.0000000   6.0000000   9.0000000   6.0000000   6.0000000   6.0000000   6.0000000   7.0000000

  Atom        71          72          73          74          75          76          77          78          79          80
 IAtWgt=          12          12          12          12          12          12          12          19          12          12
 AtmWgt=  12.0000000  12.0000000  12.0000000  12.0000000  12.0000000  12.0000000  12.0000000  18.9984033  12.0000000  12.0000000
 NucSpn=           0           0           0           0           0           0           0           1           0           0
 AtZEff=  -0.0000000  -0.0000000  -0.0000000  -0.0000000  -0.0000000  -0.0000000  -0.0000000  -0.0000000  -0.0000000  -0.0000000
 NQMom=    0.0000000   0.0000000   0.0000000   0.0000000   0.0000000   0.0000000   0.0000000   0.0000000   0.0000000   0.0000000
 NMagM=    0.0000000   0.0000000   0.0000000   0.0000000   0.0000000   0.0000000   0.0000000   2.6288670   0.0000000   0.0000000
 AtZNuc=   6.0000000   6.0000000   6.0000000   6.0000000   6.0000000   6.0000000   6.0000000   9.0000000   6.0000000   6.0000000

  Atom        81          82          83          84          85          86          87          88          89          90
 IAtWgt=          12          12          14          12          12          12          12          12          12          12
 AtmWgt=  12.0000000  12.0000000  14.0030740  12.0000000  12.0000000  12.0000000  12.0000000  12.0000000  12.0000000  12.0000000
 NucSpn=           0           0           2           0           0           0           0           0           0           0
 AtZEff=  -0.0000000  -0.0000000  -0.0000000  -0.0000000  -0.0000000  -0.0000000  -0.0000000  -0.0000000  -0.0000000  -0.0000000
 NQMom=    0.0000000   0.0000000   2.0440000   0.0000000   0.0000000   0.0000000   0.0000000   0.0000000   0.0000000   0.0000000
 NMagM=    0.0000000   0.0000000   0.4037610   0.0000000   0.0000000   0.0000000   0.0000000   0.0000000   0.0000000   0.0000000
 AtZNuc=   6.0000000   6.0000000   7.0000000   6.0000000   6.0000000   6.0000000   6.0000000   6.0000000   6.0000000   6.0000000

  Atom        91          92          93          94          95          96          97          98          99         100
 IAtWgt=          19           1           1           1           1           1           1           1           1           1
 AtmWgt=  18.9984033   1.0078250   1.0078250   1.0078250   1.0078250   1.0078250   1.0078250   1.0078250   1.0078250   1.0078250
 NucSpn=           1           1           1           1           1           1           1           1           1           1
 AtZEff=  -0.0000000  -0.0000000  -0.0000000  -0.0000000  -0.0000000  -0.0000000  -0.0000000  -0.0000000  -0.0000000  -0.0000000
 NQMom=    0.0000000   0.0000000   0.0000000   0.0000000   0.0000000   0.0000000   0.0000000   0.0000000   0.0000000   0.0000000
 NMagM=    2.6288670   2.7928460   2.7928460   2.7928460   2.7928460   2.7928460   2.7928460   2.7928460   2.7928460   2.7928460
 AtZNuc=   9.0000000   1.0000000   1.0000000   1.0000000   1.0000000   1.0000000   1.0000000   1.0000000   1.0000000   1.0000000

  Atom       101         102         103         104         105         106         107         108         109         110
 IAtWgt=           1           1           1           1           1           1           1           1           1           1
 AtmWgt=   1.0078250   1.0078250   1.0078250   1.0078250   1.0078250   1.0078250   1.0078250   1.0078250   1.0078250   1.0078250
 NucSpn=           1           1           1           1           1           1           1           1           1           1
 AtZEff=  -0.0000000  -0.0000000  -0.0000000  -0.0000000  -0.0000000  -0.0000000  -0.0000000  -0.0000000  -0.0000000  -0.0000000
 NQMom=    0.0000000   0.0000000   0.0000000   0.0000000   0.0000000   0.0000000   0.0000000   0.0000000   0.0000000   0.0000000
 NMagM=    2.7928460   2.7928460   2.7928460   2.7928460   2.7928460   2.7928460   2.7928460   2.7928460   2.7928460   2.7928460
 AtZNuc=   1.0000000   1.0000000   1.0000000   1.0000000   1.0000000   1.0000000   1.0000000   1.0000000   1.0000000   1.0000000

  Atom       111         112         113         114         115         116         117         118         119         120
 IAtWgt=           1           1           1           1           1           1           1           1           1           1
 AtmWgt=   1.0078250   1.0078250   1.0078250   1.0078250   1.0078250   1.0078250   1.0078250   1.0078250   1.0078250   1.0078250
 NucSpn=           1           1           1           1           1           1           1           1           1           1
 AtZEff=  -0.0000000  -0.0000000  -0.0000000  -0.0000000  -0.0000000  -0.0000000  -0.0000000  -0.0000000  -0.0000000  -0.0000000
 NQMom=    0.0000000   0.0000000   0.0000000   0.0000000   0.0000000   0.0000000   0.0000000   0.0000000   0.0000000   0.0000000
 NMagM=    2.7928460   2.7928460   2.7928460   2.7928460   2.7928460   2.7928460   2.7928460   2.7928460   2.7928460   2.7928460
 AtZNuc=   1.0000000   1.0000000   1.0000000   1.0000000   1.0000000   1.0000000   1.0000000   1.0000000   1.0000000   1.0000000

  Atom       121         122         123         124         125         126         127         128         129         130
 IAtWgt=           1           1           1           1           1           1           1           1           1           1
 AtmWgt=   1.0078250   1.0078250   1.0078250   1.0078250   1.0078250   1.0078250   1.0078250   1.0078250   1.0078250   1.0078250
 NucSpn=           1           1           1           1           1           1           1           1           1           1
 AtZEff=  -0.0000000  -0.0000000  -0.0000000  -0.0000000  -0.0000000  -0.0000000  -0.0000000  -0.0000000  -0.0000000  -0.0000000
 NQMom=    0.0000000   0.0000000   0.0000000   0.0000000   0.0000000   0.0000000   0.0000000   0.0000000   0.0000000   0.0000000
 NMagM=    2.7928460   2.7928460   2.7928460   2.7928460   2.7928460   2.7928460   2.7928460   2.7928460   2.7928460   2.7928460
 AtZNuc=   1.0000000   1.0000000   1.0000000   1.0000000   1.0000000   1.0000000   1.0000000   1.0000000   1.0000000   1.0000000

  Atom       131         132         133         134         135
 IAtWgt=           1           1           1           1           1
 AtmWgt=   1.0078250   1.0078250   1.0078250   1.0078250   1.0078250
 NucSpn=           1           1           1           1           1
 AtZEff=  -0.0000000  -0.0000000  -0.0000000  -0.0000000  -0.0000000
 NQMom=    0.0000000   0.0000000   0.0000000   0.0000000   0.0000000
 NMagM=    2.7928460   2.7928460   2.7928460   2.7928460   2.7928460
 AtZNuc=   1.0000000   1.0000000   1.0000000   1.0000000   1.0000000
 Leave Link  101 at Thu Jul 23 15:37:56 2020, MaxMem=  4026531840 cpu:               3.9 elap:               0.5
 (Enter /opt/ohpc/pub/libs/gaussian/g16-A.03/sandybridge/g16/l103.exe)

 GradGradGradGradGradGradGradGradGradGradGradGradGradGradGradGradGradGrad
 Berny optimization.
 Initialization pass.
                           ----------------------------
                           !    Initial Parameters    !
                           ! (Angstroms and Degrees)  !
 --------------------------                            --------------------------
 ! Name  Definition              Value          Derivative Info.                !
 --------------------------------------------------------------------------------
 ! R1    R(1,2)                  1.459          estimate D2E/DX2                !
 ! R2    R(1,6)                  1.4168         estimate D2E/DX2                !
 ! R3    R(1,92)                 1.0441         estimate D2E/DX2                !
 ! R4    R(2,3)                  1.3743         estimate D2E/DX2                !
 ! R5    R(2,93)                 1.0926         estimate D2E/DX2                !
 ! R6    R(3,4)                  1.4068         estimate D2E/DX2                !
 ! R7    R(3,94)                 1.1634         estimate D2E/DX2                !
 ! R8    R(4,5)                  1.3556         estimate D2E/DX2                !
 ! R9    R(4,7)                  1.4462         estimate D2E/DX2                !
 ! R10   R(5,6)                  1.3016         estimate D2E/DX2                !
 ! R11   R(6,95)                 1.1009         estimate D2E/DX2                !
 ! R12   R(7,8)                  1.4327         estimate D2E/DX2                !
 ! R13   R(7,12)                 1.4491         estimate D2E/DX2                !
 ! R14   R(8,9)                  1.4344         estimate D2E/DX2                !
 ! R15   R(8,96)                 1.059          estimate D2E/DX2                !
 ! R16   R(9,10)                 1.3892         estimate D2E/DX2                !
 ! R17   R(9,97)                 1.1397         estimate D2E/DX2                !
 ! R18   R(10,11)                1.3867         estimate D2E/DX2                !
 ! R19   R(10,14)                1.4843         estimate D2E/DX2                !
 ! R20   R(11,12)                1.3497         estimate D2E/DX2                !
 ! R21   R(11,98)                1.0773         estimate D2E/DX2                !
 ! R22   R(12,13)                1.3786         estimate D2E/DX2                !
 ! R23   R(14,15)                1.4206         estimate D2E/DX2                !
 ! R24   R(14,19)                1.3549         estimate D2E/DX2                !
 ! R25   R(15,16)                1.4368         estimate D2E/DX2                !
 ! R26   R(15,99)                1.1135         estimate D2E/DX2                !
 ! R27   R(16,17)                1.4581         estimate D2E/DX2                !
 ! R28   R(16,100)               0.9942         estimate D2E/DX2                !
 ! R29   R(17,18)                1.3281         estimate D2E/DX2                !
 ! R30   R(17,20)                1.5394         estimate D2E/DX2                !
 ! R31   R(18,19)                1.3095         estimate D2E/DX2                !
 ! R32   R(19,101)               1.1199         estimate D2E/DX2                !
 ! R33   R(20,21)                1.3727         estimate D2E/DX2                !
 ! R34   R(20,25)                1.4333         estimate D2E/DX2                !
 ! R35   R(21,22)                1.4243         estimate D2E/DX2                !
 ! R36   R(21,102)               1.0507         estimate D2E/DX2                !
 ! R37   R(22,23)                1.3354         estimate D2E/DX2                !
 ! R38   R(22,103)               1.1337         estimate D2E/DX2                !
 ! R39   R(23,24)                1.3954         estimate D2E/DX2                !
 ! R40   R(23,27)                1.5588         estimate D2E/DX2                !
 ! R41   R(24,25)                1.3199         estimate D2E/DX2                !
 ! R42   R(24,104)               1.0774         estimate D2E/DX2                !
 ! R43   R(25,26)                1.3126         estimate D2E/DX2                !
 ! R44   R(27,28)                1.4051         estimate D2E/DX2                !
 ! R45   R(27,32)                1.3868         estimate D2E/DX2                !
 ! R46   R(28,29)                1.4366         estimate D2E/DX2                !
 ! R47   R(28,105)               1.0282         estimate D2E/DX2                !
 ! R48   R(29,30)                1.3089         estimate D2E/DX2                !
 ! R49   R(29,106)               1.0782         estimate D2E/DX2                !
 ! R50   R(30,31)                1.3505         estimate D2E/DX2                !
 ! R51   R(30,33)                1.5115         estimate D2E/DX2                !
 ! R52   R(31,32)                1.3784         estimate D2E/DX2                !
 ! R53   R(32,107)               1.0514         estimate D2E/DX2                !
 ! R54   R(33,34)                1.3877         estimate D2E/DX2                !
 ! R55   R(33,38)                1.4689         estimate D2E/DX2                !
 ! R56   R(34,35)                1.3932         estimate D2E/DX2                !
 ! R57   R(34,108)               1.0916         estimate D2E/DX2                !
 ! R58   R(35,36)                1.469          estimate D2E/DX2                !
 ! R59   R(35,109)               1.0849         estimate D2E/DX2                !
 ! R60   R(36,37)                1.3423         estimate D2E/DX2                !
 ! R61   R(36,40)                1.4259         estimate D2E/DX2                !
 ! R62   R(37,38)                1.4109         estimate D2E/DX2                !
 ! R63   R(37,110)               1.0618         estimate D2E/DX2                !
 ! R64   R(38,39)                1.3219         estimate D2E/DX2                !
 ! R65   R(40,41)                1.4            estimate D2E/DX2                !
 ! R66   R(40,45)                1.4423         estimate D2E/DX2                !
 ! R67   R(41,42)                1.388          estimate D2E/DX2                !
 ! R68   R(41,111)               1.0369         estimate D2E/DX2                !
 ! R69   R(42,43)                1.4383         estimate D2E/DX2                !
 ! R70   R(42,112)               1.0507         estimate D2E/DX2                !
 ! R71   R(43,44)                1.3509         estimate D2E/DX2                !
 ! R72   R(43,46)                1.5541         estimate D2E/DX2                !
 ! R73   R(44,45)                1.3304         estimate D2E/DX2                !
 ! R74   R(45,113)               1.0939         estimate D2E/DX2                !
 ! R75   R(46,47)                1.3747         estimate D2E/DX2                !
 ! R76   R(46,51)                1.353          estimate D2E/DX2                !
 ! R77   R(47,48)                1.3513         estimate D2E/DX2                !
 ! R78   R(47,114)               1.1563         estimate D2E/DX2                !
 ! R79   R(48,49)                1.4366         estimate D2E/DX2                !
 ! R80   R(48,115)               1.058          estimate D2E/DX2                !
 ! R81   R(49,50)                1.3921         estimate D2E/DX2                !
 ! R82   R(49,53)                1.4285         estimate D2E/DX2                !
 ! R83   R(50,51)                1.4331         estimate D2E/DX2                !
 ! R84   R(50,116)               1.0145         estimate D2E/DX2                !
 ! R85   R(51,52)                1.3962         estimate D2E/DX2                !
 ! R86   R(53,54)                1.414          estimate D2E/DX2                !
 ! R87   R(53,58)                1.4075         estimate D2E/DX2                !
 ! R88   R(54,55)                1.4534         estimate D2E/DX2                !
 ! R89   R(54,117)               1.0678         estimate D2E/DX2                !
 ! R90   R(55,56)                1.338          estimate D2E/DX2                !
 ! R91   R(55,118)               1.0596         estimate D2E/DX2                !
 ! R92   R(56,57)                1.3427         estimate D2E/DX2                !
 ! R93   R(56,59)                1.4637         estimate D2E/DX2                !
 ! R94   R(57,58)                1.3993         estimate D2E/DX2                !
 ! R95   R(58,119)               1.1037         estimate D2E/DX2                !
 ! R96   R(59,60)                1.3703         estimate D2E/DX2                !
 ! R97   R(59,64)                1.4762         estimate D2E/DX2                !
 ! R98   R(60,61)                1.3824         estimate D2E/DX2                !
 ! R99   R(60,120)               1.1599         estimate D2E/DX2                !
 ! R100  R(61,62)                1.3453         estimate D2E/DX2                !
 ! R101  R(61,121)               1.1123         estimate D2E/DX2                !
 ! R102  R(62,63)                1.4159         estimate D2E/DX2                !
 ! R103  R(62,66)                1.4475         estimate D2E/DX2                !
 ! R104  R(63,64)                1.3793         estimate D2E/DX2                !
 ! R105  R(63,122)               1.0538         estimate D2E/DX2                !
 ! R106  R(64,65)                1.3642         estimate D2E/DX2                !
 ! R107  R(66,67)                1.4174         estimate D2E/DX2                !
 ! R108  R(66,71)                1.4047         estimate D2E/DX2                !
 ! R109  R(67,68)                1.4787         estimate D2E/DX2                !
 ! R110  R(67,123)               1.0587         estimate D2E/DX2                !
 ! R111  R(68,69)                1.3281         estimate D2E/DX2                !
 ! R112  R(68,124)               1.0766         estimate D2E/DX2                !
 ! R113  R(69,70)                1.3811         estimate D2E/DX2                !
 ! R114  R(69,72)                1.5247         estimate D2E/DX2                !
 ! R115  R(70,71)                1.295          estimate D2E/DX2                !
 ! R116  R(71,125)               1.0878         estimate D2E/DX2                !
 ! R117  R(72,73)                1.4729         estimate D2E/DX2                !
 ! R118  R(72,77)                1.39           estimate D2E/DX2                !
 ! R119  R(73,74)                1.3065         estimate D2E/DX2                !
 ! R120  R(73,126)               1.0689         estimate D2E/DX2                !
 ! R121  R(74,75)                1.4688         estimate D2E/DX2                !
 ! R122  R(74,127)               1.104          estimate D2E/DX2                !
 ! R123  R(75,76)                1.4053         estimate D2E/DX2                !
 ! R124  R(75,79)                1.487          estimate D2E/DX2                !
 ! R125  R(76,77)                1.3485         estimate D2E/DX2                !
 ! R126  R(76,128)               1.0617         estimate D2E/DX2                !
 ! R127  R(77,78)                1.3362         estimate D2E/DX2                !
 ! R128  R(79,80)                1.3341         estimate D2E/DX2                !
 ! R129  R(79,84)                1.4006         estimate D2E/DX2                !
 ! R130  R(80,81)                1.4385         estimate D2E/DX2                !
 ! R131  R(80,129)               1.1377         estimate D2E/DX2                !
 ! R132  R(81,82)                1.3777         estimate D2E/DX2                !
 ! R133  R(81,130)               1.1099         estimate D2E/DX2                !
 ! R134  R(82,83)                1.3238         estimate D2E/DX2                !
 ! R135  R(82,85)                1.4453         estimate D2E/DX2                !
 ! R136  R(83,84)                1.3353         estimate D2E/DX2                !
 ! R137  R(84,131)               1.0875         estimate D2E/DX2                !
 ! R138  R(85,86)                1.3968         estimate D2E/DX2                !
 ! R139  R(85,90)                1.3337         estimate D2E/DX2                !
 ! R140  R(86,87)                1.4367         estimate D2E/DX2                !
 ! R141  R(86,132)               1.1155         estimate D2E/DX2                !
 ! R142  R(87,88)                1.3537         estimate D2E/DX2                !
 ! R143  R(87,133)               1.1649         estimate D2E/DX2                !
 ! R144  R(88,89)                1.3311         estimate D2E/DX2                !
 ! R145  R(88,134)               1.1213         estimate D2E/DX2                !
 ! R146  R(89,90)                1.4466         estimate D2E/DX2                !
 ! R147  R(89,135)               1.1388         estimate D2E/DX2                !
 ! R148  R(90,91)                1.3704         estimate D2E/DX2                !
 ! A1    A(2,1,6)              117.6063         estimate D2E/DX2                !
 ! A2    A(2,1,92)             120.1352         estimate D2E/DX2                !
 ! A3    A(6,1,92)             122.2051         estimate D2E/DX2                !
 ! A4    A(1,2,3)              115.6777         estimate D2E/DX2                !
 ! A5    A(1,2,93)             121.1644         estimate D2E/DX2                !
 ! A6    A(3,2,93)             122.9911         estimate D2E/DX2                !
 ! A7    A(2,3,4)              121.5709         estimate D2E/DX2                !
 ! A8    A(2,3,94)             118.6834         estimate D2E/DX2                !
 ! A9    A(4,3,94)             119.7458         estimate D2E/DX2                !
 ! A10   A(3,4,5)              122.3198         estimate D2E/DX2                !
 ! A11   A(3,4,7)              120.5371         estimate D2E/DX2                !
 ! A12   A(5,4,7)              117.1423         estimate D2E/DX2                !
 ! A13   A(4,5,6)              117.6281         estimate D2E/DX2                !
 ! A14   A(1,6,5)              125.0858         estimate D2E/DX2                !
 ! A15   A(1,6,95)             116.1165         estimate D2E/DX2                !
 ! A16   A(5,6,95)             118.536          estimate D2E/DX2                !
 ! A17   A(4,7,8)              122.2411         estimate D2E/DX2                !
 ! A18   A(4,7,12)             123.5139         estimate D2E/DX2                !
 ! A19   A(8,7,12)             114.1271         estimate D2E/DX2                !
 ! A20   A(7,8,9)              121.7975         estimate D2E/DX2                !
 ! A21   A(7,8,96)             119.6306         estimate D2E/DX2                !
 ! A22   A(9,8,96)             118.1284         estimate D2E/DX2                !
 ! A23   A(8,9,10)             119.8895         estimate D2E/DX2                !
 ! A24   A(8,9,97)             116.9419         estimate D2E/DX2                !
 ! A25   A(10,9,97)            122.2027         estimate D2E/DX2                !
 ! A26   A(9,10,11)            117.453          estimate D2E/DX2                !
 ! A27   A(9,10,14)            121.1567         estimate D2E/DX2                !
 ! A28   A(11,10,14)           121.2585         estimate D2E/DX2                !
 ! A29   A(10,11,12)           124.0427         estimate D2E/DX2                !
 ! A30   A(10,11,98)           120.4143         estimate D2E/DX2                !
 ! A31   A(12,11,98)           115.5189         estimate D2E/DX2                !
 ! A32   A(7,12,11)            121.8358         estimate D2E/DX2                !
 ! A33   A(7,12,13)            115.2683         estimate D2E/DX2                !
 ! A34   A(11,12,13)           122.8731         estimate D2E/DX2                !
 ! A35   A(10,14,15)           119.6549         estimate D2E/DX2                !
 ! A36   A(10,14,19)           122.3303         estimate D2E/DX2                !
 ! A37   A(15,14,19)           117.9448         estimate D2E/DX2                !
 ! A38   A(14,15,16)           118.8698         estimate D2E/DX2                !
 ! A39   A(14,15,99)           124.1856         estimate D2E/DX2                !
 ! A40   A(16,15,99)           116.8145         estimate D2E/DX2                !
 ! A41   A(15,16,17)           115.1493         estimate D2E/DX2                !
 ! A42   A(15,16,100)          121.6949         estimate D2E/DX2                !
 ! A43   A(17,16,100)          122.9389         estimate D2E/DX2                !
 ! A44   A(16,17,18)           123.0279         estimate D2E/DX2                !
 ! A45   A(16,17,20)           119.6355         estimate D2E/DX2                !
 ! A46   A(18,17,20)           117.327          estimate D2E/DX2                !
 ! A47   A(17,18,19)           118.5            estimate D2E/DX2                !
 ! A48   A(14,19,18)           126.2459         estimate D2E/DX2                !
 ! A49   A(14,19,101)          117.222          estimate D2E/DX2                !
 ! A50   A(18,19,101)          116.087          estimate D2E/DX2                !
 ! A51   A(17,20,21)           118.6813         estimate D2E/DX2                !
 ! A52   A(17,20,25)           122.3479         estimate D2E/DX2                !
 ! A53   A(21,20,25)           118.97           estimate D2E/DX2                !
 ! A54   A(20,21,22)           118.9346         estimate D2E/DX2                !
 ! A55   A(20,21,102)          121.1356         estimate D2E/DX2                !
 ! A56   A(22,21,102)          118.8013         estimate D2E/DX2                !
 ! A57   A(21,22,23)           120.7992         estimate D2E/DX2                !
 ! A58   A(21,22,103)          113.8504         estimate D2E/DX2                !
 ! A59   A(23,22,103)          125.1851         estimate D2E/DX2                !
 ! A60   A(22,23,24)           118.6346         estimate D2E/DX2                !
 ! A61   A(22,23,27)           121.039          estimate D2E/DX2                !
 ! A62   A(24,23,27)           120.3021         estimate D2E/DX2                !
 ! A63   A(23,24,25)           123.2776         estimate D2E/DX2                !
 ! A64   A(23,24,104)          118.0922         estimate D2E/DX2                !
 ! A65   A(25,24,104)          118.2763         estimate D2E/DX2                !
 ! A66   A(20,25,24)           118.7154         estimate D2E/DX2                !
 ! A67   A(20,25,26)           120.7599         estimate D2E/DX2                !
 ! A68   A(24,25,26)           120.5102         estimate D2E/DX2                !
 ! A69   A(23,27,28)           119.3886         estimate D2E/DX2                !
 ! A70   A(23,27,32)           120.1631         estimate D2E/DX2                !
 ! A71   A(28,27,32)           120.4253         estimate D2E/DX2                !
 ! A72   A(27,28,29)           116.0215         estimate D2E/DX2                !
 ! A73   A(27,28,105)          123.0407         estimate D2E/DX2                !
 ! A74   A(29,28,105)          120.8815         estimate D2E/DX2                !
 ! A75   A(28,29,30)           121.5415         estimate D2E/DX2                !
 ! A76   A(28,29,106)          110.8888         estimate D2E/DX2                !
 ! A77   A(30,29,106)          127.5595         estimate D2E/DX2                !
 ! A78   A(29,30,31)           122.1042         estimate D2E/DX2                !
 ! A79   A(29,30,33)           124.0939         estimate D2E/DX2                !
 ! A80   A(31,30,33)           113.6894         estimate D2E/DX2                !
 ! A81   A(30,31,32)           120.1453         estimate D2E/DX2                !
 ! A82   A(27,32,31)           119.5797         estimate D2E/DX2                !
 ! A83   A(27,32,107)          122.4028         estimate D2E/DX2                !
 ! A84   A(31,32,107)          117.8478         estimate D2E/DX2                !
 ! A85   A(30,33,34)           125.4057         estimate D2E/DX2                !
 ! A86   A(30,33,38)           117.8774         estimate D2E/DX2                !
 ! A87   A(34,33,38)           116.6635         estimate D2E/DX2                !
 ! A88   A(33,34,35)           124.3585         estimate D2E/DX2                !
 ! A89   A(33,34,108)          114.4189         estimate D2E/DX2                !
 ! A90   A(35,34,108)          120.9932         estimate D2E/DX2                !
 ! A91   A(34,35,36)           118.2529         estimate D2E/DX2                !
 ! A92   A(34,35,109)          117.9885         estimate D2E/DX2                !
 ! A93   A(36,35,109)          122.9072         estimate D2E/DX2                !
 ! A94   A(35,36,37)           117.1364         estimate D2E/DX2                !
 ! A95   A(35,36,40)           120.1269         estimate D2E/DX2                !
 ! A96   A(37,36,40)           122.3753         estimate D2E/DX2                !
 ! A97   A(36,37,38)           125.3395         estimate D2E/DX2                !
 ! A98   A(36,37,110)          121.952          estimate D2E/DX2                !
 ! A99   A(38,37,110)          112.6297         estimate D2E/DX2                !
 ! A100  A(33,38,37)           117.6864         estimate D2E/DX2                !
 ! A101  A(33,38,39)           119.3677         estimate D2E/DX2                !
 ! A102  A(37,38,39)           122.9397         estimate D2E/DX2                !
 ! A103  A(36,40,41)           123.5146         estimate D2E/DX2                !
 ! A104  A(36,40,45)           122.249          estimate D2E/DX2                !
 ! A105  A(41,40,45)           113.8286         estimate D2E/DX2                !
 ! A106  A(40,41,42)           121.507          estimate D2E/DX2                !
 ! A107  A(40,41,111)          121.9498         estimate D2E/DX2                !
 ! A108  A(42,41,111)          115.9484         estimate D2E/DX2                !
 ! A109  A(41,42,43)           117.626          estimate D2E/DX2                !
 ! A110  A(41,42,112)          122.5332         estimate D2E/DX2                !
 ! A111  A(43,42,112)          119.5619         estimate D2E/DX2                !
 ! A112  A(42,43,44)           123.101          estimate D2E/DX2                !
 ! A113  A(42,43,46)           122.717          estimate D2E/DX2                !
 ! A114  A(44,43,46)           113.869          estimate D2E/DX2                !
 ! A115  A(43,44,45)           115.6495         estimate D2E/DX2                !
 ! A116  A(40,45,44)           127.0401         estimate D2E/DX2                !
 ! A117  A(40,45,113)          114.9831         estimate D2E/DX2                !
 ! A118  A(44,45,113)          117.5933         estimate D2E/DX2                !
 ! A119  A(43,46,47)           121.733          estimate D2E/DX2                !
 ! A120  A(43,46,51)           121.5366         estimate D2E/DX2                !
 ! A121  A(47,46,51)           116.7228         estimate D2E/DX2                !
 ! A122  A(46,47,48)           122.678          estimate D2E/DX2                !
 ! A123  A(46,47,114)          115.9133         estimate D2E/DX2                !
 ! A124  A(48,47,114)          121.4044         estimate D2E/DX2                !
 ! A125  A(47,48,49)           121.0311         estimate D2E/DX2                !
 ! A126  A(47,48,115)          118.0735         estimate D2E/DX2                !
 ! A127  A(49,48,115)          120.8036         estimate D2E/DX2                !
 ! A128  A(48,49,50)           117.9715         estimate D2E/DX2                !
 ! A129  A(48,49,53)           119.3227         estimate D2E/DX2                !
 ! A130  A(50,49,53)           122.647          estimate D2E/DX2                !
 ! A131  A(49,50,51)           116.8493         estimate D2E/DX2                !
 ! A132  A(49,50,116)          120.0717         estimate D2E/DX2                !
 ! A133  A(51,50,116)          122.9711         estimate D2E/DX2                !
 ! A134  A(46,51,50)           124.6453         estimate D2E/DX2                !
 ! A135  A(46,51,52)           120.6422         estimate D2E/DX2                !
 ! A136  A(50,51,52)           114.6403         estimate D2E/DX2                !
 ! A137  A(49,53,54)           122.9995         estimate D2E/DX2                !
 ! A138  A(49,53,58)           120.0101         estimate D2E/DX2                !
 ! A139  A(54,53,58)           116.8311         estimate D2E/DX2                !
 ! A140  A(53,54,55)           117.6758         estimate D2E/DX2                !
 ! A141  A(53,54,117)          120.5706         estimate D2E/DX2                !
 ! A142  A(55,54,117)          121.7343         estimate D2E/DX2                !
 ! A143  A(54,55,56)           121.4759         estimate D2E/DX2                !
 ! A144  A(54,55,118)          116.6464         estimate D2E/DX2                !
 ! A145  A(56,55,118)          121.8771         estimate D2E/DX2                !
 ! A146  A(55,56,57)           122.2277         estimate D2E/DX2                !
 ! A147  A(55,56,59)           125.105          estimate D2E/DX2                !
 ! A148  A(57,56,59)           112.6655         estimate D2E/DX2                !
 ! A149  A(56,57,58)           118.3975         estimate D2E/DX2                !
 ! A150  A(53,58,57)           123.2152         estimate D2E/DX2                !
 ! A151  A(53,58,119)          123.1595         estimate D2E/DX2                !
 ! A152  A(57,58,119)          113.3205         estimate D2E/DX2                !
 ! A153  A(56,59,60)           124.9476         estimate D2E/DX2                !
 ! A154  A(56,59,64)           123.0573         estimate D2E/DX2                !
 ! A155  A(60,59,64)           111.867          estimate D2E/DX2                !
 ! A156  A(59,60,61)           124.5776         estimate D2E/DX2                !
 ! A157  A(59,60,120)          114.872          estimate D2E/DX2                !
 ! A158  A(61,60,120)          120.5072         estimate D2E/DX2                !
 ! A159  A(60,61,62)           121.4407         estimate D2E/DX2                !
 ! A160  A(60,61,121)          115.23           estimate D2E/DX2                !
 ! A161  A(62,61,121)          122.901          estimate D2E/DX2                !
 ! A162  A(61,62,63)           120.2293         estimate D2E/DX2                !
 ! A163  A(61,62,66)           121.5995         estimate D2E/DX2                !
 ! A164  A(63,62,66)           117.8788         estimate D2E/DX2                !
 ! A165  A(62,63,64)           116.666          estimate D2E/DX2                !
 ! A166  A(62,63,122)          126.4275         estimate D2E/DX2                !
 ! A167  A(64,63,122)          116.8688         estimate D2E/DX2                !
 ! A168  A(59,64,63)           125.0235         estimate D2E/DX2                !
 ! A169  A(59,64,65)           115.9329         estimate D2E/DX2                !
 ! A170  A(63,64,65)           119.0434         estimate D2E/DX2                !
 ! A171  A(62,66,67)           121.8587         estimate D2E/DX2                !
 ! A172  A(62,66,71)           124.8946         estimate D2E/DX2                !
 ! A173  A(67,66,71)           113.0947         estimate D2E/DX2                !
 ! A174  A(66,67,68)           119.415          estimate D2E/DX2                !
 ! A175  A(66,67,123)          123.6531         estimate D2E/DX2                !
 ! A176  A(68,67,123)          116.9031         estimate D2E/DX2                !
 ! A177  A(67,68,69)           117.1489         estimate D2E/DX2                !
 ! A178  A(67,68,124)          117.5518         estimate D2E/DX2                !
 ! A179  A(69,68,124)          125.1361         estimate D2E/DX2                !
 ! A180  A(68,69,70)           125.5596         estimate D2E/DX2                !
 ! A181  A(68,69,72)           120.8287         estimate D2E/DX2                !
 ! A182  A(70,69,72)           113.5686         estimate D2E/DX2                !
 ! A183  A(69,70,71)           114.6113         estimate D2E/DX2                !
 ! A184  A(66,71,70)           130.1355         estimate D2E/DX2                !
 ! A185  A(66,71,125)          119.4988         estimate D2E/DX2                !
 ! A186  A(70,71,125)          110.3379         estimate D2E/DX2                !
 ! A187  A(69,72,73)           119.635          estimate D2E/DX2                !
 ! A188  A(69,72,77)           123.9427         estimate D2E/DX2                !
 ! A189  A(73,72,77)           116.4223         estimate D2E/DX2                !
 ! A190  A(72,73,74)           120.2853         estimate D2E/DX2                !
 ! A191  A(72,73,126)          116.2452         estimate D2E/DX2                !
 ! A192  A(74,73,126)          123.4188         estimate D2E/DX2                !
 ! A193  A(73,74,75)           122.0573         estimate D2E/DX2                !
 ! A194  A(73,74,127)          122.5026         estimate D2E/DX2                !
 ! A195  A(75,74,127)          115.2548         estimate D2E/DX2                !
 ! A196  A(74,75,76)           117.1549         estimate D2E/DX2                !
 ! A197  A(74,75,79)           119.2216         estimate D2E/DX2                !
 ! A198  A(76,75,79)           123.5198         estimate D2E/DX2                !
 ! A199  A(75,76,77)           119.8935         estimate D2E/DX2                !
 ! A200  A(75,76,128)          116.505          estimate D2E/DX2                !
 ! A201  A(77,76,128)          123.392          estimate D2E/DX2                !
 ! A202  A(72,77,76)           124.0355         estimate D2E/DX2                !
 ! A203  A(72,77,78)           115.247          estimate D2E/DX2                !
 ! A204  A(76,77,78)           120.4896         estimate D2E/DX2                !
 ! A205  A(75,79,80)           122.5355         estimate D2E/DX2                !
 ! A206  A(75,79,84)           120.1221         estimate D2E/DX2                !
 ! A207  A(80,79,84)           116.8148         estimate D2E/DX2                !
 ! A208  A(79,80,81)           119.5825         estimate D2E/DX2                !
 ! A209  A(79,80,129)          122.3549         estimate D2E/DX2                !
 ! A210  A(81,80,129)          117.4289         estimate D2E/DX2                !
 ! A211  A(80,81,82)           119.1174         estimate D2E/DX2                !
 ! A212  A(80,81,130)          118.0396         estimate D2E/DX2                !
 ! A213  A(82,81,130)          122.5329         estimate D2E/DX2                !
 ! A214  A(81,82,83)           120.6288         estimate D2E/DX2                !
 ! A215  A(81,82,85)           119.0753         estimate D2E/DX2                !
 ! A216  A(83,82,85)           120.2579         estimate D2E/DX2                !
 ! A217  A(82,83,84)           119.222          estimate D2E/DX2                !
 ! A218  A(79,84,83)           124.2862         estimate D2E/DX2                !
 ! A219  A(79,84,131)          119.305          estimate D2E/DX2                !
 ! A220  A(83,84,131)          115.8428         estimate D2E/DX2                !
 ! A221  A(82,85,86)           119.4611         estimate D2E/DX2                !
 ! A222  A(82,85,90)           119.8745         estimate D2E/DX2                !
 ! A223  A(86,85,90)           120.3323         estimate D2E/DX2                !
 ! A224  A(85,86,87)           116.5428         estimate D2E/DX2                !
 ! A225  A(85,86,132)          125.223          estimate D2E/DX2                !
 ! A226  A(87,86,132)          118.2329         estimate D2E/DX2                !
 ! A227  A(86,87,88)           121.6471         estimate D2E/DX2                !
 ! A228  A(86,87,133)          119.1142         estimate D2E/DX2                !
 ! A229  A(88,87,133)          119.0971         estimate D2E/DX2                !
 ! A230  A(87,88,89)           121.391          estimate D2E/DX2                !
 ! A231  A(87,88,134)          117.7297         estimate D2E/DX2                !
 ! A232  A(89,88,134)          120.7546         estimate D2E/DX2                !
 ! A233  A(88,89,90)           117.7465         estimate D2E/DX2                !
 ! A234  A(88,89,135)          124.9809         estimate D2E/DX2                !
 ! A235  A(90,89,135)          116.7524         estimate D2E/DX2                !
 ! A236  A(85,90,89)           121.7335         estimate D2E/DX2                !
 ! A237  A(85,90,91)           119.8861         estimate D2E/DX2                !
 ! A238  A(89,90,91)           117.9776         estimate D2E/DX2                !
 ! D1    D(6,1,2,3)             -2.4023         estimate D2E/DX2                !
 ! D2    D(6,1,2,93)          -177.8429         estimate D2E/DX2                !
 ! D3    D(92,1,2,3)          -179.803          estimate D2E/DX2                !
 ! D4    D(92,1,2,93)            4.7565         estimate D2E/DX2                !
 ! D5    D(2,1,6,5)              4.0547         estimate D2E/DX2                !
 ! D6    D(2,1,6,95)           178.0677         estimate D2E/DX2                !
 ! D7    D(92,1,6,5)          -178.6021         estimate D2E/DX2                !
 ! D8    D(92,1,6,95)           -4.5891         estimate D2E/DX2                !
 ! D9    D(1,2,3,4)             -0.2845         estimate D2E/DX2                !
 ! D10   D(1,2,3,94)           179.7287         estimate D2E/DX2                !
 ! D11   D(93,2,3,4)           175.0638         estimate D2E/DX2                !
 ! D12   D(93,2,3,94)           -4.923          estimate D2E/DX2                !
 ! D13   D(2,3,4,5)              1.891          estimate D2E/DX2                !
 ! D14   D(2,3,4,7)           -178.4243         estimate D2E/DX2                !
 ! D15   D(94,3,4,5)          -178.1224         estimate D2E/DX2                !
 ! D16   D(94,3,4,7)             1.5623         estimate D2E/DX2                !
 ! D17   D(3,4,5,6)             -0.5064         estimate D2E/DX2                !
 ! D18   D(7,4,5,6)            179.7988         estimate D2E/DX2                !
 ! D19   D(3,4,7,8)            -92.0961         estimate D2E/DX2                !
 ! D20   D(3,4,7,12)            83.7237         estimate D2E/DX2                !
 ! D21   D(5,4,7,8)             87.6045         estimate D2E/DX2                !
 ! D22   D(5,4,7,12)           -96.5757         estimate D2E/DX2                !
 ! D23   D(4,5,6,1)             -2.5355         estimate D2E/DX2                !
 ! D24   D(4,5,6,95)          -176.4159         estimate D2E/DX2                !
 ! D25   D(4,7,8,9)           -177.4161         estimate D2E/DX2                !
 ! D26   D(4,7,8,96)            -5.2034         estimate D2E/DX2                !
 ! D27   D(12,7,8,9)             6.4021         estimate D2E/DX2                !
 ! D28   D(12,7,8,96)          178.6148         estimate D2E/DX2                !
 ! D29   D(4,7,12,11)         -176.7929         estimate D2E/DX2                !
 ! D30   D(4,7,12,13)            1.5178         estimate D2E/DX2                !
 ! D31   D(8,7,12,11)           -0.6664         estimate D2E/DX2                !
 ! D32   D(8,7,12,13)          177.6442         estimate D2E/DX2                !
 ! D33   D(7,8,9,10)           -11.319          estimate D2E/DX2                !
 ! D34   D(7,8,9,97)           179.6763         estimate D2E/DX2                !
 ! D35   D(96,8,9,10)          176.3558         estimate D2E/DX2                !
 ! D36   D(96,8,9,97)            7.3511         estimate D2E/DX2                !
 ! D37   D(8,9,10,11)            9.7753         estimate D2E/DX2                !
 ! D38   D(8,9,10,14)         -174.3456         estimate D2E/DX2                !
 ! D39   D(97,9,10,11)         178.1834         estimate D2E/DX2                !
 ! D40   D(97,9,10,14)          -5.9375         estimate D2E/DX2                !
 ! D41   D(9,10,11,12)          -4.2116         estimate D2E/DX2                !
 ! D42   D(9,10,11,98)         173.9194         estimate D2E/DX2                !
 ! D43   D(14,10,11,12)        179.9138         estimate D2E/DX2                !
 ! D44   D(14,10,11,98)         -1.9552         estimate D2E/DX2                !
 ! D45   D(9,10,14,15)         -69.7575         estimate D2E/DX2                !
 ! D46   D(9,10,14,19)         113.3471         estimate D2E/DX2                !
 ! D47   D(11,10,14,15)        105.9644         estimate D2E/DX2                !
 ! D48   D(11,10,14,19)        -70.931          estimate D2E/DX2                !
 ! D49   D(10,11,12,7)          -0.3971         estimate D2E/DX2                !
 ! D50   D(10,11,12,13)       -178.578          estimate D2E/DX2                !
 ! D51   D(98,11,12,7)        -178.611          estimate D2E/DX2                !
 ! D52   D(98,11,12,13)          3.208          estimate D2E/DX2                !
 ! D53   D(10,14,15,16)       -178.4368         estimate D2E/DX2                !
 ! D54   D(10,14,15,99)          5.8471         estimate D2E/DX2                !
 ! D55   D(19,14,15,16)         -1.4062         estimate D2E/DX2                !
 ! D56   D(19,14,15,99)       -177.1224         estimate D2E/DX2                !
 ! D57   D(10,14,19,18)        176.0832         estimate D2E/DX2                !
 ! D58   D(10,14,19,101)         4.0745         estimate D2E/DX2                !
 ! D59   D(15,14,19,18)         -0.8627         estimate D2E/DX2                !
 ! D60   D(15,14,19,101)      -172.8714         estimate D2E/DX2                !
 ! D61   D(14,15,16,17)          4.6016         estimate D2E/DX2                !
 ! D62   D(14,15,16,100)       179.3995         estimate D2E/DX2                !
 ! D63   D(99,15,16,17)       -179.3685         estimate D2E/DX2                !
 ! D64   D(99,15,16,100)        -4.5706         estimate D2E/DX2                !
 ! D65   D(15,16,17,18)         -6.3104         estimate D2E/DX2                !
 ! D66   D(15,16,17,20)        172.5329         estimate D2E/DX2                !
 ! D67   D(100,16,17,18)       178.9639         estimate D2E/DX2                !
 ! D68   D(100,16,17,20)        -2.1928         estimate D2E/DX2                !
 ! D69   D(16,17,18,19)          4.3735         estimate D2E/DX2                !
 ! D70   D(20,17,18,19)       -174.4948         estimate D2E/DX2                !
 ! D71   D(16,17,20,21)        146.5985         estimate D2E/DX2                !
 ! D72   D(16,17,20,25)        -33.7142         estimate D2E/DX2                !
 ! D73   D(18,17,20,21)        -34.4931         estimate D2E/DX2                !
 ! D74   D(18,17,20,25)        145.1942         estimate D2E/DX2                !
 ! D75   D(17,18,19,14)         -0.5934         estimate D2E/DX2                !
 ! D76   D(17,18,19,101)       171.4948         estimate D2E/DX2                !
 ! D77   D(17,20,21,22)        171.107          estimate D2E/DX2                !
 ! D78   D(17,20,21,102)         3.3963         estimate D2E/DX2                !
 ! D79   D(25,20,21,22)         -8.591          estimate D2E/DX2                !
 ! D80   D(25,20,21,102)      -176.3016         estimate D2E/DX2                !
 ! D81   D(17,20,25,24)       -176.5657         estimate D2E/DX2                !
 ! D82   D(17,20,25,26)          4.8142         estimate D2E/DX2                !
 ! D83   D(21,20,25,24)          3.1207         estimate D2E/DX2                !
 ! D84   D(21,20,25,26)       -175.4994         estimate D2E/DX2                !
 ! D85   D(20,21,22,23)          7.4347         estimate D2E/DX2                !
 ! D86   D(20,21,22,103)      -177.0041         estimate D2E/DX2                !
 ! D87   D(102,21,22,23)       175.435          estimate D2E/DX2                !
 ! D88   D(102,21,22,103)       -9.0038         estimate D2E/DX2                !
 ! D89   D(21,22,23,24)         -0.5839         estimate D2E/DX2                !
 ! D90   D(21,22,23,27)       -178.7938         estimate D2E/DX2                !
 ! D91   D(103,22,23,24)      -175.6154         estimate D2E/DX2                !
 ! D92   D(103,22,23,27)         6.1746         estimate D2E/DX2                !
 ! D93   D(22,23,24,25)         -5.2843         estimate D2E/DX2                !
 ! D94   D(22,23,24,104)      -178.3264         estimate D2E/DX2                !
 ! D95   D(27,23,24,25)        172.9393         estimate D2E/DX2                !
 ! D96   D(27,23,24,104)        -0.1029         estimate D2E/DX2                !
 ! D97   D(22,23,27,28)        125.0152         estimate D2E/DX2                !
 ! D98   D(22,23,27,32)        -53.2481         estimate D2E/DX2                !
 ! D99   D(24,23,27,28)        -53.165          estimate D2E/DX2                !
 ! D100  D(24,23,27,32)        128.5716         estimate D2E/DX2                !
 ! D101  D(23,24,25,20)          3.9889         estimate D2E/DX2                !
 ! D102  D(23,24,25,26)       -177.3875         estimate D2E/DX2                !
 ! D103  D(104,24,25,20)       177.019          estimate D2E/DX2                !
 ! D104  D(104,24,25,26)        -4.3574         estimate D2E/DX2                !
 ! D105  D(23,27,28,29)       -175.9878         estimate D2E/DX2                !
 ! D106  D(23,27,28,105)         1.2999         estimate D2E/DX2                !
 ! D107  D(32,27,28,29)          2.2709         estimate D2E/DX2                !
 ! D108  D(32,27,28,105)       179.5586         estimate D2E/DX2                !
 ! D109  D(23,27,32,31)        173.9145         estimate D2E/DX2                !
 ! D110  D(23,27,32,107)        -1.2467         estimate D2E/DX2                !
 ! D111  D(28,27,32,31)         -4.3306         estimate D2E/DX2                !
 ! D112  D(28,27,32,107)      -179.4919         estimate D2E/DX2                !
 ! D113  D(27,28,29,30)          1.7232         estimate D2E/DX2                !
 ! D114  D(27,28,29,106)      -179.352          estimate D2E/DX2                !
 ! D115  D(105,28,29,30)      -175.6276         estimate D2E/DX2                !
 ! D116  D(105,28,29,106)        3.2972         estimate D2E/DX2                !
 ! D117  D(28,29,30,31)         -3.7139         estimate D2E/DX2                !
 ! D118  D(28,29,30,33)       -179.6121         estimate D2E/DX2                !
 ! D119  D(106,29,30,31)       177.5533         estimate D2E/DX2                !
 ! D120  D(106,29,30,33)         1.6552         estimate D2E/DX2                !
 ! D121  D(29,30,31,32)          1.591          estimate D2E/DX2                !
 ! D122  D(33,30,31,32)        177.8821         estimate D2E/DX2                !
 ! D123  D(29,30,33,34)        147.1085         estimate D2E/DX2                !
 ! D124  D(29,30,33,38)        -35.6468         estimate D2E/DX2                !
 ! D125  D(31,30,33,34)        -29.0976         estimate D2E/DX2                !
 ! D126  D(31,30,33,38)        148.1471         estimate D2E/DX2                !
 ! D127  D(30,31,32,27)          2.4664         estimate D2E/DX2                !
 ! D128  D(30,31,32,107)       177.8465         estimate D2E/DX2                !
 ! D129  D(30,33,34,35)        176.8462         estimate D2E/DX2                !
 ! D130  D(30,33,34,108)         2.3201         estimate D2E/DX2                !
 ! D131  D(38,33,34,35)         -0.4285         estimate D2E/DX2                !
 ! D132  D(38,33,34,108)      -174.9546         estimate D2E/DX2                !
 ! D133  D(30,33,38,37)       -178.6184         estimate D2E/DX2                !
 ! D134  D(30,33,38,39)          2.2645         estimate D2E/DX2                !
 ! D135  D(34,33,38,37)         -1.1312         estimate D2E/DX2                !
 ! D136  D(34,33,38,39)        179.7517         estimate D2E/DX2                !
 ! D137  D(33,34,35,36)          5.419          estimate D2E/DX2                !
 ! D138  D(33,34,35,109)       175.1683         estimate D2E/DX2                !
 ! D139  D(108,34,35,36)       179.6035         estimate D2E/DX2                !
 ! D140  D(108,34,35,109)      -10.6472         estimate D2E/DX2                !
 ! D141  D(34,35,36,37)         -8.8445         estimate D2E/DX2                !
 ! D142  D(34,35,36,40)        177.8944         estimate D2E/DX2                !
 ! D143  D(109,35,36,37)      -178.0566         estimate D2E/DX2                !
 ! D144  D(109,35,36,40)         8.6823         estimate D2E/DX2                !
 ! D145  D(35,36,37,38)          7.8602         estimate D2E/DX2                !
 ! D146  D(35,36,37,110)      -175.6089         estimate D2E/DX2                !
 ! D147  D(40,36,37,38)       -179.0419         estimate D2E/DX2                !
 ! D148  D(40,36,37,110)        -2.511          estimate D2E/DX2                !
 ! D149  D(35,36,40,41)         36.9197         estimate D2E/DX2                !
 ! D150  D(35,36,40,45)       -135.2945         estimate D2E/DX2                !
 ! D151  D(37,36,40,41)       -135.9776         estimate D2E/DX2                !
 ! D152  D(37,36,40,45)         51.8081         estimate D2E/DX2                !
 ! D153  D(36,37,38,33)         -2.9111         estimate D2E/DX2                !
 ! D154  D(36,37,38,39)        176.1721         estimate D2E/DX2                !
 ! D155  D(110,37,38,33)      -179.7223         estimate D2E/DX2                !
 ! D156  D(110,37,38,39)        -0.6392         estimate D2E/DX2                !
 ! D157  D(36,40,41,42)        178.352          estimate D2E/DX2                !
 ! D158  D(36,40,41,111)         7.5547         estimate D2E/DX2                !
 ! D159  D(45,40,41,42)         -8.8431         estimate D2E/DX2                !
 ! D160  D(45,40,41,111)      -179.6403         estimate D2E/DX2                !
 ! D161  D(36,40,45,44)       -176.5391         estimate D2E/DX2                !
 ! D162  D(36,40,45,113)        -3.8747         estimate D2E/DX2                !
 ! D163  D(41,40,45,44)         10.5534         estimate D2E/DX2                !
 ! D164  D(41,40,45,113)      -176.7822         estimate D2E/DX2                !
 ! D165  D(40,41,42,43)          7.978          estimate D2E/DX2                !
 ! D166  D(40,41,42,112)      -178.1211         estimate D2E/DX2                !
 ! D167  D(111,41,42,43)       179.298          estimate D2E/DX2                !
 ! D168  D(111,41,42,112)       -6.8011         estimate D2E/DX2                !
 ! D169  D(41,42,43,44)         -7.7735         estimate D2E/DX2                !
 ! D170  D(41,42,43,46)        179.049          estimate D2E/DX2                !
 ! D171  D(112,42,43,44)       178.1374         estimate D2E/DX2                !
 ! D172  D(112,42,43,46)         4.9599         estimate D2E/DX2                !
 ! D173  D(42,43,44,45)          8.5955         estimate D2E/DX2                !
 ! D174  D(46,43,44,45)       -177.6792         estimate D2E/DX2                !
 ! D175  D(42,43,46,47)        144.1765         estimate D2E/DX2                !
 ! D176  D(42,43,46,51)        -36.8595         estimate D2E/DX2                !
 ! D177  D(44,43,46,47)        -29.5761         estimate D2E/DX2                !
 ! D178  D(44,43,46,51)        149.3879         estimate D2E/DX2                !
 ! D179  D(43,44,45,40)        -10.403          estimate D2E/DX2                !
 ! D180  D(43,44,45,113)       177.1005         estimate D2E/DX2                !
 ! D181  D(43,46,47,48)        179.6622         estimate D2E/DX2                !
 ! D182  D(43,46,47,114)        -1.0862         estimate D2E/DX2                !
 ! D183  D(51,46,47,48)          0.6507         estimate D2E/DX2                !
 ! D184  D(51,46,47,114)       179.9023         estimate D2E/DX2                !
 ! D185  D(43,46,51,50)        177.9078         estimate D2E/DX2                !
 ! D186  D(43,46,51,52)          1.1693         estimate D2E/DX2                !
 ! D187  D(47,46,51,50)         -3.0786         estimate D2E/DX2                !
 ! D188  D(47,46,51,52)       -179.8171         estimate D2E/DX2                !
 ! D189  D(46,47,48,49)          0.6509         estimate D2E/DX2                !
 ! D190  D(46,47,48,115)       177.1932         estimate D2E/DX2                !
 ! D191  D(114,47,48,49)      -178.5605         estimate D2E/DX2                !
 ! D192  D(114,47,48,115)       -2.0182         estimate D2E/DX2                !
 ! D193  D(47,48,49,50)          0.3624         estimate D2E/DX2                !
 ! D194  D(47,48,49,53)        177.6467         estimate D2E/DX2                !
 ! D195  D(115,48,49,50)      -176.0856         estimate D2E/DX2                !
 ! D196  D(115,48,49,53)         1.1987         estimate D2E/DX2                !
 ! D197  D(48,49,50,51)         -2.4779         estimate D2E/DX2                !
 ! D198  D(48,49,50,116)      -178.8138         estimate D2E/DX2                !
 ! D199  D(53,49,50,51)       -179.6658         estimate D2E/DX2                !
 ! D200  D(53,49,50,116)         3.9983         estimate D2E/DX2                !
 ! D201  D(48,49,53,54)        -52.66           estimate D2E/DX2                !
 ! D202  D(48,49,53,58)        132.0771         estimate D2E/DX2                !
 ! D203  D(50,49,53,54)        124.4915         estimate D2E/DX2                !
 ! D204  D(50,49,53,58)        -50.7715         estimate D2E/DX2                !
 ! D205  D(49,50,51,46)          4.0409         estimate D2E/DX2                !
 ! D206  D(49,50,51,52)       -179.0461         estimate D2E/DX2                !
 ! D207  D(116,50,51,46)      -179.7388         estimate D2E/DX2                !
 ! D208  D(116,50,51,52)        -2.8258         estimate D2E/DX2                !
 ! D209  D(49,53,54,55)       -174.7912         estimate D2E/DX2                !
 ! D210  D(49,53,54,117)         3.6384         estimate D2E/DX2                !
 ! D211  D(58,53,54,55)          0.6122         estimate D2E/DX2                !
 ! D212  D(58,53,54,117)       179.0419         estimate D2E/DX2                !
 ! D213  D(49,53,58,57)        171.8133         estimate D2E/DX2                !
 ! D214  D(49,53,58,119)        -1.4206         estimate D2E/DX2                !
 ! D215  D(54,53,58,57)         -3.7351         estimate D2E/DX2                !
 ! D216  D(54,53,58,119)      -176.969          estimate D2E/DX2                !
 ! D217  D(53,54,55,56)          0.9042         estimate D2E/DX2                !
 ! D218  D(53,54,55,118)      -178.8265         estimate D2E/DX2                !
 ! D219  D(117,54,55,56)      -177.506          estimate D2E/DX2                !
 ! D220  D(117,54,55,118)        2.7632         estimate D2E/DX2                !
 ! D221  D(54,55,56,57)          0.6503         estimate D2E/DX2                !
 ! D222  D(54,55,56,59)       -179.8652         estimate D2E/DX2                !
 ! D223  D(118,55,56,57)      -179.6331         estimate D2E/DX2                !
 ! D224  D(118,55,56,59)        -0.1486         estimate D2E/DX2                !
 ! D225  D(55,56,57,58)         -3.6325         estimate D2E/DX2                !
 ! D226  D(59,56,57,58)        176.8245         estimate D2E/DX2                !
 ! D227  D(55,56,59,60)       -130.9914         estimate D2E/DX2                !
 ! D228  D(55,56,59,64)         44.5556         estimate D2E/DX2                !
 ! D229  D(57,56,59,60)         48.536          estimate D2E/DX2                !
 ! D230  D(57,56,59,64)       -135.917          estimate D2E/DX2                !
 ! D231  D(56,57,58,53)          5.3063         estimate D2E/DX2                !
 ! D232  D(56,57,58,119)       179.1406         estimate D2E/DX2                !
 ! D233  D(56,59,60,61)        176.3544         estimate D2E/DX2                !
 ! D234  D(56,59,60,120)        -6.0362         estimate D2E/DX2                !
 ! D235  D(64,59,60,61)          0.3751         estimate D2E/DX2                !
 ! D236  D(64,59,60,120)       177.9845         estimate D2E/DX2                !
 ! D237  D(56,59,64,63)       -177.5786         estimate D2E/DX2                !
 ! D238  D(56,59,64,65)          2.2621         estimate D2E/DX2                !
 ! D239  D(60,59,64,63)         -1.5107         estimate D2E/DX2                !
 ! D240  D(60,59,64,65)        178.33           estimate D2E/DX2                !
 ! D241  D(59,60,61,62)          3.0919         estimate D2E/DX2                !
 ! D242  D(59,60,61,121)       175.7885         estimate D2E/DX2                !
 ! D243  D(120,60,61,62)      -174.3906         estimate D2E/DX2                !
 ! D244  D(120,60,61,121)       -1.694          estimate D2E/DX2                !
 ! D245  D(60,61,62,63)         -5.4362         estimate D2E/DX2                !
 ! D246  D(60,61,62,66)       -179.0927         estimate D2E/DX2                !
 ! D247  D(121,61,62,63)      -177.564          estimate D2E/DX2                !
 ! D248  D(121,61,62,66)         8.7795         estimate D2E/DX2                !
[...]
  Beta virt. eigenvalues --    2.02584   2.03318   2.03398   2.03832   2.03928
  Beta virt. eigenvalues --    2.05145   2.05482   2.06145   2.06529   2.07156
  Beta virt. eigenvalues --    2.07587   2.07779   2.08307   2.08370   2.08911
  Beta virt. eigenvalues --    2.09071   2.09276   2.09576   2.09872   2.10838
  Beta virt. eigenvalues --    2.11372   2.11717   2.11852   2.12018   2.12297
  Beta virt. eigenvalues --    2.12839   2.12911   2.13608   2.13952   2.14307
  Beta virt. eigenvalues --    2.14710   2.15017   2.15139   2.15245   2.15448
  Beta virt. eigenvalues --    2.15711   2.16892   2.17945   2.18031   2.18443
  Beta virt. eigenvalues --    2.18800   2.19056   2.19361   2.19754   2.20469
  Beta virt. eigenvalues --    2.22173   2.23646   2.23759   2.24049   2.24096
  Beta virt. eigenvalues --    2.24148   2.24789   2.25489   2.25756   2.25947
  Beta virt. eigenvalues --    2.25999   2.26069   2.27096   2.28217   2.28653
  Beta virt. eigenvalues --    2.29462   2.30289   2.30523   2.30570   2.30705
  Beta virt. eigenvalues --    2.30869   2.31788   2.31822   2.32023   2.32466
  Beta virt. eigenvalues --    2.33009   2.33068   2.33554   2.34704   2.35114
  Beta virt. eigenvalues --    2.35209   2.35334   2.35371   2.35550   2.35663
  Beta virt. eigenvalues --    2.36159   2.36533   2.36801   2.37099   2.37397
  Beta virt. eigenvalues --    2.37675   2.38174   2.38998   2.39609   2.39706
  Beta virt. eigenvalues --    2.40000   2.40101   2.40424   2.40788   2.40803
  Beta virt. eigenvalues --    2.41495   2.41622   2.41697   2.41920   2.42209
  Beta virt. eigenvalues --    2.42424   2.43386   2.44770   2.45255   2.45419
  Beta virt. eigenvalues --    2.45817   2.45999   2.46097   2.46531   2.47145
  Beta virt. eigenvalues --    2.48125   2.48326   2.48630   2.48904   2.50019
  Beta virt. eigenvalues --    2.50624   2.51685   2.51937   2.52001   2.52638
  Beta virt. eigenvalues --    2.52907   2.53521   2.54370   2.54715   2.55444
  Beta virt. eigenvalues --    2.55586   2.56107   2.56871   2.57111   2.57827
  Beta virt. eigenvalues --    2.58204   2.58759   2.59337   2.59936   2.60416
  Beta virt. eigenvalues --    2.61225   2.61957   2.62128   2.62727   2.64902
  Beta virt. eigenvalues --    2.65166   2.65388   2.65546   2.65610   2.65641
  Beta virt. eigenvalues --    2.68063   2.68076   2.69123   2.69217   2.69335
  Beta virt. eigenvalues --    2.69563   2.70151   2.71258   2.71881   2.72385
  Beta virt. eigenvalues --    2.72972   2.73352   2.73759   2.73870   2.74363
  Beta virt. eigenvalues --    2.74559   2.75448   2.75604   2.76146   2.76350
  Beta virt. eigenvalues --    2.78817   2.79930   2.80297   2.81368   2.81511
  Beta virt. eigenvalues --    2.81595   2.81657   2.83011   2.83167   2.84171
  Beta virt. eigenvalues --    2.84623   2.84997   2.85573   2.86501   2.92713
  Beta virt. eigenvalues --    2.94423   2.94710   2.95788   2.96739   2.97584
  Beta virt. eigenvalues --    2.98169   3.16375   3.17754   3.19627   3.21529
  Beta virt. eigenvalues --    3.23609   3.25814   3.31124   3.33790   3.35527
  Beta virt. eigenvalues --    3.37763   3.38897   3.40285   3.41793   3.43498
  Beta virt. eigenvalues --    3.48599   3.48631   3.48639   3.48648   3.48757
  Beta virt. eigenvalues --    3.50557   3.50927   3.54294   3.54410   3.54505
  Beta virt. eigenvalues --    3.54563   3.54572   3.54590   3.54686   3.66465
  Beta virt. eigenvalues --    3.66489   3.66501   3.66520   3.66607   3.69076
  Beta virt. eigenvalues --    3.69447   3.88853   3.88885   3.88900   3.88938
  Beta virt. eigenvalues --    3.88965   3.90645   3.90751   4.10230   4.10317
  Beta virt. eigenvalues --    4.10376   4.10428   4.10464   4.11452   4.11819
          Condensed to atoms (all electrons):
          Atomic-Atomic Spin Densities.
 Mulliken charges and spin densities:
               1          2
     1  C   -0.020452   0.000000
     2  C    0.081150   0.000000
     3  C   -0.002082  -0.000000
     4  C    0.092951  -0.000000
     5  N   -0.198783   0.000000
     6  C    0.092335  -0.000000
     7  C    0.003747   0.000000
     8  C    0.060371  -0.000000
     9  C    0.019153  -0.000000
    10  C    0.048405   0.000000
    11  C    0.013583  -0.000000
    12  C    0.044358   0.000000
    13  F   -0.131987  -0.000000
    14  C   -0.022414   0.000000
    15  C    0.067900  -0.000000
    16  C    0.011548   0.000000
    17  C    0.097250  -0.000000
    18  N   -0.198090  -0.000000
    19  C    0.088719  -0.000000
    20  C    0.003479   0.000000
    21  C    0.060358   0.000000
    22  C    0.018627  -0.000000
    23  C    0.048404   0.000000
    24  C    0.014734   0.000000
    25  C    0.042470  -0.000000
    26  F   -0.131745  -0.000000
    27  C   -0.022533   0.000000
    28  C    0.067405  -0.000000
    29  C    0.012204   0.000000
    30  C    0.096875  -0.000000
    31  N   -0.197992  -0.000000
    32  C    0.089048  -0.000000
    33  C    0.004099   0.000000
    34  C    0.060432   0.000000
    35  C    0.019147  -0.000000
    36  C    0.048755   0.000000
    37  C    0.013988   0.000000
    38  C    0.042247  -0.000000
    39  F   -0.131351  -0.000000
    40  C   -0.022296   0.000000
    41  C    0.067677  -0.000000
    42  C    0.011933   0.000000
    43  C    0.097179  -0.000000
    44  N   -0.198162   0.000000
    45  C    0.088624  -0.000000
    46  C    0.003864   0.000000
    47  C    0.060649   0.000000
    48  C    0.019468   0.000000
    49  C    0.048410  -0.000000
    50  C    0.014406  -0.000000
    51  C    0.041851  -0.000000
    52  F   -0.131162   0.000000
    53  C   -0.022445   0.000000
    54  C    0.067842  -0.000000
    55  C    0.011707  -0.000000
    56  C    0.097300   0.000000
    57  N   -0.197783   0.000000
    58  C    0.088841  -0.000000
    59  C    0.003779  -0.000000
    60  C    0.060111  -0.000000
    61  C    0.019531   0.000000
    62  C    0.047546  -0.000000
    63  C    0.015252   0.000000
    64  C    0.041925   0.000000
    65  F   -0.132148  -0.000000
    66  C   -0.020886   0.000000
    67  C    0.059894  -0.000000
    68  C    0.025293   0.000000
    69  C    0.061586  -0.000000
    70  N   -0.177082   0.000000
    71  C    0.080342   0.000000
    72  C   -0.000264   0.000000
    73  C    0.019952  -0.000000
    74  C    0.008537   0.000000
    75  C    0.044264   0.000000
    76  C    0.000879   0.000000
    77  C    0.105619  -0.000000
    78  F   -0.106178  -0.000000
    79  C   -0.024761  -0.000000
    80  C    0.063189   0.000000
    81  C    0.025634  -0.000000
    82  C    0.062113   0.000000
    83  N   -0.175877  -0.000000
    84  C    0.078986  -0.000000
    85  C   -0.009120  -0.000000
    86  C    0.012480   0.000000
    87  C    0.032602   0.000000
    88  C    0.037790  -0.000000
    89  C    0.019532  -0.000000
    90  C    0.098698   0.000000
    91  F   -0.108229  -0.000000
    92  H   -0.014592  -0.000000
    93  H   -0.010318  -0.000000
    94  H   -0.014114  -0.000000
    95  H   -0.001653  -0.000000
    96  H   -0.022999   0.000000
    97  H   -0.027450  -0.000000
    98  H   -0.014696  -0.000000
    99  H   -0.019484   0.000000
   100  H   -0.015895  -0.000000
   101  H   -0.005029   0.000000
   102  H   -0.021877  -0.000000
   103  H   -0.024551  -0.000000
   104  H   -0.016668  -0.000000
   105  H   -0.020262   0.000000
   106  H   -0.015512   0.000000
   107  H   -0.003934  -0.000000
   108  H   -0.022110  -0.000000
   109  H   -0.026724  -0.000000
   110  H   -0.014217  -0.000000
   111  H   -0.019176   0.000000
   112  H   -0.015309   0.000000
   113  H   -0.005151  -0.000000
   114  H   -0.022453   0.000000
   115  H   -0.027046   0.000000
   116  H   -0.013881   0.000000
   117  H   -0.019569   0.000000
   118  H   -0.015931  -0.000000
   119  H   -0.004834   0.000000
   120  H   -0.021531   0.000000
   121  H   -0.023002   0.000000
   122  H   -0.017478  -0.000000
   123  H   -0.019749   0.000000
   124  H   -0.017370  -0.000000
   125  H   -0.001576  -0.000000
   126  H   -0.022320   0.000000
   127  H   -0.025195   0.000000
   128  H   -0.017109   0.000000
   129  H   -0.019621  -0.000000
   130  H   -0.017071  -0.000000
   131  H   -0.002897  -0.000000
   132  H   -0.024366   0.000000
   133  H   -0.019226   0.000000
   134  H   -0.013873   0.000000
   135  H   -0.007384   0.000000
 Sum of Mulliken charges =  -0.00000  -0.00000
 Mulliken charges and spin densities with hydrogens summed into heavy atoms:
               1          2
     1  C   -0.035045   0.000000
     2  C    0.070832   0.000000
     3  C   -0.016195  -0.000000
     4  C    0.092951  -0.000000
     5  N   -0.198783   0.000000
     6  C    0.090682  -0.000000
     7  C    0.003747   0.000000
     8  C    0.037373  -0.000000
     9  C   -0.008297  -0.000000
    10  C    0.048405   0.000000
    11  C   -0.001113  -0.000000
    12  C    0.044358   0.000000
    13  F   -0.131987  -0.000000
    14  C   -0.022414   0.000000
    15  C    0.048416  -0.000000
    16  C   -0.004347   0.000000
    17  C    0.097250  -0.000000
    18  N   -0.198090  -0.000000
    19  C    0.083689  -0.000000
    20  C    0.003479   0.000000
    21  C    0.038481   0.000000
    22  C   -0.005924  -0.000000
    23  C    0.048404   0.000000
    24  C   -0.001935  -0.000000
    25  C    0.042470  -0.000000
    26  F   -0.131745  -0.000000
    27  C   -0.022533   0.000000
    28  C    0.047143  -0.000000
    29  C   -0.003307   0.000000
    30  C    0.096875  -0.000000
    31  N   -0.197992  -0.000000
    32  C    0.085113  -0.000000
    33  C    0.004099   0.000000
    34  C    0.038322   0.000000
    35  C   -0.007576  -0.000000
    36  C    0.048755   0.000000
    37  C   -0.000229   0.000000
    38  C    0.042247  -0.000000
    39  F   -0.131351  -0.000000
    40  C   -0.022296   0.000000
    41  C    0.048500  -0.000000
    42  C   -0.003375   0.000000
    43  C    0.097179  -0.000000
    44  N   -0.198162   0.000000
    45  C    0.083473  -0.000000
    46  C    0.003864   0.000000
    47  C    0.038195   0.000000
    48  C   -0.007578   0.000000
    49  C    0.048410  -0.000000
    50  C    0.000526   0.000000
    51  C    0.041851  -0.000000
    52  F   -0.131162   0.000000
    53  C   -0.022445   0.000000
    54  C    0.048272   0.000000
    55  C   -0.004225  -0.000000
    56  C    0.097300   0.000000
    57  N   -0.197783   0.000000
    58  C    0.084007   0.000000
    59  C    0.003779  -0.000000
    60  C    0.038581  -0.000000
    61  C   -0.003472   0.000000
    62  C    0.047546  -0.000000
    63  C   -0.002226   0.000000
    64  C    0.041925   0.000000
    65  F   -0.132148  -0.000000
    66  C   -0.020886   0.000000
    67  C    0.040144  -0.000000
    68  C    0.007923   0.000000
    69  C    0.061586  -0.000000
    70  N   -0.177082   0.000000
    71  C    0.078767  -0.000000
    72  C   -0.000264   0.000000
    73  C   -0.002369  -0.000000
    74  C   -0.016658   0.000000
    75  C    0.044264   0.000000
    76  C   -0.016230   0.000000
    77  C    0.105619  -0.000000
    78  F   -0.106178  -0.000000
    79  C   -0.024761  -0.000000
    80  C    0.043568   0.000000
    81  C    0.008563  -0.000000
    82  C    0.062113   0.000000
    83  N   -0.175877  -0.000000
    84  C    0.076090  -0.000000
    85  C   -0.009120  -0.000000
    86  C   -0.011885   0.000000
    87  C    0.013376   0.000000
    88  C    0.023917  -0.000000
    89  C    0.012148  -0.000000
    90  C    0.098698   0.000000
    91  F   -0.108229  -0.000000
 Electronic spatial extent (au):  <R**2>=         673620.3776
 Charge=             -0.0000 electrons
 Dipole moment (field-independent basis, Debye):
    X=             -3.2933    Y=              1.4709    Z=              1.9040  Tot=              4.0785
 Quadrupole moment (field-independent basis, Debye-Ang):
   XX=           -351.2607   YY=           -490.9135   ZZ=           -515.2637
   XY=             23.9975   XZ=             55.3966   YZ=              1.3836
 Traceless Quadrupole moment (field-independent basis, Debye-Ang):
   XX=            101.2186   YY=            -38.4342   ZZ=            -62.7844
   XY=             23.9975   XZ=             55.3966   YZ=              1.3836
 Octapole moment (field-independent basis, Debye-Ang**2):
  XXX=          -2699.4234  YYY=             34.6410  ZZZ=            -20.6090  XYY=            -56.4018
  XXY=           -509.3342  XXZ=           1232.4986  XZZ=             62.7553  YZZ=            -10.5199
  YYZ=            -14.8073  XYZ=           -220.8729
 Hexadecapole moment (field-independent basis, Debye-Ang**3):
 XXXX=        -684770.4377 YYYY=          -6440.0887 ZZZZ=          -2027.3198 XXXY=          10462.0659
 XXXZ=          33433.3664 YYYX=             80.4375 YYYZ=             78.9956 ZZZX=             46.1178
 ZZZY=             34.5924 XXYY=        -150631.7588 XXZZ=        -152414.5460 YYZZ=          -1421.3669
 XXYZ=            695.9870 YYXZ=            379.1284 ZZXY=           -360.3962
 N-N= 1.062985522883D+04 E-N=-3.068082923111D+04  KE= 4.013408044014D+03
 Leave Link  601 at Fri Jul 24 10:20:57 2020, MaxMem=  4026531840 cpu:              31.8 elap:               5.1
 (Enter /opt/ohpc/pub/libs/gaussian/g16-A.03/sandybridge/g16/l9999.exe)

 Test job not archived.
 1\1\GINC-SKYLAKE049\FOpt\ULC-wPBE\CC-pVDZ\C77H44F7N7\RDU230\24-Jul-202
 0\0\\#P uLC-wPBE/cc-pVDZ iop(3/107=0052000000, 3/108=0052000000) opt\\
 H44 C77 N7 F7\\0,1\C,-29.2395583206,-1.969981046,-1.1761795722\C,-28.5
 239097909,-1.778062854,-2.3641756845\C,-27.1503980527,-1.5131541911,-2
 .3031915901\C,-26.5172001015,-1.445696612,-1.0394440479\N,-27.21405183
 31,-1.6358476401,0.1107487123\C,-28.527624329,-1.8880464366,0.03111944
 97\C,-25.0626797914,-1.1764385851,-0.8516180634\C,-24.5182911558,-1.22
 10543374,0.4558955992\C,-23.1704497152,-0.9804427288,0.7168025892\C,-2
 2.2692301263,-0.6748052055,-0.3306639851\C,-22.7881698622,-0.621945940
 6,-1.640629332\C,-24.1412328197,-0.8673195009,-1.8755052271\F,-24.5482
 341505,-0.7752884399,-3.1761859388\C,-20.8359160482,-0.4218722123,-0.0
 695147063\C,-20.3775056491,0.1871289419,1.1164068657\C,-19.0122340677,
 0.4044850158,1.3151248489\C,-18.0930767765,0.010928021,0.3139305847\N,
 -18.5233167006,-0.5881049519,-0.8271838941\C,-19.8322132544,-0.7907401
 261,-0.997479978\C,-16.6201968041,0.2020337549,0.4070696069\C,-15.7960
 389651,-0.2695401682,-0.6452413684\C,-14.4093956135,-0.1291249541,-0.6
 340685279\C,-13.7506755469,0.5043009903,0.4469765153\C,-14.5501325042,
 0.9844352729,1.5045952839\C,-15.9356721403,0.8306003292,1.4706310016\F
 ,-16.6195091869,1.3215821525,2.5464262497\C,-12.2806767918,0.661075083
 1,0.4743222485\C,-11.6428676377,1.7660672087,1.0740496284\C,-10.249922
 352,1.8655197383,1.0672807329\C,-9.4842919129,0.8484292696,0.449501136
 7\N,-10.0880692952,-0.2281213835,-0.1182331243\C,-11.4211080513,-0.307
 3252661,-0.0987523247\C,-7.9984847373,0.8504762233,0.3711909791\C,-7.3
 359095432,-0.2704379084,-0.1890292983\C,-5.948719718,-0.3432852927,-0.
 3003184487\C,-5.124936243,0.7169507001,0.1477583317\C,-5.7617300948,1.
 8443191907,0.7066746428\C,-7.1518745943,1.8928940204,0.8080962944\F,-7
 .6739058578,3.03360008,1.3481629379\C,-3.6518103381,0.650688299,0.0402
 289798\C,-2.9982481387,-0.0226963068,-1.0119589228\C,-1.6032302201,-0.
 0568840538,-1.068134528\C,-0.8510965174,0.5937607737,-0.0615088759\N,-
 1.4710150426,1.2350669904,0.9635299223\C,-2.8056888277,1.2532500786,1.
 0023507051\C,0.6357700396,0.6357594214,-0.0224603027\C,1.2789313842,1.
 2797387078,1.064340242\C,2.6656917312,1.3644377064,1.1720189814\C,3.50
 90821867,0.800840497,0.1848395656\C,2.892200823,0.1550988693,-0.906530
 0104\C,1.5019129703,0.0834366786,-0.9915964706\F,1.0013112682,-0.54972
 96117,-2.0933060629\C,4.9818390442,0.879165299,0.2892224243\C,5.642273
 4384,1.9755293776,0.880346224\C,7.0365952236,2.0015326558,0.9554436423
 \C,7.7811489278,0.9191490616,0.4296765775\N,7.1539722216,-0.1476492767
 ,-0.1313091052\C,5.8199643799,-0.1562635432,-0.1904486393\C,9.26713572
 67,0.8408856604,0.440940768\C,9.9007569574,-0.31413748,-0.082073617\C,
 11.2863040078,-0.4635744772,-0.109686594\C,12.1373847201,0.5496891126,
 0.3925635724\C,11.5299962609,1.7081820878,0.9186939579\C,10.1412487222
 ,1.833897469,0.9353540049\F,9.6512140951,2.9987061877,1.4545653875\C,1
 3.6098305823,0.4076126813,0.371069692\C,14.4370052753,0.9514759934,1.3
 765769175\C,15.8204982171,0.7820046324,1.3015924047\C,16.3728461018,0.
 0666467461,0.2148180849\N,15.5953892114,-0.4618710925,-0.7616903698\C,
 14.2710104286,-0.2861512417,-0.6712021117\C,17.8409476476,-0.120579194
 3,0.0957809\C,18.7427709843,0.8981076511,0.4784260448\C,20.1275748653,
 0.7470531907,0.3687093718\C,20.6851772174,-0.4515854955,-0.1327891279\
 C,19.799958333,-1.4828840193,-0.511960545\C,18.4197660959,-1.311076618
 7,-0.397436603\F,17.631629122,-2.3503053118,-0.7518504926\C,22.1502506
 733,-0.625025017,-0.2571034665\C,22.7837010927,-1.8699473854,-0.059967
 722\C,24.1704005139,-1.9685451237,-0.1886957345\C,24.9208623799,-0.813
 3979393,-0.5034546818\N,24.3287984653,0.3866184451,-0.716663829\C,22.9
 966313381,0.4571467266,-0.5981824255\C,26.4031557129,-0.8719663612,-0.
 596032008\C,27.1560540051,-1.6649047232,0.2997357466\C,28.5533279316,-
 1.7303188753,0.2333410596\C,29.2395193134,-0.9977178171,-0.7478041639\
 C,28.5226765183,-0.2073458475,-1.6564454734\C,27.1278647337,-0.1520659
 05,-1.5714478851\F,26.4704259929,0.5917249504,-2.4892477822\H,-30.3184
 957904,-2.1789912707,-1.1785843922\H,-29.028223909,-1.8340073363,-3.34
 00132391\H,-26.5752373487,-1.3631191323,-3.2220981769\H,-29.0458650947
 ,-2.0341665712,0.9943081909\H,-25.2191271357,-1.4637794976,1.265456382
 6\H,-22.8005292701,-1.0594531794,1.7488061306\H,-22.1589763394,-0.3575
 889794,-2.5010309181\H,-21.096219589,0.5178373424,1.8804665716\H,-18.6
 626008696,0.8854431943,2.2338427634\H,-20.1156556755,-1.3068902602,-1.
 9308452804\H,-16.3105828088,-0.750352693,-1.4874926435\H,-13.826379584
 4,-0.4891306259,-1.4931518963\H,-14.1096984637,1.4627069275,2.38986494
 15\H,-12.241222099,2.5692676887,1.5289643489\H,-9.7601279874,2.7288547
 859,1.5282246515\H,-11.8500565723,-1.2181929861,-0.5500895567\H,-7.976
 7534356,-1.0939280476,-0.5303955728\H,-5.490338242,-1.2519003285,-0.71
 54256477\H,-5.1927532425,2.7205555202,1.0450151054\H,-3.5848888107,-0.
 5031605745,-1.8086283323\H,-1.101130929,-0.5740282845,-1.8915741412\H,
 -3.2486764582,1.7640410536,1.8745840799\H,0.6226533222,1.7088704438,1.
 8327626932\H,3.1072803341,1.850692561,2.0532633447\H,3.4783909584,-0.2
 777630271,-1.72812283\H,5.0625350254,2.8285301903,1.2624639498\H,7.544
 4686934,2.8590263321,1.4074843101\H,5.3697531245,-1.0627145677,-0.6304
 44538\H,9.2379468182,-1.1022191411,-0.4627577807\H,11.7186245886,-1.39
 55314279,-0.499550121\H,12.1249503014,2.5494434287,1.2992968321\H,13.9
 924368693,1.4755214732,2.235559988\H,16.4695493246,1.1698745711,2.0992
 200509\H,13.6806844892,-0.7051913053,-1.5039126107\H,18.3343754734,1.8
 469833391,0.8552652086\H,20.7878733182,1.5625213831,0.694310954\H,20.1
 67467979,-2.4331764691,-0.9227716766\H,22.1907700962,-2.7567618514,0.2
 086826508\H,24.6725435853,-2.9370791687,-0.0551658156\H,22.554417424,1
 .4458966781,-0.8095952116\H,26.6216096749,-2.2186166928,1.0855229397\H
 ,29.1076116132,-2.3464649582,0.954923727\H,30.3363820936,-1.0388929076
 ,-0.8090931764\H,29.0229218871,0.3701399259,-2.4456600109\\Version=EM6
 4L-G16RevA.03\State=1-A\HF=-4039.0076388\S2=0.\S2-1=0.\S2A=0.\RMSD=9.6
 43e-09\RMSF=7.267e-07\Dipole=-1.2964797,-0.0509447,0.9441078\Quadrupol
 e=75.2656934,-37.3166889,-37.9490045,-12.7111491,42.9981113,9.2583875\
 PG=C01 [X(C77H44F7N7)]\\@


 THERE ARE PEOPLE SO ADDICTED TO EXAGERATING THEY
 CAN'T TELL THE TRUTH WITHOUT LYING. -- FORTUNE COOKIE
 Job cpu time:       6 days  3 hours 26 minutes 24.4 seconds.
 Elapsed time:       0 days 18 hours 42 minutes 57.0 seconds.
 File lengths (MBytes):  RWF=   2484 Int=      0 D2E=      0 Chk=    224 Scr=      8
 Normal termination of Gaussian 16 at Fri Jul 24 10:20:58 2020.
