 Entering Gaussian System, Link 0=g16
 Input=mols_65_1_32_cF-cOC-C_opt_0.gjf
 Output=mols_65_1_32_cF-cOC-C_opt_0.log
 Initial command:
 /opt/ohpc/pub/libs/gaussian/g16-A.03/sandybridge/g16/l1.exe "/mnt/gpfs2_4m/scratch/rdu230/ondemand/projects/dihedral_energies/7trial/wtuning/mols_65_1_32_cF-cOC-C/Gau-435544.inp" -scrdir="/mnt/gpfs2_4m/scratch/rdu230/ondemand/projects/dihedral_energies/7trial/wtuning/mols_65_1_32_cF-cOC-C/"
 Entering Link 1 = /opt/ohpc/pub/libs/gaussian/g16-A.03/sandybridge/g16/l1.exe PID=    435545.
  
 Copyright (c) 1988,1990,1992,1993,1995,1998,2003,2009,2016,
            Gaussian, Inc.  All Rights Reserved.
  
 This is part of the Gaussian(R) 16 program.  It is based on
 the Gaussian(R) 09 system (copyright 2009, Gaussian, Inc.),
 the Gaussian(R) 03 system (copyright 2003, Gaussian, Inc.),
 the Gaussian(R) 98 system (copyright 1998, Gaussian, Inc.),
 the Gaussian(R) 94 system (copyright 1995, Gaussian, Inc.),
 the Gaussian 92(TM) system (copyright 1992, Gaussian, Inc.),
 the Gaussian 90(TM) system (copyright 1990, Gaussian, Inc.),
 the Gaussian 88(TM) system (copyright 1988, Gaussian, Inc.),
 the Gaussian 86(TM) system (copyright 1986, Carnegie Mellon
 University), and the Gaussian 82(TM) system (copyright 1983,
 Carnegie Mellon University). Gaussian is a federally registered
 trademark of Gaussian, Inc.
  
 This software contains proprietary and confidential information,
 including trade secrets, belonging to Gaussian, Inc.
  
 This software is provided under written license and may be
 used, copied, transmitted, or stored only in accord with that
 written license.
  
 The following legend is applicable only to US Government
 contracts under FAR:
  
                    RESTRICTED RIGHTS LEGEND
  
 Use, reproduction and disclosure by the US Government is
 subject to restrictions as set forth in subparagraphs (a)
 and (c) of the Commercial Computer Software - Restricted
 Rights clause in FAR 52.227-19.
  
 Gaussian, Inc.
 340 Quinnipiac St., Bldg. 40, Wallingford CT 06492
  
  
 ---------------------------------------------------------------
 Warning -- This program may not be used in any manner that
 competes with the business of Gaussian, Inc. or will provide
 assistance to any competitor of Gaussian, Inc.  The licensee
 of this program is prohibited from giving any competitor of
 Gaussian, Inc. access to this program.  By using this program,
 the user acknowledges that Gaussian, Inc. is engaged in the
 business of creating and licensing software in the field of
 computational chemistry and represents and warrants to the
 licensee that it is not a competitor of Gaussian, Inc. and that
 it will not use this program in any manner prohibited above.
 ---------------------------------------------------------------
  

 Cite this work as:
 Gaussian 16, Revision A.03,
 M. J. Frisch, G. W. Trucks, H. B. Schlegel, G. E. Scuseria, 
 M. A. Robb, J. R. Cheeseman, G. Scalmani, V. Barone, 
 G. A. Petersson, H. Nakatsuji, X. Li, M. Caricato, A. V. Marenich, 
 J. Bloino, B. G. Janesko, R. Gomperts, B. Mennucci, H. P. Hratchian, 
 J. V. Ortiz, A. F. Izmaylov, J. L. Sonnenberg, D. Williams-Young, 
 F. Ding, F. Lipparini, F. Egidi, J. Goings, B. Peng, A. Petrone, 
 T. Henderson, D. Ranasinghe, V. G. Zakrzewski, J. Gao, N. Rega, 
 G. Zheng, W. Liang, M. Hada, M. Ehara, K. Toyota, R. Fukuda, 
 J. Hasegawa, M. Ishida, T. Nakajima, Y. Honda, O. Kitao, H. Nakai, 
 T. Vreven, K. Throssell, J. A. Montgomery, Jr., J. E. Peralta, 
 F. Ogliaro, M. J. Bearpark, J. J. Heyd, E. N. Brothers, K. N. Kudin, 
 V. N. Staroverov, T. A. Keith, R. Kobayashi, J. Normand, 
 K. Raghavachari, A. P. Rendell, J. C. Burant, S. S. Iyengar, 
 J. Tomasi, M. Cossi, J. M. Millam, M. Klene, C. Adamo, R. Cammi, 
 J. W. Ochterski, R. L. Martin, K. Morokuma, O. Farkas, 
 J. B. Foresman, and D. J. Fox, Gaussian, Inc., Wallingford CT, 2016.
 
 ******************************************
 Gaussian 16:  EM64L-G16RevA.03 25-Dec-2016
                23-Jul-2020 
 ******************************************
 %mem=30GB
 %nproc=8
 Will use up to    8 processors via shared memory.
 ---------------------------------------------------------------
 #P uLC-wPBE/cc-pVDZ iop(3/107=0265100000, 3/108=0265100000) opt
 ---------------------------------------------------------------
 1/18=20,19=15,26=3,38=1/1,3;
 2/9=110,12=2,17=6,18=5,40=1/2;
 3/5=16,11=2,25=1,30=1,71=1,74=-41,107=265100000,108=265100000,116=2/1,2,3;
 4//1;
 5/5=2,38=5/2;
 6/7=2,8=2,9=2,10=2,28=1/1;
 7//1,2,3,16;
 1/18=20,19=15,26=3/3(2);
 2/9=110/2;
 99//99;
 2/9=110/2;
 3/5=16,11=2,25=1,30=1,71=1,74=-41,107=265100000,108=265100000,116=2/1,2,3;
 4/5=5,16=3,69=1/1;
 5/5=2,38=5/2;
 7//1,2,3,16;
 1/18=20,19=15,26=3/3(-5);
 2/9=110/2;
 6/7=2,8=2,9=2,10=2,19=2,28=1/1;
 99/9=1/99;
 Leave Link    1 at Thu Jul 23 12:58:29 2020, MaxMem=  4026531840 cpu:               2.2 elap:               0.3
 (Enter /opt/ohpc/pub/libs/gaussian/g16-A.03/sandybridge/g16/l101.exe)
 ---------------
 H9 C11 S1 O1 F1
 ---------------
 Symbolic Z-matrix:
 Charge =  0 Multiplicity = 1
 C                     3.13353  -0.96034  -0.04037 
 C                     2.119    -1.99026   0.09839 
 C                     0.79413  -1.60223   0.19316 
 F                    -0.08278  -2.68284   0.33434 
 C                     0.42899  -0.32801   0.15995 
 C                     1.35421   0.73619  -0.01843 
 O                     0.94426   1.96784  -0.091 
 C                     1.88379   3.07099  -0.29992 
 C                     2.74179   0.29452  -0.05207 
 C                    -1.04339   0.06898   0.19827 
 C                    -1.72433   0.72133   1.21145 
 C                    -3.05048   0.88626   0.88061 
 C                    -3.48191   0.26608  -0.2661 
 S                    -2.0496   -0.45534  -1.04972 
 H                     4.17226  -1.22713  -0.09319 
 H                     2.48007  -3.04721   0.20875 
 H                     2.38244   2.85355  -1.3123 
 H                     2.63116   3.10176   0.55364 
 H                     1.38123   3.96603  -0.3456 
 H                     3.48948   1.12318  -0.15382 
 H                    -1.20965   1.21197   2.05094 
 H                    -3.74803   1.40099   1.52806 
 H                    -4.4006    0.22128  -0.70209 
 
 ITRead=  0  0  0  0  0  0  0  0  0  0  0  0  0  0  0  0  0  0  0  0
 ITRead=  0  0  0
 MicOpt= -1 -1 -1 -1 -1 -1 -1 -1 -1 -1 -1 -1 -1 -1 -1 -1 -1 -1 -1 -1
 MicOpt= -1 -1 -1
 NAtoms=     23 NQM=       23 NQMF=       0 NMMI=      0 NMMIF=      0
                NMic=       0 NMicF=      0.
                    Isotopes and Nuclear Properties:
 (Nuclear quadrupole moments (NQMom) in fm**2, nuclear magnetic moments (NMagM)
  in nuclear magnetons)

  Atom         1           2           3           4           5           6           7           8           9          10
 IAtWgt=          12          12          12          19          12          12          16          12          12          12
 AtmWgt=  12.0000000  12.0000000  12.0000000  18.9984033  12.0000000  12.0000000  15.9949146  12.0000000  12.0000000  12.0000000
 NucSpn=           0           0           0           1           0           0           0           0           0           0
 AtZEff=  -0.0000000  -0.0000000  -0.0000000  -0.0000000  -0.0000000  -0.0000000  -0.0000000  -0.0000000  -0.0000000  -0.0000000
 NQMom=    0.0000000   0.0000000   0.0000000   0.0000000   0.0000000   0.0000000   0.0000000   0.0000000   0.0000000   0.0000000
 NMagM=    0.0000000   0.0000000   0.0000000   2.6288670   0.0000000   0.0000000   0.0000000   0.0000000   0.0000000   0.0000000
 AtZNuc=   6.0000000   6.0000000   6.0000000   9.0000000   6.0000000   6.0000000   8.0000000   6.0000000   6.0000000   6.0000000

  Atom        11          12          13          14          15          16          17          18          19          20
 IAtWgt=          12          12          12          32           1           1           1           1           1           1
 AtmWgt=  12.0000000  12.0000000  12.0000000  31.9720718   1.0078250   1.0078250   1.0078250   1.0078250   1.0078250   1.0078250
 NucSpn=           0           0           0           0           1           1           1           1           1           1
 AtZEff=  -0.0000000  -0.0000000  -0.0000000  -0.0000000  -0.0000000  -0.0000000  -0.0000000  -0.0000000  -0.0000000  -0.0000000
 NQMom=    0.0000000   0.0000000   0.0000000   0.0000000   0.0000000   0.0000000   0.0000000   0.0000000   0.0000000   0.0000000
 NMagM=    0.0000000   0.0000000   0.0000000   0.0000000   2.7928460   2.7928460   2.7928460   2.7928460   2.7928460   2.7928460
 AtZNuc=   6.0000000   6.0000000   6.0000000  16.0000000   1.0000000   1.0000000   1.0000000   1.0000000   1.0000000   1.0000000

  Atom        21          22          23
 IAtWgt=           1           1           1
 AtmWgt=   1.0078250   1.0078250   1.0078250
 NucSpn=           1           1           1
 AtZEff=  -0.0000000  -0.0000000  -0.0000000
 NQMom=    0.0000000   0.0000000   0.0000000
 NMagM=    2.7928460   2.7928460   2.7928460
 AtZNuc=   1.0000000   1.0000000   1.0000000
 Leave Link  101 at Thu Jul 23 12:58:29 2020, MaxMem=  4026531840 cpu:               3.1 elap:               0.4
 (Enter /opt/ohpc/pub/libs/gaussian/g16-A.03/sandybridge/g16/l103.exe)

 GradGradGradGradGradGradGradGradGradGradGradGradGradGradGradGradGradGrad
 Berny optimization.
 Initialization pass.
                           ----------------------------
                           !    Initial Parameters    !
                           ! (Angstroms and Degrees)  !
 --------------------------                            --------------------------
 ! Name  Definition              Value          Derivative Info.                !
 --------------------------------------------------------------------------------
 ! R1    R(1,2)                  1.4523         estimate D2E/DX2                !
 ! R2    R(1,9)                  1.3146         estimate D2E/DX2                !
 ! R3    R(1,15)                 1.0737         estimate D2E/DX2                !
 ! R4    R(2,3)                  1.3838         estimate D2E/DX2                !
 ! R5    R(2,16)                 1.1224         estimate D2E/DX2                !
 ! R6    R(3,4)                  1.3988         estimate D2E/DX2                !
 ! R7    R(3,5)                  1.3259         estimate D2E/DX2                !
 ! R8    R(5,6)                  1.4214         estimate D2E/DX2                !
 ! R9    R(5,10)                 1.5254         estimate D2E/DX2                !
 ! R10   R(6,7)                  1.3001         estimate D2E/DX2                !
 ! R11   R(6,9)                  1.4566         estimate D2E/DX2                !
 ! R12   R(7,8)                  1.464          estimate D2E/DX2                !
 ! R13   R(8,17)                 1.1493         estimate D2E/DX2                !
 ! R14   R(8,18)                 1.1349         estimate D2E/DX2                !
 ! R15   R(8,19)                 1.0275         estimate D2E/DX2                !
 ! R16   R(9,20)                 1.1207         estimate D2E/DX2                !
 ! R17   R(10,11)                1.3841         estimate D2E/DX2                !
 ! R18   R(10,14)                1.6867         estimate D2E/DX2                !
 ! R19   R(11,12)                1.3767         estimate D2E/DX2                !
 ! R20   R(11,21)                1.1002         estimate D2E/DX2                !
 ! R21   R(12,13)                1.3732         estimate D2E/DX2                !
 ! R22   R(12,22)                1.082          estimate D2E/DX2                !
 ! R23   R(13,14)                1.7849         estimate D2E/DX2                !
 ! R24   R(13,23)                1.0179         estimate D2E/DX2                !
 ! A1    A(2,1,9)              118.0086         estimate D2E/DX2                !
 ! A2    A(2,1,15)             120.2832         estimate D2E/DX2                !
 ! A3    A(9,1,15)             121.6677         estimate D2E/DX2                !
 ! A4    A(1,2,3)              118.4573         estimate D2E/DX2                !
 ! A5    A(1,2,16)             116.9035         estimate D2E/DX2                !
 ! A6    A(3,2,16)             124.4265         estimate D2E/DX2                !
 ! A7    A(2,3,4)              112.9857         estimate D2E/DX2                !
 ! A8    A(2,3,5)              122.1026         estimate D2E/DX2                !
 ! A9    A(4,3,5)              124.9099         estimate D2E/DX2                !
 ! A10   A(3,5,6)              122.9145         estimate D2E/DX2                !
 ! A11   A(3,5,10)             121.0166         estimate D2E/DX2                !
 ! A12   A(6,5,10)             115.8862         estimate D2E/DX2                !
 ! A13   A(5,6,7)              120.7322         estimate D2E/DX2                !
 ! A14   A(5,6,9)              113.3259         estimate D2E/DX2                !
 ! A15   A(7,6,9)              125.8995         estimate D2E/DX2                !
 ! A16   A(6,7,8)              121.2946         estimate D2E/DX2                !
 ! A17   A(7,8,17)             105.1643         estimate D2E/DX2                !
 ! A18   A(7,8,18)             109.6159         estimate D2E/DX2                !
 ! A19   A(7,8,19)             110.4157         estimate D2E/DX2                !
 ! A20   A(17,8,18)            112.4518         estimate D2E/DX2                !
 ! A21   A(17,8,19)            109.7466         estimate D2E/DX2                !
 ! A22   A(18,8,19)            109.3845         estimate D2E/DX2                !
 ! A23   A(1,9,6)              124.967          estimate D2E/DX2                !
 ! A24   A(1,9,20)             120.5166         estimate D2E/DX2                !
 ! A25   A(6,9,20)             114.42           estimate D2E/DX2                !
 ! A26   A(5,10,11)            128.0173         estimate D2E/DX2                !
 ! A27   A(5,10,14)            118.4457         estimate D2E/DX2                !
 ! A28   A(11,10,14)           113.2439         estimate D2E/DX2                !
 ! A29   A(10,11,12)           110.7599         estimate D2E/DX2                !
 ! A30   A(10,11,21)           122.5885         estimate D2E/DX2                !
 ! A31   A(12,11,21)           125.4915         estimate D2E/DX2                !
 ! A32   A(11,12,13)           116.6925         estimate D2E/DX2                !
 ! A33   A(11,12,22)           122.2899         estimate D2E/DX2                !
 ! A34   A(13,12,22)           120.7971         estimate D2E/DX2                !
 ! A35   A(12,13,14)           107.2798         estimate D2E/DX2                !
 ! A36   A(12,13,23)           131.3846         estimate D2E/DX2                !
 ! A37   A(14,13,23)           121.226          estimate D2E/DX2                !
 ! A38   A(10,14,13)            91.6178         estimate D2E/DX2                !
 ! D1    D(9,1,2,3)              0.8417         estimate D2E/DX2                !
 ! D2    D(9,1,2,16)          -174.0964         estimate D2E/DX2                !
 ! D3    D(15,1,2,3)           178.5641         estimate D2E/DX2                !
 ! D4    D(15,1,2,16)            3.6261         estimate D2E/DX2                !
 ! D5    D(2,1,9,6)             -3.9678         estimate D2E/DX2                !
 ! D6    D(2,1,9,20)           179.8074         estimate D2E/DX2                !
 ! D7    D(15,1,9,6)           178.3431         estimate D2E/DX2                !
 ! D8    D(15,1,9,20)            2.1183         estimate D2E/DX2                !
 ! D9    D(1,2,3,4)           -179.4797         estimate D2E/DX2                !
 ! D10   D(1,2,3,5)              0.0566         estimate D2E/DX2                !
 ! D11   D(16,2,3,4)            -4.9535         estimate D2E/DX2                !
 ! D12   D(16,2,3,5)           174.5828         estimate D2E/DX2                !
 ! D13   D(2,3,5,6)              2.1186         estimate D2E/DX2                !
 ! D14   D(2,3,5,10)           177.0006         estimate D2E/DX2                !
 ! D15   D(4,3,5,6)           -178.4019         estimate D2E/DX2                !
 ! D16   D(4,3,5,10)            -3.5199         estimate D2E/DX2                !
 ! D17   D(3,5,6,7)            177.5888         estimate D2E/DX2                !
 ! D18   D(3,5,6,9)             -4.6426         estimate D2E/DX2                !
 ! D19   D(10,5,6,7)             2.4637         estimate D2E/DX2                !
 ! D20   D(10,5,6,9)          -179.7678         estimate D2E/DX2                !
 ! D21   D(3,5,10,11)          111.981          estimate D2E/DX2                !
 ! D22   D(3,5,10,14)          -61.3441         estimate D2E/DX2                !
 ! D23   D(6,5,10,11)          -72.7938         estimate D2E/DX2                !
 ! D24   D(6,5,10,14)          113.8811         estimate D2E/DX2                !
 ! D25   D(5,6,7,8)           -178.8289         estimate D2E/DX2                !
 ! D26   D(9,6,7,8)              3.7009         estimate D2E/DX2                !
 ! D27   D(5,6,9,1)              5.7329         estimate D2E/DX2                !
 ! D28   D(5,6,9,20)          -177.8387         estimate D2E/DX2                !
 ! D29   D(7,6,9,1)           -176.6351         estimate D2E/DX2                !
 ! D30   D(7,6,9,20)            -0.2067         estimate D2E/DX2                !
 ! D31   D(6,7,8,17)            60.7689         estimate D2E/DX2                !
 ! D32   D(6,7,8,18)           -60.3392         estimate D2E/DX2                !
 ! D33   D(6,7,8,19)           179.0886         estimate D2E/DX2                !
 ! D34   D(5,10,11,12)        -179.192          estimate D2E/DX2                !
 ! D35   D(5,10,11,21)          12.5063         estimate D2E/DX2                !
 ! D36   D(14,10,11,12)         -5.5783         estimate D2E/DX2                !
 ! D37   D(14,10,11,21)       -173.88           estimate D2E/DX2                !
 ! D38   D(5,10,14,13)         176.5145         estimate D2E/DX2                !
 ! D39   D(11,10,14,13)          2.2343         estimate D2E/DX2                !
 ! D40   D(10,11,12,13)          7.2256         estimate D2E/DX2                !
 ! D41   D(10,11,12,22)       -178.134          estimate D2E/DX2                !
 ! D42   D(21,11,12,13)        175.1138         estimate D2E/DX2                !
 ! D43   D(21,11,12,22)        -10.2458         estimate D2E/DX2                !
 ! D44   D(11,12,13,14)         -5.3996         estimate D2E/DX2                !
 ! D45   D(11,12,13,23)        178.4728         estimate D2E/DX2                !
 ! D46   D(22,12,13,14)        179.8747         estimate D2E/DX2                !
 ! D47   D(22,12,13,23)          3.7471         estimate D2E/DX2                !
 ! D48   D(12,13,14,10)          1.6723         estimate D2E/DX2                !
 ! D49   D(23,13,14,10)        178.2753         estimate D2E/DX2                !
 --------------------------------------------------------------------------------
 Trust Radius=3.00D-01 FncErr=1.00D-07 GrdErr=1.00D-06 EigMax=2.50D+02 EigMin=1.00D-04
 Number of steps in this run=    121 maximum allowed number of steps=    138.
 GradGradGradGradGradGradGradGradGradGradGradGradGradGradGradGradGradGrad

 Leave Link  103 at Thu Jul 23 12:58:29 2020, MaxMem=  4026531840 cpu:               0.1 elap:               0.0
 (Enter /opt/ohpc/pub/libs/gaussian/g16-A.03/sandybridge/g16/l202.exe)
                          Input orientation:                          
 ---------------------------------------------------------------------
 Center     Atomic      Atomic             Coordinates (Angstroms)
 Number     Number       Type             X           Y           Z
 ---------------------------------------------------------------------
      1          6           0        3.133525   -0.960344   -0.040368
      2          6           0        2.119004   -1.990257    0.098388
      3          6           0        0.794134   -1.602225    0.193162
      4          9           0       -0.082776   -2.682836    0.334343
      5          6           0        0.428985   -0.328014    0.159954
      6          6           0        1.354213    0.736194   -0.018430
      7          8           0        0.944257    1.967841   -0.091001
      8          6           0        1.883793    3.070990   -0.299919
      9          6           0        2.741792    0.294515   -0.052072
     10          6           0       -1.043391    0.068980    0.198271
     11          6           0       -1.724330    0.721328    1.211452
     12          6           0       -3.050484    0.886256    0.880613
     13          6           0       -3.481905    0.266077   -0.266103
     14         16           0       -2.049598   -0.455344   -1.049719
     15          1           0        4.172256   -1.227132   -0.093191
     16          1           0        2.480074   -3.047212    0.208745
     17          1           0        2.382444    2.853550   -1.312304
     18          1           0        2.631161    3.101760    0.553636
     19          1           0        1.381231    3.966031   -0.345597
     20          1           0        3.489476    1.123184   -0.153821
     21          1           0       -1.209651    1.211972    2.050941
     22          1           0       -3.748025    1.400989    1.528055
     23          1           0       -4.400595    0.221278   -0.702086
 ---------------------------------------------------------------------
                    Distance matrix (angstroms):
                    1          2          3          4          5
     1  C    0.000000
     2  C    1.452318   0.000000
     3  C    2.437067   1.383774   0.000000
     4  F    3.667694   2.320167   1.398794   0.000000
     5  C    2.784691   2.371288   1.325915   2.416091   0.000000
     6  C    2.458592   2.834094   2.413848   3.725473   1.421410
     7  O    3.656464   4.133091   3.584502   4.781685   2.366312
     8  C    4.228575   5.082341   4.823839   6.113607   3.725745
     9  C    1.314634   2.372907   2.729677   4.122150   2.404490
    10  C    4.308490   3.775073   2.483838   2.917840   1.525439
    11  C    5.290920   4.833510   3.574699   3.879736   2.616015
    12  C    6.519210   5.967396   4.631006   4.673769   3.755064
    13  C    6.731937   6.049304   4.688922   4.539901   3.978634
    14  S    5.304581   4.588175   3.308610   3.278069   2.760959
    15  H    1.073745   2.198842   3.410924   4.517428   3.858053
    16  H    2.200926   1.122365   2.220501   2.591668   3.406374
    17  H    4.089955   5.051922   4.964180   6.280153   4.013215
    18  H    4.135928   5.137917   5.062814   6.393363   4.094864
    19  H    5.237640   6.018206   5.624982   6.842008   4.427322
    20  H    2.116757   3.411058   3.848782   5.242621   3.401622
    21  H    5.287316   5.014646   3.922525   4.402963   2.938114
    22  H    7.442552   6.925787   5.606464   5.615748   4.723194
    23  H    7.654872   6.930860   5.577799   5.305810   4.936565
                    6          7          8          9         10
     6  C    0.000000
     7  O    1.300110   0.000000
     8  C    2.410594   1.464006   0.000000
     9  C    1.456567   2.456149   2.916574   0.000000
    10  C    2.498127   2.764072   4.222400   3.800151   0.000000
    11  C    3.315156   3.220487   4.563300   4.660999   1.384114
    12  C    4.498017   4.251096   5.523930   5.896653   2.271993
    13  C    4.865222   4.745268   6.054700   6.227441   2.490149
    14  S    3.750900   3.969148   5.335616   4.951263   1.686667
    15  H    3.435346   4.541788   4.873772   2.088858   5.382177
    16  H    3.953901   5.253507   6.168200   3.362092   4.703782
    17  H    2.685994   2.084333   1.149285   2.875061   4.666049
    18  H    2.748410   2.132364   1.134928   2.873977   4.777695
    19  H    3.246477   2.061196   1.027499   3.926489   4.621860
    20  H    2.174268   2.682449   2.528539   1.120748   4.667140
    21  H    3.328973   3.130267   4.307190   4.569277   2.183222
    22  H    5.372746   4.996016   6.152054   6.770437   3.295090
    23  H    5.818104   5.656090   6.912028   7.172278   3.479175
                   11         12         13         14         15
    11  C    0.000000
    12  C    1.376714   0.000000
    13  C    2.340832   1.373209   0.000000
    14  S    2.569679   2.554965   1.784939   0.000000
    15  H    6.345732   7.588325   7.800369   6.342087   0.000000
    16  H    5.734486   6.819872   6.837292   5.368374   2.503465
    17  H    5.270798   6.180278   6.494624   5.537213   4.619700
    18  H    5.006943   6.107083   6.788420   6.093705   4.640330
    19  H    4.753631   5.534320   6.111143   5.640473   5.901057
    20  H    5.404557   6.625501   7.024770   5.828870   2.448234
    21  H    1.100167   2.205544   3.380318   3.619330   6.285814
    22  H    2.158128   1.081986   2.139591   3.602158   8.500959
    23  H    3.327773   2.184017   1.017880   2.471002   8.715642
                   16         17         18         19         20
    16  H    0.000000
    17  H    6.094433   0.000000
    18  H    6.160490   1.898737   0.000000
    19  H    7.120416   1.781731   1.765760   0.000000
    20  H    4.306106   2.358340   2.269794   3.544468   0.000000
    21  H    5.928609   5.187421   4.534871   4.476707   5.191402
    22  H    7.766356   6.910877   6.673539   6.033182   7.435543
    23  H    7.671782   7.301427   7.701922   6.897809   7.960355
                   21         22         23
    21  H    0.000000
    22  H    2.598553   0.000000
    23  H    4.329290   2.605973   0.000000
 Stoichiometry    C11H9FOS
 Framework group  C1[X(C11H9FOS)]
 Deg. of freedom    63
 Full point group                 C1      NOp   1
 Largest Abelian subgroup         C1      NOp   1
 Largest concise Abelian subgroup C1      NOp   1
                         Standard orientation:                         
 ---------------------------------------------------------------------
 Center     Atomic      Atomic             Coordinates (Angstroms)
 Number     Number       Type             X           Y           Z
 ---------------------------------------------------------------------
      1          6           0        3.133280   -0.965836   -0.032065
      2          6           0        2.119309   -1.997063    0.100833
      3          6           0        0.793871   -1.610478    0.193553
      4          9           0       -0.082451   -2.692292    0.329055
      5          6           0        0.427702   -0.336480    0.163549
      6          6           0        1.352449    0.729093   -0.009089
      7          8           0        0.941607    1.960616   -0.078705
      8          6           0        1.880704    3.065240   -0.281715
      9          6           0        2.740489    0.288717   -0.040694
     10          6           0       -1.045109    0.059124    0.199473
     11          6           0       -1.729136    0.707609    1.213053
     12          6           0       -3.054604    0.872467    0.879440
     13          6           0       -3.482628    0.255626   -0.270345
     14         16           0       -2.047747   -0.462029   -1.052710
     15          1           0        4.172370   -1.231560   -0.083157
     16          1           0        2.481019   -3.054059    0.208677
     17          1           0        2.382066    2.851501   -1.293549
     18          1           0        2.625916    3.093894    0.573797
     19          1           0        1.377482    3.959992   -0.325756
     20          1           0        3.487706    1.118352   -0.137901
     21          1           0       -1.216977    1.195980    2.055404
     22          1           0       -3.754203    1.384506    1.526798
     23          1           0       -4.400189    0.211447   -0.708762
 ---------------------------------------------------------------------
 Rotational constants (GHZ):           0.9038452           0.5300204           0.3719635
 Leave Link  202 at Thu Jul 23 12:58:29 2020, MaxMem=  4026531840 cpu:               0.3 elap:               0.1
 (Enter /opt/ohpc/pub/libs/gaussian/g16-A.03/sandybridge/g16/l301.exe)
 Standard basis: CC-pVDZ (5D, 7F)
 Ernie: Thresh=  0.10000D-02 Tol=  0.10000D-05 Strict=F.
 Ernie:  36 primitive shells out of 381 were deleted.
 There are   259 symmetry adapted cartesian basis functions of A   symmetry.
 There are   245 symmetry adapted basis functions of A   symmetry.
   245 basis functions,   563 primitive gaussians,   259 cartesian basis functions
    54 alpha electrons       54 beta electrons
       nuclear repulsion energy       961.3205338470 Hartrees.
 IExCor=32609 DFT=T Ex+Corr=LC-wPBE ExCW=0 ScaHFX=  1.000000
 ScaDFX=  1.000000  0.000000  1.000000  1.000000 ScalE2=  1.000000  1.000000
 IRadAn=      5 IRanWt=     -1 IRanGd=            0 ICorTp=0 IEmpDi=  4
 HFx  wShort=  0.000000 wLong=  0.265100 cFull=  0.000000 cShort=  0.000000 cLong=  1.000000
 DFx  wShort=  0.000000 wLong=  0.265100 cFull=  0.000000 cShort=  0.000000 cLong=  1.000000
 NAtoms=   23 NActive=   23 NUniq=   23 SFac= 1.00D+00 NAtFMM=   60 NAOKFM=F Big=F
 Integral buffers will be    131072 words long.
 Raffenetti 2 integral format.
 Two-electron integral symmetry is turned on.
 Leave Link  301 at Thu Jul 23 12:58:29 2020, MaxMem=  4026531840 cpu:               1.1 elap:               0.2
 (Enter /opt/ohpc/pub/libs/gaussian/g16-A.03/sandybridge/g16/l302.exe)
 NPDir=0 NMtPBC=     1 NCelOv=     1 NCel=       1 NClECP=     1 NCelD=      1
         NCelK=      1 NCelE2=     1 NClLst=     1 CellRange=     0.0.
 One-electron integrals computed using PRISM.
 One-electron integral symmetry used in STVInt
 NBasis=   245 RedAO= T EigKep=  3.81D-04  NBF=   245
 NBsUse=   245 1.00D-06 EigRej= -1.00D+00 NBFU=   245
 Precomputing XC quadrature grid using
 IXCGrd= 4 IRadAn=           5 IRanWt=          -1 IRanGd=           0 AccXCQ= 0.00D+00.
 Generated NRdTot=       0 NPtTot=           0 NUsed=           0 NTot=          32
 NSgBfM=   258   258   258   258   258 MxSgAt=    23 MxSgA2=    23.
 Leave Link  302 at Thu Jul 23 12:58:30 2020, MaxMem=  4026531840 cpu:               3.1 elap:               0.5
 (Enter /opt/ohpc/pub/libs/gaussian/g16-A.03/sandybridge/g16/l303.exe)
 DipDrv:  MaxL=1.
 Leave Link  303 at Thu Jul 23 12:58:30 2020, MaxMem=  4026531840 cpu:               0.5 elap:               0.1
 (Enter /opt/ohpc/pub/libs/gaussian/g16-A.03/sandybridge/g16/l401.exe)
 ExpMin= 1.22D-01 ExpMax= 1.11D+05 ExpMxC= 1.07D+03 IAcc=3 IRadAn=         5 AccDes= 0.00D+00
 Harris functional with IExCor=32609 and IRadAn=       5 diagonalized for initial guess.
 HarFok:  IExCor=32609 AccDes= 0.00D+00 IRadAn=         5 IDoV= 1 UseB2=F ITyADJ=14
 ICtDFT=  3500011 ScaDFX=  1.000000  1.000000  1.000000  1.000000
 FoFCou: FMM=F IPFlag=           0 FMFlag=      100000 FMFlg1=           0
         NFxFlg=           0 DoJE=T BraDBF=F KetDBF=T FulRan=T
         wScrn=  0.000000 ICntrl=       500 IOpCl=  0 I1Cent=   200000004 NGrid=           0
         NMat0=    1 NMatS0=      1 NMatT0=    0 NMatD0=    1 NMtDS0=    0 NMtDT0=    0
 Petite list used in FoFCou.
 Harris En= -997.173049086441    
 JPrj=0 DoOrth=F DoCkMO=F.
 Initial guess <Sx>= 0.0000 <Sy>= 0.0000 <Sz>= 0.0000 <S**2>=-0.0000 S=-0.0000
 Leave Link  401 at Thu Jul 23 12:58:32 2020, MaxMem=  4026531840 cpu:              18.0 elap:               2.3
 (Enter /opt/ohpc/pub/libs/gaussian/g16-A.03/sandybridge/g16/l502.exe)
 Integral symmetry usage will be decided dynamically.
 UHF open shell SCF:
 Using DIIS extrapolation, IDIIS=  1040.
 NGot=  4026531840 LenX=  4026392809 LenY=  4026325287
 Requested convergence on RMS density matrix=1.00D-08 within 128 cycles.
 Requested convergence on MAX density matrix=1.00D-06.
 Requested convergence on             energy=1.00D-06.
 No special actions if energy rises.
 Fock matrices will be formed incrementally for  20 cycles.
 Integral accuracy reduced to 1.0D-05 until final iterations.

 Cycle   1  Pass 0  IDiag  1:
 FoFJK:  IHMeth= 1 ICntrl=       0 DoSepK=T KAlg= 0 I1Cent=           0 FoldK=F
 IRaf=         1 NMat=       1 IRICut=       1 DoRegI=T DoRafI=F ISym2E= 0 IDoP0=0 IntGTp=1.
 FoFCou: FMM=F IPFlag=           0 FMFlag=      100000 FMFlg1=           0
         NFxFlg=           0 DoJE=T BraDBF=F KetDBF=F FulRan=T
         wScrn=  0.000000 ICntrl=       500 IOpCl=  0 I1Cent=           0 NGrid=           0
         NMat0=    1 NMatS0=      1 NMatT0=    0 NMatD0=    1 NMtDS0=    0 NMtDT0=    0
 Symmetry not used in FoFCou.
 E= -996.864598702252    
 DIIS: error= 2.04D-02 at cycle   1 NSaved=   1.
 NSaved= 1 IEnMin= 1 EnMin= -996.864598702252     IErMin= 1 ErrMin= 2.04D-02
 ErrMax= 2.04D-02  0.00D+00 EMaxC= 1.00D-01 BMatC= 1.17D+00 BMatP= 1.17D+00
 IDIUse=3 WtCom= 7.96D-01 WtEn= 2.04D-01
 Coeff-Com:  0.100D+01
 Coeff-En:   0.100D+01
 Coeff:      0.100D+01
 Gap=     0.356 Goal=   None    Shift=    0.000
 Gap=     0.356 Goal=   None    Shift=    0.000
 GapD=    0.356 DampG=1.000 DampE=0.500 DampFc=0.5000 IDamp=-1.
 Damping current iteration by 5.00D-01
 RMSDP=4.52D-03 MaxDP=1.51D-01              OVMax= 2.44D-01

 Cycle   2  Pass 0  IDiag  1:
 RMSU=  2.25D-03    CP:  9.90D-01
 E= -997.026970424431     Delta-E=       -0.162371722179 Rises=F Damp=T
 DIIS: error= 5.49D-03 at cycle   2 NSaved=   2.
 NSaved= 2 IEnMin= 2 EnMin= -997.026970424431     IErMin= 2 ErrMin= 5.49D-03
 ErrMax= 5.49D-03  0.00D+00 EMaxC= 1.00D-01 BMatC= 4.97D-02 BMatP= 1.17D+00
 IDIUse=3 WtCom= 9.45D-01 WtEn= 5.49D-02
 Coeff-Com:  0.173D-02 0.998D+00
 Coeff-En:   0.000D+00 0.100D+01
 Coeff:      0.164D-02 0.998D+00
 Gap=     0.416 Goal=   None    Shift=    0.000
 Gap=     0.416 Goal=   None    Shift=    0.000
 RMSDP=1.29D-03 MaxDP=2.82D-02 DE=-1.62D-01 OVMax= 1.65D-01

 Cycle   3  Pass 0  IDiag  1:
 RMSU=  1.27D-03    CP:  9.87D-01  1.08D+00
 E= -997.195154487221     Delta-E=       -0.168184062790 Rises=F Damp=F
 DIIS: error= 3.42D-03 at cycle   3 NSaved=   3.
 NSaved= 3 IEnMin= 3 EnMin= -997.195154487221     IErMin= 3 ErrMin= 3.42D-03
 ErrMax= 3.42D-03  0.00D+00 EMaxC= 1.00D-01 BMatC= 1.92D-02 BMatP= 4.97D-02
 IDIUse=3 WtCom= 9.66D-01 WtEn= 3.42D-02
 Coeff-Com: -0.222D-01 0.368D+00 0.654D+00
 Coeff-En:   0.000D+00 0.000D+00 0.100D+01
 Coeff:     -0.215D-01 0.355D+00 0.666D+00
 Gap=     0.337 Goal=   None    Shift=    0.000
 Gap=     0.337 Goal=   None    Shift=    0.000
 RMSDP=3.89D-04 MaxDP=1.13D-02 DE=-1.68D-01 OVMax= 2.69D-02

 Cycle   4  Pass 0  IDiag  1:
 RMSU=  3.15D-04    CP:  9.87D-01  1.12D+00  8.35D-01
 E= -997.199747176436     Delta-E=       -0.004592689215 Rises=F Damp=F
 DIIS: error= 1.57D-03 at cycle   4 NSaved=   4.
 NSaved= 4 IEnMin= 4 EnMin= -997.199747176436     IErMin= 4 ErrMin= 1.57D-03
 ErrMax= 1.57D-03  0.00D+00 EMaxC= 1.00D-01 BMatC= 2.93D-03 BMatP= 1.92D-02
 IDIUse=3 WtCom= 9.84D-01 WtEn= 1.57D-02
 Coeff-Com: -0.928D-03 0.333D-01 0.275D+00 0.692D+00
 Coeff-En:   0.000D+00 0.000D+00 0.000D+00 0.100D+01
 Coeff:     -0.913D-03 0.328D-01 0.271D+00 0.697D+00
 Gap=     0.335 Goal=   None    Shift=    0.000
 Gap=     0.335 Goal=   None    Shift=    0.000
 RMSDP=1.45D-04 MaxDP=5.71D-03 DE=-4.59D-03 OVMax= 7.63D-03

 Cycle   5  Pass 0  IDiag  1:
 RMSU=  1.14D-04    CP:  9.87D-01  1.12D+00  8.91D-01  8.35D-01
 E= -997.200504256305     Delta-E=       -0.000757079869 Rises=F Damp=F
 DIIS: error= 5.68D-04 at cycle   5 NSaved=   5.
 NSaved= 5 IEnMin= 5 EnMin= -997.200504256305     IErMin= 5 ErrMin= 5.68D-04
 ErrMax= 5.68D-04  0.00D+00 EMaxC= 1.00D-01 BMatC= 3.96D-04 BMatP= 2.93D-03
 IDIUse=3 WtCom= 9.94D-01 WtEn= 5.68D-03
 Coeff-Com:  0.435D-02-0.255D-01 0.581D-01 0.315D+00 0.648D+00
 Coeff-En:   0.000D+00 0.000D+00 0.000D+00 0.000D+00 0.100D+01
 Coeff:      0.432D-02-0.254D-01 0.578D-01 0.314D+00 0.650D+00
 Gap=     0.336 Goal=   None    Shift=    0.000
 Gap=     0.336 Goal=   None    Shift=    0.000
 RMSDP=5.81D-05 MaxDP=1.84D-03 DE=-7.57D-04 OVMax= 3.56D-03

 Cycle   6  Pass 0  IDiag  1:
 RMSU=  4.19D-05    CP:  9.87D-01  1.12D+00  9.10D-01  9.26D-01  8.93D-01
 E= -997.200618809348     Delta-E=       -0.000114553043 Rises=F Damp=F
 DIIS: error= 1.20D-04 at cycle   6 NSaved=   6.
 NSaved= 6 IEnMin= 6 EnMin= -997.200618809348     IErMin= 6 ErrMin= 1.20D-04
 ErrMax= 1.20D-04  0.00D+00 EMaxC= 1.00D-01 BMatC= 4.79D-05 BMatP= 3.96D-04
 IDIUse=3 WtCom= 9.99D-01 WtEn= 1.20D-03
 Coeff-Com:  0.323D-02-0.186D-01-0.200D-01 0.115D-01 0.238D+00 0.786D+00
 Coeff-En:   0.000D+00 0.000D+00 0.000D+00 0.000D+00 0.000D+00 0.100D+01
 Coeff:      0.323D-02-0.186D-01-0.199D-01 0.114D-01 0.238D+00 0.786D+00
 Gap=     0.336 Goal=   None    Shift=    0.000
 Gap=     0.336 Goal=   None    Shift=    0.000
 RMSDP=2.60D-05 MaxDP=8.68D-04 DE=-1.15D-04 OVMax= 2.94D-03

 Cycle   7  Pass 0  IDiag  1:
 RMSU=  1.65D-05    CP:  9.87D-01  1.11D+00  9.16D-01  9.43D-01  1.05D+00
                    CP:  1.07D+00
 E= -997.200640371524     Delta-E=       -0.000021562176 Rises=F Damp=F
 DIIS: error= 9.04D-05 at cycle   7 NSaved=   7.
 NSaved= 7 IEnMin= 7 EnMin= -997.200640371524     IErMin= 7 ErrMin= 9.04D-05
 ErrMax= 9.04D-05  0.00D+00 EMaxC= 1.00D-01 BMatC= 8.02D-06 BMatP= 4.79D-05
 IDIUse=1 WtCom= 1.00D+00 WtEn= 0.00D+00
 Coeff-Com:  0.807D-03-0.318D-02-0.121D-01-0.412D-01-0.288D-01 0.275D+00
 Coeff-Com:  0.810D+00
 Coeff:      0.807D-03-0.318D-02-0.121D-01-0.412D-01-0.288D-01 0.275D+00
 Coeff:      0.810D+00
 Gap=     0.336 Goal=   None    Shift=    0.000
 Gap=     0.336 Goal=   None    Shift=    0.000
 RMSDP=1.28D-05 MaxDP=3.48D-04 DE=-2.16D-05 OVMax= 1.07D-03

 Cycle   8  Pass 0  IDiag  1:
 RMSU=  7.07D-06    CP:  9.87D-01  1.11D+00  9.19D-01  9.58D-01  1.07D+00
                    CP:  1.26D+00  1.10D+00
 E= -997.200644748846     Delta-E=       -0.000004377322 Rises=F Damp=F
 DIIS: error= 2.26D-05 at cycle   8 NSaved=   8.
 NSaved= 8 IEnMin= 8 EnMin= -997.200644748846     IErMin= 8 ErrMin= 2.26D-05
 ErrMax= 2.26D-05  0.00D+00 EMaxC= 1.00D-01 BMatC= 1.44D-06 BMatP= 8.02D-06
 IDIUse=1 WtCom= 1.00D+00 WtEn= 0.00D+00
 Coeff-Com: -0.169D-03 0.183D-02-0.212D-03-0.180D-01-0.604D-01-0.521D-01
 Coeff-Com:  0.308D+00 0.821D+00
 Coeff:     -0.169D-03 0.183D-02-0.212D-03-0.180D-01-0.604D-01-0.521D-01
 Coeff:      0.308D+00 0.821D+00
 Gap=     0.336 Goal=   None    Shift=    0.000
 Gap=     0.336 Goal=   None    Shift=    0.000
 RMSDP=5.79D-06 MaxDP=1.72D-04 DE=-4.38D-06 OVMax= 6.90D-04

 Initial convergence to 1.0D-05 achieved.  Increase integral accuracy.
 Cycle   9  Pass 1  IDiag  1:
 E= -997.200467896269     Delta-E=        0.000176852577 Rises=F Damp=F
 DIIS: error= 7.94D-05 at cycle   1 NSaved=   1.
 NSaved= 1 IEnMin= 1 EnMin= -997.200467896269     IErMin= 1 ErrMin= 7.94D-05
 ErrMax= 7.94D-05  0.00D+00 EMaxC= 1.00D-01 BMatC= 1.87D-06 BMatP= 1.87D-06
 IDIUse=1 WtCom= 1.00D+00 WtEn= 0.00D+00
 Coeff-Com:  0.100D+01
 Coeff:      0.100D+01
 Gap=     0.336 Goal=   None    Shift=    0.000
 Gap=     0.336 Goal=   None    Shift=    0.000
 RMSDP=5.79D-06 MaxDP=1.72D-04 DE= 1.77D-04 OVMax= 1.43D-04

 Cycle  10  Pass 1  IDiag  1:
 RMSU=  3.97D-05    CP:  1.00D+00
 E= -997.200468303556     Delta-E=       -0.000000407287 Rises=F Damp=F
 DIIS: error= 5.92D-06 at cycle   2 NSaved=   2.
 NSaved= 2 IEnMin= 2 EnMin= -997.200468303556     IErMin= 2 ErrMin= 5.92D-06
 ErrMax= 5.92D-06  0.00D+00 EMaxC= 1.00D-01 BMatC= 4.92D-08 BMatP= 1.87D-06
 IDIUse=1 WtCom= 1.00D+00 WtEn= 0.00D+00
 Coeff-Com: -0.132D-02 0.100D+01
 Coeff:     -0.132D-02 0.100D+01
 Gap=     0.336 Goal=   None    Shift=    0.000
 Gap=     0.336 Goal=   None    Shift=    0.000
 RMSDP=2.42D-06 MaxDP=6.26D-05 DE=-4.07D-07 OVMax= 1.07D-04

 Cycle  11  Pass 1  IDiag  1:
 RMSU=  1.18D-06    CP:  1.00D+00  1.05D+00
 E= -997.200468316783     Delta-E=       -0.000000013227 Rises=F Damp=F
 DIIS: error= 4.63D-06 at cycle   3 NSaved=   3.
 NSaved= 3 IEnMin= 3 EnMin= -997.200468316783     IErMin= 3 ErrMin= 4.63D-06
 ErrMax= 4.63D-06  0.00D+00 EMaxC= 1.00D-01 BMatC= 4.92D-08 BMatP= 4.92D-08
 IDIUse=1 WtCom= 1.00D+00 WtEn= 0.00D+00
 Coeff-Com: -0.251D-01 0.513D+00 0.512D+00
 Coeff:     -0.251D-01 0.513D+00 0.512D+00
 Gap=     0.336 Goal=   None    Shift=    0.000
 Gap=     0.336 Goal=   None    Shift=    0.000
 RMSDP=4.97D-07 MaxDP=1.90D-05 DE=-1.32D-08 OVMax= 3.87D-05

 Cycle  12  Pass 1  IDiag  1:
 RMSU=  4.40D-07    CP:  1.00D+00  1.06D+00  8.40D-01
 E= -997.200468329888     Delta-E=       -0.000000013105 Rises=F Damp=F
 DIIS: error= 1.66D-06 at cycle   4 NSaved=   4.
 NSaved= 4 IEnMin= 4 EnMin= -997.200468329888     IErMin= 4 ErrMin= 1.66D-06
 ErrMax= 1.66D-06  0.00D+00 EMaxC= 1.00D-01 BMatC= 1.79D-09 BMatP= 4.92D-08
 IDIUse=1 WtCom= 1.00D+00 WtEn= 0.00D+00
 Coeff-Com: -0.169D-02-0.555D-01 0.255D-01 0.103D+01
 Coeff:     -0.169D-02-0.555D-01 0.255D-01 0.103D+01
 Gap=     0.336 Goal=   None    Shift=    0.000
 Gap=     0.336 Goal=   None    Shift=    0.000
 RMSDP=2.59D-07 MaxDP=7.85D-06 DE=-1.31D-08 OVMax= 3.08D-05

 Cycle  13  Pass 1  IDiag  1:
 RMSU=  1.75D-07    CP:  1.00D+00  1.06D+00  9.63D-01  1.26D+00
 E= -997.200468331676     Delta-E=       -0.000000001788 Rises=F Damp=F
 DIIS: error= 1.13D-06 at cycle   5 NSaved=   5.
 NSaved= 5 IEnMin= 5 EnMin= -997.200468331676     IErMin= 5 ErrMin= 1.13D-06
 ErrMax= 1.13D-06  0.00D+00 EMaxC= 1.00D-01 BMatC= 8.38D-10 BMatP= 1.79D-09
 IDIUse=1 WtCom= 1.00D+00 WtEn= 0.00D+00
 Coeff-Com:  0.730D-02-0.195D+00-0.155D+00 0.524D+00 0.818D+00
 Coeff:      0.730D-02-0.195D+00-0.155D+00 0.524D+00 0.818D+00
 Gap=     0.336 Goal=   None    Shift=    0.000
 Gap=     0.336 Goal=   None    Shift=    0.000
 RMSDP=1.69D-07 MaxDP=4.19D-06 DE=-1.79D-09 OVMax= 1.72D-05

 Cycle  14  Pass 1  IDiag  1:
 RMSU=  8.84D-08    CP:  1.00D+00  1.06D+00  1.02D+00  1.53D+00  1.23D+00
 E= -997.200468332245     Delta-E=       -0.000000000569 Rises=F Damp=F
 DIIS: error= 1.54D-07 at cycle   6 NSaved=   6.
 NSaved= 6 IEnMin= 6 EnMin= -997.200468332245     IErMin= 6 ErrMin= 1.54D-07
 ErrMax= 1.54D-07  0.00D+00 EMaxC= 1.00D-01 BMatC= 7.53D-11 BMatP= 8.38D-10
 IDIUse=1 WtCom= 1.00D+00 WtEn= 0.00D+00
 Coeff-Com:  0.309D-02-0.738D-01-0.643D-01 0.118D+00 0.335D+00 0.682D+00
 Coeff:      0.309D-02-0.738D-01-0.643D-01 0.118D+00 0.335D+00 0.682D+00
 Gap=     0.336 Goal=   None    Shift=    0.000
 Gap=     0.336 Goal=   None    Shift=    0.000
 RMSDP=3.42D-08 MaxDP=1.07D-06 DE=-5.69D-10 OVMax= 3.51D-06

 Cycle  15  Pass 1  IDiag  1:
 RMSU=  2.11D-08    CP:  1.00D+00  1.06D+00  1.03D+00  1.55D+00  1.35D+00
                    CP:  1.06D+00
 E= -997.200468332258     Delta-E=       -0.000000000013 Rises=F Damp=F
 DIIS: error= 1.08D-07 at cycle   7 NSaved=   7.
 NSaved= 7 IEnMin= 7 EnMin= -997.200468332258     IErMin= 7 ErrMin= 1.08D-07
 ErrMax= 1.08D-07  0.00D+00 EMaxC= 1.00D-01 BMatC= 1.22D-11 BMatP= 7.53D-11
 IDIUse=1 WtCom= 1.00D+00 WtEn= 0.00D+00
 Coeff-Com:  0.613D-04 0.208D-02-0.106D-02-0.413D-01 0.321D-02 0.305D+00
 Coeff-Com:  0.732D+00
 Coeff:      0.613D-04 0.208D-02-0.106D-02-0.413D-01 0.321D-02 0.305D+00
 Coeff:      0.732D+00
 Gap=     0.336 Goal=   None    Shift=    0.000
 Gap=     0.336 Goal=   None    Shift=    0.000
 RMSDP=1.43D-08 MaxDP=3.56D-07 DE=-1.30D-11 OVMax= 1.28D-06

 Cycle  16  Pass 1  IDiag  1:
 RMSU=  6.73D-09    CP:  1.00D+00  1.06D+00  1.03D+00  1.56D+00  1.39D+00
                    CP:  1.14D+00  8.60D-01
 E= -997.200468332277     Delta-E=       -0.000000000019 Rises=F Damp=F
 DIIS: error= 2.13D-08 at cycle   8 NSaved=   8.
 NSaved= 8 IEnMin= 8 EnMin= -997.200468332277     IErMin= 8 ErrMin= 2.13D-08
 ErrMax= 2.13D-08  0.00D+00 EMaxC= 1.00D-01 BMatC= 9.96D-13 BMatP= 1.22D-11
 IDIUse=1 WtCom= 1.00D+00 WtEn= 0.00D+00
 Coeff-Com: -0.247D-03 0.745D-02 0.528D-02-0.278D-01-0.298D-01 0.671D-01
 Coeff-Com:  0.300D+00 0.678D+00
 Coeff:     -0.247D-03 0.745D-02 0.528D-02-0.278D-01-0.298D-01 0.671D-01
 Coeff:      0.300D+00 0.678D+00
 Gap=     0.336 Goal=   None    Shift=    0.000
 Gap=     0.336 Goal=   None    Shift=    0.000
 RMSDP=3.93D-09 MaxDP=1.16D-07 DE=-1.91D-11 OVMax= 1.59D-07

 SCF Done:  E(ULC-wPBE) =  -997.200468332     A.U. after   16 cycles
            NFock= 16  Conv=0.39D-08     -V/T= 2.0045
 <Sx>= 0.0000 <Sy>= 0.0000 <Sz>= 0.0000 <S**2>=-0.0000 S=-0.0000
 <L.S>= 0.000000000000E+00
 KE= 9.926984084634D+02 PE=-4.268744121270D+03 EE= 1.317524710628D+03
 Annihilation of the first spin contaminant:
 S**2 before annihilation    -0.0000,   after    -0.0000
 Leave Link  502 at Thu Jul 23 13:00:22 2020, MaxMem=  4026531840 cpu:             873.3 elap:             109.5
 (Enter /opt/ohpc/pub/libs/gaussian/g16-A.03/sandybridge/g16/l601.exe)
 Copying SCF densities to generalized density rwf, IOpCl= 1 IROHF=0.

 **********************************************************************

            Population analysis using the SCF density.

 **********************************************************************

 Orbital symmetries:
 Alpha Orbitals:
       Occupied  (A) (A) (A) (A) (A) (A) (A) (A) (A) (A) (A) (A)
                 (A) (A) (A) (A) (A) (A) (A) (A) (A) (A) (A) (A)
                 (A) (A) (A) (A) (A) (A) (A) (A) (A) (A) (A) (A)
                 (A) (A) (A) (A) (A) (A) (A) (A) (A) (A) (A) (A)
                 (A) (A) (A) (A) (A) (A)
       Virtual   (A) (A) (A) (A) (A) (A) (A) (A) (A) (A) (A) (A)
                 (A) (A) (A) (A) (A) (A) (A) (A) (A) (A) (A) (A)
                 (A) (A) (A) (A) (A) (A) (A) (A) (A) (A) (A) (A)
                 (A) (A) (A) (A) (A) (A) (A) (A) (A) (A) (A) (A)
                 (A) (A) (A) (A) (A) (A) (A) (A) (A) (A) (A) (A)
                 (A) (A) (A) (A) (A) (A) (A) (A) (A) (A) (A) (A)
                 (A) (A) (A) (A) (A) (A) (A) (A) (A) (A) (A) (A)
                 (A) (A) (A) (A) (A) (A) (A) (A) (A) (A) (A) (A)
                 (A) (A) (A) (A) (A) (A) (A) (A) (A) (A) (A) (A)
                 (A) (A) (A) (A) (A) (A) (A) (A) (A) (A) (A) (A)
                 (A) (A) (A) (A) (A) (A) (A) (A) (A) (A) (A) (A)
                 (A) (A) (A) (A) (A) (A) (A) (A) (A) (A) (A) (A)
                 (A) (A) (A) (A) (A) (A) (A) (A) (A) (A) (A) (A)
                 (A) (A) (A) (A) (A) (A) (A) (A) (A) (A) (A) (A)
                 (A) (A) (A) (A) (A) (A) (A) (A) (A) (A) (A) (A)
                 (A) (A) (A) (A) (A) (A) (A) (A) (A) (A) (A)
 Beta  Orbitals:
       Occupied  (A) (A) (A) (A) (A) (A) (A) (A) (A) (A) (A) (A)
                 (A) (A) (A) (A) (A) (A) (A) (A) (A) (A) (A) (A)
                 (A) (A) (A) (A) (A) (A) (A) (A) (A) (A) (A) (A)
                 (A) (A) (A) (A) (A) (A) (A) (A) (A) (A) (A) (A)
                 (A) (A) (A) (A) (A) (A)
       Virtual   (A) (A) (A) (A) (A) (A) (A) (A) (A) (A) (A) (A)
                 (A) (A) (A) (A) (A) (A) (A) (A) (A) (A) (A) (A)
                 (A) (A) (A) (A) (A) (A) (A) (A) (A) (A) (A) (A)
                 (A) (A) (A) (A) (A) (A) (A) (A) (A) (A) (A) (A)
                 (A) (A) (A) (A) (A) (A) (A) (A) (A) (A) (A) (A)
                 (A) (A) (A) (A) (A) (A) (A) (A) (A) (A) (A) (A)
                 (A) (A) (A) (A) (A) (A) (A) (A) (A) (A) (A) (A)
                 (A) (A) (A) (A) (A) (A) (A) (A) (A) (A) (A) (A)
                 (A) (A) (A) (A) (A) (A) (A) (A) (A) (A) (A) (A)
                 (A) (A) (A) (A) (A) (A) (A) (A) (A) (A) (A) (A)
                 (A) (A) (A) (A) (A) (A) (A) (A) (A) (A) (A) (A)
                 (A) (A) (A) (A) (A) (A) (A) (A) (A) (A) (A) (A)
                 (A) (A) (A) (A) (A) (A) (A) (A) (A) (A) (A) (A)
                 (A) (A) (A) (A) (A) (A) (A) (A) (A) (A) (A) (A)
                 (A) (A) (A) (A) (A) (A) (A) (A) (A) (A) (A) (A)
                 (A) (A) (A) (A) (A) (A) (A) (A) (A) (A) (A)
 The electronic state is 1-A.
 Alpha  occ. eigenvalues --  -88.23735 -24.41329 -18.96425 -10.12623 -10.12340
 Alpha  occ. eigenvalues --  -10.12219 -10.07501 -10.06160 -10.05983 -10.05396
 Alpha  occ. eigenvalues --  -10.04852 -10.04703 -10.03958 -10.03815  -7.84215
 Alpha  occ. eigenvalues --   -5.86098  -5.85619  -5.85288  -1.23872  -1.15884
 Alpha  occ. eigenvalues --   -0.96287  -0.93955  -0.86303  -0.84071  -0.81399
 Alpha  occ. eigenvalues --   -0.80042  -0.78003  -0.70303  -0.68933  -0.64468
 Alpha  occ. eigenvalues --   -0.63609  -0.61359  -0.59715  -0.59257  -0.56856
 Alpha  occ. eigenvalues --   -0.56269  -0.54812  -0.53218  -0.52414  -0.50273
 Alpha  occ. eigenvalues --   -0.48706  -0.47454  -0.47009  -0.46056  -0.45369
 Alpha  occ. eigenvalues --   -0.44816  -0.43486  -0.41669  -0.41298  -0.39780
 Alpha  occ. eigenvalues --   -0.34642  -0.32935  -0.30757  -0.28954
 Alpha virt. eigenvalues --    0.04636   0.06688   0.08127   0.12284   0.12768
 Alpha virt. eigenvalues --    0.13459   0.14843   0.16189   0.16714   0.18557
 Alpha virt. eigenvalues --    0.19077   0.19469   0.20127   0.21373   0.21926
 Alpha virt. eigenvalues --    0.22267   0.23170   0.26064   0.31023   0.32544
 Alpha virt. eigenvalues --    0.33430   0.36667   0.38503   0.40276   0.41500
 Alpha virt. eigenvalues --    0.44747   0.45185   0.48155   0.50174   0.50445
 Alpha virt. eigenvalues --    0.51141   0.51612   0.53060   0.53600   0.54543
 Alpha virt. eigenvalues --    0.55176   0.55989   0.56343   0.56980   0.57169
 Alpha virt. eigenvalues --    0.58567   0.58842   0.59467   0.60277   0.61435
 Alpha virt. eigenvalues --    0.61693   0.62293   0.63759   0.65165   0.65679
 Alpha virt. eigenvalues --    0.65839   0.66658   0.68685   0.69459   0.70010
 Alpha virt. eigenvalues --    0.71833   0.73263   0.73310   0.74277   0.74939
 Alpha virt. eigenvalues --    0.76602   0.76738   0.78281   0.79505   0.80387
 Alpha virt. eigenvalues --    0.81389   0.82194   0.83454   0.85030   0.86913
 Alpha virt. eigenvalues --    0.90025   0.92101   0.93246   0.93907   0.96754
 Alpha virt. eigenvalues --    0.97604   0.98450   0.99348   1.00868   1.01813
 Alpha virt. eigenvalues --    1.02735   1.06097   1.06969   1.08203   1.09475
 Alpha virt. eigenvalues --    1.10517   1.11060   1.12664   1.14215   1.15247
 Alpha virt. eigenvalues --    1.17175   1.17752   1.18926   1.22876   1.25168
 Alpha virt. eigenvalues --    1.26082   1.26712   1.29198   1.31315   1.34075
 Alpha virt. eigenvalues --    1.36039   1.36556   1.39372   1.40995   1.43367
 Alpha virt. eigenvalues --    1.43846   1.44590   1.48321   1.50278   1.51397
 Alpha virt. eigenvalues --    1.54259   1.55584   1.56316   1.57328   1.57666
 Alpha virt. eigenvalues --    1.59978   1.60256   1.61545   1.63484   1.64874
 Alpha virt. eigenvalues --    1.67915   1.68417   1.68619   1.69477   1.70553
 Alpha virt. eigenvalues --    1.72118   1.72491   1.73699   1.74727   1.75902
 Alpha virt. eigenvalues --    1.77025   1.78517   1.78857   1.80516   1.81083
 Alpha virt. eigenvalues --    1.82711   1.85497   1.86783   1.88030   1.89053
 Alpha virt. eigenvalues --    1.91407   1.92248   1.92853   1.95559   1.96638
 Alpha virt. eigenvalues --    1.98284   1.98782   2.04772   2.05821   2.07102
 Alpha virt. eigenvalues --    2.08092   2.08784   2.12683   2.13366   2.16320
 Alpha virt. eigenvalues --    2.17485   2.18216   2.21005   2.23385   2.25999
 Alpha virt. eigenvalues --    2.29659   2.31566   2.37325   2.38299   2.41145
 Alpha virt. eigenvalues --    2.44742   2.45734   2.48597   2.50569   2.55257
 Alpha virt. eigenvalues --    2.57850   2.60229   2.62537   2.66567   2.67590
 Alpha virt. eigenvalues --    2.73561   2.77757   2.81390   2.83772   2.89878
 Alpha virt. eigenvalues --    3.05638   3.06118   3.25790   3.30688   3.44243
 Alpha virt. eigenvalues --    3.53505   3.63229   3.66753   3.79552   4.00269
 Alpha virt. eigenvalues --    4.25271
  Beta  occ. eigenvalues --  -88.23735 -24.41329 -18.96425 -10.12623 -10.12340
  Beta  occ. eigenvalues --  -10.12219 -10.07501 -10.06160 -10.05983 -10.05396
  Beta  occ. eigenvalues --  -10.04852 -10.04703 -10.03958 -10.03815  -7.84215
  Beta  occ. eigenvalues --   -5.86098  -5.85619  -5.85288  -1.23872  -1.15884
  Beta  occ. eigenvalues --   -0.96287  -0.93955  -0.86303  -0.84071  -0.81399
  Beta  occ. eigenvalues --   -0.80042  -0.78003  -0.70303  -0.68933  -0.64468
  Beta  occ. eigenvalues --   -0.63609  -0.61359  -0.59715  -0.59257  -0.56856
  Beta  occ. eigenvalues --   -0.56269  -0.54812  -0.53218  -0.52414  -0.50273
  Beta  occ. eigenvalues --   -0.48706  -0.47454  -0.47009  -0.46056  -0.45369
  Beta  occ. eigenvalues --   -0.44816  -0.43486  -0.41669  -0.41298  -0.39780
  Beta  occ. eigenvalues --   -0.34642  -0.32935  -0.30757  -0.28954
  Beta virt. eigenvalues --    0.04636   0.06688   0.08127   0.12284   0.12768
  Beta virt. eigenvalues --    0.13459   0.14843   0.16189   0.16714   0.18557
  Beta virt. eigenvalues --    0.19077   0.19469   0.20127   0.21373   0.21926
  Beta virt. eigenvalues --    0.22267   0.23170   0.26064   0.31023   0.32544
  Beta virt. eigenvalues --    0.33430   0.36667   0.38503   0.40276   0.41500
  Beta virt. eigenvalues --    0.44747   0.45185   0.48155   0.50174   0.50445
  Beta virt. eigenvalues --    0.51141   0.51612   0.53060   0.53600   0.54543
  Beta virt. eigenvalues --    0.55176   0.55989   0.56343   0.56980   0.57169
  Beta virt. eigenvalues --    0.58567   0.58842   0.59467   0.60277   0.61435
  Beta virt. eigenvalues --    0.61693   0.62293   0.63759   0.65165   0.65679
  Beta virt. eigenvalues --    0.65839   0.66658   0.68685   0.69459   0.70010
  Beta virt. eigenvalues --    0.71833   0.73263   0.73310   0.74277   0.74939
  Beta virt. eigenvalues --    0.76602   0.76738   0.78281   0.79505   0.80387
  Beta virt. eigenvalues --    0.81389   0.82194   0.83454   0.85030   0.86913
  Beta virt. eigenvalues --    0.90025   0.92101   0.93246   0.93907   0.96754
  Beta virt. eigenvalues --    0.97604   0.98450   0.99348   1.00868   1.01813
  Beta virt. eigenvalues --    1.02735   1.06097   1.06969   1.08203   1.09475
  Beta virt. eigenvalues --    1.10517   1.11060   1.12664   1.14215   1.15247
  Beta virt. eigenvalues --    1.17175   1.17752   1.18926   1.22876   1.25168
  Beta virt. eigenvalues --    1.26082   1.26712   1.29198   1.31315   1.34075
  Beta virt. eigenvalues --    1.36039   1.36556   1.39372   1.40995   1.43367
  Beta virt. eigenvalues --    1.43846   1.44590   1.48321   1.50278   1.51397
  Beta virt. eigenvalues --    1.54259   1.55584   1.56316   1.57328   1.57666
  Beta virt. eigenvalues --    1.59978   1.60256   1.61545   1.63484   1.64874
  Beta virt. eigenvalues --    1.67915   1.68417   1.68619   1.69477   1.70553
  Beta virt. eigenvalues --    1.72118   1.72491   1.73699   1.74727   1.75902
  Beta virt. eigenvalues --    1.77025   1.78517   1.78857   1.80516   1.81083
  Beta virt. eigenvalues --    1.82711   1.85497   1.86783   1.88030   1.89053
  Beta virt. eigenvalues --    1.91407   1.92248   1.92853   1.95559   1.96638
  Beta virt. eigenvalues --    1.98284   1.98782   2.04772   2.05821   2.07102
  Beta virt. eigenvalues --    2.08092   2.08784   2.12683   2.13366   2.16320
  Beta virt. eigenvalues --    2.17485   2.18216   2.21005   2.23385   2.25999
  Beta virt. eigenvalues --    2.29659   2.31566   2.37325   2.38299   2.41145
  Beta virt. eigenvalues --    2.44742   2.45734   2.48597   2.50569   2.55257
  Beta virt. eigenvalues --    2.57850   2.60229   2.62537   2.66567   2.67590
  Beta virt. eigenvalues --    2.73561   2.77757   2.81390   2.83772   2.89878
  Beta virt. eigenvalues --    3.05638   3.06118   3.25790   3.30688   3.44243
  Beta virt. eigenvalues --    3.53505   3.63229   3.66753   3.79552   4.00269
  Beta virt. eigenvalues --    4.25271
          Condensed to atoms (all electrons):
               1          2          3          4          5          6
     1  C    4.720633   0.399654   0.044095   0.004860  -0.064917   0.016360
     2  C    0.399654   5.084232   0.375169  -0.068375  -0.011307  -0.099111
     3  C    0.044095   0.375169   4.984004   0.462790   0.193279   0.061591
     4  F    0.004860  -0.068375   0.462790   8.833095  -0.084946   0.003980
     5  C   -0.064917  -0.011307   0.193279  -0.084946   5.575601   0.351999
     6  C    0.016360  -0.099111   0.061591   0.003980   0.351999   4.893992
     7  O    0.004070   0.000089   0.001551  -0.000001  -0.077663   0.491605
     8  C    0.001440  -0.000050   0.000335   0.000000   0.007890  -0.076089
     9  C    0.492208   0.019042  -0.107844  -0.000532  -0.008929   0.367656
    10  C   -0.001069   0.012176  -0.107421   0.001816   0.268576  -0.090449
    11  C   -0.000020  -0.000138  -0.001509  -0.000663  -0.047184  -0.004948
    12  C   -0.000001   0.000014   0.000077   0.000063   0.004494  -0.000137
    13  C    0.000000  -0.000003  -0.000071  -0.000026   0.003651   0.000008
    14  S   -0.000009  -0.000134  -0.008379   0.001357  -0.060299   0.002372
    15  H    0.396585  -0.047975   0.009293  -0.000022  -0.001269   0.009560
    16  H   -0.044867   0.384026  -0.040520  -0.000565   0.013276  -0.000177
    17  H   -0.000040  -0.000024  -0.000108   0.000000   0.000134  -0.002779
    18  H    0.000241  -0.000012  -0.000123   0.000000  -0.000397  -0.005152
    19  H   -0.000033  -0.000002   0.000029   0.000000  -0.000200   0.001110
    20  H   -0.035210   0.009208   0.000297   0.000001   0.008835  -0.046026
    21  H   -0.000014  -0.000010  -0.000213  -0.000022  -0.010325   0.001451
    22  H    0.000000  -0.000000   0.000011   0.000001  -0.000381  -0.000007
    23  H    0.000000  -0.000000  -0.000012  -0.000001  -0.000233   0.000007
               7          8          9         10         11         12
     1  C    0.004070   0.001440   0.492208  -0.001069  -0.000020  -0.000001
     2  C    0.000089  -0.000050   0.019042   0.012176  -0.000138   0.000014
     3  C    0.001551   0.000335  -0.107844  -0.107421  -0.001509   0.000077
     4  F   -0.000001   0.000000  -0.000532   0.001816  -0.000663   0.000063
     5  C   -0.077663   0.007890  -0.008929   0.268576  -0.047184   0.004494
     6  C    0.491605  -0.076089   0.367656  -0.090449  -0.004948  -0.000137
     7  O    7.587577   0.329945  -0.064118   0.005963   0.002760  -0.000117
     8  C    0.329945   4.482792  -0.006549  -0.000625  -0.000084   0.000002
     9  C   -0.064118  -0.006549   4.997025   0.014288   0.000308   0.000006
    10  C    0.005963  -0.000625   0.014288   5.279146   0.543358  -0.024968
    11  C    0.002760  -0.000084   0.000308   0.543358   4.706314   0.504583
    12  C   -0.000117   0.000002   0.000006  -0.024968   0.504583   4.654811
    13  C    0.000057  -0.000002   0.000003  -0.102545  -0.031174   0.551905
    14  S    0.000049  -0.000002  -0.000180   0.387337  -0.097494  -0.086476
    15  H   -0.000064  -0.000018  -0.036726   0.000023   0.000000   0.000000
    16  H    0.000001  -0.000001   0.010507  -0.000267   0.000005  -0.000000
    17  H   -0.031633   0.385820   0.006828   0.000050   0.000011   0.000000
    18  H   -0.026510   0.385084   0.007874   0.000167  -0.000008  -0.000001
    19  H   -0.012012   0.407798  -0.000132  -0.000052   0.000045   0.000001
    20  H   -0.006689   0.006866   0.373740  -0.000460  -0.000004  -0.000000
    21  H    0.002447  -0.000103   0.000034  -0.045645   0.405061  -0.041463
    22  H   -0.000005  -0.000000  -0.000000   0.008730  -0.042441   0.404468
    23  H    0.000001  -0.000000  -0.000000   0.000092   0.010043  -0.026667
              13         14         15         16         17         18
     1  C    0.000000  -0.000009   0.396585  -0.044867  -0.000040   0.000241
     2  C   -0.000003  -0.000134  -0.047975   0.384026  -0.000024  -0.000012
     3  C   -0.000071  -0.008379   0.009293  -0.040520  -0.000108  -0.000123
     4  F   -0.000026   0.001357  -0.000022  -0.000565   0.000000   0.000000
     5  C    0.003651  -0.060299  -0.001269   0.013276   0.000134  -0.000397
     6  C    0.000008   0.002372   0.009560  -0.000177  -0.002779  -0.005152
     7  O    0.000057   0.000049  -0.000064   0.000001  -0.031633  -0.026510
     8  C   -0.000002  -0.000002  -0.000018  -0.000001   0.385820   0.385084
     9  C    0.000003  -0.000180  -0.036726   0.010507   0.006828   0.007874
    10  C   -0.102545   0.387337   0.000023  -0.000267   0.000050   0.000167
    11  C   -0.031174  -0.097494   0.000000   0.000005   0.000011  -0.000008
    12  C    0.551905  -0.086476   0.000000  -0.000000   0.000000  -0.000001
    13  C    4.958041   0.358077   0.000000  -0.000000   0.000001   0.000000
    14  S    0.358077  15.359965  -0.000000   0.000003  -0.000002   0.000002
    15  H    0.000000  -0.000000   0.716275  -0.012929   0.000017   0.000020
    16  H   -0.000000   0.000003  -0.012929   0.680674   0.000000   0.000000
    17  H    0.000001  -0.000002   0.000017   0.000000   0.630310  -0.033429
    18  H    0.000000   0.000002   0.000020   0.000000  -0.033429   0.632538
    19  H   -0.000002  -0.000003  -0.000000  -0.000000  -0.023431  -0.026415
    20  H   -0.000000   0.000004  -0.016978  -0.000242   0.001459   0.000434
    21  H    0.008489   0.007312   0.000000   0.000000   0.000018   0.000009
    22  H   -0.058751   0.008653  -0.000000   0.000000   0.000000  -0.000000
    23  H    0.409990  -0.038821  -0.000000   0.000000  -0.000000   0.000000
              19         20         21         22         23
     1  C   -0.000033  -0.035210  -0.000014   0.000000   0.000000
     2  C   -0.000002   0.009208  -0.000010  -0.000000  -0.000000
     3  C    0.000029   0.000297  -0.000213   0.000011  -0.000012
     4  F    0.000000   0.000001  -0.000022   0.000001  -0.000001
     5  C   -0.000200   0.008835  -0.010325  -0.000381  -0.000233
     6  C    0.001110  -0.046026   0.001451  -0.000007   0.000007
     7  O   -0.012012  -0.006689   0.002447  -0.000005   0.000001
     8  C    0.407798   0.006866  -0.000103  -0.000000  -0.000000
     9  C   -0.000132   0.373740   0.000034  -0.000000  -0.000000
    10  C   -0.000052  -0.000460  -0.045645   0.008730   0.000092
    11  C    0.000045  -0.000004   0.405061  -0.042441   0.010043
    12  C    0.000001  -0.000000  -0.041463   0.404468  -0.026667
    13  C   -0.000002  -0.000000   0.008489  -0.058751   0.409990
    14  S   -0.000003   0.000004   0.007312   0.008653  -0.038821
    15  H   -0.000000  -0.016978   0.000000  -0.000000  -0.000000
    16  H   -0.000000  -0.000242   0.000000   0.000000   0.000000
    17  H   -0.023431   0.001459   0.000018   0.000000  -0.000000
    18  H   -0.026415   0.000434   0.000009  -0.000000   0.000000
    19  H    0.611476  -0.000338  -0.000024   0.000000  -0.000000
    20  H   -0.000338   0.718301   0.000003   0.000000   0.000000
    21  H   -0.000024   0.000003   0.692942  -0.008328  -0.000124
    22  H    0.000000   0.000000  -0.008328   0.715788  -0.009482
    23  H   -0.000000   0.000000  -0.000124  -0.009482   0.673261
          Atomic-Atomic Spin Densities.
               1          2          3          4          5          6
     1  C   -0.000000   0.000000   0.000000   0.000000   0.000000  -0.000000
     2  C    0.000000  -0.000000   0.000000   0.000000  -0.000000   0.000000
     3  C    0.000000   0.000000   0.000000   0.000000  -0.000000   0.000000
     4  F    0.000000   0.000000   0.000000  -0.000000  -0.000000   0.000000
     5  C    0.000000  -0.000000  -0.000000  -0.000000   0.000000  -0.000000
     6  C   -0.000000   0.000000   0.000000   0.000000  -0.000000   0.000000
     7  O    0.000000  -0.000000  -0.000000   0.000000  -0.000000   0.000000
     8  C   -0.000000  -0.000000   0.000000   0.000000   0.000000   0.000000
     9  C    0.000000   0.000000  -0.000000  -0.000000   0.000000   0.000000
    10  C   -0.000000  -0.000000   0.000000   0.000000   0.000000  -0.000000
    11  C   -0.000000   0.000000   0.000000  -0.000000   0.000000  -0.000000
    12  C    0.000000  -0.000000   0.000000  -0.000000  -0.000000  -0.000000
    13  C    0.000000  -0.000000  -0.000000  -0.000000  -0.000000   0.000000
    14  S   -0.000000   0.000000  -0.000000   0.000000   0.000000  -0.000000
    15  H   -0.000000  -0.000000   0.000000  -0.000000  -0.000000   0.000000
    16  H   -0.000000  -0.000000   0.000000  -0.000000   0.000000  -0.000000
    17  H   -0.000000   0.000000   0.000000   0.000000   0.000000   0.000000
    18  H   -0.000000   0.000000   0.000000   0.000000   0.000000   0.000000
    19  H    0.000000  -0.000000  -0.000000   0.000000  -0.000000  -0.000000
    20  H    0.000000  -0.000000   0.000000  -0.000000  -0.000000  -0.000000
    21  H   -0.000000   0.000000  -0.000000   0.000000  -0.000000   0.000000
    22  H   -0.000000   0.000000   0.000000  -0.000000   0.000000  -0.000000
    23  H   -0.000000   0.000000  -0.000000  -0.000000  -0.000000   0.000000
               7          8          9         10         11         12
     1  C    0.000000  -0.000000   0.000000  -0.000000  -0.000000   0.000000
     2  C   -0.000000  -0.000000   0.000000  -0.000000   0.000000  -0.000000
     3  C   -0.000000   0.000000  -0.000000   0.000000   0.000000   0.000000
     4  F    0.000000   0.000000  -0.000000   0.000000  -0.000000  -0.000000
     5  C   -0.000000   0.000000   0.000000   0.000000   0.000000  -0.000000
     6  C    0.000000   0.000000   0.000000  -0.000000  -0.000000  -0.000000
     7  O    0.000000   0.000000   0.000000   0.000000   0.000000  -0.000000
     8  C    0.000000  -0.000000  -0.000000  -0.000000   0.000000   0.000000
     9  C    0.000000  -0.000000   0.000000  -0.000000  -0.000000  -0.000000
    10  C    0.000000  -0.000000  -0.000000  -0.000000  -0.000000   0.000000
    11  C    0.000000   0.000000  -0.000000  -0.000000  -0.000000   0.000000
    12  C   -0.000000   0.000000  -0.000000   0.000000   0.000000   0.000000
    13  C    0.000000  -0.000000   0.000000  -0.000000   0.000000   0.000000
    14  S    0.000000  -0.000000   0.000000   0.000000  -0.000000   0.000000
    15  H    0.000000   0.000000   0.000000  -0.000000   0.000000  -0.000000
    16  H   -0.000000  -0.000000  -0.000000   0.000000   0.000000   0.000000
    17  H    0.000000   0.000000  -0.000000  -0.000000  -0.000000   0.000000
    18  H   -0.000000  -0.000000  -0.000000   0.000000   0.000000  -0.000000
    19  H    0.000000   0.000000   0.000000   0.000000   0.000000   0.000000
    20  H    0.000000   0.000000  -0.000000   0.000000  -0.000000   0.000000
    21  H    0.000000  -0.000000   0.000000   0.000000  -0.000000   0.000000
    22  H   -0.000000   0.000000  -0.000000   0.000000  -0.000000   0.000000
    23  H    0.000000  -0.000000   0.000000  -0.000000   0.000000  -0.000000
              13         14         15         16         17         18
     1  C    0.000000  -0.000000  -0.000000  -0.000000  -0.000000  -0.000000
     2  C   -0.000000   0.000000  -0.000000  -0.000000   0.000000   0.000000
     3  C   -0.000000  -0.000000   0.000000   0.000000   0.000000   0.000000
     4  F   -0.000000   0.000000  -0.000000  -0.000000   0.000000   0.000000
     5  C   -0.000000   0.000000  -0.000000   0.000000   0.000000   0.000000
     6  C    0.000000  -0.000000   0.000000  -0.000000   0.000000   0.000000
     7  O    0.000000   0.000000   0.000000  -0.000000   0.000000  -0.000000
     8  C   -0.000000  -0.000000   0.000000  -0.000000   0.000000  -0.000000
     9  C    0.000000   0.000000   0.000000  -0.000000  -0.000000  -0.000000
    10  C   -0.000000   0.000000  -0.000000   0.000000  -0.000000   0.000000
    11  C    0.000000  -0.000000   0.000000   0.000000  -0.000000   0.000000
    12  C    0.000000   0.000000  -0.000000   0.000000   0.000000  -0.000000
    13  C   -0.000000   0.000000   0.000000  -0.000000   0.000000   0.000000
    14  S    0.000000  -0.000000  -0.000000   0.000000  -0.000000   0.000000
    15  H    0.000000  -0.000000   0.000000  -0.000000   0.000000   0.000000
    16  H   -0.000000   0.000000  -0.000000   0.000000   0.000000   0.000000
    17  H    0.000000  -0.000000   0.000000   0.000000   0.000000  -0.000000
    18  H    0.000000   0.000000   0.000000   0.000000  -0.000000   0.000000
    19  H    0.000000  -0.000000   0.000000  -0.000000   0.000000   0.000000
    20  H   -0.000000   0.000000   0.000000  -0.000000   0.000000   0.000000
    21  H    0.000000  -0.000000  -0.000000   0.000000   0.000000   0.000000
    22  H   -0.000000   0.000000  -0.000000   0.000000   0.000000  -0.000000
    23  H    0.000000   0.000000  -0.000000   0.000000  -0.000000   0.000000
              19         20         21         22         23
     1  C    0.000000   0.000000  -0.000000  -0.000000  -0.000000
     2  C   -0.000000  -0.000000   0.000000   0.000000   0.000000
     3  C   -0.000000   0.000000  -0.000000   0.000000  -0.000000
     4  F    0.000000  -0.000000   0.000000  -0.000000  -0.000000
     5  C   -0.000000  -0.000000  -0.000000   0.000000  -0.000000
     6  C   -0.000000  -0.000000   0.000000  -0.000000   0.000000
     7  O    0.000000   0.000000   0.000000  -0.000000   0.000000
     8  C    0.000000   0.000000  -0.000000   0.000000  -0.000000
     9  C    0.000000  -0.000000   0.000000  -0.000000   0.000000
    10  C    0.000000   0.000000   0.000000   0.000000  -0.000000
    11  C    0.000000  -0.000000  -0.000000  -0.000000   0.000000
    12  C    0.000000   0.000000   0.000000   0.000000  -0.000000
    13  C    0.000000  -0.000000   0.000000  -0.000000   0.000000
    14  S   -0.000000   0.000000  -0.000000   0.000000   0.000000
    15  H    0.000000   0.000000  -0.000000  -0.000000  -0.000000
    16  H   -0.000000  -0.000000   0.000000   0.000000   0.000000
    17  H    0.000000   0.000000   0.000000   0.000000  -0.000000
    18  H    0.000000   0.000000   0.000000  -0.000000   0.000000
    19  H   -0.000000  -0.000000   0.000000  -0.000000   0.000000
    20  H   -0.000000  -0.000000  -0.000000   0.000000  -0.000000
    21  H    0.000000  -0.000000  -0.000000   0.000000   0.000000
    22  H   -0.000000   0.000000   0.000000   0.000000  -0.000000
    23  H    0.000000  -0.000000   0.000000  -0.000000   0.000000
 Mulliken charges and spin densities:
               1          2
     1  C    0.066034  -0.000000
     2  C   -0.056469  -0.000000
     3  C    0.133679   0.000000
     4  F   -0.152809  -0.000000
     5  C   -0.059685  -0.000000
     6  C    0.123185   0.000000
     7  O   -0.207305   0.000000
     8  C    0.075550  -0.000000
     9  C   -0.064508   0.000000
    10  C   -0.148219   0.000000
    11  C    0.053178  -0.000000
    12  C    0.059404   0.000000
    13  C   -0.097648  -0.000000
    14  S    0.166668   0.000000
    15  H   -0.015794   0.000000
    16  H    0.011076   0.000000
    17  H    0.066799   0.000000
    18  H    0.065677   0.000000
    19  H    0.042186  -0.000000
    20  H   -0.013200  -0.000000
    21  H   -0.011492  -0.000000
    22  H   -0.018255   0.000000
    23  H   -0.018052   0.000000
 Sum of Mulliken charges =  -0.00000   0.00000
 Mulliken charges and spin densities with hydrogens summed into heavy atoms:
               1          2
     1  C    0.050240  -0.000000
     2  C   -0.045393  -0.000000
     3  C    0.133679   0.000000
     4  F   -0.152809  -0.000000
     5  C   -0.059685  -0.000000
     6  C    0.123185   0.000000
     7  O   -0.207305   0.000000
     8  C    0.250213   0.000000
     9  C   -0.077709   0.000000
    10  C   -0.148219   0.000000
    11  C    0.041686  -0.000000
    12  C    0.041149   0.000000
    13  C   -0.115700  -0.000000
    14  S    0.166668   0.000000
 Electronic spatial extent (au):  <R**2>=           2985.5478
 Charge=              0.0000 electrons
 Dipole moment (field-independent basis, Debye):
    X=              2.2121    Y=              3.4541    Z=             -0.1143  Tot=              4.1034
 Quadrupole moment (field-independent basis, Debye-Ang):
   XX=            -74.1481   YY=            -80.1660   ZZ=            -87.0552
   XY=              2.7037   XZ=             -0.2713   YZ=              1.2980
 Traceless Quadrupole moment (field-independent basis, Debye-Ang):
   XX=              6.3083   YY=              0.2904   ZZ=             -6.5987
   XY=              2.7037   XZ=             -0.2713   YZ=              1.2980
 Octapole moment (field-independent basis, Debye-Ang**2):
  XXX=             -0.2060  YYY=             29.3669  ZZZ=              1.4345  XYY=             31.2919
  XXY=              7.4267  XXZ=             -6.6539  XZZ=             -6.7527  YZZ=              3.3647
  YYZ=             -1.4378  XYZ=             -7.6171
 Hexadecapole moment (field-independent basis, Debye-Ang**3):
 XXXX=          -2196.8959 YYYY=          -1097.5539 ZZZZ=           -292.7651 XXXY=             -5.8051
 XXXZ=             24.7547 YYYX=             62.8894 YYYZ=            -15.5936 ZZZX=             -0.3736
 ZZZY=              0.0337 XXYY=           -557.2546 XXZZ=           -460.2783 YYZZ=           -249.8628
 XXYZ=             10.8855 YYXZ=             -6.1027 ZZXY=              9.2803
 N-N= 9.613205338470D+02 E-N=-4.268744115049D+03  KE= 9.926984084634D+02
                          Isotropic Fermi Contact Couplings
        Atom                 a.u.       MegaHertz       Gauss      10(-4) cm-1
     1  C(13)              0.00000       0.00000       0.00000       0.00000
     2  C(13)             -0.00000      -0.00000      -0.00000      -0.00000
     3  C(13)              0.00000       0.00000       0.00000       0.00000
     4  F(19)              0.00000       0.00000       0.00000       0.00000
     5  C(13)              0.00000       0.00000       0.00000       0.00000
     6  C(13)              0.00000       0.00000       0.00000       0.00000
     7  O(17)              0.00000      -0.00000      -0.00000      -0.00000
     8  C(13)              0.00000       0.00000       0.00000       0.00000
     9  C(13)              0.00000       0.00000       0.00000       0.00000
    10  C(13)              0.00000       0.00000       0.00000       0.00000
    11  C(13)             -0.00000      -0.00000      -0.00000      -0.00000
    12  C(13)              0.00000       0.00000       0.00000       0.00000
    13  C(13)             -0.00000      -0.00000      -0.00000      -0.00000
    14  S(33)              0.00000       0.00000       0.00000       0.00000
    15  H(1)               0.00000       0.00000       0.00000       0.00000
    16  H(1)               0.00000       0.00000       0.00000       0.00000
    17  H(1)              -0.00000      -0.00000      -0.00000      -0.00000
    18  H(1)               0.00000       0.00000       0.00000       0.00000
    19  H(1)               0.00000       0.00000       0.00000       0.00000
    20  H(1)              -0.00000      -0.00000      -0.00000      -0.00000
    21  H(1)               0.00000       0.00000       0.00000       0.00000
    22  H(1)               0.00000       0.00000       0.00000       0.00000
    23  H(1)               0.00000       0.00000       0.00000       0.00000
 --------------------------------------------------------
       Center         ----  Spin Dipole Couplings  ----
                      3XX-RR        3YY-RR        3ZZ-RR
 --------------------------------------------------------
     1   Atom       -0.000000      0.000000      0.000000
     2   Atom       -0.000000     -0.000000      0.000000
     3   Atom       -0.000000      0.000000     -0.000000
     4   Atom        0.000000     -0.000000      0.000000
     5   Atom        0.000000     -0.000000      0.000000
     6   Atom       -0.000000      0.000000     -0.000000
     7   Atom       -0.000000      0.000000     -0.000000
     8   Atom       -0.000000      0.000000     -0.000000
     9   Atom        0.000000     -0.000000      0.000000
    10   Atom       -0.000000      0.000000      0.000000
    11   Atom       -0.000000      0.000000     -0.000000
    12   Atom        0.000000     -0.000000     -0.000000
    13   Atom       -0.000000      0.000000     -0.000000
    14   Atom       -0.000000      0.000000      0.000000
    15   Atom        0.000000     -0.000000     -0.000000
    16   Atom        0.000000     -0.000000     -0.000000
    17   Atom        0.000000      0.000000     -0.000000
    18   Atom        0.000000      0.000000     -0.000000
    19   Atom       -0.000000      0.000000      0.000000
    20   Atom       -0.000000     -0.000000      0.000000
    21   Atom        0.000000      0.000000     -0.000000
    22   Atom        0.000000     -0.000000      0.000000
    23   Atom       -0.000000     -0.000000      0.000000
 --------------------------------------------------------
                        XY            XZ            YZ
 --------------------------------------------------------
     1   Atom       -0.000000     -0.000000      0.000000
     2   Atom       -0.000000      0.000000      0.000000
     3   Atom       -0.000000     -0.000000     -0.000000
     4   Atom        0.000000     -0.000000      0.000000
     5   Atom        0.000000     -0.000000      0.000000
     6   Atom       -0.000000     -0.000000     -0.000000
     7   Atom        0.000000     -0.000000      0.000000
     8   Atom       -0.000000     -0.000000     -0.000000
     9   Atom       -0.000000     -0.000000      0.000000
    10   Atom        0.000000      0.000000     -0.000000
    11   Atom       -0.000000     -0.000000     -0.000000
    12   Atom       -0.000000      0.000000      0.000000
    13   Atom        0.000000      0.000000     -0.000000
    14   Atom       -0.000000      0.000000      0.000000
    15   Atom        0.000000      0.000000     -0.000000
    16   Atom        0.000000     -0.000000      0.000000
    17   Atom        0.000000     -0.000000     -0.000000
    18   Atom        0.000000     -0.000000      0.000000
    19   Atom        0.000000     -0.000000      0.000000
    20   Atom       -0.000000      0.000000      0.000000
    21   Atom       -0.000000     -0.000000     -0.000000
    22   Atom        0.000000     -0.000000     -0.000000
    23   Atom        0.000000      0.000000      0.000000
 --------------------------------------------------------


 ---------------------------------------------------------------------------------
              Anisotropic Spin Dipole Couplings in Principal Axis System
 ---------------------------------------------------------------------------------

       Atom             a.u.   MegaHertz   Gauss  10(-4) cm-1        Axes

              Baa    -0.0000    -0.000    -0.000    -0.000  0.9308  0.3644 -0.0278
     1 C(13)  Bbb     0.0000     0.000     0.000     0.000 -0.2984  0.7138 -0.6336
              Bcc     0.0000     0.000     0.000     0.000 -0.2110  0.5981  0.7731
 
              Baa    -0.0000    -0.000    -0.000    -0.000  0.7014  0.7074 -0.0871
     2 C(13)  Bbb    -0.0000    -0.000    -0.000    -0.000  0.7104 -0.7038  0.0048
              Bcc     0.0000     0.000     0.000     0.000  0.0579  0.0652  0.9962
 
              Baa    -0.0000    -0.000    -0.000    -0.000  0.1418  0.0729  0.9872
     3 C(13)  Bbb    -0.0000    -0.000    -0.000    -0.000  0.9306  0.3300 -0.1581
              Bcc     0.0000     0.000     0.000     0.000 -0.3373  0.9412 -0.0210
 
              Baa    -0.0000    -0.000    -0.000    -0.000 -0.1660  0.9859 -0.0233
     4 F(19)  Bbb     0.0000     0.000     0.000     0.000  0.5213  0.1078  0.8466
              Bcc     0.0000     0.000     0.000     0.000  0.8371  0.1284 -0.5318
 
              Baa    -0.0000    -0.000    -0.000    -0.000 -0.2486  0.9663 -0.0674
     5 C(13)  Bbb     0.0000     0.000     0.000     0.000  0.0187  0.0743  0.9971
              Bcc     0.0000     0.000     0.000     0.000  0.9684  0.2466 -0.0366
 
              Baa    -0.0000    -0.000    -0.000    -0.000  0.2288  0.1897  0.9548
     6 C(13)  Bbb    -0.0000    -0.000    -0.000    -0.000  0.9668  0.0703 -0.2457
              Bcc     0.0000     0.000     0.000     0.000 -0.1137  0.9793 -0.1673
 
              Baa    -0.0000     0.000     0.000     0.000  0.9445 -0.3266  0.0367
     7 O(17)  Bbb    -0.0000     0.000     0.000     0.000 -0.0450 -0.0177  0.9988
              Bcc     0.0000    -0.000    -0.000    -0.000  0.3255  0.9450  0.0314
 
              Baa    -0.0000    -0.000    -0.000    -0.000  0.9679  0.2110  0.1367
     8 C(13)  Bbb    -0.0000    -0.000    -0.000    -0.000 -0.1280 -0.0544  0.9903
              Bcc     0.0000     0.000     0.000     0.000 -0.2164  0.9760  0.0257
 
[...]
    21  H    0.000000  -0.000000   0.000000  -0.000000   0.000000  -0.000000
    22  H    0.000000   0.000000   0.000000   0.000000  -0.000000   0.000000
    23  H    0.000000  -0.000000   0.000000  -0.000000   0.000000  -0.000000
              13         14         15         16         17         18
     1  C   -0.000000   0.000000   0.000000  -0.000000  -0.000000  -0.000000
     2  C    0.000000  -0.000000  -0.000000   0.000000   0.000000  -0.000000
     3  C    0.000000   0.000000   0.000000  -0.000000  -0.000000   0.000000
     4  F   -0.000000  -0.000000   0.000000  -0.000000   0.000000   0.000000
     5  C   -0.000000   0.000000  -0.000000   0.000000   0.000000   0.000000
     6  C   -0.000000   0.000000   0.000000  -0.000000   0.000000   0.000000
     7  O    0.000000   0.000000   0.000000  -0.000000   0.000000   0.000000
     8  C   -0.000000   0.000000   0.000000  -0.000000  -0.000000  -0.000000
     9  C    0.000000   0.000000  -0.000000   0.000000  -0.000000  -0.000000
    10  C   -0.000000   0.000000  -0.000000   0.000000   0.000000  -0.000000
    11  C    0.000000   0.000000   0.000000  -0.000000  -0.000000  -0.000000
    12  C   -0.000000  -0.000000   0.000000   0.000000  -0.000000  -0.000000
    13  C    0.000000   0.000000  -0.000000  -0.000000  -0.000000   0.000000
    14  S    0.000000  -0.000000   0.000000  -0.000000   0.000000   0.000000
    15  H   -0.000000   0.000000   0.000000  -0.000000   0.000000   0.000000
    16  H   -0.000000  -0.000000  -0.000000   0.000000   0.000000  -0.000000
    17  H   -0.000000   0.000000   0.000000   0.000000   0.000000  -0.000000
    18  H    0.000000   0.000000   0.000000  -0.000000  -0.000000   0.000000
    19  H   -0.000000  -0.000000   0.000000   0.000000  -0.000000  -0.000000
    20  H    0.000000  -0.000000  -0.000000   0.000000  -0.000000  -0.000000
    21  H    0.000000   0.000000  -0.000000  -0.000000   0.000000   0.000000
    22  H   -0.000000  -0.000000  -0.000000   0.000000   0.000000  -0.000000
    23  H    0.000000   0.000000  -0.000000   0.000000  -0.000000   0.000000
              19         20         21         22         23
     1  C   -0.000000  -0.000000  -0.000000  -0.000000  -0.000000
     2  C   -0.000000   0.000000   0.000000  -0.000000   0.000000
     3  C    0.000000  -0.000000   0.000000  -0.000000   0.000000
     4  F    0.000000  -0.000000  -0.000000   0.000000   0.000000
     5  C   -0.000000   0.000000  -0.000000   0.000000  -0.000000
     6  C   -0.000000  -0.000000  -0.000000   0.000000  -0.000000
     7  O   -0.000000  -0.000000   0.000000   0.000000   0.000000
     8  C   -0.000000  -0.000000  -0.000000   0.000000  -0.000000
     9  C    0.000000   0.000000   0.000000   0.000000   0.000000
    10  C   -0.000000   0.000000  -0.000000   0.000000  -0.000000
    11  C    0.000000  -0.000000   0.000000  -0.000000   0.000000
    12  C    0.000000  -0.000000  -0.000000   0.000000  -0.000000
    13  C   -0.000000   0.000000   0.000000  -0.000000   0.000000
    14  S   -0.000000  -0.000000   0.000000  -0.000000   0.000000
    15  H    0.000000  -0.000000  -0.000000  -0.000000  -0.000000
    16  H    0.000000   0.000000  -0.000000   0.000000   0.000000
    17  H   -0.000000  -0.000000   0.000000   0.000000  -0.000000
    18  H   -0.000000  -0.000000   0.000000  -0.000000   0.000000
    19  H    0.000000  -0.000000  -0.000000   0.000000  -0.000000
    20  H   -0.000000   0.000000   0.000000   0.000000   0.000000
    21  H   -0.000000   0.000000   0.000000  -0.000000   0.000000
    22  H    0.000000   0.000000  -0.000000   0.000000  -0.000000
    23  H   -0.000000   0.000000   0.000000  -0.000000   0.000000
 Mulliken charges and spin densities:
               1          2
     1  C    0.032896   0.000000
     2  C    0.009333   0.000000
     3  C    0.099292  -0.000000
     4  F   -0.123215   0.000000
     5  C   -0.018795   0.000000
     6  C    0.100291   0.000000
     7  O   -0.239476   0.000000
     8  C    0.058130   0.000000
     9  C   -0.037125  -0.000000
    10  C   -0.136153  -0.000000
    11  C    0.034892   0.000000
    12  C    0.053564  -0.000000
    13  C   -0.134861   0.000000
    14  S    0.166155  -0.000000
    15  H   -0.004586   0.000000
    16  H   -0.000883   0.000000
    17  H    0.048437  -0.000000
    18  H    0.047323   0.000000
    19  H    0.055723   0.000000
    20  H   -0.008091  -0.000000
    21  H   -0.015625   0.000000
    22  H   -0.011018  -0.000000
    23  H    0.023790   0.000000
 Sum of Mulliken charges =  -0.00000  -0.00000
 Mulliken charges and spin densities with hydrogens summed into heavy atoms:
               1          2
     1  C    0.028311   0.000000
     2  C    0.008450   0.000000
     3  C    0.099292  -0.000000
     4  F   -0.123215   0.000000
     5  C   -0.018795   0.000000
     6  C    0.100291   0.000000
     7  O   -0.239476   0.000000
     8  C    0.209614   0.000000
     9  C   -0.045216  -0.000000
    10  C   -0.136153  -0.000000
    11  C    0.019268   0.000000
    12  C    0.042545  -0.000000
    13  C   -0.111071   0.000000
    14  S    0.166155  -0.000000
 Electronic spatial extent (au):  <R**2>=           3026.3221
 Charge=             -0.0000 electrons
 Dipole moment (field-independent basis, Debye):
    X=              2.1696    Y=              2.1970    Z=             -0.1408  Tot=              3.0910
 Quadrupole moment (field-independent basis, Debye-Ang):
   XX=            -73.0292   YY=            -79.1968   ZZ=            -89.7456
   XY=              1.4145   XZ=             -0.2936   YZ=              1.2729
 Traceless Quadrupole moment (field-independent basis, Debye-Ang):
   XX=              7.6280   YY=              1.4604   ZZ=             -9.0884
   XY=              1.4145   XZ=             -0.2936   YZ=              1.2729
 Octapole moment (field-independent basis, Debye-Ang**2):
  XXX=             -1.2943  YYY=             14.3310  ZZZ=             -0.7024  XYY=             23.1854
  XXY=              6.7458  XXZ=             -6.6479  XZZ=             -1.1982  YZZ=              0.1957
  YYZ=              1.3590  XYZ=             -7.8941
 Hexadecapole moment (field-independent basis, Debye-Ang**3):
 XXXX=          -2248.5284 YYYY=          -1204.2536 ZZZZ=           -187.8758 XXXY=             15.2732
 XXXZ=             18.4799 YYYX=             34.2814 YYYZ=             -7.3038 ZZZX=              1.4399
 ZZZY=             -5.8724 XXYY=           -574.2129 XXZZ=           -477.5836 YYZZ=           -247.9675
 XXYZ=              8.4459 YYXZ=            -12.1708 ZZXY=             15.5174
 N-N= 9.622042861164D+02 E-N=-4.270247176639D+03  KE= 9.924718441449D+02
                          Isotropic Fermi Contact Couplings
        Atom                 a.u.       MegaHertz       Gauss      10(-4) cm-1
     1  C(13)              0.00000       0.00000       0.00000       0.00000
     2  C(13)             -0.00000      -0.00000      -0.00000      -0.00000
     3  C(13)              0.00000       0.00000       0.00000       0.00000
     4  F(19)              0.00000       0.00000       0.00000       0.00000
     5  C(13)              0.00000       0.00000       0.00000       0.00000
     6  C(13)              0.00000       0.00000       0.00000       0.00000
     7  O(17)             -0.00000       0.00000       0.00000       0.00000
     8  C(13)              0.00000       0.00000       0.00000       0.00000
     9  C(13)              0.00000       0.00000       0.00000       0.00000
    10  C(13)             -0.00000      -0.00000      -0.00000      -0.00000
    11  C(13)              0.00000       0.00000       0.00000       0.00000
    12  C(13)              0.00000       0.00000       0.00000       0.00000
    13  C(13)              0.00000       0.00000       0.00000       0.00000
    14  S(33)              0.00000       0.00000       0.00000       0.00000
    15  H(1)               0.00000       0.00000       0.00000       0.00000
    16  H(1)              -0.00000      -0.00000      -0.00000      -0.00000
    17  H(1)               0.00000       0.00000       0.00000       0.00000
    18  H(1)               0.00000       0.00000       0.00000       0.00000
    19  H(1)               0.00000       0.00000       0.00000       0.00000
    20  H(1)               0.00000       0.00000       0.00000       0.00000
    21  H(1)               0.00000       0.00000       0.00000       0.00000
    22  H(1)              -0.00000      -0.00000      -0.00000      -0.00000
    23  H(1)               0.00000       0.00000       0.00000       0.00000
 --------------------------------------------------------
       Center         ----  Spin Dipole Couplings  ----
                      3XX-RR        3YY-RR        3ZZ-RR
 --------------------------------------------------------
     1   Atom        0.000000      0.000000     -0.000000
     2   Atom        0.000000      0.000000     -0.000000
     3   Atom       -0.000000      0.000000     -0.000000
     4   Atom       -0.000000      0.000000      0.000000
     5   Atom        0.000000      0.000000     -0.000000
     6   Atom       -0.000000      0.000000     -0.000000
     7   Atom       -0.000000      0.000000     -0.000000
     8   Atom        0.000000     -0.000000     -0.000000
     9   Atom        0.000000     -0.000000     -0.000000
    10   Atom       -0.000000     -0.000000      0.000000
    11   Atom       -0.000000      0.000000     -0.000000
    12   Atom       -0.000000      0.000000      0.000000
    13   Atom        0.000000     -0.000000     -0.000000
    14   Atom       -0.000000      0.000000      0.000000
    15   Atom        0.000000     -0.000000     -0.000000
    16   Atom       -0.000000      0.000000     -0.000000
    17   Atom       -0.000000     -0.000000      0.000000
    18   Atom       -0.000000      0.000000      0.000000
    19   Atom       -0.000000     -0.000000      0.000000
    20   Atom       -0.000000      0.000000      0.000000
    21   Atom        0.000000     -0.000000     -0.000000
    22   Atom        0.000000      0.000000     -0.000000
    23   Atom       -0.000000      0.000000      0.000000
 --------------------------------------------------------
                        XY            XZ            YZ
 --------------------------------------------------------
     1   Atom        0.000000     -0.000000     -0.000000
     2   Atom       -0.000000      0.000000     -0.000000
     3   Atom        0.000000     -0.000000     -0.000000
     4   Atom       -0.000000      0.000000      0.000000
     5   Atom       -0.000000     -0.000000     -0.000000
     6   Atom        0.000000     -0.000000     -0.000000
     7   Atom        0.000000      0.000000      0.000000
     8   Atom        0.000000     -0.000000     -0.000000
     9   Atom       -0.000000      0.000000      0.000000
    10   Atom        0.000000      0.000000     -0.000000
    11   Atom        0.000000      0.000000      0.000000
    12   Atom        0.000000      0.000000      0.000000
    13   Atom       -0.000000      0.000000     -0.000000
    14   Atom       -0.000000     -0.000000     -0.000000
    15   Atom       -0.000000     -0.000000     -0.000000
    16   Atom        0.000000      0.000000     -0.000000
    17   Atom        0.000000      0.000000     -0.000000
    18   Atom        0.000000      0.000000      0.000000
    19   Atom        0.000000      0.000000     -0.000000
    20   Atom       -0.000000      0.000000      0.000000
    21   Atom        0.000000      0.000000      0.000000
    22   Atom       -0.000000     -0.000000     -0.000000
    23   Atom        0.000000     -0.000000      0.000000
 --------------------------------------------------------


 ---------------------------------------------------------------------------------
              Anisotropic Spin Dipole Couplings in Principal Axis System
 ---------------------------------------------------------------------------------

       Atom             a.u.   MegaHertz   Gauss  10(-4) cm-1        Axes

              Baa    -0.0000    -0.000    -0.000    -0.000  0.0735  0.0955  0.9927
     1 C(13)  Bbb     0.0000     0.000     0.000     0.000  0.8202 -0.5721 -0.0057
              Bcc     0.0000     0.000     0.000     0.000  0.5673  0.8146 -0.1204
 
              Baa    -0.0000    -0.000    -0.000    -0.000  0.0048  0.0587  0.9983
     2 C(13)  Bbb    -0.0000    -0.000    -0.000    -0.000  0.7241  0.6883 -0.0439
              Bcc     0.0000     0.000     0.000     0.000 -0.6897  0.7231 -0.0392
 
              Baa    -0.0000    -0.000    -0.000    -0.000  0.7150 -0.6109 -0.3399
     3 C(13)  Bbb    -0.0000    -0.000    -0.000    -0.000  0.3577 -0.0980  0.9287
              Bcc     0.0000     0.000     0.000     0.000  0.6007  0.7856 -0.1485
 
              Baa    -0.0000    -0.000    -0.000    -0.000  0.7966  0.5893 -0.1348
     4 F(19)  Bbb     0.0000     0.000     0.000     0.000  0.1216  0.0622  0.9906
              Bcc     0.0000     0.000     0.000     0.000 -0.5921  0.8056  0.0221
 
              Baa    -0.0000    -0.000    -0.000    -0.000  0.1856  0.1823  0.9656
     5 C(13)  Bbb     0.0000     0.000     0.000     0.000  0.9290  0.2875 -0.2329
              Bcc     0.0000     0.000     0.000     0.000 -0.3200  0.9403 -0.1160
 
              Baa    -0.0000    -0.000    -0.000    -0.000  0.0784  0.0740  0.9942
     6 C(13)  Bbb    -0.0000    -0.000    -0.000    -0.000  0.9002 -0.4338 -0.0387
              Bcc     0.0000     0.000     0.000     0.000  0.4284  0.8980 -0.1006
 
              Baa    -0.0000     0.000     0.000     0.000  0.9734 -0.2292 -0.0056
     7 O(17)  Bbb    -0.0000     0.000     0.000     0.000 -0.0037 -0.0401  0.9992
              Bcc     0.0000    -0.000    -0.000    -0.000  0.2292  0.9726  0.0398
 
              Baa    -0.0000    -0.000    -0.000    -0.000 -0.2820  0.9594 -0.0062
     8 C(13)  Bbb    -0.0000    -0.000    -0.000    -0.000  0.1693  0.0561  0.9840
              Bcc     0.0000     0.000     0.000     0.000  0.9444  0.2764 -0.1782
 
              Baa    -0.0000    -0.000    -0.000    -0.000  0.4177  0.8964 -0.1487
     9 C(13)  Bbb    -0.0000    -0.000    -0.000    -0.000  0.0823  0.1256  0.9887
              Bcc     0.0000     0.000     0.000     0.000  0.9049 -0.4252 -0.0213
 
              Baa    -0.0000    -0.000    -0.000    -0.000 -0.6894  0.6910  0.2172
    10 C(13)  Bbb     0.0000     0.000     0.000     0.000  0.4538  0.1783  0.8731
              Bcc     0.0000     0.000     0.000     0.000  0.5646  0.7005 -0.4365
 
              Baa    -0.0000    -0.000    -0.000    -0.000  0.9478 -0.3133  0.0587
    11 C(13)  Bbb    -0.0000    -0.000    -0.000    -0.000 -0.1876 -0.3994  0.8974
              Bcc     0.0000     0.000     0.000     0.000  0.2577  0.8616  0.4374
 
              Baa    -0.0000    -0.000    -0.000    -0.000  0.9530 -0.3025 -0.0175
    12 C(13)  Bbb    -0.0000    -0.000    -0.000    -0.000 -0.1498 -0.5207  0.8405
              Bcc     0.0000     0.000     0.000     0.000  0.2634  0.7984  0.5415
 
              Baa    -0.0000    -0.000    -0.000    -0.000 -0.1997  0.6842  0.7014
    13 C(13)  Bbb     0.0000     0.000     0.000     0.000  0.6726  0.6163 -0.4097
              Bcc     0.0000     0.000     0.000     0.000  0.7125 -0.3899  0.5833
 
              Baa    -0.0000    -0.000    -0.000    -0.000  0.8676  0.2256  0.4432
    14 S(33)  Bbb     0.0000     0.000     0.000     0.000 -0.4852  0.1890  0.8537
              Bcc     0.0000     0.000     0.000     0.000 -0.1088  0.9557 -0.2734
 
              Baa    -0.0000    -0.000    -0.000    -0.000  0.0440  0.0210  0.9988
    15 H(1)   Bbb    -0.0000    -0.000    -0.000    -0.000  0.2024  0.9789 -0.0295
              Bcc     0.0000     0.000     0.000     0.000  0.9783 -0.2035 -0.0388
 
              Baa    -0.0000    -0.000    -0.000    -0.000  0.8949 -0.0408 -0.4445
    16 H(1)   Bbb    -0.0000    -0.000    -0.000    -0.000  0.4462  0.0523  0.8934
              Bcc     0.0000     0.000     0.000     0.000  0.0132  0.9978 -0.0650
 
              Baa    -0.0000    -0.000    -0.000    -0.000  0.8992 -0.4092 -0.1550
    17 H(1)   Bbb    -0.0000    -0.000    -0.000    -0.000  0.4375  0.8347  0.3344
              Bcc     0.0000     0.000     0.000     0.000 -0.0075 -0.3685  0.9296
 
              Baa    -0.0000    -0.000    -0.000    -0.000  0.8511 -0.4977  0.1669
    18 H(1)   Bbb    -0.0000    -0.000    -0.000    -0.000 -0.4237 -0.4636  0.7782
              Bcc     0.0000     0.000     0.000     0.000  0.3099  0.7330  0.6055
 
              Baa    -0.0000    -0.000    -0.000    -0.000 -0.5839  0.7839  0.2111
    19 H(1)   Bbb     0.0000     0.000     0.000     0.000  0.7704  0.4529  0.4488
              Bcc     0.0000     0.000     0.000     0.000 -0.2562 -0.4247  0.8683
 
              Baa    -0.0000    -0.000    -0.000    -0.000  0.8531  0.5175 -0.0668
    20 H(1)   Bbb     0.0000     0.000     0.000     0.000  0.1188 -0.0679  0.9906
              Bcc     0.0000     0.000     0.000     0.000 -0.5081  0.8530  0.1194
 
              Baa    -0.0000    -0.000    -0.000    -0.000 -0.1024  0.7352 -0.6701
    21 H(1)   Bbb    -0.0000    -0.000    -0.000    -0.000  0.7420 -0.3922 -0.5436
              Bcc     0.0000     0.000     0.000     0.000  0.6625  0.5529  0.5054
 
              Baa    -0.0000    -0.000    -0.000    -0.000  0.4670  0.5524  0.6905
    22 H(1)   Bbb    -0.0000    -0.000    -0.000    -0.000 -0.4288 -0.5414  0.7232
              Bcc     0.0000     0.000     0.000     0.000  0.7733 -0.6338 -0.0160
 
              Baa    -0.0000    -0.000    -0.000    -0.000  0.9972 -0.0404  0.0629
    23 H(1)   Bbb     0.0000     0.000     0.000     0.000 -0.0736 -0.6732  0.7358
              Bcc     0.0000     0.000     0.000     0.000 -0.0126  0.7384  0.6743
 

 ---------------------------------------------------------------------------------

 No NMR shielding tensors so no spin-rotation constants.
 Leave Link  601 at Thu Jul 23 13:26:00 2020, MaxMem=  4026531840 cpu:               5.1 elap:               0.8
 (Enter /opt/ohpc/pub/libs/gaussian/g16-A.03/sandybridge/g16/l9999.exe)

 Test job not archived.
 1\1\GINC-SKYLAKE049\FOpt\ULC-wPBE\CC-pVDZ\C11H9F1O1S1\RDU230\23-Jul-20
 20\0\\#P uLC-wPBE/cc-pVDZ iop(3/107=0265100000, 3/108=0265100000) opt\
 \H9 C11 S1 O1 F1\\0,1\C,3.1401552814,-0.9976665176,-0.0682162884\C,2.1
 954189114,-2.0138130311,0.0066845036\C,0.8538931307,-1.6564727903,0.09
 42890769\F,-0.0544379231,-2.6547752934,0.1608173353\C,0.3939809433,-0.
 3353624732,0.1123173122\C,1.388996235,0.6745557052,0.0345211754\O,0.93
 60398759,1.9565936196,0.0530743958\C,1.8810553038,3.0006457519,-0.1022
 022968\C,2.7459618988,0.3418074048,-0.0558749389\C,-1.0450321638,-0.00
 99319907,0.2063329192\C,-1.6422852668,1.0309640537,0.8842576892\C,-3.0
 576995547,1.0661336057,0.732414626\C,-3.5227784526,0.0580667484,-0.071
 3100267\S,-2.2487482831,-0.949881404,-0.6310317525\H,4.2051632809,-1.2
 456902497,-0.1377418234\H,2.4651866266,-3.0738545947,0.0010627998\H,2.
 4286810496,2.9164898586,-1.0610016929\H,2.6087921924,3.0238328177,0.73
 25303959\H,1.2992716821,3.9353339005,-0.0994411396\H,3.5053532946,1.12
 52330637,-0.1168494072\H,-1.0710563697,1.7529124606,1.4707956918\H,-3.
 7052275133,1.8121967833,1.2022145655\H,-4.5550941793,-0.159736429,-0.3
 5469412\\Version=EM64L-G16RevA.03\State=1-A\HF=-997.2505241\S2=0.\S2-1
 =0.\S2A=0.\RMSD=3.453e-09\RMSF=5.600e-06\Dipole=0.8023452,0.9138185,-0
 .005407\Quadrupole=5.5251665,1.0539042,-6.5790706,1.3495438,-0.3873399
 ,1.4547256\PG=C01 [X(C11H9F1O1S1)]\\@


 ACCORDING TO HEN3RY, LIFE IS MUCH LIKE A SEWER........
 YOU GET OUT OF IT JUST WHAT YOU PUT INTO IT...........
                         TOM LEHRER - (THE 3 IS SILENT)
 Job cpu time:       0 days  3 hours 38 minutes 15.9 seconds.
 Elapsed time:       0 days  0 hours 27 minutes 29.9 seconds.
 File lengths (MBytes):  RWF=    128 Int=      0 D2E=      0 Chk=     12 Scr=      8
 Normal termination of Gaussian 16 at Thu Jul 23 13:26:00 2020.
