 Entering Gaussian System, Link 0=g16
 Input=mols_65_3_37_cOC-cOC-N_opt_0.gjf
 Output=mols_65_3_37_cOC-cOC-N_opt_0.log
 Initial command:
 /opt/ohpc/pub/libs/gaussian/g16-A.03/sandybridge/g16/l1.exe "/mnt/gpfs2_4m/scratch/rdu230/ondemand/projects/dihedral_energies/7trial/wtuning/mols_65_3_37_cOC-cOC-N/Gau-64794.inp" -scrdir="/mnt/gpfs2_4m/scratch/rdu230/ondemand/projects/dihedral_energies/7trial/wtuning/mols_65_3_37_cOC-cOC-N/"
 Entering Link 1 = /opt/ohpc/pub/libs/gaussian/g16-A.03/sandybridge/g16/l1.exe PID=     64795.
  
 Copyright (c) 1988,1990,1992,1993,1995,1998,2003,2009,2016,
            Gaussian, Inc.  All Rights Reserved.
  
 This is part of the Gaussian(R) 16 program.  It is based on
 the Gaussian(R) 09 system (copyright 2009, Gaussian, Inc.),
 the Gaussian(R) 03 system (copyright 2003, Gaussian, Inc.),
 the Gaussian(R) 98 system (copyright 1998, Gaussian, Inc.),
 the Gaussian(R) 94 system (copyright 1995, Gaussian, Inc.),
 the Gaussian 92(TM) system (copyright 1992, Gaussian, Inc.),
 the Gaussian 90(TM) system (copyright 1990, Gaussian, Inc.),
 the Gaussian 88(TM) system (copyright 1988, Gaussian, Inc.),
 the Gaussian 86(TM) system (copyright 1986, Carnegie Mellon
 University), and the Gaussian 82(TM) system (copyright 1983,
 Carnegie Mellon University). Gaussian is a federally registered
 trademark of Gaussian, Inc.
  
 This software contains proprietary and confidential information,
 including trade secrets, belonging to Gaussian, Inc.
  
 This software is provided under written license and may be
 used, copied, transmitted, or stored only in accord with that
 written license.
  
 The following legend is applicable only to US Government
 contracts under FAR:
  
                    RESTRICTED RIGHTS LEGEND
  
 Use, reproduction and disclosure by the US Government is
 subject to restrictions as set forth in subparagraphs (a)
 and (c) of the Commercial Computer Software - Restricted
 Rights clause in FAR 52.227-19.
  
 Gaussian, Inc.
 340 Quinnipiac St., Bldg. 40, Wallingford CT 06492
  
  
 ---------------------------------------------------------------
 Warning -- This program may not be used in any manner that
 competes with the business of Gaussian, Inc. or will provide
 assistance to any competitor of Gaussian, Inc.  The licensee
 of this program is prohibited from giving any competitor of
 Gaussian, Inc. access to this program.  By using this program,
 the user acknowledges that Gaussian, Inc. is engaged in the
 business of creating and licensing software in the field of
 computational chemistry and represents and warrants to the
 licensee that it is not a competitor of Gaussian, Inc. and that
 it will not use this program in any manner prohibited above.
 ---------------------------------------------------------------
  

 Cite this work as:
 Gaussian 16, Revision A.03,
 M. J. Frisch, G. W. Trucks, H. B. Schlegel, G. E. Scuseria, 
 M. A. Robb, J. R. Cheeseman, G. Scalmani, V. Barone, 
 G. A. Petersson, H. Nakatsuji, X. Li, M. Caricato, A. V. Marenich, 
 J. Bloino, B. G. Janesko, R. Gomperts, B. Mennucci, H. P. Hratchian, 
 J. V. Ortiz, A. F. Izmaylov, J. L. Sonnenberg, D. Williams-Young, 
 F. Ding, F. Lipparini, F. Egidi, J. Goings, B. Peng, A. Petrone, 
 T. Henderson, D. Ranasinghe, V. G. Zakrzewski, J. Gao, N. Rega, 
 G. Zheng, W. Liang, M. Hada, M. Ehara, K. Toyota, R. Fukuda, 
 J. Hasegawa, M. Ishida, T. Nakajima, Y. Honda, O. Kitao, H. Nakai, 
 T. Vreven, K. Throssell, J. A. Montgomery, Jr., J. E. Peralta, 
 F. Ogliaro, M. J. Bearpark, J. J. Heyd, E. N. Brothers, K. N. Kudin, 
 V. N. Staroverov, T. A. Keith, R. Kobayashi, J. Normand, 
 K. Raghavachari, A. P. Rendell, J. C. Burant, S. S. Iyengar, 
 J. Tomasi, M. Cossi, J. M. Millam, M. Klene, C. Adamo, R. Cammi, 
 J. W. Ochterski, R. L. Martin, K. Morokuma, O. Farkas, 
 J. B. Foresman, and D. J. Fox, Gaussian, Inc., Wallingford CT, 2016.
 
 ******************************************
 Gaussian 16:  EM64L-G16RevA.03 25-Dec-2016
                25-Jul-2020 
 ******************************************
 %mem=30GB
 %nproc=8
 Will use up to    8 processors via shared memory.
 ---------------------------------------------------------------
 #P uLC-wPBE/cc-pVDZ iop(3/107=0417400000, 3/108=0417400000) opt
 ---------------------------------------------------------------
 1/18=20,19=15,26=3,38=1/1,3;
 2/9=110,12=2,17=6,18=5,40=1/2;
 3/5=16,11=2,25=1,30=1,71=1,74=-41,107=417400000,108=417400000,116=2/1,2,3;
 4//1;
 5/5=2,38=5/2;
 6/7=2,8=2,9=2,10=2,28=1/1;
 7//1,2,3,16;
 1/18=20,19=15,26=3/3(2);
 2/9=110/2;
 99//99;
 2/9=110/2;
 3/5=16,11=2,25=1,30=1,71=1,74=-41,107=417400000,108=417400000,116=2/1,2,3;
 4/5=5,16=3,69=1/1;
 5/5=2,38=5/2;
 7//1,2,3,16;
 1/18=20,19=15,26=3/3(-5);
 2/9=110/2;
 6/7=2,8=2,9=2,10=2,19=2,28=1/1;
 99/9=1/99;
 Leave Link    1 at Sat Jul 25 17:02:08 2020, MaxMem=  4026531840 cpu:               1.7 elap:               0.2
 (Enter /opt/ohpc/pub/libs/gaussian/g16-A.03/sandybridge/g16/l101.exe)
 ----------------
 H29 C33 S3 N3 O6
 ----------------
 Symbolic Z-matrix:
 Charge =  0 Multiplicity = 1
 C                    -10.57128  -1.96403  -1.41061 
 C                    -10.17943  -0.79923  -1.9196 
 C                    -9.06947  -0.09827  -1.53517 
 O                    -8.73199   1.04488  -2.13596 
 C                    -9.29778   2.22335  -1.38394 
 C                    -8.17756  -0.65061  -0.50548 
 C                    -8.67208  -1.8415    0.1184 
 O                    -7.95306  -2.51276   1.12999 
 C                    -8.11391  -1.87801   2.34371 
 C                    -9.77519  -2.48721  -0.36589 
 C                    -7.02755   0.05915  -0.03663 
 N                    -6.92601   1.15591   0.58348 
 C                    -5.61648   1.55541   0.77621 
 C                    -4.68587   0.67104   0.28543 
 S                    -5.44017  -0.6817   -0.4232 
 C                    -3.2701    0.73297   0.42769 
 C                    -2.61912   1.84418  -0.20292 
 C                    -1.1759    2.0195   -0.04011 
 O                    -0.58117   3.01491  -0.67856 
 C                    -0.3775    4.12791   0.26725 
 C                    -0.38461   0.98961   0.63241 
 C                    -1.13146  -0.12295   1.21793 
 O                    -0.36781  -1.02846   1.86649 
 C                    -0.82423  -2.29803   1.91119 
 C                    -2.54085  -0.22393   1.0775 
 C                     1.02589   1.17825   0.70845 
 N                     1.63716   1.97575   1.44149 
 C                     3.05945   1.86326   1.33405 
 C                     3.47638   0.84894   0.47223 
 S                     2.07234   0.13096  -0.18615 
 C                     4.7798    0.42295   0.12191 
 C                     5.7977    1.31778   0.09566 
 C                     7.12125   0.98385  -0.12546 
 O                     8.16879   1.8361   -0.18412 
 C                     8.01278   3.22933   0.07996 
 C                     7.42967  -0.35426  -0.38109 
 C                     6.38452  -1.38364  -0.37469 
 O                     6.74599  -2.67759  -0.64826 
 C                     5.77538  -3.56968  -0.87495 
 C                     5.12244  -0.99372  -0.06366 
 C                     8.84619  -0.74415  -0.70894 
 N                     9.41008  -0.66586  -1.90393 
 C                     10.76568  -1.08421  -1.80337 
 C                     11.17758  -1.54628  -0.49118 
 S                     9.84934  -1.43743   0.61258 
 H                    -11.3801  -2.51486  -1.72447 
 H                    -10.76355  -0.30677  -2.73437 
 H                    -10.12141   2.62451  -1.91494 
 H                    -8.51243   2.9336   -1.35176 
 H                    -9.59296   1.92458  -0.32491 
 H                    -7.41263  -0.97148   2.50751 
 H                    -9.18153  -1.43898   2.50386 
 H                    -7.98154  -2.58668   3.14959 
 H                    -10.04953  -3.50065   0.1237 
 H                    -5.43622   2.50138   1.37069 
 H                    -3.09268   2.58567  -0.7043 
 H                    -0.58035   3.81336   1.26868 
 H                    -0.94665   4.94022   0.00764 
 H                     0.7309    4.33138   0.16742 
 H                    -1.70867  -2.46141   2.60579 
 H                     0.02422  -2.92651   2.29479 
 H                    -0.99262  -2.72188   0.93338 
 H                    -2.97213  -1.03334   1.55445 
 H                     3.67765   2.45896   1.94901 
 H                     5.60789   2.40181   0.32713 
 H                     8.95533   3.72257   0.00912 
 H                     7.32463   3.61103  -0.62997 
 H                     7.61324   3.32999   1.10616 
 H                     5.25457  -3.84446   0.07218 
 H                     5.03322  -3.31613  -1.61983 
 H                     6.24112  -4.56468  -1.18273 
 H                     4.3552   -1.65401  -0.01823 
 H                     11.40561  -1.09104  -2.60641 
 H                     12.07775  -1.8728   -0.22929 
 
 ITRead=  0  0  0  0  0  0  0  0  0  0  0  0  0  0  0  0  0  0  0  0
 ITRead=  0  0  0  0  0  0  0  0  0  0  0  0  0  0  0  0  0  0  0  0
 ITRead=  0  0  0  0  0  0  0  0  0  0  0  0  0  0  0  0  0  0  0  0
 ITRead=  0  0  0  0  0  0  0  0  0  0  0  0  0  0
 MicOpt= -1 -1 -1 -1 -1 -1 -1 -1 -1 -1 -1 -1 -1 -1 -1 -1 -1 -1 -1 -1
 MicOpt= -1 -1 -1 -1 -1 -1 -1 -1 -1 -1 -1 -1 -1 -1 -1 -1 -1 -1 -1 -1
 MicOpt= -1 -1 -1 -1 -1 -1 -1 -1 -1 -1 -1 -1 -1 -1 -1 -1 -1 -1 -1 -1
 MicOpt= -1 -1 -1 -1 -1 -1 -1 -1 -1 -1 -1 -1 -1 -1
 NAtoms=     74 NQM=       74 NQMF=       0 NMMI=      0 NMMIF=      0
                NMic=       0 NMicF=      0.
                    Isotopes and Nuclear Properties:
 (Nuclear quadrupole moments (NQMom) in fm**2, nuclear magnetic moments (NMagM)
  in nuclear magnetons)

  Atom         1           2           3           4           5           6           7           8           9          10
 IAtWgt=          12          12          12          16          12          12          12          16          12          12
 AtmWgt=  12.0000000  12.0000000  12.0000000  15.9949146  12.0000000  12.0000000  12.0000000  15.9949146  12.0000000  12.0000000
 NucSpn=           0           0           0           0           0           0           0           0           0           0
 AtZEff=  -0.0000000  -0.0000000  -0.0000000  -0.0000000  -0.0000000  -0.0000000  -0.0000000  -0.0000000  -0.0000000  -0.0000000
 NQMom=    0.0000000   0.0000000   0.0000000   0.0000000   0.0000000   0.0000000   0.0000000   0.0000000   0.0000000   0.0000000
 NMagM=    0.0000000   0.0000000   0.0000000   0.0000000   0.0000000   0.0000000   0.0000000   0.0000000   0.0000000   0.0000000
 AtZNuc=   6.0000000   6.0000000   6.0000000   8.0000000   6.0000000   6.0000000   6.0000000   8.0000000   6.0000000   6.0000000

  Atom        11          12          13          14          15          16          17          18          19          20
 IAtWgt=          12          14          12          12          32          12          12          12          16          12
 AtmWgt=  12.0000000  14.0030740  12.0000000  12.0000000  31.9720718  12.0000000  12.0000000  12.0000000  15.9949146  12.0000000
 NucSpn=           0           2           0           0           0           0           0           0           0           0
 AtZEff=  -0.0000000  -0.0000000  -0.0000000  -0.0000000  -0.0000000  -0.0000000  -0.0000000  -0.0000000  -0.0000000  -0.0000000
 NQMom=    0.0000000   2.0440000   0.0000000   0.0000000   0.0000000   0.0000000   0.0000000   0.0000000   0.0000000   0.0000000
 NMagM=    0.0000000   0.4037610   0.0000000   0.0000000   0.0000000   0.0000000   0.0000000   0.0000000   0.0000000   0.0000000
 AtZNuc=   6.0000000   7.0000000   6.0000000   6.0000000  16.0000000   6.0000000   6.0000000   6.0000000   8.0000000   6.0000000

  Atom        21          22          23          24          25          26          27          28          29          30
 IAtWgt=          12          12          16          12          12          12          14          12          12          32
 AtmWgt=  12.0000000  12.0000000  15.9949146  12.0000000  12.0000000  12.0000000  14.0030740  12.0000000  12.0000000  31.9720718
 NucSpn=           0           0           0           0           0           0           2           0           0           0
 AtZEff=  -0.0000000  -0.0000000  -0.0000000  -0.0000000  -0.0000000  -0.0000000  -0.0000000  -0.0000000  -0.0000000  -0.0000000
 NQMom=    0.0000000   0.0000000   0.0000000   0.0000000   0.0000000   0.0000000   2.0440000   0.0000000   0.0000000   0.0000000
 NMagM=    0.0000000   0.0000000   0.0000000   0.0000000   0.0000000   0.0000000   0.4037610   0.0000000   0.0000000   0.0000000
 AtZNuc=   6.0000000   6.0000000   8.0000000   6.0000000   6.0000000   6.0000000   7.0000000   6.0000000   6.0000000  16.0000000

  Atom        31          32          33          34          35          36          37          38          39          40
 IAtWgt=          12          12          12          16          12          12          12          16          12          12
 AtmWgt=  12.0000000  12.0000000  12.0000000  15.9949146  12.0000000  12.0000000  12.0000000  15.9949146  12.0000000  12.0000000
 NucSpn=           0           0           0           0           0           0           0           0           0           0
 AtZEff=  -0.0000000  -0.0000000  -0.0000000  -0.0000000  -0.0000000  -0.0000000  -0.0000000  -0.0000000  -0.0000000  -0.0000000
 NQMom=    0.0000000   0.0000000   0.0000000   0.0000000   0.0000000   0.0000000   0.0000000   0.0000000   0.0000000   0.0000000
 NMagM=    0.0000000   0.0000000   0.0000000   0.0000000   0.0000000   0.0000000   0.0000000   0.0000000   0.0000000   0.0000000
 AtZNuc=   6.0000000   6.0000000   6.0000000   8.0000000   6.0000000   6.0000000   6.0000000   8.0000000   6.0000000   6.0000000

  Atom        41          42          43          44          45          46          47          48          49          50
 IAtWgt=          12          14          12          12          32           1           1           1           1           1
 AtmWgt=  12.0000000  14.0030740  12.0000000  12.0000000  31.9720718   1.0078250   1.0078250   1.0078250   1.0078250   1.0078250
 NucSpn=           0           2           0           0           0           1           1           1           1           1
 AtZEff=  -0.0000000  -0.0000000  -0.0000000  -0.0000000  -0.0000000  -0.0000000  -0.0000000  -0.0000000  -0.0000000  -0.0000000
 NQMom=    0.0000000   2.0440000   0.0000000   0.0000000   0.0000000   0.0000000   0.0000000   0.0000000   0.0000000   0.0000000
 NMagM=    0.0000000   0.4037610   0.0000000   0.0000000   0.0000000   2.7928460   2.7928460   2.7928460   2.7928460   2.7928460
 AtZNuc=   6.0000000   7.0000000   6.0000000   6.0000000  16.0000000   1.0000000   1.0000000   1.0000000   1.0000000   1.0000000

  Atom        51          52          53          54          55          56          57          58          59          60
 IAtWgt=           1           1           1           1           1           1           1           1           1           1
 AtmWgt=   1.0078250   1.0078250   1.0078250   1.0078250   1.0078250   1.0078250   1.0078250   1.0078250   1.0078250   1.0078250
 NucSpn=           1           1           1           1           1           1           1           1           1           1
 AtZEff=  -0.0000000  -0.0000000  -0.0000000  -0.0000000  -0.0000000  -0.0000000  -0.0000000  -0.0000000  -0.0000000  -0.0000000
 NQMom=    0.0000000   0.0000000   0.0000000   0.0000000   0.0000000   0.0000000   0.0000000   0.0000000   0.0000000   0.0000000
 NMagM=    2.7928460   2.7928460   2.7928460   2.7928460   2.7928460   2.7928460   2.7928460   2.7928460   2.7928460   2.7928460
 AtZNuc=   1.0000000   1.0000000   1.0000000   1.0000000   1.0000000   1.0000000   1.0000000   1.0000000   1.0000000   1.0000000

  Atom        61          62          63          64          65          66          67          68          69          70
 IAtWgt=           1           1           1           1           1           1           1           1           1           1
 AtmWgt=   1.0078250   1.0078250   1.0078250   1.0078250   1.0078250   1.0078250   1.0078250   1.0078250   1.0078250   1.0078250
 NucSpn=           1           1           1           1           1           1           1           1           1           1
 AtZEff=  -0.0000000  -0.0000000  -0.0000000  -0.0000000  -0.0000000  -0.0000000  -0.0000000  -0.0000000  -0.0000000  -0.0000000
 NQMom=    0.0000000   0.0000000   0.0000000   0.0000000   0.0000000   0.0000000   0.0000000   0.0000000   0.0000000   0.0000000
 NMagM=    2.7928460   2.7928460   2.7928460   2.7928460   2.7928460   2.7928460   2.7928460   2.7928460   2.7928460   2.7928460
 AtZNuc=   1.0000000   1.0000000   1.0000000   1.0000000   1.0000000   1.0000000   1.0000000   1.0000000   1.0000000   1.0000000

  Atom        71          72          73          74
 IAtWgt=           1           1           1           1
 AtmWgt=   1.0078250   1.0078250   1.0078250   1.0078250
 NucSpn=           1           1           1           1
 AtZEff=  -0.0000000  -0.0000000  -0.0000000  -0.0000000
 NQMom=    0.0000000   0.0000000   0.0000000   0.0000000
 NMagM=    2.7928460   2.7928460   2.7928460   2.7928460
 AtZNuc=   1.0000000   1.0000000   1.0000000   1.0000000
 Leave Link  101 at Sat Jul 25 17:02:08 2020, MaxMem=  4026531840 cpu:               3.3 elap:               0.4
 (Enter /opt/ohpc/pub/libs/gaussian/g16-A.03/sandybridge/g16/l103.exe)

 GradGradGradGradGradGradGradGradGradGradGradGradGradGradGradGradGradGrad
 Berny optimization.
 Initialization pass.
                           ----------------------------
                           !    Initial Parameters    !
                           ! (Angstroms and Degrees)  !
 --------------------------                            --------------------------
 ! Name  Definition              Value          Derivative Info.                !
 --------------------------------------------------------------------------------
 ! R1    R(1,2)                  1.3302         estimate D2E/DX2                !
 ! R2    R(1,10)                 1.4138         estimate D2E/DX2                !
 ! R3    R(1,46)                 1.0277         estimate D2E/DX2                !
 ! R4    R(2,3)                  1.3679         estimate D2E/DX2                !
 ! R5    R(2,47)                 1.1169         estimate D2E/DX2                !
 ! R6    R(3,4)                  1.3348         estimate D2E/DX2                !
 ! R7    R(3,6)                  1.47           estimate D2E/DX2                !
 ! R8    R(4,5)                  1.5081         estimate D2E/DX2                !
 ! R9    R(5,48)                 1.0589         estimate D2E/DX2                !
 ! R10   R(5,49)                 1.0594         estimate D2E/DX2                !
 ! R11   R(5,50)                 1.1393         estimate D2E/DX2                !
 ! R12   R(6,7)                  1.4325         estimate D2E/DX2                !
 ! R13   R(6,11)                 1.4304         estimate D2E/DX2                !
 ! R14   R(7,8)                  1.411          estimate D2E/DX2                !
 ! R15   R(7,10)                 1.3669         estimate D2E/DX2                !
 ! R16   R(8,9)                  1.3791         estimate D2E/DX2                !
 ! R17   R(9,51)                 1.1578         estimate D2E/DX2                !
 ! R18   R(9,52)                 1.1654         estimate D2E/DX2                !
 ! R19   R(9,53)                 1.0813         estimate D2E/DX2                !
 ! R20   R(10,54)                1.1585         estimate D2E/DX2                !
 ! R21   R(11,12)                1.264          estimate D2E/DX2                !
 ! R22   R(11,15)                1.7939         estimate D2E/DX2                !
 ! R23   R(12,13)                1.3826         estimate D2E/DX2                !
 ! R24   R(13,14)                1.3744         estimate D2E/DX2                !
 ! R25   R(13,55)                1.1317         estimate D2E/DX2                !
 ! R26   R(14,15)                1.7032         estimate D2E/DX2                !
 ! R27   R(14,16)                1.4242         estimate D2E/DX2                !
 ! R28   R(16,17)                1.434          estimate D2E/DX2                !
 ! R29   R(16,25)                1.3674         estimate D2E/DX2                !
 ! R30   R(17,18)                1.4629         estimate D2E/DX2                !
 ! R31   R(17,56)                1.0126         estimate D2E/DX2                !
 ! R32   R(18,19)                1.3237         estimate D2E/DX2                !
 ! R33   R(18,21)                1.4626         estimate D2E/DX2                !
 ! R34   R(19,20)                1.4747         estimate D2E/DX2                !
 ! R35   R(20,57)                1.0691         estimate D2E/DX2                !
 ! R36   R(20,58)                1.0253         estimate D2E/DX2                !
 ! R37   R(20,59)                1.1313         estimate D2E/DX2                !
 ! R38   R(21,22)                1.4623         estimate D2E/DX2                !
 ! R39   R(21,26)                1.4251         estimate D2E/DX2                !
 ! R40   R(22,23)                1.3505         estimate D2E/DX2                !
 ! R41   R(22,25)                1.42           estimate D2E/DX2                !
 ! R42   R(23,24)                1.3499         estimate D2E/DX2                !
 ! R43   R(24,60)                1.1364         estimate D2E/DX2                !
 ! R44   R(24,61)                1.1234         estimate D2E/DX2                !
 ! R45   R(24,62)                1.0789         estimate D2E/DX2                !
 ! R46   R(25,63)                1.0338         estimate D2E/DX2                !
 ! R47   R(26,27)                1.2438         estimate D2E/DX2                !
 ! R48   R(26,30)                1.7298         estimate D2E/DX2                !
 ! R49   R(27,28)                1.4308         estimate D2E/DX2                !
 ! R50   R(28,29)                1.3948         estimate D2E/DX2                !
 ! R51   R(28,64)                1.056          estimate D2E/DX2                !
 ! R52   R(29,30)                1.7089         estimate D2E/DX2                !
 ! R53   R(29,31)                1.4153         estimate D2E/DX2                !
 ! R54   R(31,32)                1.3556         estimate D2E/DX2                !
 ! R55   R(31,40)                1.4693         estimate D2E/DX2                !
 ! R56   R(32,33)                1.3828         estimate D2E/DX2                !
 ! R57   R(32,65)                1.1246         estimate D2E/DX2                !
 ! R58   R(33,34)                1.3517         estimate D2E/DX2                !
 ! R59   R(33,36)                1.3968         estimate D2E/DX2                !
 ! R60   R(34,35)                1.4266         estimate D2E/DX2                !
 ! R61   R(35,66)                1.0662         estimate D2E/DX2                !
 ! R62   R(35,67)                1.0598         estimate D2E/DX2                !
 ! R63   R(35,68)                1.1058         estimate D2E/DX2                !
 ! R64   R(36,37)                1.467          estimate D2E/DX2                !
 ! R65   R(36,41)                1.5053         estimate D2E/DX2                !
 ! R66   R(37,38)                1.3711         estimate D2E/DX2                !
 ! R67   R(37,40)                1.3571         estimate D2E/DX2                !
 ! R68   R(38,39)                1.3376         estimate D2E/DX2                !
 ! R69   R(39,69)                1.1153         estimate D2E/DX2                !
 ! R70   R(39,70)                1.0816         estimate D2E/DX2                !
 ! R71   R(39,71)                1.1409         estimate D2E/DX2                !
 ! R72   R(40,72)                1.0133         estimate D2E/DX2                !
 ! R73   R(41,42)                1.3237         estimate D2E/DX2                !
 ! R74   R(41,45)                1.7981         estimate D2E/DX2                !
 ! R75   R(42,43)                1.4222         estimate D2E/DX2                !
 ! R76   R(43,44)                1.4509         estimate D2E/DX2                !
 ! R77   R(43,73)                1.0269         estimate D2E/DX2                !
 ! R78   R(44,45)                1.7304         estimate D2E/DX2                !
 ! R79   R(44,74)                0.9927         estimate D2E/DX2                !
 ! A1    A(2,1,10)             116.1619         estimate D2E/DX2                !
 ! A2    A(2,1,46)             125.7566         estimate D2E/DX2                !
 ! A3    A(10,1,46)            118.0667         estimate D2E/DX2                !
 ! A4    A(1,2,3)              125.4663         estimate D2E/DX2                !
 ! A5    A(1,2,47)             120.7402         estimate D2E/DX2                !
 ! A6    A(3,2,47)             113.7929         estimate D2E/DX2                !
 ! A7    A(2,3,4)              121.1668         estimate D2E/DX2                !
 ! A8    A(2,3,6)              119.7789         estimate D2E/DX2                !
 ! A9    A(4,3,6)              118.9261         estimate D2E/DX2                !
 ! A10   A(3,4,5)              110.4834         estimate D2E/DX2                !
 ! A11   A(4,5,48)             109.7417         estimate D2E/DX2                !
 ! A12   A(4,5,49)             105.1249         estimate D2E/DX2                !
 ! A13   A(4,5,50)             110.8427         estimate D2E/DX2                !
 ! A14   A(48,5,49)            109.7473         estimate D2E/DX2                !
 ! A15   A(48,5,50)            111.344          estimate D2E/DX2                !
 ! A16   A(49,5,50)            109.8566         estimate D2E/DX2                !
 ! A17   A(3,6,7)              114.0787         estimate D2E/DX2                !
 ! A18   A(3,6,11)             122.0706         estimate D2E/DX2                !
 ! A19   A(7,6,11)             123.1817         estimate D2E/DX2                !
 ! A20   A(6,7,8)              122.129          estimate D2E/DX2                !
 ! A21   A(6,7,10)             121.1327         estimate D2E/DX2                !
 ! A22   A(8,7,10)             116.1379         estimate D2E/DX2                !
 ! A23   A(7,8,9)              110.6444         estimate D2E/DX2                !
 ! A24   A(8,9,51)             114.4718         estimate D2E/DX2                !
 ! A25   A(8,9,52)             113.6518         estimate D2E/DX2                !
 ! A26   A(8,9,53)             109.8767         estimate D2E/DX2                !
 ! A27   A(51,9,52)            103.9147         estimate D2E/DX2                !
 ! A28   A(51,9,53)            109.4856         estimate D2E/DX2                !
 ! A29   A(52,9,53)            104.8706         estimate D2E/DX2                !
 ! A30   A(1,10,7)             122.7805         estimate D2E/DX2                !
 ! A31   A(1,10,54)            120.1763         estimate D2E/DX2                !
 ! A32   A(7,10,54)            117.042          estimate D2E/DX2                !
 ! A33   A(6,11,12)            130.9893         estimate D2E/DX2                !
 ! A34   A(6,11,15)            115.8404         estimate D2E/DX2                !
 ! A35   A(12,11,15)           113.1393         estimate D2E/DX2                !
 ! A36   A(11,12,13)           113.2774         estimate D2E/DX2                !
 ! A37   A(12,13,14)           113.9293         estimate D2E/DX2                !
 ! A38   A(12,13,55)           117.7498         estimate D2E/DX2                !
 ! A39   A(14,13,55)           128.1391         estimate D2E/DX2                !
 ! A40   A(13,14,15)           111.0844         estimate D2E/DX2                !
 ! A41   A(13,14,16)           127.5478         estimate D2E/DX2                !
 ! A42   A(15,14,16)           121.0854         estimate D2E/DX2                !
 ! A43   A(11,15,14)            88.5233         estimate D2E/DX2                !
 ! A44   A(14,16,17)           116.1705         estimate D2E/DX2                !
 ! A45   A(14,16,25)           123.1745         estimate D2E/DX2                !
 ! A46   A(17,16,25)           120.6083         estimate D2E/DX2                !
 ! A47   A(16,17,18)           119.4585         estimate D2E/DX2                !
 ! A48   A(16,17,56)           124.9496         estimate D2E/DX2                !
 ! A49   A(18,17,56)           115.3854         estimate D2E/DX2                !
 ! A50   A(17,18,19)           118.6652         estimate D2E/DX2                !
 ! A51   A(17,18,21)           120.035          estimate D2E/DX2                !
 ! A52   A(19,18,21)           120.5462         estimate D2E/DX2                !
 ! A53   A(18,19,20)           108.6787         estimate D2E/DX2                !
 ! A54   A(19,20,57)           110.6402         estimate D2E/DX2                !
 ! A55   A(19,20,58)           111.0328         estimate D2E/DX2                !
 ! A56   A(19,20,59)           102.3831         estimate D2E/DX2                !
 ! A57   A(57,20,58)           111.4056         estimate D2E/DX2                !
 ! A58   A(57,20,59)           108.7515         estimate D2E/DX2                !
 ! A59   A(58,20,59)           112.2734         estimate D2E/DX2                !
 ! A60   A(18,21,22)           116.3298         estimate D2E/DX2                !
 ! A61   A(18,21,26)           117.8276         estimate D2E/DX2                !
 ! A62   A(22,21,26)           125.7919         estimate D2E/DX2                !
 ! A63   A(21,22,23)           114.4332         estimate D2E/DX2                !
 ! A64   A(21,22,25)           121.4283         estimate D2E/DX2                !
 ! A65   A(23,22,25)           124.13           estimate D2E/DX2                !
 ! A66   A(22,23,24)           117.0868         estimate D2E/DX2                !
 ! A67   A(23,24,60)           114.7477         estimate D2E/DX2                !
 ! A68   A(23,24,61)           106.386          estimate D2E/DX2                !
 ! A69   A(23,24,62)           113.093          estimate D2E/DX2                !
 ! A70   A(60,24,61)           107.377          estimate D2E/DX2                !
 ! A71   A(60,24,62)           112.0862         estimate D2E/DX2                !
 ! A72   A(61,24,62)           101.9791         estimate D2E/DX2                !
 ! A73   A(16,25,22)           121.7748         estimate D2E/DX2                !
 ! A74   A(16,25,63)           123.004          estimate D2E/DX2                !
 ! A75   A(22,25,63)           115.0967         estimate D2E/DX2                !
 ! A76   A(21,26,27)           127.0671         estimate D2E/DX2                !
 ! A77   A(21,26,30)           119.4077         estimate D2E/DX2                !
 ! A78   A(27,26,30)           113.3093         estimate D2E/DX2                !
 ! A79   A(26,27,28)           113.1957         estimate D2E/DX2                !
 ! A80   A(27,28,29)           113.6238         estimate D2E/DX2                !
 ! A81   A(27,28,64)           119.5938         estimate D2E/DX2                !
 ! A82   A(29,28,64)           126.5161         estimate D2E/DX2                !
 ! A83   A(28,29,30)           107.3372         estimate D2E/DX2                !
 ! A84   A(28,29,31)           130.3247         estimate D2E/DX2                !
 ! A85   A(30,29,31)           122.333          estimate D2E/DX2                !
 ! A86   A(26,30,29)            92.4882         estimate D2E/DX2                !
 ! A87   A(29,31,32)           119.8449         estimate D2E/DX2                !
 ! A88   A(29,31,40)           122.4277         estimate D2E/DX2                !
 ! A89   A(32,31,40)           117.3177         estimate D2E/DX2                !
 ! A90   A(31,32,33)           124.2228         estimate D2E/DX2                !
 ! A91   A(31,32,65)           120.3702         estimate D2E/DX2                !
 ! A92   A(33,32,65)           115.2917         estimate D2E/DX2                !
 ! A93   A(32,33,34)           126.6155         estimate D2E/DX2                !
 ! A94   A(32,33,36)           118.1609         estimate D2E/DX2                !
 ! A95   A(34,33,36)           115.1476         estimate D2E/DX2                !
 ! A96   A(33,34,35)           121.5317         estimate D2E/DX2                !
 ! A97   A(34,35,66)           110.0494         estimate D2E/DX2                !
 ! A98   A(34,35,67)           107.3817         estimate D2E/DX2                !
 ! A99   A(34,35,68)           107.469          estimate D2E/DX2                !
 ! A100  A(66,35,67)           111.2782         estimate D2E/DX2                !
 ! A101  A(66,35,68)           109.8136         estimate D2E/DX2                !
 ! A102  A(67,35,68)           110.7471         estimate D2E/DX2                !
 ! A103  A(33,36,37)           120.9383         estimate D2E/DX2                !
 ! A104  A(33,36,41)           119.7201         estimate D2E/DX2                !
 ! A105  A(37,36,41)           119.316          estimate D2E/DX2                !
 ! A106  A(36,37,38)           118.264          estimate D2E/DX2                !
 ! A107  A(36,37,40)           117.5144         estimate D2E/DX2                !
 ! A108  A(38,37,40)           124.2002         estimate D2E/DX2                !
 ! A109  A(37,38,39)           118.1585         estimate D2E/DX2                !
 ! A110  A(38,39,69)           111.0545         estimate D2E/DX2                !
 ! A111  A(38,39,70)           117.2742         estimate D2E/DX2                !
 ! A112  A(38,39,71)           109.3376         estimate D2E/DX2                !
 ! A113  A(69,39,70)           108.7942         estimate D2E/DX2                !
 ! A114  A(69,39,71)           101.8211         estimate D2E/DX2                !
 ! A115  A(70,39,71)           107.3825         estimate D2E/DX2                !
 ! A116  A(31,40,37)           121.5243         estimate D2E/DX2                !
 ! A117  A(31,40,72)           116.4921         estimate D2E/DX2                !
 ! A118  A(37,40,72)           121.819          estimate D2E/DX2                !
 ! A119  A(36,41,42)           125.6035         estimate D2E/DX2                !
 ! A120  A(36,41,45)           117.6946         estimate D2E/DX2                !
 ! A121  A(42,41,45)           116.6559         estimate D2E/DX2                !
 ! A122  A(41,42,43)           108.9541         estimate D2E/DX2                !
 ! A123  A(42,43,44)           115.355          estimate D2E/DX2                !
 ! A124  A(42,43,73)           122.7281         estimate D2E/DX2                !
 ! A125  A(44,43,73)           121.887          estimate D2E/DX2                !
 ! A126  A(43,44,45)           109.812          estimate D2E/DX2                !
 ! A127  A(43,44,74)           126.9254         estimate D2E/DX2                !
 ! A128  A(45,44,74)           123.2599         estimate D2E/DX2                !
 ! A129  A(41,45,44)            89.0656         estimate D2E/DX2                !
 ! D1    D(10,1,2,3)             1.488          estimate D2E/DX2                !
 ! D2    D(10,1,2,47)         -178.8035         estimate D2E/DX2                !
 ! D3    D(46,1,2,3)          -177.0783         estimate D2E/DX2                !
 ! D4    D(46,1,2,47)            2.6302         estimate D2E/DX2                !
 ! D5    D(2,1,10,7)             0.7605         estimate D2E/DX2                !
 ! D6    D(2,1,10,54)         -179.6484         estimate D2E/DX2                !
 ! D7    D(46,1,10,7)          179.442          estimate D2E/DX2                !
 ! D8    D(46,1,10,54)          -0.9668         estimate D2E/DX2                !
 ! D9    D(1,2,3,4)            177.7921         estimate D2E/DX2                !
 ! D10   D(1,2,3,6)              1.9524         estimate D2E/DX2                !
 ! D11   D(47,2,3,4)            -1.9341         estimate D2E/DX2                !
 ! D12   D(47,2,3,6)          -177.7737         estimate D2E/DX2                !
 ! D13   D(2,3,4,5)             93.9378         estimate D2E/DX2                !
 ! D14   D(6,3,4,5)            -90.1879         estimate D2E/DX2                !
 ! D15   D(2,3,6,7)             -7.0895         estimate D2E/DX2                !
 ! D16   D(2,3,6,11)          -177.991          estimate D2E/DX2                !
 ! D17   D(4,3,6,7)            176.9776         estimate D2E/DX2                !
 ! D18   D(4,3,6,11)             6.0762         estimate D2E/DX2                !
 ! D19   D(3,4,5,48)          -105.4781         estimate D2E/DX2                !
 ! D20   D(3,4,5,49)           136.5623         estimate D2E/DX2                !
 ! D21   D(3,4,5,50)            17.9164         estimate D2E/DX2                !
 ! D22   D(3,6,7,8)           -179.9618         estimate D2E/DX2                !
 ! D23   D(3,6,7,10)             9.2669         estimate D2E/DX2                !
 ! D24   D(11,6,7,8)            -9.175          estimate D2E/DX2                !
 ! D25   D(11,6,7,10)         -179.9463         estimate D2E/DX2                !
 ! D26   D(3,6,11,12)           63.8495         estimate D2E/DX2                !
 ! D27   D(3,6,11,15)         -113.9584         estimate D2E/DX2                !
 ! D28   D(7,6,11,12)         -106.2172         estimate D2E/DX2                !
 ! D29   D(7,6,11,15)           75.9749         estimate D2E/DX2                !
 ! D30   D(6,7,8,9)             79.3411         estimate D2E/DX2                !
 ! D31   D(10,7,8,9)          -109.4548         estimate D2E/DX2                !
 ! D32   D(6,7,10,1)            -6.5243         estimate D2E/DX2                !
 ! D33   D(6,7,10,54)          173.8725         estimate D2E/DX2                !
 ! D34   D(8,7,10,1)          -177.8229         estimate D2E/DX2                !
 ! D35   D(8,7,10,54)            2.5739         estimate D2E/DX2                !
 ! D36   D(7,8,9,51)           -82.6847         estimate D2E/DX2                !
 ! D37   D(7,8,9,52)            36.5097         estimate D2E/DX2                !
 ! D38   D(7,8,9,53)           153.6557         estimate D2E/DX2                !
 ! D39   D(6,11,12,13)        -175.576          estimate D2E/DX2                !
 ! D40   D(15,11,12,13)          2.2785         estimate D2E/DX2                !
 ! D41   D(6,11,15,14)         176.193          estimate D2E/DX2                !
 ! D42   D(12,11,15,14)         -2.0077         estimate D2E/DX2                !
 ! D43   D(11,12,13,14)         -1.4121         estimate D2E/DX2                !
 ! D44   D(11,12,13,55)       -176.9131         estimate D2E/DX2                !
 ! D45   D(12,13,14,15)         -0.178          estimate D2E/DX2                !
 ! D46   D(12,13,14,16)       -174.0588         estimate D2E/DX2                !
 ! D47   D(55,13,14,15)        174.7582         estimate D2E/DX2                !
 ! D48   D(55,13,14,16)          0.8774         estimate D2E/DX2                !
 ! D49   D(13,14,15,11)          1.1318         estimate D2E/DX2                !
 ! D50   D(16,14,15,11)        175.4683         estimate D2E/DX2                !
 ! D51   D(13,14,16,17)        -64.7988         estimate D2E/DX2                !
 ! D52   D(13,14,16,25)        117.6767         estimate D2E/DX2                !
 ! D53   D(15,14,16,17)        121.8704         estimate D2E/DX2                !
 ! D54   D(15,14,16,25)        -55.654          estimate D2E/DX2                !
 ! D55   D(14,16,17,18)        176.6159         estimate D2E/DX2                !
 ! D56   D(14,16,17,56)          2.0888         estimate D2E/DX2                !
 ! D57   D(25,16,17,18)         -5.7916         estimate D2E/DX2                !
 ! D58   D(25,16,17,56)        179.6813         estimate D2E/DX2                !
 ! D59   D(14,16,25,22)       -179.1135         estimate D2E/DX2                !
 ! D60   D(14,16,25,63)         -3.3708         estimate D2E/DX2                !
 ! D61   D(17,16,25,22)          3.4681         estimate D2E/DX2                !
 ! D62   D(17,16,25,63)        179.2108         estimate D2E/DX2                !
 ! D63   D(16,17,18,19)        176.9484         estimate D2E/DX2                !
 ! D64   D(16,17,18,21)          6.837          estimate D2E/DX2                !
 ! D65   D(56,17,18,19)         -8.0156         estimate D2E/DX2                !
 ! D66   D(56,17,18,21)       -178.127          estimate D2E/DX2                !
 ! D67   D(17,18,19,20)        100.0069         estimate D2E/DX2                !
 ! D68   D(21,18,19,20)        -89.9339         estimate D2E/DX2                !
 ! D69   D(17,18,21,22)         -5.3958         estimate D2E/DX2                !
 ! D70   D(17,18,21,26)        177.0428         estimate D2E/DX2                !
 ! D71   D(19,18,21,22)       -175.3191         estimate D2E/DX2                !
 ! D72   D(19,18,21,26)          7.1195         estimate D2E/DX2                !
 ! D73   D(18,19,20,57)         10.6711         estimate D2E/DX2                !
 ! D74   D(18,19,20,58)       -113.5703         estimate D2E/DX2                !
 ! D75   D(18,19,20,59)        126.4179         estimate D2E/DX2                !
 ! D76   D(18,21,22,23)       -177.9433         estimate D2E/DX2                !
 ! D77   D(18,21,22,25)          3.0732         estimate D2E/DX2                !
 ! D78   D(26,21,22,23)         -0.6022         estimate D2E/DX2                !
 ! D79   D(26,21,22,25)       -179.5856         estimate D2E/DX2                !
 ! D80   D(18,21,26,27)         73.8756         estimate D2E/DX2                !
 ! D81   D(18,21,26,30)       -111.8407         estimate D2E/DX2                !
 ! D82   D(22,21,26,27)       -103.4298         estimate D2E/DX2                !
 ! D83   D(22,21,26,30)         70.8539         estimate D2E/DX2                !
 ! D84   D(21,22,23,24)       -151.6202         estimate D2E/DX2                !
 ! D85   D(25,22,23,24)         27.3319         estimate D2E/DX2                !
 ! D86   D(21,22,25,16)         -2.1474         estimate D2E/DX2                !
 ! D87   D(21,22,25,63)       -178.2054         estimate D2E/DX2                !
 ! D88   D(23,22,25,16)        178.9706         estimate D2E/DX2                !
 ! D89   D(23,22,25,63)          2.9126         estimate D2E/DX2                !
 ! D90   D(22,23,24,60)        -72.6759         estimate D2E/DX2                !
 ! D91   D(22,23,24,61)        168.7479         estimate D2E/DX2                !
 ! D92   D(22,23,24,62)         57.6128         estimate D2E/DX2                !
 ! D93   D(21,26,27,28)        176.5157         estimate D2E/DX2                !
 ! D94   D(30,26,27,28)          1.937          estimate D2E/DX2                !
 ! D95   D(21,26,30,29)       -175.862          estimate D2E/DX2                !
 ! D96   D(27,26,30,29)         -0.8265         estimate D2E/DX2                !
 ! D97   D(26,27,28,29)         -2.4318         estimate D2E/DX2                !
 ! D98   D(26,27,28,64)       -176.8856         estimate D2E/DX2                !
 ! D99   D(27,28,29,30)          1.6892         estimate D2E/DX2                !
 ! D100  D(27,28,29,31)       -179.1348         estimate D2E/DX2                !
 ! D101  D(64,28,29,30)        175.687          estimate D2E/DX2                !
 ! D102  D(64,28,29,31)         -5.137          estimate D2E/DX2                !
 ! D103  D(28,29,30,26)         -0.5596         estimate D2E/DX2                !
 ! D104  D(31,29,30,26)       -179.8162         estimate D2E/DX2                !
 ! D105  D(28,29,31,32)        -31.1944         estimate D2E/DX2                !
 ! D106  D(28,29,31,40)        141.2591         estimate D2E/DX2                !
 ! D107  D(30,29,31,32)        147.8746         estimate D2E/DX2                !
 ! D108  D(30,29,31,40)        -39.6718         estimate D2E/DX2                !
 ! D109  D(29,31,32,33)        174.4635         estimate D2E/DX2                !
 ! D110  D(29,31,32,65)         -1.4456         estimate D2E/DX2                !
 ! D111  D(40,31,32,33)          1.6308         estimate D2E/DX2                !
 ! D112  D(40,31,32,65)       -174.2783         estimate D2E/DX2                !
 ! D113  D(29,31,40,37)       -178.7255         estimate D2E/DX2                !
 ! D114  D(29,31,40,72)          5.8562         estimate D2E/DX2                !
 ! D115  D(32,31,40,37)         -6.0917         estimate D2E/DX2                !
 ! D116  D(32,31,40,72)        178.49           estimate D2E/DX2                !
 ! D117  D(31,32,33,34)        178.8021         estimate D2E/DX2                !
 ! D118  D(31,32,33,36)          2.1385         estimate D2E/DX2                !
 ! D119  D(65,32,33,34)         -5.1013         estimate D2E/DX2                !
 ! D120  D(65,32,33,36)        178.2351         estimate D2E/DX2                !
 ! D121  D(32,33,34,35)          4.503          estimate D2E/DX2                !
 ! D122  D(36,33,34,35)       -178.7463         estimate D2E/DX2                !
 ! D123  D(32,33,36,37)         -1.8374         estimate D2E/DX2                !
 ! D124  D(32,33,36,41)        176.3081         estimate D2E/DX2                !
 ! D125  D(34,33,36,37)       -178.8794         estimate D2E/DX2                !
 ! D126  D(34,33,36,41)         -0.7339         estimate D2E/DX2                !
 ! D127  D(33,34,35,66)        178.4541         estimate D2E/DX2                !
 ! D128  D(33,34,35,67)        -60.2786         estimate D2E/DX2                !
 ! D129  D(33,34,35,68)         58.9079         estimate D2E/DX2                !
 ! D130  D(33,36,37,38)        179.2416         estimate D2E/DX2                !
 ! D131  D(33,36,37,40)         -2.3694         estimate D2E/DX2                !
 ! D132  D(41,36,37,38)          1.0887         estimate D2E/DX2                !
 ! D133  D(41,36,37,40)        179.4777         estimate D2E/DX2                !
 ! D134  D(33,36,41,42)        -83.0048         estimate D2E/DX2                !
 ! D135  D(33,36,41,45)         99.5543         estimate D2E/DX2                !
 ! D136  D(37,36,41,42)         95.1709         estimate D2E/DX2                !
 ! D137  D(37,36,41,45)        -82.27           estimate D2E/DX2                !
 ! D138  D(36,37,38,39)       -168.4232         estimate D2E/DX2                !
 ! D139  D(40,37,38,39)         13.3044         estimate D2E/DX2                !
 ! D140  D(36,37,40,31)          6.3077         estimate D2E/DX2                !
 ! D141  D(36,37,40,72)       -178.5188         estimate D2E/DX2                !
 ! D142  D(38,37,40,31)       -175.4079         estimate D2E/DX2                !
 ! D143  D(38,37,40,72)         -0.2343         estimate D2E/DX2                !
 ! D144  D(37,38,39,69)        -73.7982         estimate D2E/DX2                !
 ! D145  D(37,38,39,70)         52.1368         estimate D2E/DX2                !
 ! D146  D(37,38,39,71)        174.6262         estimate D2E/DX2                !
 ! D147  D(36,41,42,43)        178.1901         estimate D2E/DX2                !
 ! D148  D(45,41,42,43)         -4.3453         estimate D2E/DX2                !
 ! D149  D(36,41,45,44)       -178.6948         estimate D2E/DX2                !
 ! D150  D(42,41,45,44)          3.6332         estimate D2E/DX2                !
 ! D151  D(41,42,43,44)          3.0262         estimate D2E/DX2                !
 ! D152  D(41,42,43,73)       -178.928          estimate D2E/DX2                !
 ! D153  D(42,43,44,45)         -0.4314         estimate D2E/DX2                !
 ! D154  D(42,43,44,74)       -179.8473         estimate D2E/DX2                !
 ! D155  D(73,43,44,45)       -178.4953         estimate D2E/DX2                !
 ! D156  D(73,43,44,74)          2.0888         estimate D2E/DX2                !
 ! D157  D(43,44,45,41)         -1.5762         estimate D2E/DX2                !
 ! D158  D(74,44,45,41)        177.8653         estimate D2E/DX2                !
 --------------------------------------------------------------------------------
 Trust Radius=3.00D-01 FncErr=1.00D-07 GrdErr=1.00D-06 EigMax=2.50D+02 EigMin=1.00D-04
 Number of steps in this run=    376 maximum allowed number of steps=    444.
 GradGradGradGradGradGradGradGradGradGradGradGradGradGradGradGradGradGrad

 Leave Link  103 at Sat Jul 25 17:02:09 2020, MaxMem=  4026531840 cpu:               0.2 elap:               0.0
 (Enter /opt/ohpc/pub/libs/gaussian/g16-A.03/sandybridge/g16/l202.exe)
 Stoichiometry    C33H29N3O6S3
 Framework group  C1[X(C33H29N3O6S3)]
 Deg. of freedom   216
 Full point group                 C1      NOp   1
 Largest Abelian subgroup         C1      NOp   1
 Largest concise Abelian subgroup C1      NOp   1
                         Standard orientation:                         
 ---------------------------------------------------------------------
 Center     Atomic      Atomic             Coordinates (Angstroms)
 Number     Number       Type             X           Y           Z
 ---------------------------------------------------------------------
      1          6           0      -10.571361   -1.955369   -1.420194
      2          6           0      -10.178983   -0.789397   -1.926104
      3          6           0       -9.068925   -0.089773   -1.539556
      4          8           0       -8.730903    1.054799   -2.137331
      5          6           0       -9.296543    2.231530   -1.382484
      6          6           0       -8.177499   -0.645011   -0.511002
      7          6           0       -8.672580   -1.837328    0.109697
      8          8           0       -7.954078   -2.511382    1.119791
      9          6           0       -8.115100   -1.879678    2.335075
     10          6           0       -9.775746   -2.481455   -0.376572
     11          6           0       -7.027409    0.063187   -0.039998
     12          7           0       -6.925711    1.158337    0.582931
     13          6           0       -5.616114    1.556932    0.777071
     14          6           0       -4.685634    0.673524    0.284321
     15         16           0       -5.440143   -0.677171   -0.427973
     16          6           0       -3.269885    0.734641    0.427166
     17          6           0       -2.618357    1.847244   -0.200419
     18          6           0       -1.175133    2.021690   -0.036732
     19          8           0       -0.579896    3.018533   -0.672464
     20          6           0       -0.376168    4.129062    0.276232
     21          6           0       -0.384377    0.989848    0.633405
     22          6           0       -1.131751   -0.123957    1.215868
     23          8           0       -0.368583   -1.031356    1.862351
     24          6           0       -0.825422   -2.300892    1.903689
     25          6           0       -2.541129   -0.224139    1.074755
     26          6           0        1.026162    1.177852    0.710354
     27          7           0        1.637458    1.973290    1.445608
     28          6           0        3.059747    1.860619    1.338310
     29          6           0        3.476619    0.848364    0.474041
     30         16           0        2.072551    0.132503   -0.186586
     31          6           0        4.780010    0.422859    0.123031
     32          6           0        5.798199    1.317431    0.099361
     33          6           0        7.121710    0.983647   -0.122210
     34          8           0        8.169536    1.835711   -0.178379
     35          6           0        8.013883    3.228316    0.089191
     36          6           0        7.429788   -0.353906   -0.381143
     37          6           0        6.384312   -1.382968   -0.377686
     38          8           0        6.745459   -2.676333   -0.654435
     39          6           0        5.774635   -3.567534   -0.883682
     40          6           0        5.122258   -0.993445   -0.066039
     41          6           0        8.846287   -0.743405   -0.709559
     42          7           0        9.410560   -0.662260   -1.904175
     43          6           0       10.765997   -1.081293   -1.804268
     44          6           0       11.177355   -1.546828   -0.493136
     45         16           0        9.848813   -1.440365    0.610491
     46          1           0      -11.380256   -2.505138   -1.735697
     47          1           0      -10.762703   -0.294690   -2.739796
     48          1           0      -10.119891    2.634293   -1.912715
     49          1           0       -8.510982    2.941442   -1.348260
     50          1           0       -9.592140    1.930157   -0.324313
     51          1           0       -7.413575   -0.973789    2.501392
     52          1           0       -9.182623   -1.440711    2.496016
     53          1           0       -7.983189   -2.590434    3.139192
     54          1           0      -10.050557   -3.496052    0.110359
     55          1           0       -5.435734    2.501329    1.374006
     56          1           0       -3.091537    2.590154   -0.700059
     57          1           0       -0.579416    3.812030    1.276798
     58          1           0       -0.944979    4.942211    0.018522
     59          1           0        0.732330    4.332438    0.177254
     60          1           0       -1.710118   -2.465763    2.597604
     61          1           0        0.022722   -2.930617    2.285946
     62          1           0       -0.993641   -2.722199    0.924754
     63          1           0       -2.972808   -1.034629    1.549519
     64          1           0        3.677953    2.454564    1.954970
     65          1           0        5.608666    2.400926    0.333535
     66          1           0        8.956617    3.721438    0.019889
     67          1           0        7.326075    3.612030   -0.619971
     68          1           0        7.614066    3.326493    1.115525
     69          1           0        5.253448   -3.844564    0.062582
     70          1           0        5.032776   -3.311856   -1.628138
     71          1           0        6.240152   -4.561900   -1.193857
     72          1           0        4.354801   -1.653609   -0.022519
     73          1           0       11.406172   -1.086278   -2.607132
     74          1           0       12.077346   -1.874301   -0.231805
 ---------------------------------------------------------------------
 Rotational constants (GHZ):           0.1854518           0.0167192           0.0160327
 Leave Link  202 at Sat Jul 25 17:02:09 2020, MaxMem=  4026531840 cpu:               0.1 elap:               0.0
 (Enter /opt/ohpc/pub/libs/gaussian/g16-A.03/sandybridge/g16/l301.exe)
 Standard basis: CC-pVDZ (5D, 7F)
 Ernie: Thresh=  0.10000D-02 Tol=  0.10000D-05 Strict=F.
 Ernie:  114 primitive shells out of 1219 were deleted.
 There are   832 symmetry adapted cartesian basis functions of A   symmetry.
 There are   787 symmetry adapted basis functions of A   symmetry.
   787 basis functions,  1802 primitive gaussians,   832 cartesian basis functions
   172 alpha electrons      172 beta electrons
       nuclear repulsion energy      5527.4479123880 Hartrees.
 IExCor=32609 DFT=T Ex+Corr=LC-wPBE ExCW=0 ScaHFX=  1.000000
 ScaDFX=  1.000000  0.000000  1.000000  1.000000 ScalE2=  1.000000  1.000000
 IRadAn=      5 IRanWt=     -1 IRanGd=            0 ICorTp=0 IEmpDi=  4
 HFx  wShort=  0.000000 wLong=  0.417400 cFull=  0.000000 cShort=  0.000000 cLong=  1.000000
 DFx  wShort=  0.000000 wLong=  0.417400 cFull=  0.000000 cShort=  0.000000 cLong=  1.000000
 NAtoms=   74 NActive=   74 NUniq=   74 SFac= 1.00D+00 NAtFMM=   60 NAOKFM=T Big=T
 Integral buffers will be    131072 words long.
 Raffenetti 2 integral format.
 Two-electron integral symmetry is turned on.
 Leave Link  301 at Sat Jul 25 17:02:09 2020, MaxMem=  4026531840 cpu:               0.5 elap:               0.1
 (Enter /opt/ohpc/pub/libs/gaussian/g16-A.03/sandybridge/g16/l302.exe)
 NPDir=0 NMtPBC=     1 NCelOv=     1 NCel=       1 NClECP=     1 NCelD=      1
         NCelK=      1 NCelE2=     1 NClLst=     1 CellRange=     0.0.
 One-electron integrals computed using PRISM.
 One-electron integral symmetry used in STVInt
 NBasis=   787 RedAO= T EigKep=  2.76D-04  NBF=   787
 NBsUse=   787 1.00D-06 EigRej= -1.00D+00 NBFU=   787
 Precomputing XC quadrature grid using
 IXCGrd= 4 IRadAn=           5 IRanWt=          -1 IRanGd=           0 AccXCQ= 0.00D+00.
 Generated NRdTot=       0 NPtTot=           0 NUsed=           0 NTot=          32
 NSgBfM=   747   743   744   747   747 MxSgAt=    74 MxSgA2=    74.
 Leave Link  302 at Sat Jul 25 17:02:11 2020, MaxMem=  4026531840 cpu:              18.9 elap:               2.4
 (Enter /opt/ohpc/pub/libs/gaussian/g16-A.03/sandybridge/g16/l303.exe)
 DipDrv:  MaxL=1.
 Leave Link  303 at Sat Jul 25 17:02:11 2020, MaxMem=  4026531840 cpu:               1.3 elap:               0.2
 (Enter /opt/ohpc/pub/libs/gaussian/g16-A.03/sandybridge/g16/l401.exe)
 ExpMin= 1.22D-01 ExpMax= 1.11D+05 ExpMxC= 1.07D+03 IAcc=3 IRadAn=         5 AccDes= 0.00D+00
 Harris functional with IExCor=32609 and IRadAn=       5 diagonalized for initial guess.
 HarFok:  IExCor=32609 AccDes= 0.00D+00 IRadAn=         5 IDoV= 1 UseB2=F ITyADJ=14
 ICtDFT=  3500011 ScaDFX=  1.000000  1.000000  1.000000  1.000000
 FoFCou: FMM=F IPFlag=           0 FMFlag=      100000 FMFlg1=        2001
         NFxFlg=           0 DoJE=T BraDBF=F KetDBF=T FulRan=T
         wScrn=  0.000000 ICntrl=       500 IOpCl=  0 I1Cent=   200000004 NGrid=           0
         NMat0=    1 NMatS0=      1 NMatT0=    0 NMatD0=    1 NMtDS0=    0 NMtDT0=    0
 Petite list used in FoFCou.
 Harris En= -3082.92059663465    
 JPrj=0 DoOrth=F DoCkMO=F.
 Initial guess <Sx>= 0.0000 <Sy>= 0.0000 <Sz>= 0.0000 <S**2>=-0.0000 S=-0.0000
 Leave Link  401 at Sat Jul 25 17:02:21 2020, MaxMem=  4026531840 cpu:              76.4 elap:               9.6
 (Enter /opt/ohpc/pub/libs/gaussian/g16-A.03/sandybridge/g16/l502.exe)
 Integral symmetry usage will be decided dynamically.
 UHF open shell SCF:
 Using DIIS extrapolation, IDIIS=  1040.
 NGot=  4026531840 LenX=  4025132128 LenY=  4024439072
 Requested convergence on RMS density matrix=1.00D-08 within 128 cycles.
 Requested convergence on MAX density matrix=1.00D-06.
 Requested convergence on             energy=1.00D-06.
 No special actions if energy rises.
 Fock matrices will be formed incrementally for  20 cycles.
 Integral accuracy reduced to 1.0D-05 until final iterations.

 Cycle   1  Pass 0  IDiag  1:
 FoFJK:  IHMeth= 1 ICntrl=       0 DoSepK=T KAlg= 0 I1Cent=           0 FoldK=F
 IRaf=         1 NMat=       1 IRICut=       1 DoRegI=T DoRafI=F ISym2E= 0 IDoP0=0 IntGTp=1.
 FoFCou: FMM=T IPFlag=           0 FMFlag=      100000 FMFlg1=        2001
         NFxFlg=           0 DoJE=T BraDBF=F KetDBF=F FulRan=T
         wScrn=  0.000000 ICntrl=       500 IOpCl=  0 I1Cent=           0 NGrid=           0
         NMat0=    1 NMatS0=      1 NMatT0=    0 NMatD0=    1 NMtDS0=    0 NMtDT0=    0
 Symmetry not used in FoFCou.
 FMM levels:  10  Number of levels for PrismC:   9
 E= -3082.52158547145    
 DIIS: error= 1.53D-02 at cycle   1 NSaved=   1.
 NSaved= 1 IEnMin= 1 EnMin= -3082.52158547145     IErMin= 1 ErrMin= 1.53D-02
 ErrMax= 1.53D-02  0.00D+00 EMaxC= 1.00D-01 BMatC= 3.03D+00 BMatP= 3.03D+00
 IDIUse=3 WtCom= 8.47D-01 WtEn= 1.53D-01
 Coeff-Com:  0.100D+01
 Coeff-En:   0.100D+01
 Coeff:      0.100D+01
 Gap=     0.410 Goal=   None    Shift=    0.000
 Gap=     0.410 Goal=   None    Shift=    0.000
 GapD=    0.410 DampG=2.000 DampE=0.500 DampFc=1.0000 IDamp=-1.
 RMSDP=2.25D-03 MaxDP=1.27D-01              OVMax= 2.00D-01

 Cycle   2  Pass 0  IDiag  1:
 RMSU=  2.24D-03    CP:  9.79D-01
 E= -3082.90062895496     Delta-E=       -0.379043483503 Rises=F Damp=F
 DIIS: error= 1.40D-02 at cycle   2 NSaved=   2.
 NSaved= 2 IEnMin= 2 EnMin= -3082.90062895496     IErMin= 2 ErrMin= 1.40D-02
 ErrMax= 1.40D-02  0.00D+00 EMaxC= 1.00D-01 BMatC= 1.88D+00 BMatP= 3.03D+00
 IDIUse=3 WtCom= 8.60D-01 WtEn= 1.40D-01
 Coeff-Com:  0.435D+00 0.565D+00
 Coeff-En:   0.308D+00 0.692D+00
 Coeff:      0.417D+00 0.583D+00
 Gap=     0.338 Goal=   None    Shift=    0.000
 Gap=     0.338 Goal=   None    Shift=    0.000
 RMSDP=1.12D-03 MaxDP=7.71D-02 DE=-3.79D-01 OVMax= 1.23D-01

 Cycle   3  Pass 0  IDiag  1:
 RMSU=  7.15D-04    CP:  9.79D-01  6.12D-01
 E= -3083.34671289516     Delta-E=       -0.446083940205 Rises=F Damp=F
 DIIS: error= 4.25D-03 at cycle   3 NSaved=   3.
 NSaved= 3 IEnMin= 3 EnMin= -3083.34671289516     IErMin= 3 ErrMin= 4.25D-03
 ErrMax= 4.25D-03  0.00D+00 EMaxC= 1.00D-01 BMatC= 1.03D-01 BMatP= 1.88D+00
 IDIUse=3 WtCom= 9.57D-01 WtEn= 4.25D-02
 Coeff-Com:  0.124D+00 0.234D+00 0.642D+00
 Coeff-En:   0.000D+00 0.000D+00 0.100D+01
 Coeff:      0.119D+00 0.224D+00 0.657D+00
 Gap=     0.329 Goal=   None    Shift=    0.000
 Gap=     0.329 Goal=   None    Shift=    0.000
 RMSDP=2.60D-04 MaxDP=2.12D-02 DE=-4.46D-01 OVMax= 3.77D-02

 Cycle   4  Pass 0  IDiag  1:
 RMSU=  1.91D-04    CP:  9.79D-01  6.60D-01  8.04D-01
 E= -3083.37017236600     Delta-E=       -0.023459470840 Rises=F Damp=F
 DIIS: error= 1.65D-03 at cycle   4 NSaved=   4.
 NSaved= 4 IEnMin= 4 EnMin= -3083.37017236600     IErMin= 4 ErrMin= 1.65D-03
 ErrMax= 1.65D-03  0.00D+00 EMaxC= 1.00D-01 BMatC= 1.22D-02 BMatP= 1.03D-01
 IDIUse=3 WtCom= 9.83D-01 WtEn= 1.65D-02
 Coeff-Com: -0.727D-02 0.360D-02 0.254D+00 0.750D+00
 Coeff-En:   0.000D+00 0.000D+00 0.000D+00 0.100D+01
 Coeff:     -0.715D-02 0.354D-02 0.250D+00 0.754D+00
 Gap=     0.329 Goal=   None    Shift=    0.000
 Gap=     0.329 Goal=   None    Shift=    0.000
 RMSDP=8.92D-05 MaxDP=6.29D-03 DE=-2.35D-02 OVMax= 9.36D-03

 Cycle   5  Pass 0  IDiag  1:
 RMSU=  6.13D-05    CP:  9.78D-01  6.57D-01  8.90D-01  9.08D-01
 E= -3083.37351143741     Delta-E=       -0.003339071407 Rises=F Damp=F
 DIIS: error= 3.39D-04 at cycle   5 NSaved=   5.
 NSaved= 5 IEnMin= 5 EnMin= -3083.37351143741     IErMin= 5 ErrMin= 3.39D-04
 ErrMax= 3.39D-04  0.00D+00 EMaxC= 1.00D-01 BMatC= 8.41D-04 BMatP= 1.22D-02
 IDIUse=3 WtCom= 9.97D-01 WtEn= 3.39D-03
 Coeff-Com: -0.117D-01-0.205D-01 0.229D-01 0.232D+00 0.777D+00
 Coeff-En:   0.000D+00 0.000D+00 0.000D+00 0.000D+00 0.100D+01
 Coeff:     -0.116D-01-0.205D-01 0.228D-01 0.232D+00 0.778D+00
 Gap=     0.330 Goal=   None    Shift=    0.000
 Gap=     0.330 Goal=   None    Shift=    0.000
 RMSDP=3.11D-05 MaxDP=1.91D-03 DE=-3.34D-03 OVMax= 3.54D-03

 Cycle   6  Pass 0  IDiag  1:
 RMSU=  2.36D-05    CP:  9.78D-01  6.56D-01  9.10D-01  9.75D-01  1.09D+00
 E= -3083.37388713889     Delta-E=       -0.000375701478 Rises=F Damp=F
 DIIS: error= 1.74D-04 at cycle   6 NSaved=   6.
 NSaved= 6 IEnMin= 6 EnMin= -3083.37388713889     IErMin= 6 ErrMin= 1.74D-04
 ErrMax= 1.74D-04  0.00D+00 EMaxC= 1.00D-01 BMatC= 1.15D-04 BMatP= 8.41D-04
 IDIUse=3 WtCom= 9.98D-01 WtEn= 1.74D-03
 Coeff-Com: -0.286D-02-0.819D-02-0.271D-01-0.334D-01 0.173D+00 0.898D+00
 Coeff-En:   0.000D+00 0.000D+00 0.000D+00 0.000D+00 0.000D+00 0.100D+01
 Coeff:     -0.286D-02-0.818D-02-0.270D-01-0.334D-01 0.173D+00 0.899D+00
 Gap=     0.330 Goal=   None    Shift=    0.000
 Gap=     0.330 Goal=   None    Shift=    0.000
 RMSDP=1.96D-05 MaxDP=1.22D-03 DE=-3.76D-04 OVMax= 2.95D-03

 Cycle   7  Pass 0  IDiag  1:
 RMSU=  1.23D-05    CP:  9.78D-01  6.56D-01  9.19D-01  1.01D+00  1.27D+00
                    CP:  1.24D+00
 E= -3083.37398872746     Delta-E=       -0.000101588574 Rises=F Damp=F
 DIIS: error= 7.79D-05 at cycle   7 NSaved=   7.
 NSaved= 7 IEnMin= 7 EnMin= -3083.37398872746     IErMin= 7 ErrMin= 7.79D-05
 ErrMax= 7.79D-05  0.00D+00 EMaxC= 1.00D-01 BMatC= 3.33D-05 BMatP= 1.15D-04
 IDIUse=1 WtCom= 1.00D+00 WtEn= 0.00D+00
 Coeff-Com:  0.117D-02 0.940D-03-0.109D-01-0.522D-01-0.127D+00 0.275D+00
 Coeff-Com:  0.913D+00
 Coeff:      0.117D-02 0.940D-03-0.109D-01-0.522D-01-0.127D+00 0.275D+00
 Coeff:      0.913D+00
 Gap=     0.331 Goal=   None    Shift=    0.000
 Gap=     0.331 Goal=   None    Shift=    0.000
 RMSDP=1.42D-05 MaxDP=6.22D-04 DE=-1.02D-04 OVMax= 1.63D-03

 Cycle   8  Pass 0  IDiag  1:
 RMSU=  8.97D-06    CP:  9.78D-01  6.55D-01  9.22D-01  1.02D+00  1.34D+00
                    CP:  1.59D+00  1.31D+00
 E= -3083.37401866701     Delta-E=       -0.000029939551 Rises=F Damp=F
 DIIS: error= 2.86D-05 at cycle   8 NSaved=   8.
 NSaved= 8 IEnMin= 8 EnMin= -3083.37401866701     IErMin= 8 ErrMin= 2.86D-05
 ErrMax= 2.86D-05  0.00D+00 EMaxC= 1.00D-01 BMatC= 8.10D-06 BMatP= 3.33D-05
 IDIUse=1 WtCom= 1.00D+00 WtEn= 0.00D+00
 Coeff-Com:  0.104D-02 0.196D-02 0.140D-02-0.145D-01-0.959D-01-0.627D-01
 Coeff-Com:  0.387D+00 0.782D+00
 Coeff:      0.104D-02 0.196D-02 0.140D-02-0.145D-01-0.959D-01-0.627D-01
 Coeff:      0.387D+00 0.782D+00
 Gap=     0.331 Goal=   None    Shift=    0.000
 Gap=     0.331 Goal=   None    Shift=    0.000
 RMSDP=1.15D-05 MaxDP=4.32D-04 DE=-2.99D-05 OVMax= 8.21D-04

 Cycle   9  Pass 0  IDiag  1:
 RMSU=  7.71D-06    CP:  9.78D-01  6.56D-01  9.24D-01  1.03D+00  1.37D+00
                    CP:  1.73D+00  1.79D+00  1.53D+00
 E= -3083.37402299288     Delta-E=       -0.000004325866 Rises=F Damp=F
 DIIS: error= 2.35D-05 at cycle   9 NSaved=   9.
 NSaved= 9 IEnMin= 9 EnMin= -3083.37402299288     IErMin= 9 ErrMin= 2.35D-05
 ErrMax= 2.35D-05  0.00D+00 EMaxC= 1.00D-01 BMatC= 2.00D-06 BMatP= 8.10D-06
 IDIUse=1 WtCom= 1.00D+00 WtEn= 0.00D+00
 Coeff-Com:  0.228D-03 0.592D-03 0.216D-02 0.253D-02-0.176D-01-0.568D-01
 Coeff-Com:  0.833D-02 0.299D+00 0.762D+00
 Coeff:      0.228D-03 0.592D-03 0.216D-02 0.253D-02-0.176D-01-0.568D-01
 Coeff:      0.833D-02 0.299D+00 0.762D+00
 Gap=     0.331 Goal=   None    Shift=    0.000
 Gap=     0.331 Goal=   None    Shift=    0.000
 RMSDP=1.16D-05 MaxDP=4.20D-04 DE=-4.33D-06 OVMax= 2.45D-04

 Cycle  10  Pass 0  IDiag  1:
 RMSU=  6.79D-06    CP:  9.78D-01  6.56D-01  9.24D-01  1.03D+00  1.38D+00
                    CP:  1.81D+00  2.05D+00  2.23D+00  1.77D+00
 E= -3083.37402689226     Delta-E=       -0.000003899388 Rises=F Damp=F
 DIIS: error= 2.94D-05 at cycle  10 NSaved=  10.
 NSaved=10 IEnMin=10 EnMin= -3083.37402689226     IErMin= 9 ErrMin= 2.35D-05
 ErrMax= 2.94D-05  0.00D+00 EMaxC= 1.00D-01 BMatC= 1.88D-06 BMatP= 2.00D-06
 IDIUse=1 WtCom= 1.00D+00 WtEn= 0.00D+00
 Coeff-Com:  0.193D-03 0.489D-03 0.169D-02 0.181D-02-0.153D-01-0.445D-01
 Coeff-Com:  0.118D-01 0.245D+00 0.577D+00 0.222D+00
 Coeff:      0.193D-03 0.489D-03 0.169D-02 0.181D-02-0.153D-01-0.445D-01
 Coeff:      0.118D-01 0.245D+00 0.577D+00 0.222D+00
 Gap=     0.331 Goal=   None    Shift=    0.000
 Gap=     0.331 Goal=   None    Shift=    0.000
 RMSDP=3.53D-06 MaxDP=1.10D-04 DE=-3.90D-06 OVMax= 1.91D-05

 Initial convergence to 1.0D-05 achieved.  Increase integral accuracy.
 Cycle  11  Pass 1  IDiag  1:
 E= -3083.37345111120     Delta-E=        0.000575781061 Rises=F Damp=F
 DIIS: error= 2.72D-04 at cycle   1 NSaved=   1.
 NSaved= 1 IEnMin= 1 EnMin= -3083.37345111120     IErMin= 1 ErrMin= 2.72D-04
 ErrMax= 2.72D-04  0.00D+00 EMaxC= 1.00D-01 BMatC= 1.65D-04 BMatP= 1.65D-04
 IDIUse=3 WtCom= 9.97D-01 WtEn= 2.72D-03
 Coeff-Com:  0.100D+01
 Coeff-En:   0.100D+01
 Coeff:      0.100D+01
 Gap=     0.331 Goal=   None    Shift=    0.000
 Gap=     0.331 Goal=   None    Shift=    0.000
 RMSDP=3.53D-06 MaxDP=1.10D-04 DE= 5.76D-04 OVMax= 7.41D-04

 Cycle  12  Pass 1  IDiag  1:
 RMSU=  1.98D-04    CP:  9.99D-01
 E= -3083.37348630304     Delta-E=       -0.000035191833 Rises=F Damp=F
 DIIS: error= 1.17D-05 at cycle   2 NSaved=   2.
 NSaved= 2 IEnMin= 2 EnMin= -3083.37348630304     IErMin= 2 ErrMin= 1.17D-05
 ErrMax= 1.17D-05  0.00D+00 EMaxC= 1.00D-01 BMatC= 3.64D-07 BMatP= 1.65D-04
 IDIUse=1 WtCom= 1.00D+00 WtEn= 0.00D+00
 Coeff-Com: -0.380D-01 0.104D+01
 Coeff:     -0.380D-01 0.104D+01
 Gap=     0.331 Goal=   None    Shift=    0.000
 Gap=     0.331 Goal=   None    Shift=    0.000
 RMSDP=1.07D-05 MaxDP=7.79D-04 DE=-3.52D-05 OVMax= 6.06D-05

 Cycle  13  Pass 1  IDiag  1:
 RMSU=  3.12D-06    CP:  9.99D-01  1.05D+00
 E= -3083.37348645350     Delta-E=       -0.000000150463 Rises=F Damp=F
 DIIS: error= 1.67D-06 at cycle   3 NSaved=   3.
 NSaved= 3 IEnMin= 3 EnMin= -3083.37348645350     IErMin= 3 ErrMin= 1.67D-06
 ErrMax= 1.67D-06  0.00D+00 EMaxC= 1.00D-01 BMatC= 2.44D-08 BMatP= 3.64D-07
 IDIUse=1 WtCom= 1.00D+00 WtEn= 0.00D+00
 Coeff-Com: -0.619D-02 0.149D+00 0.857D+00
 Coeff:     -0.619D-02 0.149D+00 0.857D+00
 Gap=     0.331 Goal=   None    Shift=    0.000
 Gap=     0.331 Goal=   None    Shift=    0.000
 RMSDP=4.80D-07 MaxDP=2.21D-05 DE=-1.50D-07 OVMax= 2.17D-05

 Cycle  14  Pass 1  IDiag  1:
 RMSU=  2.27D-07    CP:  9.99D-01  1.05D+00  1.10D+00
 E= -3083.37348646276     Delta-E=       -0.000000009257 Rises=F Damp=F
 DIIS: error= 1.75D-06 at cycle   4 NSaved=   4.
 NSaved= 4 IEnMin= 4 EnMin= -3083.37348646276     IErMin= 3 ErrMin= 1.67D-06
 ErrMax= 1.75D-06  0.00D+00 EMaxC= 1.00D-01 BMatC= 1.47D-08 BMatP= 2.44D-08
 IDIUse=1 WtCom= 1.00D+00 WtEn= 0.00D+00
 Coeff-Com:  0.235D-02-0.742D-01 0.437D+00 0.635D+00
 Coeff:      0.235D-02-0.742D-01 0.437D+00 0.635D+00
 Gap=     0.331 Goal=   None    Shift=    0.000
 Gap=     0.331 Goal=   None    Shift=    0.000
 RMSDP=1.70D-07 MaxDP=8.09D-06 DE=-9.26D-09 OVMax= 1.81D-05

 Cycle  15  Pass 1  IDiag  1:
 RMSU=  9.94D-08    CP:  9.99D-01  1.05D+00  1.13D+00  9.65D-01
 E= -3083.37348647075     Delta-E=       -0.000000007994 Rises=F Damp=F
 DIIS: error= 4.86D-07 at cycle   5 NSaved=   5.
 NSaved= 5 IEnMin= 5 EnMin= -3083.37348647075     IErMin= 5 ErrMin= 4.86D-07
 ErrMax= 4.86D-07  0.00D+00 EMaxC= 1.00D-01 BMatC= 8.40D-10 BMatP= 1.47D-08
 IDIUse=1 WtCom= 1.00D+00 WtEn= 0.00D+00
 Coeff-Com:  0.530D-03-0.128D-01-0.798D-01 0.294D-01 0.106D+01
 Coeff:      0.530D-03-0.128D-01-0.798D-01 0.294D-01 0.106D+01
 Gap=     0.331 Goal=   None    Shift=    0.000
 Gap=     0.331 Goal=   None    Shift=    0.000
 RMSDP=5.82D-08 MaxDP=3.51D-06 DE=-7.99D-09 OVMax= 1.19D-05

 Cycle  16  Pass 1  IDiag  1:
 RMSU=  3.50D-08    CP:  9.99D-01  1.05D+00  1.14D+00  1.10D+00  1.28D+00
 E= -3083.37348647136     Delta-E=       -0.000000000606 Rises=F Damp=F
 DIIS: error= 3.37D-07 at cycle   6 NSaved=   6.
 NSaved= 6 IEnMin= 6 EnMin= -3083.37348647136     IErMin= 6 ErrMin= 3.37D-07
 ErrMax= 3.37D-07  0.00D+00 EMaxC= 1.00D-01 BMatC= 3.11D-10 BMatP= 8.40D-10
 IDIUse=1 WtCom= 1.00D+00 WtEn= 0.00D+00
 Coeff-Com: -0.577D-03 0.201D-01-0.192D+00-0.196D+00 0.486D+00 0.882D+00
 Coeff:     -0.577D-03 0.201D-01-0.192D+00-0.196D+00 0.486D+00 0.882D+00
 Gap=     0.331 Goal=   None    Shift=    0.000
 Gap=     0.331 Goal=   None    Shift=    0.000
 RMSDP=3.75D-08 MaxDP=2.60D-06 DE=-6.06D-10 OVMax= 8.91D-06

 Cycle  17  Pass 1  IDiag  1:
 RMSU=  1.90D-08    CP:  9.99D-01  1.05D+00  1.14D+00  1.17D+00  1.52D+00
                    CP:  1.44D+00
 E= -3083.37348647184     Delta-E=       -0.000000000484 Rises=F Damp=F
 DIIS: error= 6.07D-08 at cycle   7 NSaved=   7.
 NSaved= 7 IEnMin= 7 EnMin= -3083.37348647184     IErMin= 7 ErrMin= 6.07D-08
 ErrMax= 6.07D-08  0.00D+00 EMaxC= 1.00D-01 BMatC= 2.83D-11 BMatP= 3.11D-10
 IDIUse=1 WtCom= 1.00D+00 WtEn= 0.00D+00
 Coeff-Com: -0.226D-03 0.722D-02-0.476D-01-0.592D-01 0.122D-01 0.258D+00
 Coeff-Com:  0.829D+00
 Coeff:     -0.226D-03 0.722D-02-0.476D-01-0.592D-01 0.122D-01 0.258D+00
 Coeff:      0.829D+00
 Gap=     0.331 Goal=   None    Shift=    0.000
 Gap=     0.331 Goal=   None    Shift=    0.000
 RMSDP=1.08D-08 MaxDP=6.60D-07 DE=-4.84D-10 OVMax= 1.96D-06

 Cycle  18  Pass 1  IDiag  1:
 RMSU=  4.95D-09    CP:  9.99D-01  1.05D+00  1.14D+00  1.18D+00  1.54D+00
                    CP:  1.66D+00  1.15D+00
 E= -3083.37348647181     Delta-E=        0.000000000033 Rises=F Damp=F
 DIIS: error= 2.05D-08 at cycle   8 NSaved=   8.
 NSaved= 8 IEnMin= 7 EnMin= -3083.37348647184     IErMin= 8 ErrMin= 2.05D-08
 ErrMax= 2.05D-08  0.00D+00 EMaxC= 1.00D-01 BMatC= 5.33D-12 BMatP= 2.83D-11
 IDIUse=1 WtCom= 1.00D+00 WtEn= 0.00D+00
 Coeff-Com:  0.383D-04-0.156D-02 0.222D-01 0.194D-01-0.909D-01-0.861D-01
 Coeff-Com:  0.294D+00 0.843D+00
 Coeff:      0.383D-04-0.156D-02 0.222D-01 0.194D-01-0.909D-01-0.861D-01
 Coeff:      0.294D+00 0.843D+00
 Gap=     0.331 Goal=   None    Shift=    0.000
 Gap=     0.331 Goal=   None    Shift=    0.000
 RMSDP=5.42D-09 MaxDP=2.59D-07 DE= 3.27D-11 OVMax= 7.40D-07

 SCF Done:  E(ULC-wPBE) =  -3083.37348647     A.U. after   18 cycles
            NFock= 18  Conv=0.54D-08     -V/T= 2.0049
 <Sx>= 0.0000 <Sy>= 0.0000 <Sz>= 0.0000 <S**2>=-0.0000 S=-0.0000
 <L.S>= 0.000000000000E+00
 KE= 3.068405478088D+03 PE=-1.829640572764D+04 EE= 6.617178850696D+03
 Annihilation of the first spin contaminant:
 S**2 before annihilation    -0.0000,   after     0.0000
 Leave Link  502 at Sat Jul 25 17:11:20 2020, MaxMem=  4026531840 cpu:            4234.7 elap:             539.1
 (Enter /opt/ohpc/pub/libs/gaussian/g16-A.03/sandybridge/g16/l601.exe)
 Copying SCF densities to generalized density rwf, IOpCl= 1 IROHF=0.

 **********************************************************************

            Population analysis using the SCF density.

 **********************************************************************

 Orbital symmetries:
 Alpha Orbitals:
       Occupied  (A) (A) (A) (A) (A) (A) (A) (A) (A) (A) (A) (A)
                 (A) (A) (A) (A) (A) (A) (A) (A) (A) (A) (A) (A)
                 (A) (A) (A) (A) (A) (A) (A) (A) (A) (A) (A) (A)
                 (A) (A) (A) (A) (A) (A) (A) (A) (A) (A) (A) (A)
                 (A) (A) (A) (A) (A) (A) (A) (A) (A) (A) (A) (A)
                 (A) (A) (A) (A) (A) (A) (A) (A) (A) (A) (A) (A)
                 (A) (A) (A) (A) (A) (A) (A) (A) (A) (A) (A) (A)
                 (A) (A) (A) (A) (A) (A) (A) (A) (A) (A) (A) (A)
                 (A) (A) (A) (A) (A) (A) (A) (A) (A) (A) (A) (A)
                 (A) (A) (A) (A) (A) (A) (A) (A) (A) (A) (A) (A)
                 (A) (A) (A) (A) (A) (A) (A) (A) (A) (A) (A) (A)
                 (A) (A) (A) (A) (A) (A) (A) (A) (A) (A) (A) (A)
                 (A) (A) (A) (A) (A) (A) (A) (A) (A) (A) (A) (A)
                 (A) (A) (A) (A) (A) (A) (A) (A) (A) (A) (A) (A)
                 (A) (A) (A) (A)
       Virtual   (A) (A) (A) (A) (A) (A) (A) (A) (A) (A) (A) (A)
                 (A) (A) (A) (A) (A) (A) (A) (A) (A) (A) (A) (A)
                 (A) (A) (A) (A) (A) (A) (A) (A) (A) (A) (A) (A)
                 (A) (A) (A) (A) (A) (A) (A) (A) (A) (A) (A) (A)
                 (A) (A) (A) (A) (A) (A) (A) (A) (A) (A) (A) (A)
                 (A) (A) (A) (A) (A) (A) (A) (A) (A) (A) (A) (A)
                 (A) (A) (A) (A) (A) (A) (A) (A) (A) (A) (A) (A)
                 (A) (A) (A) (A) (A) (A) (A) (A) (A) (A) (A) (A)
                 (A) (A) (A) (A) (A) (A) (A) (A) (A) (A) (A) (A)
                 (A) (A) (A) (A) (A) (A) (A) (A) (A) (A) (A) (A)
                 (A) (A) (A) (A) (A) (A) (A) (A) (A) (A) (A) (A)
                 (A) (A) (A) (A) (A) (A) (A) (A) (A) (A) (A) (A)
                 (A) (A) (A) (A) (A) (A) (A) (A) (A) (A) (A) (A)
                 (A) (A) (A) (A) (A) (A) (A) (A) (A) (A) (A) (A)
                 (A) (A) (A) (A) (A) (A) (A) (A) (A) (A) (A) (A)
                 (A) (A) (A) (A) (A) (A) (A) (A) (A) (A) (A) (A)
                 (A) (A) (A) (A) (A) (A) (A) (A) (A) (A) (A) (A)
                 (A) (A) (A) (A) (A) (A) (A) (A) (A) (A) (A) (A)
                 (A) (A) (A) (A) (A) (A) (A) (A) (A) (A) (A) (A)
                 (A) (A) (A) (A) (A) (A) (A) (A) (A) (A) (A) (A)
                 (A) (A) (A) (A) (A) (A) (A) (A) (A) (A) (A) (A)
                 (A) (A) (A) (A) (A) (A) (A) (A) (A) (A) (A) (A)
                 (A) (A) (A) (A) (A) (A) (A) (A) (A) (A) (A) (A)
                 (A) (A) (A) (A) (A) (A) (A) (A) (A) (A) (A) (A)
                 (A) (A) (A) (A) (A) (A) (A) (A) (A) (A) (A) (A)
                 (A) (A) (A) (A) (A) (A) (A) (A) (A) (A) (A) (A)
                 (A) (A) (A) (A) (A) (A) (A) (A) (A) (A) (A) (A)
                 (A) (A) (A) (A) (A) (A) (A) (A) (A) (A) (A) (A)
                 (A) (A) (A) (A) (A) (A) (A) (A) (A) (A) (A) (A)
                 (A) (A) (A) (A) (A) (A) (A) (A) (A) (A) (A) (A)
                 (A) (A) (A) (A) (A) (A) (A) (A) (A) (A) (A) (A)
                 (A) (A) (A) (A) (A) (A) (A) (A) (A) (A) (A) (A)
                 (A) (A) (A) (A) (A) (A) (A) (A) (A) (A) (A) (A)
                 (A) (A) (A) (A) (A) (A) (A) (A) (A) (A) (A) (A)
                 (A) (A) (A) (A) (A) (A) (A) (A) (A) (A) (A) (A)
                 (A) (A) (A) (A) (A) (A) (A) (A) (A) (A) (A) (A)
                 (A) (A) (A) (A) (A) (A) (A) (A) (A) (A) (A) (A)
                 (A) (A) (A) (A) (A) (A) (A) (A) (A) (A) (A) (A)
                 (A) (A) (A) (A) (A) (A) (A) (A) (A) (A) (A) (A)
                 (A) (A) (A) (A) (A) (A) (A) (A) (A) (A) (A) (A)
                 (A) (A) (A) (A) (A) (A) (A) (A) (A) (A) (A) (A)
                 (A) (A) (A) (A) (A) (A) (A) (A) (A) (A) (A) (A)
                 (A) (A) (A) (A) (A) (A) (A) (A) (A) (A) (A) (A)
                 (A) (A) (A) (A) (A) (A) (A) (A) (A) (A) (A) (A)
                 (A) (A) (A) (A) (A) (A) (A) (A) (A) (A) (A) (A)
                 (A) (A) (A) (A) (A) (A) (A) (A) (A) (A) (A) (A)
                 (A) (A) (A) (A) (A) (A) (A) (A) (A) (A) (A) (A)
                 (A) (A) (A) (A) (A) (A) (A) (A) (A) (A) (A) (A)
                 (A) (A) (A) (A) (A) (A) (A) (A) (A) (A) (A) (A)
                 (A) (A) (A) (A) (A) (A) (A) (A) (A) (A) (A) (A)
                 (A) (A) (A) (A) (A) (A) (A) (A) (A) (A) (A) (A)
                 (A) (A) (A)
 Beta  Orbitals:
       Occupied  (A) (A) (A) (A) (A) (A) (A) (A) (A) (A) (A) (A)
                 (A) (A) (A) (A) (A) (A) (A) (A) (A) (A) (A) (A)
                 (A) (A) (A) (A) (A) (A) (A) (A) (A) (A) (A) (A)
                 (A) (A) (A) (A) (A) (A) (A) (A) (A) (A) (A) (A)
                 (A) (A) (A) (A) (A) (A) (A) (A) (A) (A) (A) (A)
                 (A) (A) (A) (A) (A) (A) (A) (A) (A) (A) (A) (A)
                 (A) (A) (A) (A) (A) (A) (A) (A) (A) (A) (A) (A)
                 (A) (A) (A) (A) (A) (A) (A) (A) (A) (A) (A) (A)
                 (A) (A) (A) (A) (A) (A) (A) (A) (A) (A) (A) (A)
                 (A) (A) (A) (A) (A) (A) (A) (A) (A) (A) (A) (A)
                 (A) (A) (A) (A) (A) (A) (A) (A) (A) (A) (A) (A)
                 (A) (A) (A) (A) (A) (A) (A) (A) (A) (A) (A) (A)
                 (A) (A) (A) (A) (A) (A) (A) (A) (A) (A) (A) (A)
                 (A) (A) (A) (A) (A) (A) (A) (A) (A) (A) (A) (A)
                 (A) (A) (A) (A)
       Virtual   (A) (A) (A) (A) (A) (A) (A) (A) (A) (A) (A) (A)
                 (A) (A) (A) (A) (A) (A) (A) (A) (A) (A) (A) (A)
                 (A) (A) (A) (A) (A) (A) (A) (A) (A) (A) (A) (A)
                 (A) (A) (A) (A) (A) (A) (A) (A) (A) (A) (A) (A)
                 (A) (A) (A) (A) (A) (A) (A) (A) (A) (A) (A) (A)
                 (A) (A) (A) (A) (A) (A) (A) (A) (A) (A) (A) (A)
                 (A) (A) (A) (A) (A) (A) (A) (A) (A) (A) (A) (A)
                 (A) (A) (A) (A) (A) (A) (A) (A) (A) (A) (A) (A)
                 (A) (A) (A) (A) (A) (A) (A) (A) (A) (A) (A) (A)
                 (A) (A) (A) (A) (A) (A) (A) (A) (A) (A) (A) (A)
                 (A) (A) (A) (A) (A) (A) (A) (A) (A) (A) (A) (A)
                 (A) (A) (A) (A) (A) (A) (A) (A) (A) (A) (A) (A)
                 (A) (A) (A) (A) (A) (A) (A) (A) (A) (A) (A) (A)
                 (A) (A) (A) (A) (A) (A) (A) (A) (A) (A) (A) (A)
                 (A) (A) (A) (A) (A) (A) (A) (A) (A) (A) (A) (A)
                 (A) (A) (A) (A) (A) (A) (A) (A) (A) (A) (A) (A)
                 (A) (A) (A) (A) (A) (A) (A) (A) (A) (A) (A) (A)
                 (A) (A) (A) (A) (A) (A) (A) (A) (A) (A) (A) (A)
                 (A) (A) (A) (A) (A) (A) (A) (A) (A) (A) (A) (A)
                 (A) (A) (A) (A) (A) (A) (A) (A) (A) (A) (A) (A)
                 (A) (A) (A) (A) (A) (A) (A) (A) (A) (A) (A) (A)
                 (A) (A) (A) (A) (A) (A) (A) (A) (A) (A) (A) (A)
                 (A) (A) (A) (A) (A) (A) (A) (A) (A) (A) (A) (A)
                 (A) (A) (A) (A) (A) (A) (A) (A) (A) (A) (A) (A)
[...]
 
              Baa    -0.0000    -0.000    -0.000    -0.000  0.9166 -0.3013  0.2629
    13 C(13)  Bbb     0.0000     0.000     0.000     0.000 -0.3805 -0.4547  0.8052
              Bcc     0.0000     0.000     0.000     0.000  0.1231  0.8381  0.5315
 
              Baa    -0.0000    -0.000    -0.000    -0.000  0.5003  0.1028  0.8598
    14 C(13)  Bbb    -0.0000    -0.000    -0.000    -0.000  0.6399  0.6250 -0.4471
              Bcc     0.0000     0.000     0.000     0.000 -0.5833  0.7738  0.2469
 
              Baa    -0.0000    -0.000    -0.000    -0.000  0.5715  0.5854  0.5751
    15 S(33)  Bbb     0.0000     0.000     0.000     0.000  0.7813 -0.1737 -0.5995
              Bcc     0.0000     0.000     0.000     0.000 -0.2511  0.7919 -0.5566
 
              Baa    -0.0000    -0.000    -0.000    -0.000 -0.0967  0.2232  0.9700
    16 C(13)  Bbb    -0.0000    -0.000    -0.000    -0.000  0.8152 -0.5414  0.2059
              Bcc     0.0000     0.000     0.000     0.000  0.5710  0.8106 -0.1296
 
              Baa    -0.0000    -0.000    -0.000    -0.000  0.1191  0.8683 -0.4816
    17 C(13)  Bbb    -0.0000    -0.000    -0.000    -0.000 -0.1372  0.4948  0.8581
              Bcc     0.0000     0.000     0.000     0.000  0.9834 -0.0361  0.1781
 
              Baa    -0.0000    -0.000    -0.000    -0.000 -0.1218  0.9125 -0.3906
    18 C(13)  Bbb    -0.0000    -0.000    -0.000    -0.000 -0.1875  0.3653  0.9118
              Bcc     0.0000     0.000     0.000     0.000  0.9747  0.1843  0.1265
 
              Baa    -0.0000     0.000     0.000     0.000  0.0809  0.9963 -0.0304
    19 O(17)  Bbb     0.0000    -0.000    -0.000    -0.000  0.9958 -0.0795  0.0447
              Bcc     0.0000    -0.000    -0.000    -0.000 -0.0422  0.0339  0.9985
 
              Baa    -0.0000    -0.000    -0.000    -0.000  0.3042  0.9192 -0.2499
    20 C(13)  Bbb     0.0000     0.000     0.000     0.000  0.8279 -0.1254  0.5467
              Bcc     0.0000     0.000     0.000     0.000 -0.4712  0.3733  0.7992
 
              Baa    -0.0000    -0.000    -0.000    -0.000 -0.4636  0.8766 -0.1291
    21 C(13)  Bbb    -0.0000    -0.000    -0.000    -0.000  0.8859  0.4562 -0.0841
              Bcc     0.0000     0.000     0.000     0.000  0.0148  0.1533  0.9881
 
              Baa    -0.0000    -0.000    -0.000    -0.000 -0.1609  0.3241  0.9323
    22 C(13)  Bbb    -0.0000    -0.000    -0.000    -0.000 -0.5272  0.7703 -0.3588
              Bcc     0.0000     0.000     0.000     0.000  0.8344  0.5492 -0.0469
 
              Baa    -0.0000     0.000     0.000     0.000  0.5306  0.8428 -0.0903
    23 O(17)  Bbb     0.0000    -0.000    -0.000    -0.000  0.8209 -0.5375 -0.1928
              Bcc     0.0000    -0.000    -0.000    -0.000  0.2111 -0.0282  0.9771
 
              Baa    -0.0000    -0.000    -0.000    -0.000  0.4666  0.7843 -0.4089
    24 C(13)  Bbb    -0.0000    -0.000    -0.000    -0.000  0.4745  0.1682  0.8641
              Bcc     0.0000     0.000     0.000     0.000  0.7464 -0.5972 -0.2936
 
              Baa    -0.0000    -0.000    -0.000    -0.000  0.1222  0.3190  0.9399
    25 C(13)  Bbb    -0.0000    -0.000    -0.000    -0.000  0.9819  0.0995 -0.1615
              Bcc     0.0000     0.000     0.000     0.000 -0.1450  0.9425 -0.3010
 
              Baa    -0.0000    -0.000    -0.000    -0.000 -0.3793 -0.3072  0.8728
    26 C(13)  Bbb    -0.0000    -0.000    -0.000    -0.000  0.8195 -0.5495  0.1628
              Bcc     0.0000     0.000     0.000     0.000  0.4296  0.7770  0.4601
 
              Baa    -0.0000    -0.000    -0.000    -0.000  0.2663  0.8340  0.4831
    27 N(14)  Bbb     0.0000     0.000     0.000     0.000  0.0704 -0.5167  0.8532
              Bcc     0.0000     0.000     0.000     0.000  0.9613 -0.1933 -0.1963
 
              Baa    -0.0000    -0.000    -0.000    -0.000 -0.5825  0.1924  0.7897
    28 C(13)  Bbb    -0.0000    -0.000    -0.000    -0.000  0.7317  0.5474  0.4063
              Bcc     0.0000     0.000     0.000     0.000 -0.3541  0.8145 -0.4596
 
              Baa    -0.0000    -0.000    -0.000    -0.000  0.8370 -0.3925 -0.3813
    29 C(13)  Bbb     0.0000     0.000     0.000     0.000  0.5472  0.5993  0.5843
              Bcc     0.0000     0.000     0.000     0.000 -0.0008 -0.6977  0.7164
 
              Baa    -0.0000    -0.000    -0.000    -0.000  0.3092  0.6449  0.6989
    30 S(33)  Bbb     0.0000     0.000     0.000     0.000 -0.4935 -0.5194  0.6976
              Bcc     0.0000     0.000     0.000     0.000  0.8130 -0.5606  0.1577
 
              Baa    -0.0000    -0.000    -0.000    -0.000 -0.0255  0.1376  0.9902
    31 C(13)  Bbb    -0.0000    -0.000    -0.000    -0.000  0.8681 -0.4882  0.0902
              Bcc     0.0000     0.000     0.000     0.000  0.4958  0.8618 -0.1070
 
              Baa    -0.0000    -0.000    -0.000    -0.000 -0.5068  0.8490  0.1495
    32 C(13)  Bbb     0.0000     0.000     0.000     0.000  0.0847 -0.1235  0.9887
              Bcc     0.0000     0.000     0.000     0.000  0.8579  0.5138 -0.0094
 
              Baa    -0.0000    -0.000    -0.000    -0.000  0.0965 -0.1234  0.9877
    33 C(13)  Bbb    -0.0000    -0.000    -0.000    -0.000  0.9762  0.2055 -0.0697
              Bcc     0.0000     0.000     0.000     0.000 -0.1943  0.9708  0.1403
 
              Baa    -0.0000     0.000     0.000     0.000  0.9952 -0.0170  0.0959
    34 O(17)  Bbb    -0.0000     0.000     0.000     0.000 -0.0966 -0.0470  0.9942
              Bcc     0.0000    -0.000    -0.000    -0.000  0.0124  0.9988  0.0484
 
              Baa    -0.0000    -0.000    -0.000    -0.000  0.4937  0.4499  0.7442
    35 C(13)  Bbb     0.0000     0.000     0.000     0.000  0.7579 -0.6423 -0.1145
              Bcc     0.0000     0.000     0.000     0.000 -0.4265 -0.6205  0.6581
 
              Baa    -0.0000    -0.000    -0.000    -0.000 -0.3604  0.9254  0.1170
    36 C(13)  Bbb     0.0000     0.000     0.000     0.000  0.9292  0.3451  0.1321
              Bcc     0.0000     0.000     0.000     0.000 -0.0819 -0.1563  0.9843
 
              Baa    -0.0000    -0.000    -0.000    -0.000  0.9264 -0.2130 -0.3104
    37 C(13)  Bbb     0.0000     0.000     0.000     0.000  0.3043 -0.0616  0.9506
              Bcc     0.0000     0.000     0.000     0.000  0.2216  0.9751 -0.0077
 
              Baa    -0.0000     0.000     0.000     0.000  0.1843  0.7722 -0.6081
    38 O(17)  Bbb    -0.0000     0.000     0.000     0.000  0.0224  0.6152  0.7880
              Bcc     0.0000    -0.000    -0.000    -0.000  0.9826 -0.1588  0.0961
 
              Baa    -0.0000    -0.000    -0.000    -0.000 -0.5302  0.1978  0.8245
    39 C(13)  Bbb     0.0000     0.000     0.000     0.000  0.6392 -0.5457  0.5420
              Bcc     0.0000     0.000     0.000     0.000  0.5571  0.8143  0.1628
 
              Baa    -0.0000    -0.000    -0.000    -0.000  0.2873  0.9566  0.0481
    40 C(13)  Bbb    -0.0000    -0.000    -0.000    -0.000  0.9483 -0.2770 -0.1549
              Bcc     0.0000     0.000     0.000     0.000  0.1348 -0.0901  0.9868
 
              Baa    -0.0000    -0.000    -0.000    -0.000  0.3025  0.9195  0.2509
    41 C(13)  Bbb    -0.0000    -0.000    -0.000    -0.000  0.1349 -0.3019  0.9438
              Bcc     0.0000     0.000     0.000     0.000  0.9435 -0.2517 -0.2154
 
              Baa    -0.0000    -0.000    -0.000    -0.000  0.0443 -0.0392  0.9983
    42 N(14)  Bbb    -0.0000    -0.000    -0.000    -0.000  0.9740 -0.2204 -0.0519
              Bcc     0.0000     0.000     0.000     0.000  0.2221  0.9746  0.0284
 
              Baa    -0.0000    -0.000    -0.000    -0.000 -0.2763 -0.0807  0.9577
    43 C(13)  Bbb     0.0000     0.000     0.000     0.000  0.9225 -0.3017  0.2408
              Bcc     0.0000     0.000     0.000     0.000  0.2695  0.9500  0.1578
 
              Baa    -0.0000    -0.000    -0.000    -0.000  0.7730 -0.3601  0.5223
    44 C(13)  Bbb     0.0000     0.000     0.000     0.000 -0.3254  0.4818  0.8137
              Bcc     0.0000     0.000     0.000     0.000  0.5447  0.7989 -0.2552
 
              Baa    -0.0000    -0.000    -0.000    -0.000  0.6458  0.6408 -0.4151
    45 S(33)  Bbb    -0.0000    -0.000    -0.000    -0.000 -0.2545  0.6933  0.6742
              Bcc     0.0000     0.000     0.000     0.000  0.7198 -0.3297  0.6109
 
              Baa    -0.0000    -0.000    -0.000    -0.000 -0.3660  0.1570  0.9173
    46 H(1)   Bbb    -0.0000    -0.000    -0.000    -0.000 -0.1617  0.9599 -0.2288
              Bcc     0.0000     0.000     0.000     0.000  0.9165  0.2321  0.3260
 
              Baa    -0.0000    -0.000    -0.000    -0.000  0.8597 -0.2066  0.4672
    47 H(1)   Bbb     0.0000     0.000     0.000     0.000  0.3900  0.8561 -0.3391
              Bcc     0.0000     0.000     0.000     0.000 -0.3299  0.4737  0.8166
 
              Baa    -0.0000    -0.000    -0.000    -0.000  0.8804 -0.0935 -0.4650
    48 H(1)   Bbb     0.0000     0.000     0.000     0.000 -0.2615  0.7223 -0.6403
              Bcc     0.0000     0.000     0.000     0.000  0.3957  0.6853  0.6114
 
              Baa    -0.0000    -0.000    -0.000    -0.000 -0.2000  0.7525  0.6274
    49 H(1)   Bbb    -0.0000    -0.000    -0.000    -0.000  0.9556  0.2911 -0.0445
              Bcc     0.0000     0.000     0.000     0.000  0.2162 -0.5907  0.7774
 
              Baa    -0.0000    -0.000    -0.000    -0.000  0.2703  0.7012 -0.6598
    50 H(1)   Bbb    -0.0000    -0.000    -0.000    -0.000  0.8919  0.0757  0.4458
              Bcc     0.0000     0.000     0.000     0.000 -0.3625  0.7090  0.6049
 
              Baa    -0.0000    -0.000    -0.000    -0.000  0.5922 -0.0485  0.8044
    51 H(1)   Bbb    -0.0000    -0.000    -0.000    -0.000  0.7997 -0.0877 -0.5940
              Bcc     0.0000     0.000     0.000     0.000  0.0994  0.9950 -0.0132
 
              Baa    -0.0000    -0.000    -0.000    -0.000  0.8288 -0.4539 -0.3273
    52 H(1)   Bbb     0.0000     0.000     0.000     0.000  0.2055 -0.2970  0.9325
              Bcc     0.0000     0.000     0.000     0.000  0.5205  0.8401  0.1529
 
              Baa    -0.0000    -0.000    -0.000    -0.000  0.9367  0.0206  0.3497
    53 H(1)   Bbb     0.0000     0.000     0.000     0.000 -0.3487  0.1492  0.9253
              Bcc     0.0000     0.000     0.000     0.000  0.0331  0.9886 -0.1469
 
              Baa    -0.0000    -0.000    -0.000    -0.000  0.0217  0.9184 -0.3950
    54 H(1)   Bbb     0.0000     0.000     0.000     0.000 -0.2432  0.3880  0.8890
              Bcc     0.0000     0.000     0.000     0.000  0.9697  0.0767  0.2318
 
              Baa    -0.0000    -0.000    -0.000    -0.000 -0.4663 -0.3801  0.7988
    55 H(1)   Bbb    -0.0000    -0.000    -0.000    -0.000  0.8157  0.1648  0.5545
              Bcc     0.0000     0.000     0.000     0.000 -0.3424  0.9101  0.2332
 
              Baa    -0.0000    -0.000    -0.000    -0.000 -0.0766  0.3259  0.9423
    56 H(1)   Bbb    -0.0000    -0.000    -0.000    -0.000  0.9202  0.3869 -0.0591
              Bcc     0.0000     0.000     0.000     0.000 -0.3839  0.8626 -0.3295
 
              Baa    -0.0000    -0.000    -0.000    -0.000  0.0256 -0.2097  0.9774
    57 H(1)   Bbb     0.0000     0.000     0.000     0.000  0.5832  0.7972  0.1558
              Bcc     0.0000     0.000     0.000     0.000  0.8119 -0.5661 -0.1427
 
              Baa    -0.0000    -0.000    -0.000    -0.000  0.0899  0.6924  0.7159
    58 H(1)   Bbb    -0.0000    -0.000    -0.000    -0.000  0.1448  0.7021 -0.6972
              Bcc     0.0000     0.000     0.000     0.000  0.9854 -0.1664  0.0372
 
              Baa    -0.0000    -0.000    -0.000    -0.000  0.1341  0.9899  0.0464
    59 H(1)   Bbb     0.0000     0.000     0.000     0.000  0.7482 -0.1319  0.6502
              Bcc     0.0000     0.000     0.000     0.000 -0.6498  0.0524  0.7583
 
              Baa    -0.0000    -0.000    -0.000    -0.000  0.4920  0.8428 -0.2182
    60 H(1)   Bbb    -0.0000    -0.000    -0.000    -0.000  0.7865 -0.3228  0.5265
              Bcc     0.0000     0.000     0.000     0.000 -0.3733  0.4306  0.8217
 
              Baa    -0.0000    -0.000    -0.000    -0.000  0.1426  0.9343 -0.3269
    61 H(1)   Bbb    -0.0000    -0.000    -0.000    -0.000  0.0215  0.3272  0.9447
              Bcc     0.0000     0.000     0.000     0.000  0.9895 -0.1417  0.0266
 
              Baa    -0.0000    -0.000    -0.000    -0.000  0.6873  0.6946  0.2125
    62 H(1)   Bbb     0.0000     0.000     0.000     0.000  0.7117 -0.7025 -0.0056
              Bcc     0.0000     0.000     0.000     0.000 -0.1454 -0.1551  0.9771
 
              Baa    -0.0000    -0.000    -0.000    -0.000  0.7520 -0.6456  0.1330
    63 H(1)   Bbb    -0.0000    -0.000    -0.000    -0.000  0.0279  0.2327  0.9721
              Bcc     0.0000     0.000     0.000     0.000  0.6585  0.7274 -0.1930
 
              Baa    -0.0000    -0.000    -0.000    -0.000  0.7176  0.3302  0.6131
    64 H(1)   Bbb    -0.0000    -0.000    -0.000    -0.000  0.0042  0.8784 -0.4780
              Bcc     0.0000     0.000     0.000     0.000  0.6964 -0.3456 -0.6290
 
              Baa    -0.0000    -0.000    -0.000    -0.000 -0.0540 -0.1075  0.9927
    65 H(1)   Bbb    -0.0000    -0.000    -0.000    -0.000  0.9195  0.3824  0.0915
              Bcc     0.0000     0.000     0.000     0.000 -0.3894  0.9177  0.0782
 
              Baa    -0.0000    -0.000    -0.000    -0.000 -0.3800 -0.1352  0.9151
    66 H(1)   Bbb     0.0000     0.000     0.000     0.000  0.8485 -0.4450  0.2866
              Bcc     0.0000     0.000     0.000     0.000  0.3684  0.8853  0.2838
 
              Baa    -0.0000    -0.000    -0.000    -0.000 -0.3285  0.3141  0.8907
    67 H(1)   Bbb     0.0000     0.000     0.000     0.000 -0.2643  0.8748 -0.4060
              Bcc     0.0000     0.000     0.000     0.000  0.9068  0.3688  0.2044
 
              Baa    -0.0000    -0.000    -0.000    -0.000 -0.4465  0.0707  0.8920
    68 H(1)   Bbb    -0.0000    -0.000    -0.000    -0.000  0.7926 -0.4313  0.4309
              Bcc     0.0000     0.000     0.000     0.000  0.4152  0.8994  0.1366
 
              Baa    -0.0000    -0.000    -0.000    -0.000  0.2252 -0.4772  0.8494
    69 H(1)   Bbb     0.0000     0.000     0.000     0.000  0.7876  0.6024  0.1296
              Bcc     0.0000     0.000     0.000     0.000 -0.5736  0.6398  0.5115
 
              Baa    -0.0000    -0.000    -0.000    -0.000 -0.2794 -0.0949  0.9555
    70 H(1)   Bbb    -0.0000    -0.000    -0.000    -0.000  0.8090  0.5128  0.2875
              Bcc     0.0000     0.000     0.000     0.000 -0.5172  0.8533 -0.0665
 
              Baa    -0.0000    -0.000    -0.000    -0.000  0.7445 -0.4731  0.4710
    71 H(1)   Bbb     0.0000     0.000     0.000     0.000 -0.5380 -0.0074  0.8429
              Bcc     0.0000     0.000     0.000     0.000  0.3953  0.8810  0.2600
 
              Baa    -0.0000    -0.000    -0.000    -0.000  0.3777  0.9216 -0.0898
    72 H(1)   Bbb     0.0000     0.000     0.000     0.000  0.8362 -0.3812 -0.3943
              Bcc     0.0000     0.000     0.000     0.000  0.3976 -0.0738  0.9146
 
              Baa    -0.0000    -0.000    -0.000    -0.000  0.5765  0.7820 -0.2370
    73 H(1)   Bbb    -0.0000    -0.000    -0.000    -0.000  0.7300 -0.3626  0.5793
              Bcc     0.0000     0.000     0.000     0.000 -0.3671  0.5070  0.7799
 
              Baa    -0.0000    -0.000    -0.000    -0.000  0.9422 -0.3274  0.0707
    74 H(1)   Bbb     0.0000     0.000     0.000     0.000 -0.2574 -0.5726  0.7784
              Bcc     0.0000     0.000     0.000     0.000  0.2143  0.7516  0.6238
 

 ---------------------------------------------------------------------------------

 No NMR shielding tensors so no spin-rotation constants.
 Leave Link  601 at Sat Jul 25 21:58:05 2020, MaxMem=  4026531840 cpu:               8.3 elap:               1.1
 (Enter /opt/ohpc/pub/libs/gaussian/g16-A.03/sandybridge/g16/l9999.exe)

 Test job not archived.
 1\1\GINC-SKYLAKE041\FOpt\ULC-wPBE\CC-pVDZ\C33H29N3O6S3\RDU230\25-Jul-2
 020\0\\#P uLC-wPBE/cc-pVDZ iop(3/107=0417400000, 3/108=0417400000) opt
 \\H29 C33 S3 N3 O6\\0,1\C,-10.7623135613,-1.7830169265,-1.0152468118\C
 ,-10.4223073321,-0.5905918512,-1.6332089478\C,-9.2060243422,0.01944409
 28,-1.3485131999\O,-8.8483203231,1.1504067078,-2.017572\C,-9.410696112
 5,2.3436992302,-1.5008307278\C,-8.3200538055,-0.5574114392,-0.43173532
 91\C,-8.6810030602,-1.7658147197,0.1745084923\O,-7.8214622425,-2.38239
 67209,1.0439057504\C,-7.8503628488,-1.8459515613,2.3535138593\C,-9.895
 0055869,-2.3730214095,-0.107496787\C,-7.0240778635,0.089986783,-0.1423
 418584\N,-6.892843495,1.3316113965,0.2174085801\C,-5.575902265,1.65407
 17064,0.3784741141\C,-4.6738724066,0.6602837541,0.140872609\S,-5.53308
 07511,-0.7633189071,-0.3042479139\C,-3.2075215445,0.7140504032,0.24687
 51888\C,-2.5363924749,1.8984282621,-0.0211712881\C,-1.1512301366,1.958
 5157581,0.0942976318\O,-0.5110205512,3.1120161299,-0.2377772429\C,-0.5
 472508669,4.1183513566,0.7587382458\C,-0.4097255453,0.8388859811,0.471
 5270421\C,-1.0980300266,-0.3630054693,0.7117211727\O,-0.3301835328,-1.
 4195136912,1.0549614017\C,-0.9576398197,-2.6530398603,1.3128679674\C,-
 2.4809277,-0.4215513656,0.6131178644\C,1.056746001,0.9344465207,0.6123
 41128\N,1.6541833163,1.8687777023,1.2888831606\C,3.0105740501,1.747256
 6199,1.1949464746\C,3.4773312613,0.7167757244,0.4356624309\S,2.1315027
 242,-0.1552742103,-0.1874251535\C,4.8744829755,0.3360595613,0.16947488
 83\C,5.8381045675,1.3338263563,0.0501252354\C,7.1666879425,0.983043132
 ,-0.1787938303\O,8.168484927,1.8758113232,-0.2912123143\C,7.8582895432
 ,3.245823843,-0.2120368323\C,7.5361817299,-0.3588642985,-0.3059454115\
 C,6.555992466,-1.3467159362,-0.188255861\O,6.9923902842,-2.6165321177,
 -0.3187693709\C,6.0518889377,-3.6603489144,-0.2409725026\C,5.227135360
 6,-1.0055360175,0.0509740906\C,8.9437669385,-0.719254733,-0.583460804\
 N,9.5334424463,-0.5543112159,-1.7246685493\C,10.8387183609,-0.96434936
 14,-1.6554190335\C,11.2488587521,-1.4419264366,-0.453702259\S,9.948725
 2954,-1.3825475797,0.6563256773\H,-11.7123995702,-2.2642696305,-1.2498
 044896\H,-11.0777412724,-0.1253341138,-2.3690587201\H,-10.5102940708,2
 .2853276846,-1.468923871\H,-9.1145564229,3.1491843032,-2.1819696792\H,
 -9.0137739106,2.5480639837,-0.496683876\H,-7.5809073903,-0.7782202254,
 2.3586455341\H,-8.8476308846,-1.9660955853,2.8051952\H,-7.1161948059,-
 2.4062489209,2.942741628\H,-10.1318381834,-3.3151860864,0.3853197508\H
 ,-5.3120246321,2.6581209224,0.706956072\H,-3.0684990722,2.7819747053,-
 0.3703996528\H,0.0323529933,3.8019018015,1.6368512596\H,-1.5825342001,
 4.3543077277,1.0516704302\H,-0.0880754318,5.0101605861,0.3181180385\H,
 -1.6464303015,-2.5838791429,2.1685506784\H,-0.1549823697,-3.3564703068
 ,1.5557728502\H,-1.5056490737,-3.0202172506,0.4317972018\H,-3.01078908
 07,-1.3456715231,0.8331827763\H,3.6450488344,2.4440431128,1.7406990466
 \H,5.5361206976,2.3759009461,0.1126665888\H,8.8057944348,3.7787468154,
 -0.3398264644\H,7.164422856,3.5498592261,-1.0104091742\H,7.426713026,3
 .5085444363,0.7661678682\H,5.5619435024,-3.6921173538,0.7443457951\H,5
 .2858715195,-3.5731335783,-1.0265226165\H,6.6146886818,-4.5872157983,-
 0.390565718\H,4.4645884432,-1.7724464373,0.1640532195\H,11.4656940877,
 -0.8908686304,-2.5427844677\H,12.2289839107,-1.8201652691,-0.176463185
 4\\Version=EM64L-G16RevA.03\State=1-A\HF=-3083.5405312\S2=0.\S2-1=0.\S
 2A=0.\RMSD=7.013e-09\RMSF=4.038e-06\Dipole=-1.0596709,-0.5158934,1.339
 7434\Quadrupole=7.9157008,10.6821813,-18.5978821,2.9090766,0.1994314,-
 2.6860767\PG=C01 [X(C33H29N3O6S3)]\\@


 Standing in the middle of the road is very dangerous;
 you get knocked down by the traffic from both sides.
                                -- Margaret Thatcher
 Job cpu time:       1 days 14 hours 46 minutes 35.5 seconds.
 Elapsed time:       0 days  4 hours 55 minutes 54.7 seconds.
 File lengths (MBytes):  RWF=    736 Int=      0 D2E=      0 Chk=     68 Scr=      8
 Normal termination of Gaussian 16 at Sat Jul 25 21:58:06 2020.
