 Entering Gaussian System, Link 0=g16
 Input=mols_65_1_27_n-cOC-COC_opt_0.gjf
 Output=mols_65_1_27_n-cOC-COC_opt_0.log
 Initial command:
 /opt/ohpc/pub/libs/gaussian/g16-A.03/sandybridge/g16/l1.exe "/mnt/gpfs2_4m/scratch/rdu230/ondemand/projects/dihedral_energies/7trial/wtuning/mols_65_1_27_n-cOC-COC/Gau-66305.inp" -scrdir="/mnt/gpfs2_4m/scratch/rdu230/ondemand/projects/dihedral_energies/7trial/wtuning/mols_65_1_27_n-cOC-COC/"
 Entering Link 1 = /opt/ohpc/pub/libs/gaussian/g16-A.03/sandybridge/g16/l1.exe PID=     66306.
  
 Copyright (c) 1988,1990,1992,1993,1995,1998,2003,2009,2016,
            Gaussian, Inc.  All Rights Reserved.
  
 This is part of the Gaussian(R) 16 program.  It is based on
 the Gaussian(R) 09 system (copyright 2009, Gaussian, Inc.),
 the Gaussian(R) 03 system (copyright 2003, Gaussian, Inc.),
 the Gaussian(R) 98 system (copyright 1998, Gaussian, Inc.),
 the Gaussian(R) 94 system (copyright 1995, Gaussian, Inc.),
 the Gaussian 92(TM) system (copyright 1992, Gaussian, Inc.),
 the Gaussian 90(TM) system (copyright 1990, Gaussian, Inc.),
 the Gaussian 88(TM) system (copyright 1988, Gaussian, Inc.),
 the Gaussian 86(TM) system (copyright 1986, Carnegie Mellon
 University), and the Gaussian 82(TM) system (copyright 1983,
 Carnegie Mellon University). Gaussian is a federally registered
 trademark of Gaussian, Inc.
  
 This software contains proprietary and confidential information,
 including trade secrets, belonging to Gaussian, Inc.
  
 This software is provided under written license and may be
 used, copied, transmitted, or stored only in accord with that
 written license.
  
 The following legend is applicable only to US Government
 contracts under FAR:
  
                    RESTRICTED RIGHTS LEGEND
  
 Use, reproduction and disclosure by the US Government is
 subject to restrictions as set forth in subparagraphs (a)
 and (c) of the Commercial Computer Software - Restricted
 Rights clause in FAR 52.227-19.
  
 Gaussian, Inc.
 340 Quinnipiac St., Bldg. 40, Wallingford CT 06492
  
  
 ---------------------------------------------------------------
 Warning -- This program may not be used in any manner that
 competes with the business of Gaussian, Inc. or will provide
 assistance to any competitor of Gaussian, Inc.  The licensee
 of this program is prohibited from giving any competitor of
 Gaussian, Inc. access to this program.  By using this program,
 the user acknowledges that Gaussian, Inc. is engaged in the
 business of creating and licensing software in the field of
 computational chemistry and represents and warrants to the
 licensee that it is not a competitor of Gaussian, Inc. and that
 it will not use this program in any manner prohibited above.
 ---------------------------------------------------------------
  

 Cite this work as:
 Gaussian 16, Revision A.03,
 M. J. Frisch, G. W. Trucks, H. B. Schlegel, G. E. Scuseria, 
 M. A. Robb, J. R. Cheeseman, G. Scalmani, V. Barone, 
 G. A. Petersson, H. Nakatsuji, X. Li, M. Caricato, A. V. Marenich, 
 J. Bloino, B. G. Janesko, R. Gomperts, B. Mennucci, H. P. Hratchian, 
 J. V. Ortiz, A. F. Izmaylov, J. L. Sonnenberg, D. Williams-Young, 
 F. Ding, F. Lipparini, F. Egidi, J. Goings, B. Peng, A. Petrone, 
 T. Henderson, D. Ranasinghe, V. G. Zakrzewski, J. Gao, N. Rega, 
 G. Zheng, W. Liang, M. Hada, M. Ehara, K. Toyota, R. Fukuda, 
 J. Hasegawa, M. Ishida, T. Nakajima, Y. Honda, O. Kitao, H. Nakai, 
 T. Vreven, K. Throssell, J. A. Montgomery, Jr., J. E. Peralta, 
 F. Ogliaro, M. J. Bearpark, J. J. Heyd, E. N. Brothers, K. N. Kudin, 
 V. N. Staroverov, T. A. Keith, R. Kobayashi, J. Normand, 
 K. Raghavachari, A. P. Rendell, J. C. Burant, S. S. Iyengar, 
 J. Tomasi, M. Cossi, J. M. Millam, M. Klene, C. Adamo, R. Cammi, 
 J. W. Ochterski, R. L. Martin, K. Morokuma, O. Farkas, 
 J. B. Foresman, and D. J. Fox, Gaussian, Inc., Wallingford CT, 2016.
 
 ******************************************
 Gaussian 16:  EM64L-G16RevA.03 25-Dec-2016
                24-Jul-2020 
 ******************************************
 %mem=30GB
 %nproc=8
 Will use up to    8 processors via shared memory.
 ---------------------------------------------------------------
 #P uLC-wPBE/cc-pVDZ iop(3/107=0156700000, 3/108=0156700000) opt
 ---------------------------------------------------------------
 1/18=20,19=15,26=3,38=1/1,3;
 2/9=110,12=2,17=6,18=5,40=1/2;
 3/5=16,11=2,25=1,30=1,71=1,74=-41,107=156700000,108=156700000,116=2/1,2,3;
 4//1;
 5/5=2,38=5/2;
 6/7=2,8=2,9=2,10=2,28=1/1;
 7//1,2,3,16;
 1/18=20,19=15,26=3/3(2);
 2/9=110/2;
 99//99;
 2/9=110/2;
 3/5=16,11=2,25=1,30=1,71=1,74=-41,107=156700000,108=156700000,116=2/1,2,3;
 4/5=5,16=3,69=1/1;
 5/5=2,38=5/2;
 7//1,2,3,16;
 1/18=20,19=15,26=3/3(-5);
 2/9=110/2;
 6/7=2,8=2,9=2,10=2,19=2,28=1/1;
 99/9=1/99;
 Leave Link    1 at Fri Jul 24 22:26:48 2020, MaxMem=  4026531840 cpu:               1.6 elap:               0.2
 (Enter /opt/ohpc/pub/libs/gaussian/g16-A.03/sandybridge/g16/l101.exe)
 ----------------
 H11 C11 S1 N1 O2
 ----------------
 Symbolic Z-matrix:
 Charge =  0 Multiplicity = 1
 C                    -3.43994  -0.77573   0.74198 
 C                    -2.5277   -1.74927   1.15085 
 N                    -1.15581  -1.60535   0.90088 
 C                    -0.73381  -0.62566   0.21011 
 C                    -1.55431   0.40191  -0.3864 
 O                    -1.03761   1.41436  -1.15672 
 C                    -1.83968   2.51509  -1.45752 
 C                    -2.98081   0.25841  -0.11013 
 C                     0.72304  -0.61986  -0.01308 
 C                     1.69079   0.3333    0.37874 
 O                     1.24981   1.44732   1.15552 
 C                     2.28341   2.34803   1.42325 
 C                     3.01535   0.01375  -0.05324 
 C                     3.00515  -1.16564  -0.69884 
 S                     1.41457  -1.8209   -0.88627 
 H                    -4.43663  -0.91473   0.94433 
 H                    -2.78137  -2.56771   1.74312 
 H                    -2.2615    3.0074   -0.58007 
 H                    -2.60848   2.13439  -2.15497 
 H                    -1.23706   3.25209  -1.97494 
 H                    -3.72723   0.99802  -0.45449 
 H                     2.80153   2.74498   0.61851 
 H                     3.03894   1.8764    2.08324 
 H                     1.81963   3.12428   2.00428 
 H                     3.84728   0.54625   0.13202 
 H                     3.88694  -1.69694  -1.15559 
 
 ITRead=  0  0  0  0  0  0  0  0  0  0  0  0  0  0  0  0  0  0  0  0
 ITRead=  0  0  0  0  0  0
 MicOpt= -1 -1 -1 -1 -1 -1 -1 -1 -1 -1 -1 -1 -1 -1 -1 -1 -1 -1 -1 -1
 MicOpt= -1 -1 -1 -1 -1 -1
 NAtoms=     26 NQM=       26 NQMF=       0 NMMI=      0 NMMIF=      0
                NMic=       0 NMicF=      0.
                    Isotopes and Nuclear Properties:
 (Nuclear quadrupole moments (NQMom) in fm**2, nuclear magnetic moments (NMagM)
  in nuclear magnetons)

  Atom         1           2           3           4           5           6           7           8           9          10
 IAtWgt=          12          12          14          12          12          16          12          12          12          12
 AtmWgt=  12.0000000  12.0000000  14.0030740  12.0000000  12.0000000  15.9949146  12.0000000  12.0000000  12.0000000  12.0000000
 NucSpn=           0           0           2           0           0           0           0           0           0           0
 AtZEff=  -0.0000000  -0.0000000  -0.0000000  -0.0000000  -0.0000000  -0.0000000  -0.0000000  -0.0000000  -0.0000000  -0.0000000
 NQMom=    0.0000000   0.0000000   2.0440000   0.0000000   0.0000000   0.0000000   0.0000000   0.0000000   0.0000000   0.0000000
 NMagM=    0.0000000   0.0000000   0.4037610   0.0000000   0.0000000   0.0000000   0.0000000   0.0000000   0.0000000   0.0000000
 AtZNuc=   6.0000000   6.0000000   7.0000000   6.0000000   6.0000000   8.0000000   6.0000000   6.0000000   6.0000000   6.0000000

  Atom        11          12          13          14          15          16          17          18          19          20
 IAtWgt=          16          12          12          12          32           1           1           1           1           1
 AtmWgt=  15.9949146  12.0000000  12.0000000  12.0000000  31.9720718   1.0078250   1.0078250   1.0078250   1.0078250   1.0078250
 NucSpn=           0           0           0           0           0           1           1           1           1           1
 AtZEff=  -0.0000000  -0.0000000  -0.0000000  -0.0000000  -0.0000000  -0.0000000  -0.0000000  -0.0000000  -0.0000000  -0.0000000
 NQMom=    0.0000000   0.0000000   0.0000000   0.0000000   0.0000000   0.0000000   0.0000000   0.0000000   0.0000000   0.0000000
 NMagM=    0.0000000   0.0000000   0.0000000   0.0000000   0.0000000   2.7928460   2.7928460   2.7928460   2.7928460   2.7928460
 AtZNuc=   8.0000000   6.0000000   6.0000000   6.0000000  16.0000000   1.0000000   1.0000000   1.0000000   1.0000000   1.0000000

  Atom        21          22          23          24          25          26
 IAtWgt=           1           1           1           1           1           1
 AtmWgt=   1.0078250   1.0078250   1.0078250   1.0078250   1.0078250   1.0078250
 NucSpn=           1           1           1           1           1           1
 AtZEff=  -0.0000000  -0.0000000  -0.0000000  -0.0000000  -0.0000000  -0.0000000
 NQMom=    0.0000000   0.0000000   0.0000000   0.0000000   0.0000000   0.0000000
 NMagM=    2.7928460   2.7928460   2.7928460   2.7928460   2.7928460   2.7928460
 AtZNuc=   1.0000000   1.0000000   1.0000000   1.0000000   1.0000000   1.0000000
 Leave Link  101 at Fri Jul 24 22:26:48 2020, MaxMem=  4026531840 cpu:               2.8 elap:               0.4
 (Enter /opt/ohpc/pub/libs/gaussian/g16-A.03/sandybridge/g16/l103.exe)

 GradGradGradGradGradGradGradGradGradGradGradGradGradGradGradGradGradGrad
 Berny optimization.
 Initialization pass.
                           ----------------------------
                           !    Initial Parameters    !
                           ! (Angstroms and Degrees)  !
 --------------------------                            --------------------------
 ! Name  Definition              Value          Derivative Info.                !
 --------------------------------------------------------------------------------
 ! R1    R(1,2)                  1.3954         estimate D2E/DX2                !
 ! R2    R(1,8)                  1.4165         estimate D2E/DX2                !
 ! R3    R(1,16)                 1.0265         estimate D2E/DX2                !
 ! R4    R(2,3)                  1.4019         estimate D2E/DX2                !
 ! R5    R(2,17)                 1.0416         estimate D2E/DX2                !
 ! R6    R(3,4)                  1.2708         estimate D2E/DX2                !
 ! R7    R(4,5)                  1.4439         estimate D2E/DX2                !
 ! R8    R(4,9)                  1.4739         estimate D2E/DX2                !
 ! R9    R(5,6)                  1.3731         estimate D2E/DX2                !
 ! R10   R(5,8)                  1.4601         estimate D2E/DX2                !
 ! R11   R(6,7)                  1.3948         estimate D2E/DX2                !
 ! R12   R(7,18)                 1.091          estimate D2E/DX2                !
 ! R13   R(7,19)                 1.1056         estimate D2E/DX2                !
 ! R14   R(7,20)                 1.0835         estimate D2E/DX2                !
 ! R15   R(8,21)                 1.1058         estimate D2E/DX2                !
 ! R16   R(9,10)                 1.4137         estimate D2E/DX2                !
 ! R17   R(9,15)                 1.638          estimate D2E/DX2                !
 ! R18   R(10,11)                1.4279         estimate D2E/DX2                !
 ! R19   R(10,13)                1.4294         estimate D2E/DX2                !
 ! R20   R(11,12)                1.3969         estimate D2E/DX2                !
 ! R21   R(12,22)                1.0362         estimate D2E/DX2                !
 ! R22   R(12,23)                1.1085         estimate D2E/DX2                !
 ! R23   R(12,24)                1.0748         estimate D2E/DX2                !
 ! R24   R(13,14)                1.3446         estimate D2E/DX2                !
 ! R25   R(13,25)                1.005          estimate D2E/DX2                !
 ! R26   R(14,15)                1.7304         estimate D2E/DX2                !
 ! R27   R(14,26)                1.1263         estimate D2E/DX2                !
 ! A1    A(2,1,8)              118.2774         estimate D2E/DX2                !
 ! A2    A(2,1,16)             118.851          estimate D2E/DX2                !
 ! A3    A(8,1,16)             122.1535         estimate D2E/DX2                !
 ! A4    A(1,2,3)              121.0565         estimate D2E/DX2                !
 ! A5    A(1,2,17)             123.7519         estimate D2E/DX2                !
 ! A6    A(3,2,17)             114.8582         estimate D2E/DX2                !
 ! A7    A(2,3,4)              120.0678         estimate D2E/DX2                !
 ! A8    A(3,4,5)              125.7647         estimate D2E/DX2                !
 ! A9    A(3,4,9)              114.4297         estimate D2E/DX2                !
 ! A10   A(5,4,9)              119.7575         estimate D2E/DX2                !
 ! A11   A(4,5,6)              122.8642         estimate D2E/DX2                !
 ! A12   A(4,5,8)              114.0209         estimate D2E/DX2                !
 ! A13   A(6,5,8)              123.1112         estimate D2E/DX2                !
 ! A14   A(5,6,7)              119.1103         estimate D2E/DX2                !
 ! A15   A(6,7,18)             113.8917         estimate D2E/DX2                !
 ! A16   A(6,7,19)             105.3173         estimate D2E/DX2                !
 ! A17   A(6,7,20)             108.66           estimate D2E/DX2                !
 ! A18   A(18,7,19)            113.1957         estimate D2E/DX2                !
 ! A19   A(18,7,20)            106.9884         estimate D2E/DX2                !
 ! A20   A(19,7,20)            108.6451         estimate D2E/DX2                !
 ! A21   A(1,8,5)              120.1502         estimate D2E/DX2                !
 ! A22   A(1,8,21)             117.1851         estimate D2E/DX2                !
 ! A23   A(5,8,21)             122.3329         estimate D2E/DX2                !
 ! A24   A(4,9,10)             129.5928         estimate D2E/DX2                !
 ! A25   A(4,9,15)             119.679          estimate D2E/DX2                !
 ! A26   A(10,9,15)            110.6772         estimate D2E/DX2                !
 ! A27   A(9,10,11)            117.735          estimate D2E/DX2                !
 ! A28   A(9,10,13)            113.5689         estimate D2E/DX2                !
 ! A29   A(11,10,13)           128.6822         estimate D2E/DX2                !
 ! A30   A(10,11,12)           112.2601         estimate D2E/DX2                !
 ! A31   A(11,12,22)           117.9151         estimate D2E/DX2                !
 ! A32   A(11,12,23)           110.1259         estimate D2E/DX2                !
 ! A33   A(11,12,24)           104.4785         estimate D2E/DX2                !
 ! A34   A(22,12,23)           106.5339         estimate D2E/DX2                !
 ! A35   A(22,12,24)           111.0348         estimate D2E/DX2                !
 ! A36   A(23,12,24)           106.2305         estimate D2E/DX2                !
 ! A37   A(10,13,14)           109.5221         estimate D2E/DX2                !
 ! A38   A(10,13,25)           126.365          estimate D2E/DX2                !
 ! A39   A(14,13,25)           124.0255         estimate D2E/DX2                !
 ! A40   A(13,14,15)           113.0247         estimate D2E/DX2                !
 ! A41   A(13,14,26)           127.0546         estimate D2E/DX2                !
 ! A42   A(15,14,26)           119.8079         estimate D2E/DX2                !
 ! A43   A(9,15,14)             93.0189         estimate D2E/DX2                !
 ! D1    D(8,1,2,3)              9.6196         estimate D2E/DX2                !
 ! D2    D(8,1,2,17)          -177.3558         estimate D2E/DX2                !
 ! D3    D(16,1,2,3)          -179.8757         estimate D2E/DX2                !
 ! D4    D(16,1,2,17)           -6.8512         estimate D2E/DX2                !
 ! D5    D(2,1,8,5)             -8.7565         estimate D2E/DX2                !
 ! D6    D(2,1,8,21)           177.7035         estimate D2E/DX2                !
 ! D7    D(16,1,8,5)          -178.9298         estimate D2E/DX2                !
 ! D8    D(16,1,8,21)            7.5302         estimate D2E/DX2                !
 ! D9    D(1,2,3,4)             -5.0572         estimate D2E/DX2                !
 ! D10   D(17,2,3,4)          -178.6678         estimate D2E/DX2                !
 ! D11   D(2,3,4,5)             -0.6178         estimate D2E/DX2                !
 ! D12   D(2,3,4,9)           -178.0723         estimate D2E/DX2                !
 ! D13   D(3,4,5,6)           -178.0061         estimate D2E/DX2                !
 ! D14   D(3,4,5,8)              1.3135         estimate D2E/DX2                !
 ! D15   D(9,4,5,6)             -0.6759         estimate D2E/DX2                !
 ! D16   D(9,4,5,8)            178.6438         estimate D2E/DX2                !
 ! D17   D(3,4,9,10)          -118.3202         estimate D2E/DX2                !
 ! D18   D(3,4,9,15)            64.538          estimate D2E/DX2                !
 ! D19   D(5,4,9,10)            64.0589         estimate D2E/DX2                !
 ! D20   D(5,4,9,15)          -113.0829         estimate D2E/DX2                !
 ! D21   D(4,5,6,7)           -166.4661         estimate D2E/DX2                !
 ! D22   D(8,5,6,7)             14.2757         estimate D2E/DX2                !
 ! D23   D(4,5,8,1)              3.4985         estimate D2E/DX2                !
 ! D24   D(4,5,8,21)           176.6961         estimate D2E/DX2                !
 ! D25   D(6,5,8,1)           -177.1837         estimate D2E/DX2                !
 ! D26   D(6,5,8,21)            -3.9861         estimate D2E/DX2                !
 ! D27   D(5,6,7,18)            54.7522         estimate D2E/DX2                !
 ! D28   D(5,6,7,19)           -69.8571         estimate D2E/DX2                !
 ! D29   D(5,6,7,20)           173.888          estimate D2E/DX2                !
 ! D30   D(4,9,10,11)            2.9074         estimate D2E/DX2                !
 ! D31   D(4,9,10,13)         -178.3325         estimate D2E/DX2                !
 ! D32   D(15,9,10,11)        -179.7467         estimate D2E/DX2                !
 ! D33   D(15,9,10,13)          -0.9866         estimate D2E/DX2                !
 ! D34   D(4,9,15,14)         -179.5147         estimate D2E/DX2                !
 ! D35   D(10,9,15,14)           2.8392         estimate D2E/DX2                !
 ! D36   D(9,10,11,12)        -177.0857         estimate D2E/DX2                !
 ! D37   D(13,10,11,12)          4.3703         estimate D2E/DX2                !
 ! D38   D(9,10,13,14)          -2.136          estimate D2E/DX2                !
 ! D39   D(9,10,13,25)        -178.831          estimate D2E/DX2                !
 ! D40   D(11,10,13,14)        176.4581         estimate D2E/DX2                !
 ! D41   D(11,10,13,25)         -0.2369         estimate D2E/DX2                !
 ! D42   D(10,11,12,22)         56.1617         estimate D2E/DX2                !
 ! D43   D(10,11,12,23)        -66.3284         estimate D2E/DX2                !
 ! D44   D(10,11,12,24)        179.9639         estimate D2E/DX2                !
 ! D45   D(10,13,14,15)          4.2224         estimate D2E/DX2                !
 ! D46   D(10,13,14,26)       -179.6839         estimate D2E/DX2                !
 ! D47   D(25,13,14,15)       -178.9886         estimate D2E/DX2                !
 ! D48   D(25,13,14,26)         -2.895          estimate D2E/DX2                !
 ! D49   D(13,14,15,9)          -4.2814         estimate D2E/DX2                !
 ! D50   D(26,14,15,9)         179.311          estimate D2E/DX2                !
 --------------------------------------------------------------------------------
 Trust Radius=3.00D-01 FncErr=1.00D-07 GrdErr=1.00D-06 EigMax=2.50D+02 EigMin=1.00D-04
 Number of steps in this run=    130 maximum allowed number of steps=    156.
 GradGradGradGradGradGradGradGradGradGradGradGradGradGradGradGradGradGrad

 Leave Link  103 at Fri Jul 24 22:26:48 2020, MaxMem=  4026531840 cpu:               0.1 elap:               0.0
 (Enter /opt/ohpc/pub/libs/gaussian/g16-A.03/sandybridge/g16/l202.exe)
                          Input orientation:                          
 ---------------------------------------------------------------------
 Center     Atomic      Atomic             Coordinates (Angstroms)
 Number     Number       Type             X           Y           Z
 ---------------------------------------------------------------------
      1          6           0       -3.439938   -0.775734    0.741976
      2          6           0       -2.527704   -1.749273    1.150854
      3          7           0       -1.155812   -1.605351    0.900883
      4          6           0       -0.733806   -0.625656    0.210110
      5          6           0       -1.554314    0.401907   -0.386401
      6          8           0       -1.037610    1.414358   -1.156721
      7          6           0       -1.839675    2.515094   -1.457521
      8          6           0       -2.980809    0.258410   -0.110133
      9          6           0        0.723041   -0.619860   -0.013079
     10          6           0        1.690791    0.333298    0.378743
     11          8           0        1.249807    1.447323    1.155516
     12          6           0        2.283407    2.348034    1.423250
     13          6           0        3.015352    0.013747   -0.053238
     14          6           0        3.005152   -1.165636   -0.698835
     15         16           0        1.414573   -1.820895   -0.886269
     16          1           0       -4.436633   -0.914733    0.944333
     17          1           0       -2.781369   -2.567708    1.743115
     18          1           0       -2.261500    3.007399   -0.580066
     19          1           0       -2.608482    2.134392   -2.154967
     20          1           0       -1.237057    3.252087   -1.974938
     21          1           0       -3.727232    0.998017   -0.454488
     22          1           0        2.801531    2.744984    0.618514
     23          1           0        3.038936    1.876403    2.083242
     24          1           0        1.819634    3.124276    2.004279
     25          1           0        3.847281    0.546251    0.132018
     26          1           0        3.886938   -1.696936   -1.155594
 ---------------------------------------------------------------------
                    Distance matrix (angstroms):
                    1          2          3          4          5
     1  C    0.000000
     2  C    1.395396   0.000000
     3  N    2.435313   1.401887   0.000000
     4  C    2.761984   2.316373   1.270850   0.000000
     5  C    2.493121   2.817484   2.417641   1.443934   0.000000
     6  O    3.764669   4.189731   3.656002   2.474304   1.373111
     7  C    4.269447   5.045972   4.796645   3.724010   2.386271
     8  C    1.416454   2.413749   2.797565   2.435806   1.460070
     9  C    4.233769   3.632858   2.310110   1.473856   2.523831
    10  C    5.261774   4.767490   3.483409   2.612796   3.334795
    11  O    5.206410   4.948519   3.894953   3.020886   3.366526
    12  C    6.555817   6.325260   5.265961   4.406599   4.668013
    13  C    6.551825   5.939996   4.574979   3.812397   4.598208
    14  C    6.615674   5.862975   4.479517   3.885559   4.831515
    15  S    5.225880   4.438079   3.138033   2.691872   3.742326
    16  H    1.026484   2.093590   3.353003   3.785971   3.436882
    17  H    2.155728   1.041612   2.068314   3.211570   3.854752
    18  H    4.177153   5.068814   4.969227   4.019616   2.706697
    19  H    4.189562   5.100768   5.043228   4.089727   2.690836
    20  H    5.334571   6.037379   5.645498   4.479351   3.278357
    21  H    2.158763   3.400528   3.902148   3.469669   2.254231
    22  H    7.167052   6.991600   5.887759   4.901695   5.047103
    23  H    7.128017   6.708379   5.578216   4.899235   5.419522
    24  H    6.668327   6.586286   5.695624   4.878636   4.950775
    25  H    7.431235   6.851853   5.500135   4.729252   5.428335
    26  H    7.624467   6.816896   5.446725   4.935997   5.882518
                    6          7          8          9         10
     6  O    0.000000
     7  C    1.394779   0.000000
     8  C    2.491502   2.865356   0.000000
     9  C    2.923329   4.299054   3.807792   0.000000
    10  C    3.312176   4.538314   4.697707   1.413710   0.000000
    11  O    3.252661   4.184853   4.573127   2.432353   1.427899
    12  C    4.307802   5.032550   5.867688   3.647763   2.345496
    13  C    4.427854   5.639152   6.001420   2.378605   1.429399
    14  C    4.817671   6.131535   6.181117   2.444619   2.266169
    15  S    4.068563   5.451354   4.923950   1.638036   2.513384
    16  H    4.625197   4.927150   2.146529   5.256027   6.278758
    17  H    5.225571   6.079945   3.385446   4.377124   5.502505
    18  H    2.090028   1.090976   2.880136   4.731381   4.867313
    19  H    1.995641   1.105635   2.799872   4.824172   5.305410
    20  H    2.021511   1.083525   3.934498   4.762651   4.757251
    21  H    2.810789   2.621158   1.105779   4.755765   5.521875
    22  H    4.434076   5.089554   6.336358   4.005147   2.665983
    23  H    5.227722   6.061829   6.608035   3.998657   2.665330
    24  H    4.591251   5.074022   5.977305   4.392130   3.232418
    25  H    5.126072   6.224504   6.838443   3.337925   2.180979
    26  H    5.825060   7.115227   7.216808   3.532093   3.361414
                   11         12         13         14         15
    11  O    0.000000
    12  C    1.396886   0.000000
    13  C    2.575534   2.857386   0.000000
    14  C    3.653411   4.167738   1.344561   0.000000
    15  S    3.857108   4.844452   2.573392   1.730444   0.000000
    16  H    6.161129   7.485583   7.575573   7.625163   6.197487
    17  H    5.719801   7.065323   6.594905   6.435274   5.007726
    18  H    4.216083   5.010411   6.089718   6.720562   6.076158
    19  H    5.130083   6.064640   6.367253   6.672585   5.782634
    20  H    4.386503   4.975808   5.680032   6.256281   5.826791
    21  H    5.250229   6.440204   6.825850   7.075740   5.879699
    22  H    2.092879   1.036157   2.820749   4.131564   5.003526
    23  H    2.060526   1.108535   2.834535   4.122511   5.012640
    24  H    1.963994   1.074817   3.916441   5.207266   5.742304
    25  H    2.933658   2.712822   1.004981   2.080878   3.543777
    26  H    4.709783   5.058016   2.213885   1.126257   2.490078
                   16         17         18         19         20
    16  H    0.000000
    17  H    2.471898   0.000000
    18  H    4.736889   6.062116   0.000000
    19  H    4.716456   6.110211   1.833808   0.000000
    20  H    6.010143   7.076640   1.747863   1.778330   0.000000
    21  H    2.473573   4.294009   2.490333   2.331218   3.686946
    22  H    8.117309   7.788337   5.209581   6.110095   4.826317
    23  H    8.060502   7.330877   6.038790   7.065572   6.053548
    24  H    7.521832   7.323668   4.831993   6.155275   5.019349
    25  H    8.450891   7.498758   6.624313   7.030602   6.132806
    26  H    8.619940   7.323051   7.763072   7.607122   7.170738
                   21         22         23         24         25
    21  H    0.000000
    22  H    6.843097   0.000000
    23  H    7.279606   1.719367   0.000000
    24  H    6.429171   1.740209   1.746459   0.000000
    25  H    7.610606   2.482881   2.495997   3.776629   0.000000
    26  H    8.107398   4.904714   4.896725   6.123939   2.586775
                   26
    26  H    0.000000
 Stoichiometry    C11H11NO2S
 Framework group  C1[X(C11H11NO2S)]
 Deg. of freedom    72
 Full point group                 C1      NOp   1
 Largest Abelian subgroup         C1      NOp   1
 Largest concise Abelian subgroup C1      NOp   1
                         Standard orientation:                         
 ---------------------------------------------------------------------
 Center     Atomic      Atomic             Coordinates (Angstroms)
 Number     Number       Type             X           Y           Z
 ---------------------------------------------------------------------
      1          6           0       -3.445708   -0.772965    0.737283
      2          6           0       -2.537628   -1.757209    1.129437
      3          7           0       -1.165705   -1.617174    0.877437
      4          6           0       -0.740361   -0.629982    0.199503
      5          6           0       -1.556970    0.410471   -0.379765
      6          8           0       -1.036983    1.431040   -1.137053
      7          6           0       -1.833884    2.540318   -1.419649
      8          6           0       -2.983415    0.270780   -0.101302
      9          6           0        0.715838   -0.628902   -0.027950
     10          6           0        1.689933    0.313267    0.374577
     11          8           0        1.257328    1.418420    1.168545
     12          6           0        2.296623    2.309570    1.446049
     13          6           0        3.011457   -0.007249   -0.065909
     14          6           0        2.992912   -1.177181   -0.728297
     15         16           0        1.398228   -1.821034   -0.920323
     16          1           0       -4.442554   -0.909434    0.940618
     17          1           0       -2.794039   -2.582662    1.710674
     18          1           0       -2.250441    3.022276   -0.533971
     19          1           0       -2.606799    2.173838   -2.120166
     20          1           0       -1.228754    3.281369   -1.928263
     21          1           0       -3.726781    1.019293   -0.432787
     22          1           0        2.814558    2.715197    0.645530
     23          1           0        3.051483    1.824427    2.096949
     24          1           0        1.838807    3.079910    2.039525
     25          1           0        3.846827    0.518016    0.124458
     26          1           0        3.870437   -1.706661   -1.195262
 ---------------------------------------------------------------------
 Rotational constants (GHZ):           0.7604191           0.4442282           0.3527770
 Leave Link  202 at Fri Jul 24 22:26:48 2020, MaxMem=  4026531840 cpu:               0.1 elap:               0.0
 (Enter /opt/ohpc/pub/libs/gaussian/g16-A.03/sandybridge/g16/l301.exe)
 Standard basis: CC-pVDZ (5D, 7F)
 Ernie: Thresh=  0.10000D-02 Tol=  0.10000D-05 Strict=F.
 Ernie:  38 primitive shells out of 413 were deleted.
 There are   284 symmetry adapted cartesian basis functions of A   symmetry.
 There are   269 symmetry adapted basis functions of A   symmetry.
   269 basis functions,   610 primitive gaussians,   284 cartesian basis functions
    58 alpha electrons       58 beta electrons
       nuclear repulsion energy      1087.2828961183 Hartrees.
 IExCor=32609 DFT=T Ex+Corr=LC-wPBE ExCW=0 ScaHFX=  1.000000
 ScaDFX=  1.000000  0.000000  1.000000  1.000000 ScalE2=  1.000000  1.000000
 IRadAn=      5 IRanWt=     -1 IRanGd=            0 ICorTp=0 IEmpDi=  4
 HFx  wShort=  0.000000 wLong=  0.156700 cFull=  0.000000 cShort=  0.000000 cLong=  1.000000
 DFx  wShort=  0.000000 wLong=  0.156700 cFull=  0.000000 cShort=  0.000000 cLong=  1.000000
 NAtoms=   26 NActive=   26 NUniq=   26 SFac= 1.00D+00 NAtFMM=   60 NAOKFM=F Big=F
 Integral buffers will be    131072 words long.
 Raffenetti 2 integral format.
 Two-electron integral symmetry is turned on.
 Leave Link  301 at Fri Jul 24 22:26:49 2020, MaxMem=  4026531840 cpu:               0.4 elap:               0.1
 (Enter /opt/ohpc/pub/libs/gaussian/g16-A.03/sandybridge/g16/l302.exe)
 NPDir=0 NMtPBC=     1 NCelOv=     1 NCel=       1 NClECP=     1 NCelD=      1
         NCelK=      1 NCelE2=     1 NClLst=     1 CellRange=     0.0.
 One-electron integrals computed using PRISM.
 One-electron integral symmetry used in STVInt
 NBasis=   269 RedAO= T EigKep=  7.50D-04  NBF=   269
 NBsUse=   269 1.00D-06 EigRej= -1.00D+00 NBFU=   269
 Precomputing XC quadrature grid using
 IXCGrd= 4 IRadAn=           5 IRanWt=          -1 IRanGd=           0 AccXCQ= 0.00D+00.
 Generated NRdTot=       0 NPtTot=           0 NUsed=           0 NTot=          32
 NSgBfM=   283   283   283   283   283 MxSgAt=    26 MxSgA2=    26.
 Leave Link  302 at Fri Jul 24 22:26:49 2020, MaxMem=  4026531840 cpu:               2.6 elap:               0.4
 (Enter /opt/ohpc/pub/libs/gaussian/g16-A.03/sandybridge/g16/l303.exe)
 DipDrv:  MaxL=1.
 Leave Link  303 at Fri Jul 24 22:26:49 2020, MaxMem=  4026531840 cpu:               0.4 elap:               0.1
 (Enter /opt/ohpc/pub/libs/gaussian/g16-A.03/sandybridge/g16/l401.exe)
 ExpMin= 1.22D-01 ExpMax= 1.11D+05 ExpMxC= 1.07D+03 IAcc=3 IRadAn=         5 AccDes= 0.00D+00
 Harris functional with IExCor=32609 and IRadAn=       5 diagonalized for initial guess.
 HarFok:  IExCor=32609 AccDes= 0.00D+00 IRadAn=         5 IDoV= 1 UseB2=F ITyADJ=14
 ICtDFT=  3500011 ScaDFX=  1.000000  1.000000  1.000000  1.000000
 FoFCou: FMM=F IPFlag=           0 FMFlag=      100000 FMFlg1=           0
         NFxFlg=           0 DoJE=T BraDBF=F KetDBF=T FulRan=T
         wScrn=  0.000000 ICntrl=       500 IOpCl=  0 I1Cent=   200000004 NGrid=           0
         NMat0=    1 NMatS0=      1 NMatT0=    0 NMatD0=    1 NMtDS0=    0 NMtDT0=    0
 Petite list used in FoFCou.
 Harris En= -1028.44398532099    
 JPrj=0 DoOrth=F DoCkMO=F.
 Initial guess <Sx>= 0.0000 <Sy>= 0.0000 <Sz>= 0.0000 <S**2>=-0.0000 S=-0.0000
 Leave Link  401 at Fri Jul 24 22:26:51 2020, MaxMem=  4026531840 cpu:              15.0 elap:               1.9
 (Enter /opt/ohpc/pub/libs/gaussian/g16-A.03/sandybridge/g16/l502.exe)
 Integral symmetry usage will be decided dynamically.
 UHF open shell SCF:
 Using DIIS extrapolation, IDIIS=  1040.
 NGot=  4026531840 LenX=  4026365180 LenY=  4026284083
 Requested convergence on RMS density matrix=1.00D-08 within 128 cycles.
 Requested convergence on MAX density matrix=1.00D-06.
 Requested convergence on             energy=1.00D-06.
 No special actions if energy rises.
 Fock matrices will be formed incrementally for  20 cycles.
 Integral accuracy reduced to 1.0D-05 until final iterations.

 Cycle   1  Pass 0  IDiag  1:
 FoFJK:  IHMeth= 1 ICntrl=       0 DoSepK=T KAlg= 0 I1Cent=           0 FoldK=F
 IRaf=         1 NMat=       1 IRICut=       1 DoRegI=T DoRafI=F ISym2E= 0 IDoP0=0 IntGTp=1.
 FoFCou: FMM=F IPFlag=           0 FMFlag=      100000 FMFlg1=           0
         NFxFlg=           0 DoJE=T BraDBF=F KetDBF=F FulRan=T
         wScrn=  0.000000 ICntrl=       500 IOpCl=  0 I1Cent=           0 NGrid=           0
         NMat0=    1 NMatS0=      1 NMatT0=    0 NMatD0=    1 NMtDS0=    0 NMtDT0=    0
 Symmetry not used in FoFCou.
 E= -1028.10354718862    
 DIIS: error= 2.22D-02 at cycle   1 NSaved=   1.
 NSaved= 1 IEnMin= 1 EnMin= -1028.10354718862     IErMin= 1 ErrMin= 2.22D-02
 ErrMax= 2.22D-02  0.00D+00 EMaxC= 1.00D-01 BMatC= 1.03D+00 BMatP= 1.03D+00
 IDIUse=3 WtCom= 7.78D-01 WtEn= 2.22D-01
 Coeff-Com:  0.100D+01
 Coeff-En:   0.100D+01
 Coeff:      0.100D+01
 Gap=     0.283 Goal=   None    Shift=    0.000
 Gap=     0.283 Goal=   None    Shift=    0.000
 GapD=    0.283 DampG=1.000 DampE=0.500 DampFc=0.5000 IDamp=-1.
 Damping current iteration by 5.00D-01
 RMSDP=4.18D-03 MaxDP=1.39D-01              OVMax= 2.10D-01

 Cycle   2  Pass 0  IDiag  1:
 RMSU=  2.08D-03    CP:  9.92D-01
 E= -1028.23771205316     Delta-E=       -0.134164864548 Rises=F Damp=T
 DIIS: error= 3.68D-03 at cycle   2 NSaved=   2.
 NSaved= 2 IEnMin= 2 EnMin= -1028.23771205316     IErMin= 2 ErrMin= 3.68D-03
 ErrMax= 3.68D-03  0.00D+00 EMaxC= 1.00D-01 BMatC= 5.11D-02 BMatP= 1.03D+00
 IDIUse=3 WtCom= 9.63D-01 WtEn= 3.68D-02
 Coeff-Com:  0.568D-01 0.943D+00
 Coeff-En:   0.685D-01 0.932D+00
 Coeff:      0.572D-01 0.943D+00
 Gap=     0.292 Goal=   None    Shift=    0.000
 Gap=     0.292 Goal=   None    Shift=    0.000
 RMSDP=9.98D-04 MaxDP=3.12D-02 DE=-1.34D-01 OVMax= 1.38D-01

 Cycle   3  Pass 0  IDiag  1:
 RMSU=  9.94D-04    CP:  9.88D-01  9.78D-01
 E= -1028.38752904756     Delta-E=       -0.149816994397 Rises=F Damp=F
 DIIS: error= 2.82D-03 at cycle   3 NSaved=   3.
 NSaved= 3 IEnMin= 3 EnMin= -1028.38752904756     IErMin= 3 ErrMin= 2.82D-03
 ErrMax= 2.82D-03  0.00D+00 EMaxC= 1.00D-01 BMatC= 3.17D-02 BMatP= 5.11D-02
 IDIUse=3 WtCom= 9.72D-01 WtEn= 2.82D-02
 Coeff-Com:  0.600D-03 0.430D+00 0.569D+00
 Coeff-En:   0.000D+00 0.000D+00 0.100D+01
 Coeff:      0.583D-03 0.418D+00 0.582D+00
 Gap=     0.262 Goal=   None    Shift=    0.000
 Gap=     0.262 Goal=   None    Shift=    0.000
 RMSDP=4.74D-04 MaxDP=1.71D-02 DE=-1.50D-01 OVMax= 4.43D-02

 Cycle   4  Pass 0  IDiag  1:
 RMSU=  3.28D-04    CP:  9.89D-01  1.03D+00  6.74D-01
 E= -1028.39437890958     Delta-E=       -0.006849862017 Rises=F Damp=F
 DIIS: error= 1.57D-03 at cycle   4 NSaved=   4.
 NSaved= 4 IEnMin= 4 EnMin= -1028.39437890958     IErMin= 4 ErrMin= 1.57D-03
 ErrMax= 1.57D-03  0.00D+00 EMaxC= 1.00D-01 BMatC= 6.73D-03 BMatP= 3.17D-02
 IDIUse=3 WtCom= 9.84D-01 WtEn= 1.57D-02
 Coeff-Com:  0.164D-02 0.105D+00 0.327D+00 0.566D+00
 Coeff-En:   0.000D+00 0.000D+00 0.157D+00 0.843D+00
 Coeff:      0.161D-02 0.104D+00 0.325D+00 0.570D+00
 Gap=     0.261 Goal=   None    Shift=    0.000
 Gap=     0.261 Goal=   None    Shift=    0.000
 RMSDP=1.68D-04 MaxDP=8.89D-03 DE=-6.85D-03 OVMax= 1.36D-02

 Cycle   5  Pass 0  IDiag  1:
 RMSU=  1.04D-04    CP:  9.89D-01  1.03D+00  7.62D-01  7.01D-01
 E= -1028.39598341687     Delta-E=       -0.001604507289 Rises=F Damp=F
 DIIS: error= 4.96D-04 at cycle   5 NSaved=   5.
 NSaved= 5 IEnMin= 5 EnMin= -1028.39598341687     IErMin= 5 ErrMin= 4.96D-04
 ErrMax= 4.96D-04  0.00D+00 EMaxC= 1.00D-01 BMatC= 5.57D-04 BMatP= 6.73D-03
 IDIUse=3 WtCom= 9.95D-01 WtEn= 4.96D-03
 Coeff-Com:  0.410D-02 0.492D-02 0.106D+00 0.286D+00 0.599D+00
 Coeff-En:   0.000D+00 0.000D+00 0.000D+00 0.000D+00 0.100D+01
 Coeff:      0.408D-02 0.490D-02 0.105D+00 0.285D+00 0.601D+00
 Gap=     0.263 Goal=   None    Shift=    0.000
 Gap=     0.263 Goal=   None    Shift=    0.000
 RMSDP=5.48D-05 MaxDP=2.13D-03 DE=-1.60D-03 OVMax= 3.72D-03

 Cycle   6  Pass 0  IDiag  1:
 RMSU=  4.13D-05    CP:  9.89D-01  1.02D+00  7.71D-01  7.66D-01  7.83D-01
 E= -1028.39611646780     Delta-E=       -0.000133050938 Rises=F Damp=F
 DIIS: error= 1.41D-04 at cycle   6 NSaved=   6.
 NSaved= 6 IEnMin= 6 EnMin= -1028.39611646780     IErMin= 6 ErrMin= 1.41D-04
 ErrMax= 1.41D-04  0.00D+00 EMaxC= 1.00D-01 BMatC= 5.91D-05 BMatP= 5.57D-04
 IDIUse=3 WtCom= 9.99D-01 WtEn= 1.41D-03
 Coeff-Com:  0.289D-02-0.139D-01 0.902D-02 0.636D-01 0.279D+00 0.659D+00
 Coeff-En:   0.000D+00 0.000D+00 0.000D+00 0.000D+00 0.000D+00 0.100D+01
 Coeff:      0.289D-02-0.139D-01 0.901D-02 0.635D-01 0.279D+00 0.660D+00
 Gap=     0.263 Goal=   None    Shift=    0.000
 Gap=     0.263 Goal=   None    Shift=    0.000
 RMSDP=1.87D-05 MaxDP=5.33D-04 DE=-1.33D-04 OVMax= 1.66D-03

 Cycle   7  Pass 0  IDiag  1:
 RMSU=  1.35D-05    CP:  9.89D-01  1.02D+00  7.79D-01  7.78D-01  8.73D-01
                    CP:  9.02D-01
 E= -1028.39613224653     Delta-E=       -0.000015778731 Rises=F Damp=F
 DIIS: error= 6.47D-05 at cycle   7 NSaved=   7.
 NSaved= 7 IEnMin= 7 EnMin= -1028.39613224653     IErMin= 7 ErrMin= 6.47D-05
 ErrMax= 6.47D-05  0.00D+00 EMaxC= 1.00D-01 BMatC= 7.39D-06 BMatP= 5.91D-05
 IDIUse=1 WtCom= 1.00D+00 WtEn= 0.00D+00
 Coeff-Com:  0.113D-02-0.715D-02-0.628D-02-0.259D-02 0.542D-01 0.298D+00
 Coeff-Com:  0.662D+00
 Coeff:      0.113D-02-0.715D-02-0.628D-02-0.259D-02 0.542D-01 0.298D+00
 Coeff:      0.662D+00
 Gap=     0.263 Goal=   None    Shift=    0.000
 Gap=     0.263 Goal=   None    Shift=    0.000
 RMSDP=8.07D-06 MaxDP=2.29D-04 DE=-1.58D-05 OVMax= 7.54D-04

 Initial convergence to 1.0D-05 achieved.  Increase integral accuracy.
 Cycle   8  Pass 1  IDiag  1:
 E= -1028.39596694486     Delta-E=        0.000165301679 Rises=F Damp=F
 DIIS: error= 5.80D-05 at cycle   1 NSaved=   1.
 NSaved= 1 IEnMin= 1 EnMin= -1028.39596694486     IErMin= 1 ErrMin= 5.80D-05
 ErrMax= 5.80D-05  0.00D+00 EMaxC= 1.00D-01 BMatC= 2.88D-06 BMatP= 2.88D-06
 IDIUse=1 WtCom= 1.00D+00 WtEn= 0.00D+00
 Coeff-Com:  0.100D+01
 Coeff:      0.100D+01
 Gap=     0.263 Goal=   None    Shift=    0.000
 Gap=     0.263 Goal=   None    Shift=    0.000
 RMSDP=8.07D-06 MaxDP=2.29D-04 DE= 1.65D-04 OVMax= 3.82D-04

 Cycle   9  Pass 1  IDiag  1:
 RMSU=  2.53D-05    CP:  1.00D+00
 E= -1028.39596729380     Delta-E=       -0.000000348941 Rises=F Damp=F
 DIIS: error= 3.14D-05 at cycle   2 NSaved=   2.
 NSaved= 2 IEnMin= 2 EnMin= -1028.39596729380     IErMin= 2 ErrMin= 3.14D-05
 ErrMax= 3.14D-05  0.00D+00 EMaxC= 1.00D-01 BMatC= 1.97D-06 BMatP= 2.88D-06
 IDIUse=1 WtCom= 1.00D+00 WtEn= 0.00D+00
 Coeff-Com:  0.438D+00 0.562D+00
 Coeff:      0.438D+00 0.562D+00
 Gap=     0.263 Goal=   None    Shift=    0.000
 Gap=     0.263 Goal=   None    Shift=    0.000
 RMSDP=3.44D-06 MaxDP=1.16D-04 DE=-3.49D-07 OVMax= 2.50D-04

 Cycle  10  Pass 1  IDiag  1:
 RMSU=  3.43D-06    CP:  1.00D+00  1.01D+00
 E= -1028.39596768025     Delta-E=       -0.000000386453 Rises=F Damp=F
 DIIS: error= 1.54D-05 at cycle   3 NSaved=   3.
 NSaved= 3 IEnMin= 3 EnMin= -1028.39596768025     IErMin= 3 ErrMin= 1.54D-05
 ErrMax= 1.54D-05  0.00D+00 EMaxC= 1.00D-01 BMatC= 4.47D-07 BMatP= 1.97D-06
 IDIUse=1 WtCom= 1.00D+00 WtEn= 0.00D+00
 Coeff-Com:  0.463D-02 0.316D+00 0.680D+00
 Coeff:      0.463D-02 0.316D+00 0.680D+00
 Gap=     0.263 Goal=   None    Shift=    0.000
 Gap=     0.263 Goal=   None    Shift=    0.000
 RMSDP=1.55D-06 MaxDP=3.87D-05 DE=-3.86D-07 OVMax= 1.11D-04

 Cycle  11  Pass 1  IDiag  1:
 RMSU=  9.73D-07    CP:  1.00D+00  1.05D+00  7.55D-01
 E= -1028.39596778796     Delta-E=       -0.000000107710 Rises=F Damp=F
 DIIS: error= 3.97D-06 at cycle   4 NSaved=   4.
 NSaved= 4 IEnMin= 4 EnMin= -1028.39596778796     IErMin= 4 ErrMin= 3.97D-06
 ErrMax= 3.97D-06  0.00D+00 EMaxC= 1.00D-01 BMatC= 4.57D-08 BMatP= 4.47D-07
 IDIUse=1 WtCom= 1.00D+00 WtEn= 0.00D+00
 Coeff-Com: -0.254D-01 0.146D+00 0.376D+00 0.503D+00
 Coeff:     -0.254D-01 0.146D+00 0.376D+00 0.503D+00
 Gap=     0.263 Goal=   None    Shift=    0.000
 Gap=     0.263 Goal=   None    Shift=    0.000
 RMSDP=4.53D-07 MaxDP=2.01D-05 DE=-1.08D-07 OVMax= 4.43D-05

 Cycle  12  Pass 1  IDiag  1:
 RMSU=  4.12D-07    CP:  1.00D+00  1.05D+00  7.97D-01  9.15D-01
 E= -1028.39596780057     Delta-E=       -0.000000012607 Rises=F Damp=F
 DIIS: error= 1.26D-06 at cycle   5 NSaved=   5.
 NSaved= 5 IEnMin= 5 EnMin= -1028.39596780057     IErMin= 5 ErrMin= 1.26D-06
 ErrMax= 1.26D-06  0.00D+00 EMaxC= 1.00D-01 BMatC= 2.80D-09 BMatP= 4.57D-08
 IDIUse=1 WtCom= 1.00D+00 WtEn= 0.00D+00
 Coeff-Com: -0.670D-02-0.951D-02-0.226D-01 0.127D+00 0.912D+00
 Coeff:     -0.670D-02-0.951D-02-0.226D-01 0.127D+00 0.912D+00
 Gap=     0.263 Goal=   None    Shift=    0.000
 Gap=     0.263 Goal=   None    Shift=    0.000
 RMSDP=2.63D-07 MaxDP=7.28D-06 DE=-1.26D-08 OVMax= 2.58D-05

 Cycle  13  Pass 1  IDiag  1:
 RMSU=  1.49D-07    CP:  1.00D+00  1.05D+00  8.00D-01  1.11D+00  1.21D+00
 E= -1028.39596781283     Delta-E=       -0.000000012259 Rises=F Damp=F
 DIIS: error= 7.81D-07 at cycle   6 NSaved=   6.
 NSaved= 6 IEnMin= 6 EnMin= -1028.39596781283     IErMin= 6 ErrMin= 7.81D-07
 ErrMax= 7.81D-07  0.00D+00 EMaxC= 1.00D-01 BMatC= 1.25D-09 BMatP= 2.80D-09
 IDIUse=1 WtCom= 1.00D+00 WtEn= 0.00D+00
 Coeff-Com:  0.293D-02-0.424D-01-0.113D+00-0.579D-01 0.542D+00 0.669D+00
 Coeff:      0.293D-02-0.424D-01-0.113D+00-0.579D-01 0.542D+00 0.669D+00
 Gap=     0.263 Goal=   None    Shift=    0.000
 Gap=     0.263 Goal=   None    Shift=    0.000
 RMSDP=1.38D-07 MaxDP=3.43D-06 DE=-1.23D-08 OVMax= 1.87D-05

 Cycle  14  Pass 1  IDiag  1:
 RMSU=  6.17D-08    CP:  1.00D+00  1.05D+00  8.10D-01  1.20D+00  1.40D+00
                    CP:  8.09D-01
 E= -1028.39596780286     Delta-E=        0.000000009964 Rises=F Damp=F
 DIIS: error= 2.17D-07 at cycle   7 NSaved=   7.
 NSaved= 7 IEnMin= 6 EnMin= -1028.39596781283     IErMin= 7 ErrMin= 2.17D-07
 ErrMax= 2.17D-07  0.00D+00 EMaxC= 1.00D-01 BMatC= 1.26D-10 BMatP= 1.25D-09
 IDIUse=1 WtCom= 1.00D+00 WtEn= 0.00D+00
 Coeff-Com:  0.218D-02-0.231D-01-0.618D-01-0.440D-01 0.210D+00 0.361D+00
 Coeff-Com:  0.555D+00
 Coeff:      0.218D-02-0.231D-01-0.618D-01-0.440D-01 0.210D+00 0.361D+00
 Coeff:      0.555D+00
 Gap=     0.263 Goal=   None    Shift=    0.000
 Gap=     0.263 Goal=   None    Shift=    0.000
 RMSDP=2.91D-08 MaxDP=9.31D-07 DE= 9.96D-09 OVMax= 2.21D-06

 Cycle  15  Pass 1  IDiag  1:
 RMSU=  1.77D-08    CP:  1.00D+00  1.05D+00  8.11D-01  1.21D+00  1.43D+00
                    CP:  8.87D-01  9.15D-01
 E= -1028.39596780288     Delta-E=       -0.000000000015 Rises=F Damp=F
 DIIS: error= 3.44D-08 at cycle   8 NSaved=   8.
 NSaved= 8 IEnMin= 6 EnMin= -1028.39596781283     IErMin= 8 ErrMin= 3.44D-08
 ErrMax= 3.44D-08  0.00D+00 EMaxC= 1.00D-01 BMatC= 4.97D-12 BMatP= 1.26D-10
 IDIUse=1 WtCom= 1.00D+00 WtEn= 0.00D+00
 Coeff-Com:  0.325D-03-0.206D-02-0.562D-02-0.576D-02 0.350D-03 0.388D-01
 Coeff-Com:  0.171D+00 0.803D+00
 Coeff:      0.325D-03-0.206D-02-0.562D-02-0.576D-02 0.350D-03 0.388D-01
 Coeff:      0.171D+00 0.803D+00
 Gap=     0.263 Goal=   None    Shift=    0.000
 Gap=     0.263 Goal=   None    Shift=    0.000
 RMSDP=9.02D-09 MaxDP=2.48D-07 DE=-1.55D-11 OVMax= 1.07D-06

 SCF Done:  E(ULC-wPBE) =  -1028.39596780     A.U. after   15 cycles
            NFock= 15  Conv=0.90D-08     -V/T= 2.0043
 <Sx>= 0.0000 <Sy>= 0.0000 <Sz>= 0.0000 <S**2>=-0.0000 S=-0.0000
 <L.S>= 0.000000000000E+00
 KE= 1.023971960782D+03 PE=-4.590983276037D+03 EE= 1.451332451334D+03
 Annihilation of the first spin contaminant:
 S**2 before annihilation    -0.0000,   after     0.0000
 Leave Link  502 at Fri Jul 24 22:28:23 2020, MaxMem=  4026531840 cpu:             735.9 elap:              92.3
 (Enter /opt/ohpc/pub/libs/gaussian/g16-A.03/sandybridge/g16/l601.exe)
 Copying SCF densities to generalized density rwf, IOpCl= 1 IROHF=0.

 **********************************************************************

            Population analysis using the SCF density.

 **********************************************************************

 Orbital symmetries:
 Alpha Orbitals:
       Occupied  (A) (A) (A) (A) (A) (A) (A) (A) (A) (A) (A) (A)
                 (A) (A) (A) (A) (A) (A) (A) (A) (A) (A) (A) (A)
                 (A) (A) (A) (A) (A) (A) (A) (A) (A) (A) (A) (A)
                 (A) (A) (A) (A) (A) (A) (A) (A) (A) (A) (A) (A)
                 (A) (A) (A) (A) (A) (A) (A) (A) (A) (A)
       Virtual   (A) (A) (A) (A) (A) (A) (A) (A) (A) (A) (A) (A)
                 (A) (A) (A) (A) (A) (A) (A) (A) (A) (A) (A) (A)
                 (A) (A) (A) (A) (A) (A) (A) (A) (A) (A) (A) (A)
                 (A) (A) (A) (A) (A) (A) (A) (A) (A) (A) (A) (A)
                 (A) (A) (A) (A) (A) (A) (A) (A) (A) (A) (A) (A)
                 (A) (A) (A) (A) (A) (A) (A) (A) (A) (A) (A) (A)
                 (A) (A) (A) (A) (A) (A) (A) (A) (A) (A) (A) (A)
                 (A) (A) (A) (A) (A) (A) (A) (A) (A) (A) (A) (A)
                 (A) (A) (A) (A) (A) (A) (A) (A) (A) (A) (A) (A)
                 (A) (A) (A) (A) (A) (A) (A) (A) (A) (A) (A) (A)
                 (A) (A) (A) (A) (A) (A) (A) (A) (A) (A) (A) (A)
                 (A) (A) (A) (A) (A) (A) (A) (A) (A) (A) (A) (A)
                 (A) (A) (A) (A) (A) (A) (A) (A) (A) (A) (A) (A)
                 (A) (A) (A) (A) (A) (A) (A) (A) (A) (A) (A) (A)
                 (A) (A) (A) (A) (A) (A) (A) (A) (A) (A) (A) (A)
                 (A) (A) (A) (A) (A) (A) (A) (A) (A) (A) (A) (A)
                 (A) (A) (A) (A) (A) (A) (A) (A) (A) (A) (A) (A)
                 (A) (A) (A) (A) (A) (A) (A)
 Beta  Orbitals:
       Occupied  (A) (A) (A) (A) (A) (A) (A) (A) (A) (A) (A) (A)
                 (A) (A) (A) (A) (A) (A) (A) (A) (A) (A) (A) (A)
                 (A) (A) (A) (A) (A) (A) (A) (A) (A) (A) (A) (A)
                 (A) (A) (A) (A) (A) (A) (A) (A) (A) (A) (A) (A)
                 (A) (A) (A) (A) (A) (A) (A) (A) (A) (A)
       Virtual   (A) (A) (A) (A) (A) (A) (A) (A) (A) (A) (A) (A)
                 (A) (A) (A) (A) (A) (A) (A) (A) (A) (A) (A) (A)
                 (A) (A) (A) (A) (A) (A) (A) (A) (A) (A) (A) (A)
                 (A) (A) (A) (A) (A) (A) (A) (A) (A) (A) (A) (A)
                 (A) (A) (A) (A) (A) (A) (A) (A) (A) (A) (A) (A)
                 (A) (A) (A) (A) (A) (A) (A) (A) (A) (A) (A) (A)
                 (A) (A) (A) (A) (A) (A) (A) (A) (A) (A) (A) (A)
                 (A) (A) (A) (A) (A) (A) (A) (A) (A) (A) (A) (A)
                 (A) (A) (A) (A) (A) (A) (A) (A) (A) (A) (A) (A)
                 (A) (A) (A) (A) (A) (A) (A) (A) (A) (A) (A) (A)
                 (A) (A) (A) (A) (A) (A) (A) (A) (A) (A) (A) (A)
                 (A) (A) (A) (A) (A) (A) (A) (A) (A) (A) (A) (A)
                 (A) (A) (A) (A) (A) (A) (A) (A) (A) (A) (A) (A)
                 (A) (A) (A) (A) (A) (A) (A) (A) (A) (A) (A) (A)
                 (A) (A) (A) (A) (A) (A) (A) (A) (A) (A) (A) (A)
                 (A) (A) (A) (A) (A) (A) (A) (A) (A) (A) (A) (A)
                 (A) (A) (A) (A) (A) (A) (A) (A) (A) (A) (A) (A)
                 (A) (A) (A) (A) (A) (A) (A)
 The electronic state is 1-A.
 Alpha  occ. eigenvalues --  -88.17550 -18.89448 -18.87423 -14.07520 -10.06059
 Alpha  occ. eigenvalues --  -10.04167 -10.03348 -10.02536 -10.01916 -10.00678
 Alpha  occ. eigenvalues --  -10.00633 -10.00374  -9.99275  -9.99212  -9.97758
 Alpha  occ. eigenvalues --   -7.78070  -5.80089  -5.79620  -5.79299  -1.07784
 Alpha  occ. eigenvalues --   -1.04629  -0.95179  -0.89698  -0.81199  -0.79620
 Alpha  occ. eigenvalues --   -0.76230  -0.74973  -0.72787  -0.69506  -0.65209
 Alpha  occ. eigenvalues --   -0.64484  -0.59162  -0.58452  -0.56906  -0.56105
 Alpha  occ. eigenvalues --   -0.53303  -0.51511  -0.51164  -0.49026  -0.48358
 Alpha  occ. eigenvalues --   -0.47601  -0.47050  -0.46250  -0.44796  -0.43555
 Alpha  occ. eigenvalues --   -0.42154  -0.41633  -0.41430  -0.38174  -0.37925
 Alpha  occ. eigenvalues --   -0.36809  -0.36258  -0.34219  -0.33139  -0.29800
 Alpha  occ. eigenvalues --   -0.28510  -0.27124  -0.24263
 Alpha virt. eigenvalues --    0.01994   0.02639   0.05276   0.09846   0.11261
 Alpha virt. eigenvalues --    0.12061   0.12714   0.13526   0.14444   0.15316
 Alpha virt. eigenvalues --    0.16046   0.16816   0.17501   0.18095   0.18441
 Alpha virt. eigenvalues --    0.18920   0.19729   0.20515   0.21343   0.21948
 Alpha virt. eigenvalues --    0.25311   0.27197   0.28401   0.31020   0.31956
 Alpha virt. eigenvalues --    0.33726   0.34623   0.38629   0.39937   0.40692
 Alpha virt. eigenvalues --    0.45158   0.46809   0.47617   0.48356   0.48410
 Alpha virt. eigenvalues --    0.48911   0.49377   0.49728   0.50380   0.50795
 Alpha virt. eigenvalues --    0.51806   0.52396   0.53034   0.53636   0.54238
 Alpha virt. eigenvalues --    0.54738   0.55527   0.56602   0.56800   0.57870
 Alpha virt. eigenvalues --    0.58265   0.59132   0.60380   0.61119   0.61991
 Alpha virt. eigenvalues --    0.63523   0.64142   0.65270   0.66217   0.66632
 Alpha virt. eigenvalues --    0.67481   0.67880   0.68050   0.68943   0.69898
 Alpha virt. eigenvalues --    0.70650   0.70798   0.73118   0.74011   0.75136
 Alpha virt. eigenvalues --    0.76058   0.77289   0.77595   0.79720   0.81417
 Alpha virt. eigenvalues --    0.82425   0.85092   0.87234   0.88409   0.90197
 Alpha virt. eigenvalues --    0.90810   0.92625   0.93344   0.93514   0.95554
 Alpha virt. eigenvalues --    0.96248   0.97678   0.97839   0.99445   1.00017
 Alpha virt. eigenvalues --    1.00538   1.02538   1.04086   1.04416   1.05585
 Alpha virt. eigenvalues --    1.06622   1.08062   1.09227   1.09734   1.11338
 Alpha virt. eigenvalues --    1.13933   1.15027   1.18677   1.19477   1.20365
 Alpha virt. eigenvalues --    1.23221   1.23383   1.25725   1.28297   1.30366
 Alpha virt. eigenvalues --    1.31102   1.33166   1.35917   1.38081   1.38738
 Alpha virt. eigenvalues --    1.40614   1.41852   1.43306   1.43916   1.44425
 Alpha virt. eigenvalues --    1.45579   1.49495   1.50681   1.51099   1.51430
 Alpha virt. eigenvalues --    1.52466   1.55886   1.56095   1.57934   1.59306
 Alpha virt. eigenvalues --    1.59865   1.60166   1.61538   1.63495   1.64525
 Alpha virt. eigenvalues --    1.64631   1.65703   1.66173   1.68273   1.68368
 Alpha virt. eigenvalues --    1.69712   1.70013   1.71402   1.72169   1.72628
 Alpha virt. eigenvalues --    1.73464   1.75592   1.76787   1.78637   1.80040
 Alpha virt. eigenvalues --    1.81089   1.82166   1.82994   1.86281   1.86811
 Alpha virt. eigenvalues --    1.88596   1.88949   1.90957   1.92869   1.94042
 Alpha virt. eigenvalues --    1.95658   1.98823   2.00215   2.03177   2.04733
 Alpha virt. eigenvalues --    2.05312   2.08007   2.08310   2.09478   2.09763
 Alpha virt. eigenvalues --    2.11448   2.13387   2.15579   2.17572   2.18188
 Alpha virt. eigenvalues --    2.22396   2.23734   2.27150   2.30008   2.32539
 Alpha virt. eigenvalues --    2.34973   2.39672   2.40901   2.44214   2.44609
 Alpha virt. eigenvalues --    2.46649   2.47046   2.47925   2.50756   2.51543
 Alpha virt. eigenvalues --    2.52255   2.53539   2.56159   2.62228   2.63129
 Alpha virt. eigenvalues --    2.69827   2.77028   2.86027   2.87656   2.92487
 Alpha virt. eigenvalues --    2.94414   3.00275   3.02610   3.03435   3.04127
 Alpha virt. eigenvalues --    3.07886   3.25583   3.30559   3.34223   3.46348
 Alpha virt. eigenvalues --    3.52222
  Beta  occ. eigenvalues --  -88.17550 -18.89448 -18.87423 -14.07520 -10.06059
  Beta  occ. eigenvalues --  -10.04167 -10.03348 -10.02536 -10.01916 -10.00678
  Beta  occ. eigenvalues --  -10.00633 -10.00374  -9.99275  -9.99212  -9.97758
  Beta  occ. eigenvalues --   -7.78070  -5.80089  -5.79620  -5.79299  -1.07784
  Beta  occ. eigenvalues --   -1.04629  -0.95179  -0.89698  -0.81199  -0.79620
  Beta  occ. eigenvalues --   -0.76230  -0.74973  -0.72787  -0.69506  -0.65209
  Beta  occ. eigenvalues --   -0.64484  -0.59162  -0.58452  -0.56906  -0.56105
  Beta  occ. eigenvalues --   -0.53303  -0.51511  -0.51164  -0.49026  -0.48358
  Beta  occ. eigenvalues --   -0.47601  -0.47050  -0.46250  -0.44796  -0.43555
  Beta  occ. eigenvalues --   -0.42154  -0.41633  -0.41430  -0.38174  -0.37925
  Beta  occ. eigenvalues --   -0.36809  -0.36258  -0.34219  -0.33139  -0.29800
  Beta  occ. eigenvalues --   -0.28510  -0.27124  -0.24263
  Beta virt. eigenvalues --    0.01994   0.02639   0.05276   0.09846   0.11261
  Beta virt. eigenvalues --    0.12061   0.12714   0.13526   0.14444   0.15316
  Beta virt. eigenvalues --    0.16046   0.16816   0.17501   0.18095   0.18441
  Beta virt. eigenvalues --    0.18920   0.19729   0.20515   0.21343   0.21948
  Beta virt. eigenvalues --    0.25311   0.27197   0.28401   0.31020   0.31956
  Beta virt. eigenvalues --    0.33726   0.34623   0.38629   0.39937   0.40692
  Beta virt. eigenvalues --    0.45158   0.46809   0.47617   0.48356   0.48410
  Beta virt. eigenvalues --    0.48911   0.49377   0.49728   0.50380   0.50795
  Beta virt. eigenvalues --    0.51806   0.52396   0.53034   0.53636   0.54238
  Beta virt. eigenvalues --    0.54738   0.55527   0.56602   0.56800   0.57870
  Beta virt. eigenvalues --    0.58265   0.59132   0.60380   0.61119   0.61991
  Beta virt. eigenvalues --    0.63523   0.64142   0.65270   0.66217   0.66632
  Beta virt. eigenvalues --    0.67481   0.67880   0.68050   0.68943   0.69898
  Beta virt. eigenvalues --    0.70650   0.70798   0.73118   0.74011   0.75136
  Beta virt. eigenvalues --    0.76058   0.77289   0.77595   0.79720   0.81417
  Beta virt. eigenvalues --    0.82425   0.85092   0.87234   0.88409   0.90197
  Beta virt. eigenvalues --    0.90810   0.92625   0.93344   0.93514   0.95554
  Beta virt. eigenvalues --    0.96248   0.97678   0.97839   0.99445   1.00017
  Beta virt. eigenvalues --    1.00538   1.02538   1.04086   1.04416   1.05585
  Beta virt. eigenvalues --    1.06622   1.08062   1.09227   1.09734   1.11338
  Beta virt. eigenvalues --    1.13933   1.15027   1.18677   1.19477   1.20365
  Beta virt. eigenvalues --    1.23221   1.23383   1.25725   1.28297   1.30366
  Beta virt. eigenvalues --    1.31102   1.33166   1.35917   1.38081   1.38738
  Beta virt. eigenvalues --    1.40614   1.41852   1.43306   1.43916   1.44425
  Beta virt. eigenvalues --    1.45579   1.49495   1.50681   1.51099   1.51430
  Beta virt. eigenvalues --    1.52466   1.55886   1.56095   1.57934   1.59306
  Beta virt. eigenvalues --    1.59865   1.60166   1.61538   1.63495   1.64525
  Beta virt. eigenvalues --    1.64631   1.65703   1.66173   1.68273   1.68368
  Beta virt. eigenvalues --    1.69712   1.70013   1.71402   1.72169   1.72628
  Beta virt. eigenvalues --    1.73464   1.75592   1.76787   1.78637   1.80040
  Beta virt. eigenvalues --    1.81089   1.82166   1.82994   1.86281   1.86811
  Beta virt. eigenvalues --    1.88596   1.88949   1.90957   1.92869   1.94042
  Beta virt. eigenvalues --    1.95658   1.98823   2.00215   2.03177   2.04733
  Beta virt. eigenvalues --    2.05312   2.08007   2.08310   2.09478   2.09763
  Beta virt. eigenvalues --    2.11448   2.13387   2.15579   2.17572   2.18188
  Beta virt. eigenvalues --    2.22396   2.23734   2.27150   2.30008   2.32539
  Beta virt. eigenvalues --    2.34973   2.39672   2.40901   2.44214   2.44609
  Beta virt. eigenvalues --    2.46649   2.47046   2.47925   2.50756   2.51543
  Beta virt. eigenvalues --    2.52255   2.53539   2.56159   2.62228   2.63129
  Beta virt. eigenvalues --    2.69827   2.77028   2.86027   2.87656   2.92487
  Beta virt. eigenvalues --    2.94414   3.00275   3.02610   3.03435   3.04127
  Beta virt. eigenvalues --    3.07886   3.25583   3.30559   3.34223   3.46348
  Beta virt. eigenvalues --    3.52222
          Condensed to atoms (all electrons):
               1          2          3          4          5          6
     1  C    4.747176   0.503672  -0.039230  -0.026055   0.002121   0.003329
     2  C    0.503672   4.692773   0.519944  -0.098526  -0.051753   0.000312
     3  N   -0.039230   0.519944   6.205599   0.647795  -0.052772   0.001227
     4  C   -0.026055  -0.098526   0.647795   5.079835   0.337510  -0.045158
     5  C    0.002121  -0.051753  -0.052772   0.337510   5.106232   0.418155
     6  O    0.003329   0.000312   0.001227  -0.045158   0.418155   7.626073
     7  C    0.000774   0.000000  -0.000106   0.004373  -0.072466   0.358997
     8  C    0.475545  -0.031134  -0.036159  -0.049637   0.377475  -0.061658
     9  C    0.002031   0.007178  -0.061584   0.190116  -0.122743   0.003405
    10  C   -0.000088   0.000174  -0.000417  -0.050007  -0.005898   0.003395
    11  O   -0.000011  -0.000001  -0.000288   0.007879   0.003479  -0.000604
    12  C    0.000000  -0.000001   0.000005  -0.000420  -0.000161   0.000053
    13  C   -0.000002   0.000010  -0.000238   0.011617   0.000505   0.000182
    14  C    0.000000   0.000005   0.000204   0.003470  -0.000175   0.000004
    15  S    0.000109  -0.000005   0.002465  -0.061484   0.005282  -0.000278
    16  H    0.377369  -0.040676   0.006298   0.000237   0.008820  -0.000051
    17  H   -0.052646   0.394473  -0.027578   0.000835   0.001832   0.000007
    18  H   -0.000078  -0.000080  -0.000032   0.001248  -0.003934  -0.028647
    19  H    0.000163  -0.000019  -0.000004  -0.000439  -0.010159  -0.038037
    20  H   -0.000023   0.000003   0.000005  -0.000213   0.003459  -0.017960
    21  H   -0.036144   0.008734  -0.000256   0.005980  -0.055474  -0.006266
    22  H    0.000000  -0.000000  -0.000002   0.000092   0.000035   0.000033
    23  H   -0.000000   0.000001  -0.000001   0.000038   0.000006  -0.000000
    24  H    0.000000  -0.000000   0.000002  -0.000049  -0.000013  -0.000003
    25  H    0.000000  -0.000000   0.000003  -0.000343   0.000025   0.000005
    26  H    0.000000  -0.000000  -0.000001  -0.000255   0.000007  -0.000000
               7          8          9         10         11         12
     1  C    0.000774   0.475545   0.002031  -0.000088  -0.000011   0.000000
     2  C    0.000000  -0.031134   0.007178   0.000174  -0.000001  -0.000001
     3  N   -0.000106  -0.036159  -0.061584  -0.000417  -0.000288   0.000005
     4  C    0.004373  -0.049637   0.190116  -0.050007   0.007879  -0.000420
     5  C   -0.072466   0.377475  -0.122743  -0.005898   0.003479  -0.000161
     6  O    0.358997  -0.061658   0.003405   0.003395  -0.000604   0.000053
     7  C    4.453805  -0.001213  -0.000390  -0.000086   0.000137   0.000012
     8  C   -0.001213   4.981444   0.004934   0.000742   0.000128  -0.000002
     9  C   -0.000390   0.004934   5.409823   0.518278  -0.072244   0.007793
    10  C   -0.000086   0.000742   0.518278   4.908669   0.418333  -0.072195
    11  O    0.000137   0.000128  -0.072244   0.418333   7.674135   0.368691
    12  C    0.000012  -0.000002   0.007793  -0.072195   0.368691   4.419444
    13  C   -0.000002   0.000022  -0.047948   0.351639  -0.062131  -0.005397
    14  C   -0.000001   0.000001  -0.085158  -0.017501   0.004029   0.000760
    15  S    0.000006  -0.000307   0.355433  -0.088669   0.003462  -0.000240
    16  H   -0.000030  -0.040412   0.000066  -0.000001  -0.000000  -0.000000
    17  H    0.000000   0.007647  -0.001318   0.000016   0.000001  -0.000000
    18  H    0.381363   0.008999   0.000164  -0.000004   0.000100  -0.000003
    19  H    0.387732   0.010433  -0.000061   0.000022   0.000004   0.000000
    20  H    0.397329  -0.000321  -0.000017  -0.000001   0.000006   0.000001
    21  H    0.006798   0.388304  -0.000382   0.000002   0.000007  -0.000000
    22  H   -0.000004   0.000000   0.001631  -0.007815  -0.027334   0.387012
    23  H    0.000001   0.000001   0.000276  -0.009321  -0.036380   0.385132
    24  H   -0.000002  -0.000001  -0.000611   0.005495  -0.021698   0.395552
    25  H    0.000000   0.000000   0.007814  -0.051195  -0.005046   0.005787
    26  H    0.000000  -0.000000   0.001736   0.008410  -0.000060   0.000012
              13         14         15         16         17         18
     1  C   -0.000002   0.000000   0.000109   0.377369  -0.052646  -0.000078
     2  C    0.000010   0.000005  -0.000005  -0.040676   0.394473  -0.000080
     3  N   -0.000238   0.000204   0.002465   0.006298  -0.027578  -0.000032
     4  C    0.011617   0.003470  -0.061484   0.000237   0.000835   0.001248
     5  C    0.000505  -0.000175   0.005282   0.008820   0.001832  -0.003934
     6  O    0.000182   0.000004  -0.000278  -0.000051   0.000007  -0.028647
     7  C   -0.000002  -0.000001   0.000006  -0.000030   0.000000   0.381363
     8  C    0.000022   0.000001  -0.000307  -0.040412   0.007647   0.008999
     9  C   -0.047948  -0.085158   0.355433   0.000066  -0.001318   0.000164
    10  C    0.351639  -0.017501  -0.088669  -0.000001   0.000016  -0.000004
    11  O   -0.062131   0.004029   0.003462  -0.000000   0.000001   0.000100
    12  C   -0.005397   0.000760  -0.000240  -0.000000  -0.000000  -0.000003
    13  C    4.789237   0.525514  -0.092172   0.000000  -0.000000  -0.000002
    14  C    0.525514   5.026571   0.381512  -0.000000  -0.000001   0.000000
    15  S   -0.092172   0.381512  15.336436  -0.000003  -0.000026   0.000003
    16  H    0.000000  -0.000000  -0.000003   0.757885  -0.010491   0.000016
    17  H   -0.000000  -0.000001  -0.000026  -0.010491   0.714816  -0.000001
    18  H   -0.000002   0.000000   0.000003   0.000016  -0.000001   0.675212
    19  H    0.000003  -0.000000  -0.000005   0.000018   0.000001  -0.044132
    20  H   -0.000001  -0.000001  -0.000001   0.000000   0.000000  -0.031016
    21  H   -0.000000   0.000000   0.000006  -0.015024  -0.000283   0.002772
    22  H    0.009473  -0.000184  -0.000153   0.000000   0.000000  -0.000003
    23  H    0.009917   0.000090  -0.000133  -0.000000   0.000000   0.000001
    24  H   -0.000246  -0.000047   0.000033   0.000000  -0.000000   0.000008
    25  H    0.400802  -0.055000   0.009269  -0.000000  -0.000000  -0.000000
    26  H   -0.021592   0.384871  -0.041915  -0.000000  -0.000000   0.000000
              19         20         21         22         23         24
     1  C    0.000163  -0.000023  -0.036144   0.000000  -0.000000   0.000000
     2  C   -0.000019   0.000003   0.008734  -0.000000   0.000001  -0.000000
     3  N   -0.000004   0.000005  -0.000256  -0.000002  -0.000001   0.000002
     4  C   -0.000439  -0.000213   0.005980   0.000092   0.000038  -0.000049
     5  C   -0.010159   0.003459  -0.055474   0.000035   0.000006  -0.000013
     6  O   -0.038037  -0.017960  -0.006266   0.000033  -0.000000  -0.000003
     7  C    0.387732   0.397329   0.006798  -0.000004   0.000001  -0.000002
     8  C    0.010433  -0.000321   0.388304   0.000000   0.000001  -0.000001
     9  C   -0.000061  -0.000017  -0.000382   0.001631   0.000276  -0.000611
    10  C    0.000022  -0.000001   0.000002  -0.007815  -0.009321   0.005495
    11  O    0.000004   0.000006   0.000007  -0.027334  -0.036380  -0.021698
    12  C    0.000000   0.000001  -0.000000   0.387012   0.385132   0.395552
    13  C    0.000003  -0.000001  -0.000000   0.009473   0.009917  -0.000246
    14  C   -0.000000  -0.000001   0.000000  -0.000184   0.000090  -0.000047
    15  S   -0.000005  -0.000001   0.000006  -0.000153  -0.000133   0.000033
    16  H    0.000018   0.000000  -0.015024   0.000000  -0.000000   0.000000
    17  H    0.000001   0.000000  -0.000283   0.000000   0.000000  -0.000000
    18  H   -0.044132  -0.031016   0.002772  -0.000003   0.000001   0.000008
    19  H    0.681579  -0.028353   0.001968   0.000000   0.000000  -0.000000
    20  H   -0.028353   0.635346  -0.000419   0.000008  -0.000000  -0.000000
    21  H    0.001968  -0.000419   0.703751  -0.000000   0.000000  -0.000000
    22  H    0.000000   0.000008  -0.000000   0.711617  -0.061069  -0.031969
    23  H    0.000000  -0.000000   0.000000  -0.061069   0.715295  -0.026436
    24  H   -0.000000  -0.000000  -0.000000  -0.031969  -0.026436   0.654453
    25  H    0.000000  -0.000000   0.000000   0.002316   0.002324  -0.000350
    26  H   -0.000000  -0.000000   0.000000   0.000006   0.000021  -0.000000
              25         26
     1  C    0.000000   0.000000
     2  C   -0.000000  -0.000000
     3  N    0.000003  -0.000001
     4  C   -0.000343  -0.000255
     5  C    0.000025   0.000007
     6  O    0.000005  -0.000000
     7  C    0.000000   0.000000
     8  C    0.000000  -0.000000
     9  C    0.007814   0.001736
    10  C   -0.051195   0.008410
    11  O   -0.005046  -0.000060
    12  C    0.005787   0.000012
    13  C    0.400802  -0.021592
    14  C   -0.055000   0.384871
    15  S    0.009269  -0.041915
    16  H   -0.000000  -0.000000
    17  H   -0.000000  -0.000000
    18  H   -0.000000   0.000000
    19  H    0.000000  -0.000000
    20  H   -0.000000  -0.000000
    21  H    0.000000   0.000000
    22  H    0.002316   0.000006
    23  H    0.002324   0.000021
    24  H   -0.000350  -0.000000
    25  H    0.755254  -0.010395
    26  H   -0.010395   0.656847
          Atomic-Atomic Spin Densities.
               1          2          3          4          5          6
     1  C    0.000000   0.000000   0.000000   0.000000  -0.000000   0.000000
     2  C    0.000000  -0.000000  -0.000000   0.000000   0.000000  -0.000000
     3  N    0.000000  -0.000000  -0.000000   0.000000   0.000000   0.000000
     4  C    0.000000   0.000000   0.000000  -0.000000   0.000000  -0.000000
     5  C   -0.000000   0.000000   0.000000   0.000000   0.000000   0.000000
     6  O    0.000000  -0.000000   0.000000  -0.000000   0.000000   0.000000
     7  C   -0.000000   0.000000  -0.000000   0.000000  -0.000000   0.000000
     8  C   -0.000000  -0.000000  -0.000000  -0.000000  -0.000000  -0.000000
     9  C    0.000000   0.000000  -0.000000  -0.000000  -0.000000   0.000000
    10  C   -0.000000  -0.000000  -0.000000   0.000000  -0.000000   0.000000
    11  O    0.000000   0.000000  -0.000000   0.000000   0.000000  -0.000000
    12  C   -0.000000   0.000000  -0.000000   0.000000  -0.000000   0.000000
    13  C   -0.000000  -0.000000   0.000000   0.000000   0.000000  -0.000000
    14  C    0.000000   0.000000  -0.000000  -0.000000  -0.000000   0.000000
    15  S   -0.000000  -0.000000  -0.000000  -0.000000   0.000000  -0.000000
    16  H    0.000000   0.000000  -0.000000  -0.000000   0.000000   0.000000
    17  H    0.000000  -0.000000   0.000000   0.000000   0.000000  -0.000000
    18  H   -0.000000  -0.000000   0.000000  -0.000000  -0.000000  -0.000000
    19  H   -0.000000   0.000000  -0.000000   0.000000  -0.000000  -0.000000
    20  H    0.000000  -0.000000  -0.000000  -0.000000   0.000000   0.000000
    21  H    0.000000  -0.000000   0.000000  -0.000000  -0.000000   0.000000
    22  H    0.000000  -0.000000  -0.000000   0.000000  -0.000000  -0.000000
    23  H   -0.000000   0.000000  -0.000000   0.000000   0.000000   0.000000
    24  H   -0.000000  -0.000000  -0.000000  -0.000000   0.000000  -0.000000
    25  H   -0.000000   0.000000   0.000000   0.000000   0.000000  -0.000000
    26  H    0.000000   0.000000  -0.000000  -0.000000  -0.000000   0.000000
               7          8          9         10         11         12
     1  C   -0.000000  -0.000000   0.000000  -0.000000   0.000000  -0.000000
     2  C    0.000000  -0.000000   0.000000  -0.000000   0.000000   0.000000
     3  N   -0.000000  -0.000000  -0.000000  -0.000000  -0.000000  -0.000000
     4  C    0.000000  -0.000000  -0.000000   0.000000   0.000000   0.000000
     5  C   -0.000000  -0.000000  -0.000000  -0.000000   0.000000  -0.000000
     6  O    0.000000  -0.000000   0.000000   0.000000  -0.000000   0.000000
     7  C    0.000000   0.000000  -0.000000   0.000000   0.000000   0.000000
     8  C    0.000000   0.000000  -0.000000   0.000000   0.000000   0.000000
     9  C   -0.000000  -0.000000   0.000000   0.000000   0.000000   0.000000
    10  C    0.000000   0.000000   0.000000  -0.000000   0.000000  -0.000000
    11  O    0.000000   0.000000   0.000000   0.000000  -0.000000  -0.000000
    12  C    0.000000   0.000000   0.000000  -0.000000  -0.000000   0.000000
    13  C    0.000000  -0.000000  -0.000000  -0.000000  -0.000000   0.000000
    14  C   -0.000000   0.000000   0.000000  -0.000000  -0.000000  -0.000000
    15  S    0.000000  -0.000000  -0.000000  -0.000000   0.000000  -0.000000
    16  H   -0.000000  -0.000000  -0.000000   0.000000   0.000000   0.000000
    17  H    0.000000  -0.000000  -0.000000   0.000000   0.000000   0.000000
    18  H   -0.000000   0.000000   0.000000  -0.000000   0.000000  -0.000000
    19  H    0.000000   0.000000  -0.000000   0.000000  -0.000000   0.000000
    20  H   -0.000000  -0.000000   0.000000  -0.000000   0.000000   0.000000
    21  H    0.000000   0.000000  -0.000000   0.000000  -0.000000  -0.000000
    22  H    0.000000  -0.000000  -0.000000  -0.000000   0.000000   0.000000
    23  H    0.000000   0.000000  -0.000000  -0.000000  -0.000000   0.000000
    24  H   -0.000000   0.000000   0.000000   0.000000   0.000000  -0.000000
    25  H    0.000000   0.000000   0.000000   0.000000   0.000000  -0.000000
    26  H   -0.000000   0.000000  -0.000000   0.000000   0.000000  -0.000000
              13         14         15         16         17         18
     1  C   -0.000000   0.000000  -0.000000   0.000000   0.000000  -0.000000
     2  C   -0.000000   0.000000  -0.000000   0.000000  -0.000000  -0.000000
     3  N    0.000000  -0.000000  -0.000000  -0.000000   0.000000   0.000000
     4  C    0.000000  -0.000000  -0.000000  -0.000000   0.000000  -0.000000
     5  C    0.000000  -0.000000   0.000000   0.000000   0.000000  -0.000000
     6  O   -0.000000   0.000000  -0.000000   0.000000  -0.000000  -0.000000
     7  C    0.000000  -0.000000   0.000000  -0.000000   0.000000  -0.000000
     8  C   -0.000000   0.000000  -0.000000  -0.000000  -0.000000   0.000000
     9  C   -0.000000   0.000000  -0.000000  -0.000000  -0.000000   0.000000
    10  C   -0.000000  -0.000000  -0.000000   0.000000   0.000000  -0.000000
    11  O   -0.000000  -0.000000   0.000000   0.000000   0.000000   0.000000
    12  C    0.000000  -0.000000  -0.000000   0.000000   0.000000  -0.000000
    13  C    0.000000  -0.000000  -0.000000  -0.000000   0.000000  -0.000000
    14  C   -0.000000  -0.000000  -0.000000   0.000000  -0.000000   0.000000
    15  S   -0.000000  -0.000000   0.000000  -0.000000  -0.000000  -0.000000
    16  H   -0.000000   0.000000  -0.000000  -0.000000   0.000000  -0.000000
    17  H    0.000000  -0.000000  -0.000000   0.000000   0.000000  -0.000000
    18  H   -0.000000   0.000000  -0.000000  -0.000000  -0.000000   0.000000
    19  H   -0.000000   0.000000  -0.000000  -0.000000   0.000000  -0.000000
    20  H    0.000000  -0.000000   0.000000   0.000000  -0.000000  -0.000000
    21  H    0.000000  -0.000000  -0.000000   0.000000  -0.000000   0.000000
    22  H    0.000000   0.000000   0.000000   0.000000   0.000000   0.000000
    23  H    0.000000  -0.000000   0.000000   0.000000   0.000000  -0.000000
    24  H   -0.000000   0.000000  -0.000000  -0.000000  -0.000000   0.000000
    25  H   -0.000000   0.000000  -0.000000  -0.000000   0.000000  -0.000000
    26  H   -0.000000  -0.000000  -0.000000  -0.000000  -0.000000   0.000000
              19         20         21         22         23         24
     1  C   -0.000000   0.000000   0.000000   0.000000  -0.000000  -0.000000
     2  C    0.000000  -0.000000  -0.000000  -0.000000   0.000000  -0.000000
     3  N   -0.000000  -0.000000   0.000000  -0.000000  -0.000000  -0.000000
     4  C    0.000000  -0.000000  -0.000000   0.000000   0.000000  -0.000000
     5  C   -0.000000   0.000000  -0.000000  -0.000000   0.000000   0.000000
     6  O   -0.000000   0.000000   0.000000  -0.000000   0.000000  -0.000000
     7  C    0.000000  -0.000000   0.000000   0.000000   0.000000  -0.000000
     8  C    0.000000  -0.000000   0.000000  -0.000000   0.000000   0.000000
     9  C   -0.000000   0.000000  -0.000000  -0.000000  -0.000000   0.000000
    10  C    0.000000  -0.000000   0.000000  -0.000000  -0.000000   0.000000
    11  O   -0.000000   0.000000  -0.000000   0.000000  -0.000000   0.000000
    12  C    0.000000   0.000000  -0.000000   0.000000   0.000000  -0.000000
    13  C   -0.000000   0.000000   0.000000   0.000000   0.000000  -0.000000
    14  C    0.000000  -0.000000  -0.000000   0.000000  -0.000000   0.000000
    15  S   -0.000000   0.000000  -0.000000   0.000000   0.000000  -0.000000
    16  H   -0.000000   0.000000   0.000000   0.000000   0.000000  -0.000000
    17  H    0.000000  -0.000000  -0.000000   0.000000   0.000000  -0.000000
    18  H   -0.000000  -0.000000   0.000000   0.000000  -0.000000   0.000000
    19  H   -0.000000  -0.000000   0.000000  -0.000000   0.000000   0.000000
    20  H   -0.000000  -0.000000  -0.000000   0.000000  -0.000000   0.000000
    21  H    0.000000  -0.000000  -0.000000   0.000000  -0.000000  -0.000000
    22  H   -0.000000   0.000000   0.000000  -0.000000   0.000000   0.000000
    23  H    0.000000  -0.000000  -0.000000   0.000000  -0.000000   0.000000
    24  H    0.000000   0.000000  -0.000000   0.000000   0.000000  -0.000000
    25  H   -0.000000   0.000000   0.000000  -0.000000   0.000000  -0.000000
    26  H   -0.000000  -0.000000  -0.000000  -0.000000  -0.000000   0.000000
              25         26
     1  C   -0.000000   0.000000
     2  C    0.000000   0.000000
     3  N    0.000000  -0.000000
     4  C    0.000000  -0.000000
     5  C    0.000000  -0.000000
     6  O   -0.000000   0.000000
     7  C    0.000000  -0.000000
     8  C    0.000000   0.000000
     9  C    0.000000  -0.000000
    10  C    0.000000   0.000000
    11  O    0.000000   0.000000
    12  C   -0.000000  -0.000000
    13  C   -0.000000  -0.000000
    14  C    0.000000  -0.000000
    15  S   -0.000000  -0.000000
    16  H   -0.000000  -0.000000
    17  H    0.000000  -0.000000
    18  H   -0.000000   0.000000
    19  H   -0.000000  -0.000000
    20  H    0.000000  -0.000000
    21  H    0.000000  -0.000000
    22  H   -0.000000  -0.000000
    23  H    0.000000  -0.000000
    24  H   -0.000000   0.000000
    25  H   -0.000000   0.000000
    26  H    0.000000   0.000000
 Mulliken charges and spin densities:
               1          2
     1  C    0.041988   0.000000
     2  C    0.094917  -0.000000
     3  N   -0.164879   0.000000
     4  C    0.041562  -0.000000
     5  C    0.110606   0.000000
     6  O   -0.216515  -0.000000
     7  C    0.082970   0.000000
     8  C   -0.034831  -0.000000
     9  C   -0.118222   0.000000
    10  C    0.088023  -0.000000
    11  O   -0.254594   0.000000
    12  C    0.108162   0.000000
    13  C    0.130810   0.000000
    14  C   -0.168964  -0.000000
    15  S    0.191375   0.000000
    16  H   -0.044020  -0.000000
    17  H   -0.027283  -0.000000
    18  H    0.038046  -0.000000
    19  H    0.039286  -0.000000
    20  H    0.042169  -0.000000
    21  H   -0.004076  -0.000000
    22  H    0.016310  -0.000000
    23  H    0.020238  -0.000000
    24  H    0.025883  -0.000000
    25  H   -0.061270  -0.000000
    26  H    0.022309   0.000000
 Sum of Mulliken charges =  -0.00000   0.00000
 Mulliken charges and spin densities with hydrogens summed into heavy atoms:
               1          2
     1  C   -0.002032   0.000000
     2  C    0.067634  -0.000000
     3  N   -0.164879   0.000000
     4  C    0.041562  -0.000000
     5  C    0.110606   0.000000
     6  O   -0.216515  -0.000000
     7  C    0.202471   0.000000
     8  C   -0.038906  -0.000000
     9  C   -0.118222   0.000000
    10  C    0.088023  -0.000000
    11  O   -0.254594   0.000000
    12  C    0.170593  -0.000000
    13  C    0.069540   0.000000
    14  C   -0.146655  -0.000000
    15  S    0.191375   0.000000
 Electronic spatial extent (au):  <R**2>=           3407.5266
 Charge=             -0.0000 electrons
 Dipole moment (field-independent basis, Debye):
    X=             -0.7604    Y=              3.0949    Z=             -0.8766  Tot=              3.3053
 Quadrupole moment (field-independent basis, Debye-Ang):
   XX=            -75.7995   YY=            -86.5936   ZZ=            -94.3099
   XY=             -0.2623   XZ=              0.7342   YZ=              0.0065
 Traceless Quadrupole moment (field-independent basis, Debye-Ang):
   XX=              9.7682   YY=             -1.0259   ZZ=             -8.7423
   XY=             -0.2623   XZ=              0.7342   YZ=              0.0065
 Octapole moment (field-independent basis, Debye-Ang**2):
  XXX=              0.5889  YYY=             41.8887  ZZZ=             -1.7717  XYY=             -2.3065
  XXY=             10.8788  XXZ=              1.9331  XZZ=             -0.9892  YZZ=              9.7529
  YYZ=             -5.3662  XYZ=             20.9754
 Hexadecapole moment (field-independent basis, Debye-Ang**3):
 XXXX=          -2408.8482 YYYY=          -1273.9743 ZZZZ=           -577.3006 XXXY=              8.1867
 XXXZ=            -27.5321 YYYX=             -2.2255 YYYZ=             -8.4540 ZZZX=             21.8731
 ZZZY=             -3.2177 XXYY=           -602.0832 XXZZ=           -531.4432 YYZZ=           -289.7047
 XXYZ=             -1.0914 YYXZ=              6.1811 ZZXY=              2.4735
 N-N= 1.087282896118D+03 E-N=-4.590983266648D+03  KE= 1.023971960782D+03
                          Isotropic Fermi Contact Couplings
        Atom                 a.u.       MegaHertz       Gauss      10(-4) cm-1
     1  C(13)              0.00000       0.00000       0.00000       0.00000
[...]
    10  C   -0.000000  -0.000000   0.000000  -0.000000  -0.000000   0.000000
    11  O    0.000000  -0.000000   0.000000  -0.000000  -0.000000  -0.000000
    12  C    0.000000   0.000000  -0.000000   0.000000   0.000000  -0.000000
    13  C    0.000000  -0.000000   0.000000   0.000000   0.000000  -0.000000
    14  C   -0.000000  -0.000000  -0.000000  -0.000000   0.000000  -0.000000
    15  S    0.000000   0.000000  -0.000000   0.000000   0.000000   0.000000
    16  H    0.000000  -0.000000  -0.000000  -0.000000  -0.000000   0.000000
    17  H    0.000000   0.000000   0.000000  -0.000000   0.000000  -0.000000
    18  H   -0.000000  -0.000000   0.000000  -0.000000  -0.000000   0.000000
    19  H   -0.000000  -0.000000  -0.000000   0.000000   0.000000  -0.000000
    20  H   -0.000000   0.000000   0.000000   0.000000  -0.000000  -0.000000
    21  H   -0.000000   0.000000  -0.000000   0.000000   0.000000  -0.000000
    22  H    0.000000   0.000000   0.000000  -0.000000   0.000000   0.000000
    23  H    0.000000  -0.000000   0.000000   0.000000  -0.000000  -0.000000
    24  H   -0.000000  -0.000000  -0.000000   0.000000  -0.000000   0.000000
    25  H    0.000000   0.000000  -0.000000   0.000000  -0.000000   0.000000
    26  H   -0.000000   0.000000  -0.000000  -0.000000   0.000000  -0.000000
              25         26
     1  C    0.000000   0.000000
     2  C   -0.000000   0.000000
     3  N   -0.000000  -0.000000
     4  C    0.000000   0.000000
     5  C   -0.000000   0.000000
     6  O    0.000000  -0.000000
     7  C    0.000000   0.000000
     8  C   -0.000000  -0.000000
     9  C   -0.000000   0.000000
    10  C    0.000000  -0.000000
    11  O    0.000000   0.000000
    12  C   -0.000000  -0.000000
    13  C    0.000000  -0.000000
    14  C   -0.000000   0.000000
    15  S   -0.000000   0.000000
    16  H    0.000000   0.000000
    17  H    0.000000  -0.000000
    18  H   -0.000000   0.000000
    19  H    0.000000  -0.000000
    20  H    0.000000   0.000000
    21  H   -0.000000  -0.000000
    22  H    0.000000  -0.000000
    23  H   -0.000000   0.000000
    24  H    0.000000  -0.000000
    25  H   -0.000000   0.000000
    26  H    0.000000  -0.000000
 Mulliken charges and spin densities:
               1          2
     1  C   -0.025050   0.000000
     2  C    0.079570  -0.000000
     3  N   -0.197624   0.000000
     4  C    0.078571  -0.000000
     5  C    0.107855  -0.000000
     6  O   -0.217663  -0.000000
     7  C    0.060214   0.000000
     8  C    0.016355   0.000000
     9  C   -0.166895   0.000000
    10  C    0.132366  -0.000000
    11  O   -0.227702  -0.000000
    12  C    0.059183  -0.000000
    13  C    0.018268   0.000000
    14  C   -0.125837  -0.000000
    15  S    0.186199  -0.000000
    16  H   -0.018606   0.000000
    17  H   -0.006035   0.000000
    18  H    0.043087   0.000000
    19  H    0.042808  -0.000000
    20  H    0.048582  -0.000000
    21  H   -0.013235   0.000000
    22  H    0.039939  -0.000000
    23  H    0.041588  -0.000000
    24  H    0.043402   0.000000
    25  H   -0.014768   0.000000
    26  H    0.015427  -0.000000
 Sum of Mulliken charges =  -0.00000  -0.00000
 Mulliken charges and spin densities with hydrogens summed into heavy atoms:
               1          2
     1  C   -0.043656   0.000000
     2  C    0.073535  -0.000000
     3  N   -0.197624   0.000000
     4  C    0.078571  -0.000000
     5  C    0.107855  -0.000000
     6  O   -0.217663  -0.000000
     7  C    0.194692  -0.000000
     8  C    0.003120   0.000000
     9  C   -0.166895   0.000000
    10  C    0.132366  -0.000000
    11  O   -0.227702  -0.000000
    12  C    0.184112  -0.000000
    13  C    0.003500   0.000000
    14  C   -0.110410  -0.000000
    15  S    0.186199  -0.000000
 Electronic spatial extent (au):  <R**2>=           3453.5770
 Charge=             -0.0000 electrons
 Dipole moment (field-independent basis, Debye):
    X=             -0.2102    Y=              3.7477    Z=             -0.3893  Tot=              3.7737
 Quadrupole moment (field-independent basis, Debye-Ang):
   XX=            -75.9224   YY=            -85.1710   ZZ=            -96.0735
   XY=             -0.6461   XZ=              1.3521   YZ=              0.4371
 Traceless Quadrupole moment (field-independent basis, Debye-Ang):
   XX=              9.7999   YY=              0.5513   ZZ=            -10.3512
   XY=             -0.6461   XZ=              1.3521   YZ=              0.4371
 Octapole moment (field-independent basis, Debye-Ang**2):
  XXX=              3.8487  YYY=             47.7006  ZZZ=             -0.9639  XYY=              2.1084
  XXY=             11.5830  XXZ=              1.7832  XZZ=              0.6029  YZZ=             11.1244
  YYZ=             -3.8552  XYZ=             15.8726
 Hexadecapole moment (field-independent basis, Debye-Ang**3):
 XXXX=          -2480.7240 YYYY=          -1510.5011 ZZZZ=           -322.5252 XXXY=             -4.0215
 XXXZ=            -15.6443 YYYX=             -0.6750 YYYZ=             -0.2297 ZZZX=             22.2230
 ZZZY=             -0.4907 XXYY=           -629.7578 XXZZ=           -524.6351 YYZZ=           -307.4606
 XXYZ=              3.1547 YYXZ=              6.9865 ZZXY=              1.8608
 N-N= 1.086267475928D+03 E-N=-4.588632827118D+03  KE= 1.023370749271D+03
                          Isotropic Fermi Contact Couplings
        Atom                 a.u.       MegaHertz       Gauss      10(-4) cm-1
     1  C(13)              0.00000       0.00000       0.00000       0.00000
     2  C(13)             -0.00000      -0.00000      -0.00000      -0.00000
     3  N(14)             -0.00000      -0.00000      -0.00000      -0.00000
     4  C(13)             -0.00000      -0.00000      -0.00000      -0.00000
     5  C(13)              0.00000       0.00000       0.00000       0.00000
     6  O(17)              0.00000      -0.00000      -0.00000      -0.00000
     7  C(13)             -0.00000      -0.00000      -0.00000      -0.00000
     8  C(13)              0.00000       0.00000       0.00000       0.00000
     9  C(13)             -0.00000      -0.00000      -0.00000      -0.00000
    10  C(13)             -0.00000      -0.00000      -0.00000      -0.00000
    11  O(17)              0.00000      -0.00000      -0.00000      -0.00000
    12  C(13)             -0.00000      -0.00000      -0.00000      -0.00000
    13  C(13)              0.00000       0.00000       0.00000       0.00000
    14  C(13)             -0.00000      -0.00000      -0.00000      -0.00000
    15  S(33)             -0.00000      -0.00000      -0.00000      -0.00000
    16  H(1)               0.00000       0.00000       0.00000       0.00000
    17  H(1)               0.00000       0.00000       0.00000       0.00000
    18  H(1)               0.00000       0.00000       0.00000       0.00000
    19  H(1)              -0.00000      -0.00000      -0.00000      -0.00000
    20  H(1)              -0.00000      -0.00000      -0.00000      -0.00000
    21  H(1)              -0.00000      -0.00000      -0.00000      -0.00000
    22  H(1)              -0.00000      -0.00000      -0.00000      -0.00000
    23  H(1)              -0.00000      -0.00000      -0.00000      -0.00000
    24  H(1)               0.00000       0.00000       0.00000       0.00000
    25  H(1)              -0.00000      -0.00000      -0.00000      -0.00000
    26  H(1)              -0.00000      -0.00000      -0.00000      -0.00000
 --------------------------------------------------------
       Center         ----  Spin Dipole Couplings  ----
                      3XX-RR        3YY-RR        3ZZ-RR
 --------------------------------------------------------
     1   Atom        0.000000      0.000000     -0.000000
     2   Atom        0.000000     -0.000000     -0.000000
     3   Atom        0.000000     -0.000000     -0.000000
     4   Atom       -0.000000      0.000000      0.000000
     5   Atom        0.000000     -0.000000     -0.000000
     6   Atom        0.000000     -0.000000      0.000000
     7   Atom       -0.000000      0.000000      0.000000
     8   Atom       -0.000000      0.000000     -0.000000
     9   Atom       -0.000000      0.000000      0.000000
    10   Atom       -0.000000      0.000000      0.000000
    11   Atom        0.000000     -0.000000     -0.000000
    12   Atom        0.000000     -0.000000      0.000000
    13   Atom        0.000000     -0.000000     -0.000000
    14   Atom        0.000000     -0.000000     -0.000000
    15   Atom       -0.000000      0.000000      0.000000
    16   Atom        0.000000     -0.000000     -0.000000
    17   Atom        0.000000      0.000000     -0.000000
    18   Atom       -0.000000      0.000000      0.000000
    19   Atom        0.000000     -0.000000      0.000000
    20   Atom        0.000000     -0.000000     -0.000000
    21   Atom        0.000000      0.000000     -0.000000
    22   Atom       -0.000000     -0.000000      0.000000
    23   Atom       -0.000000     -0.000000      0.000000
    24   Atom        0.000000     -0.000000     -0.000000
    25   Atom        0.000000      0.000000     -0.000000
    26   Atom       -0.000000      0.000000     -0.000000
 --------------------------------------------------------
                        XY            XZ            YZ
 --------------------------------------------------------
     1   Atom        0.000000     -0.000000     -0.000000
     2   Atom        0.000000      0.000000      0.000000
     3   Atom        0.000000     -0.000000     -0.000000
     4   Atom        0.000000      0.000000     -0.000000
     5   Atom       -0.000000      0.000000     -0.000000
     6   Atom       -0.000000     -0.000000     -0.000000
     7   Atom        0.000000      0.000000     -0.000000
     8   Atom       -0.000000      0.000000     -0.000000
     9   Atom       -0.000000      0.000000     -0.000000
    10   Atom       -0.000000     -0.000000     -0.000000
    11   Atom        0.000000      0.000000      0.000000
    12   Atom        0.000000      0.000000     -0.000000
    13   Atom        0.000000     -0.000000      0.000000
    14   Atom        0.000000      0.000000     -0.000000
    15   Atom        0.000000      0.000000      0.000000
    16   Atom        0.000000     -0.000000     -0.000000
    17   Atom        0.000000     -0.000000     -0.000000
    18   Atom        0.000000      0.000000     -0.000000
    19   Atom        0.000000      0.000000      0.000000
    20   Atom        0.000000      0.000000      0.000000
    21   Atom       -0.000000      0.000000     -0.000000
    22   Atom        0.000000      0.000000     -0.000000
    23   Atom        0.000000     -0.000000      0.000000
    24   Atom        0.000000      0.000000     -0.000000
    25   Atom        0.000000      0.000000      0.000000
    26   Atom       -0.000000     -0.000000      0.000000
 --------------------------------------------------------


 ---------------------------------------------------------------------------------
              Anisotropic Spin Dipole Couplings in Principal Axis System
 ---------------------------------------------------------------------------------

       Atom             a.u.   MegaHertz   Gauss  10(-4) cm-1        Axes

              Baa    -0.0000    -0.000    -0.000    -0.000  0.0215  0.5084  0.8608
     1 C(13)  Bbb    -0.0000    -0.000    -0.000    -0.000  0.7400 -0.5870  0.3282
              Bcc     0.0000     0.000     0.000     0.000  0.6722  0.6300 -0.3889
 
              Baa    -0.0000    -0.000    -0.000    -0.000 -0.2478  0.9458 -0.2100
     2 C(13)  Bbb    -0.0000    -0.000    -0.000    -0.000 -0.1571  0.1746  0.9720
              Bcc     0.0000     0.000     0.000     0.000  0.9560  0.2739  0.1053
 
              Baa    -0.0000    -0.000    -0.000    -0.000 -0.3926  0.9116 -0.1221
     3 N(14)  Bbb    -0.0000    -0.000    -0.000    -0.000  0.0540  0.1554  0.9864
              Bcc     0.0000     0.000     0.000     0.000  0.9181  0.3807 -0.1103
 
              Baa    -0.0000    -0.000    -0.000    -0.000  0.9440 -0.2112 -0.2534
     4 C(13)  Bbb     0.0000     0.000     0.000     0.000  0.3277  0.5121  0.7940
              Bcc     0.0000     0.000     0.000     0.000  0.0379  0.8326 -0.5526
 
              Baa    -0.0000    -0.000    -0.000    -0.000  0.0364  0.3997  0.9159
     5 C(13)  Bbb    -0.0000    -0.000    -0.000    -0.000  0.1517  0.9037 -0.4004
              Bcc     0.0000     0.000     0.000     0.000  0.9878 -0.1535  0.0277
 
              Baa    -0.0000     0.000     0.000     0.000  0.0969  0.9025  0.4196
     6 O(17)  Bbb     0.0000    -0.000    -0.000    -0.000  0.3318 -0.4268  0.8413
              Bcc     0.0000    -0.000    -0.000    -0.000  0.9384  0.0577 -0.3407
 
              Baa    -0.0000    -0.000    -0.000    -0.000 -0.6169  0.4134  0.6697
     7 C(13)  Bbb     0.0000     0.000     0.000     0.000  0.5554  0.8316 -0.0016
              Bcc     0.0000     0.000     0.000     0.000  0.5576 -0.3710  0.7426
 
              Baa    -0.0000    -0.000    -0.000    -0.000  0.8230  0.4837 -0.2980
     8 C(13)  Bbb    -0.0000    -0.000    -0.000    -0.000  0.1633  0.3010  0.9395
              Bcc     0.0000     0.000     0.000     0.000 -0.5441  0.8219 -0.1687
 
              Baa    -0.0000    -0.000    -0.000    -0.000  0.9846  0.1693 -0.0437
     9 C(13)  Bbb     0.0000     0.000     0.000     0.000 -0.1161  0.8199  0.5606
              Bcc     0.0000     0.000     0.000     0.000  0.1308 -0.5468  0.8270
 
              Baa    -0.0000    -0.000    -0.000    -0.000  0.9083  0.3850  0.1637
    10 C(13)  Bbb     0.0000     0.000     0.000     0.000 -0.4182  0.8249  0.3803
              Bcc     0.0000     0.000     0.000     0.000  0.0113 -0.4139  0.9103
 
              Baa    -0.0000     0.000     0.000     0.000 -0.1874  0.8749 -0.4466
    11 O(17)  Bbb    -0.0000     0.000     0.000     0.000 -0.3283  0.3727  0.8679
              Bcc     0.0000    -0.000    -0.000    -0.000  0.9258  0.3093  0.2174
 
              Baa    -0.0000    -0.000    -0.000    -0.000 -0.4130  0.8806  0.2323
    12 C(13)  Bbb     0.0000     0.000     0.000     0.000 -0.0856 -0.2915  0.9527
              Bcc     0.0000     0.000     0.000     0.000  0.9067  0.3736  0.1957
 
              Baa    -0.0000    -0.000    -0.000    -0.000  0.0861 -0.3515  0.9322
    13 C(13)  Bbb    -0.0000    -0.000    -0.000    -0.000 -0.3126  0.8789  0.3603
              Bcc     0.0000     0.000     0.000     0.000  0.9460  0.3224  0.0342
 
              Baa    -0.0000    -0.000    -0.000    -0.000 -0.2412  0.4154  0.8771
    14 C(13)  Bbb    -0.0000    -0.000    -0.000    -0.000 -0.0855  0.8911 -0.4456
              Bcc     0.0000     0.000     0.000     0.000  0.9667  0.1825  0.1795
 
              Baa    -0.0000    -0.000    -0.000    -0.000  0.9428 -0.3261 -0.0696
    15 S(33)  Bbb     0.0000     0.000     0.000     0.000 -0.0445 -0.3299  0.9430
              Bcc     0.0000     0.000     0.000     0.000  0.3304  0.8859  0.3256
 
              Baa    -0.0000    -0.000    -0.000    -0.000  0.1174  0.3895  0.9135
    16 H(1)   Bbb    -0.0000    -0.000    -0.000    -0.000 -0.5629  0.7839 -0.2619
              Bcc     0.0000     0.000     0.000     0.000  0.8181  0.4835 -0.3112
 
              Baa    -0.0000    -0.000    -0.000    -0.000  0.1080  0.1665  0.9801
    17 H(1)   Bbb     0.0000     0.000     0.000     0.000 -0.6749  0.7361 -0.0507
              Bcc     0.0000     0.000     0.000     0.000  0.7299  0.6560 -0.1918
 
              Baa    -0.0000    -0.000    -0.000    -0.000  0.8306 -0.4189 -0.3669
    18 H(1)   Bbb     0.0000     0.000     0.000     0.000  0.3119  0.8958 -0.3167
              Bcc     0.0000     0.000     0.000     0.000  0.4614  0.1486  0.8747
 
              Baa    -0.0000    -0.000    -0.000    -0.000 -0.2932  0.9515 -0.0937
    19 H(1)   Bbb    -0.0000    -0.000    -0.000    -0.000 -0.6333 -0.1198  0.7646
              Bcc     0.0000     0.000     0.000     0.000  0.7163  0.2835  0.6377
 
              Baa    -0.0000    -0.000    -0.000    -0.000  0.1129 -0.5697  0.8141
    20 H(1)   Bbb    -0.0000    -0.000    -0.000    -0.000 -0.4677  0.6924  0.5494
              Bcc     0.0000     0.000     0.000     0.000  0.8767  0.4427  0.1883
 
              Baa    -0.0000    -0.000    -0.000    -0.000  0.0458  0.3458  0.9372
    21 H(1)   Bbb     0.0000     0.000     0.000     0.000  0.9775  0.1780 -0.1135
              Bcc     0.0000     0.000     0.000     0.000 -0.2061  0.9213 -0.3299
 
              Baa    -0.0000    -0.000    -0.000    -0.000 -0.4306  0.6856  0.5869
    22 H(1)   Bbb     0.0000     0.000     0.000     0.000  0.8734  0.1525  0.4626
              Bcc     0.0000     0.000     0.000     0.000  0.2277  0.7118 -0.6645
 
              Baa    -0.0000    -0.000    -0.000    -0.000 -0.4698  0.8747 -0.1189
    23 H(1)   Bbb    -0.0000    -0.000    -0.000    -0.000  0.8827  0.4646 -0.0699
              Bcc     0.0000     0.000     0.000     0.000  0.0058  0.1378  0.9904
 
              Baa    -0.0000    -0.000    -0.000    -0.000 -0.5441  0.6503  0.5301
    24 H(1)   Bbb     0.0000     0.000     0.000     0.000  0.2083 -0.5073  0.8362
              Bcc     0.0000     0.000     0.000     0.000  0.8127  0.5654  0.1406
 
              Baa    -0.0000    -0.000    -0.000    -0.000 -0.2084 -0.2088  0.9555
    25 H(1)   Bbb    -0.0000    -0.000    -0.000    -0.000  0.7431 -0.6690  0.0159
              Bcc     0.0000     0.000     0.000     0.000  0.6359  0.7134  0.2946
 
              Baa    -0.0000    -0.000    -0.000    -0.000  0.8627  0.4991 -0.0812
    26 H(1)   Bbb    -0.0000    -0.000    -0.000    -0.000  0.2108 -0.2089  0.9550
              Bcc     0.0000     0.000     0.000     0.000 -0.4597  0.8410  0.2854
 

 ---------------------------------------------------------------------------------

 No NMR shielding tensors so no spin-rotation constants.
 Leave Link  601 at Fri Jul 24 22:51:22 2020, MaxMem=  4026531840 cpu:               3.0 elap:               0.4
 (Enter /opt/ohpc/pub/libs/gaussian/g16-A.03/sandybridge/g16/l9999.exe)

 Test job not archived.
 1\1\GINC-SKYLAKE048\FOpt\ULC-wPBE\CC-pVDZ\C11H11N1O2S1\RDU230\24-Jul-2
 020\0\\#P uLC-wPBE/cc-pVDZ iop(3/107=0156700000, 3/108=0156700000) opt
 \\H11 C11 S1 N1 O2\\0,1\C,-3.4786942183,-0.8950084499,0.5584739466\C,-
 2.5895608605,-1.9438554885,0.8006445875\N,-1.2622716885,-1.8367948181,
 0.6288105656\C,-0.7509839363,-0.670786501,0.1868472775\C,-1.5922103556
 ,0.4236067197,-0.1725332733\O,-0.9910625412,1.496391707,-0.7538014658\
 C,-1.8056650144,2.6156843304,-1.0716644804\C,-2.9716550381,0.309398462
 7,0.0533850419\C,0.7118461982,-0.6307182752,0.0291497538\C,1.650305651
 3,0.3724501248,0.2763177211\O,1.267582225,1.588928457,0.7598380923\C,2
 .3040381515,2.5364265637,0.9780548319\C,2.9997386281,-0.0480339784,0.0
 341215814\C,3.0691888706,-1.3640982029,-0.3673608319\S,1.5178585078,-2
 .1099228366,-0.440442287\H,-4.5550984772,-1.0153516885,0.7412990167\H,
 -2.9516562925,-2.920514999,1.1588468465\H,-2.2907451776,3.0420956042,-
 0.1670327487\H,-2.5906491357,2.3592257321,-1.8162197024\H,-1.126299075
 4,3.3686275969,-1.507751917\H,-3.6514656395,1.1369649234,-0.1835437111
 \H,2.8449888362,2.7825088401,0.0383775374\H,3.0375465298,2.1816183722,
 1.7345767628\H,1.8089728771,3.4476665534,1.3581716792\H,3.8830160335,0
 .5862531928,0.1628957859\H,3.9674369417,-1.9385639421,-0.6148776106\\V
 ersion=EM64L-G16RevA.03\State=1-A\HF=-1028.4475348\S2=0.\S2-1=0.\S2A=0
 .\RMSD=7.129e-09\RMSF=1.333e-05\Dipole=-0.0883022,1.4686512,-0.1989062
 \Quadrupole=7.2828568,0.418556,-7.7014128,-0.4201843,1.0680781,0.07721
 01\PG=C01 [X(C11H11N1O2S1)]\\@


 REALITY IS FOR PEOPLE WHO CAN'T FACE SCIENCE FICTION.
 Job cpu time:       0 days  3 hours 13 minutes 42.0 seconds.
 Elapsed time:       0 days  0 hours 24 minutes 33.5 seconds.
 File lengths (MBytes):  RWF=    140 Int=      0 D2E=      0 Chk=     12 Scr=      8
 Normal termination of Gaussian 16 at Fri Jul 24 22:51:22 2020.
